<VTKFile type="UnstructuredGrid" version="0.1" byte_order="LittleEndian">
	<UnstructuredGrid>
		<Piece NumberOfPoints="1917" NumberOfCells="56">
			<CellData Scalars="scalars">
				<DataArray type="Float64" Name="Doublet Strengths" NumberOfComponents="1" Format="ascii">
-1.32121	
-5.14018	
-3.8835	
-3.66815	
-4.76485	
-4.88423	
-5.09223	
-4.82781	
-3.59757	
-3.58115	
-2.13043	
-5.35249	
-3.93901	
-5.20745	
-3.49641	
-4.0407	
-4.99134	
-4.58327	
-4.554	
-4.52385	
-4.98417	
-4.86575	
-4.4445	
-4.88683	
-6.81507	
-4.51721	
-3.01177	
-3.74414	
-6.81731	
-4.0662	
-4.57829	
-4.98719	
-4.39542	
-3.75812	
-2.02685	
-5.31777	
-4.01362	
-4.44907	
-4.80301	
-3.63321	
-4.07707	
-4.82306	
-4.96491	
-4.40513	
-4.50288	
-5.07672	
-4.86039	
-4.43628	
-3.80912	
-4.45495	
-4.66904	
-1.29841	
-3.31002	
-3.86551	
-4.63666	
-2.53816	
				</DataArray>
				<DataArray type="Float64" Name="Velocity Potential" NumberOfComponents="1" Format="ascii">
-56.6336	
-89.785	
-91.3977	
-91.6779	
-90.6221	
-90.1633	
-90.2193	
-90.507	
-91.6578	
-91.6821	
-93.307	
-89.3577	
-91.256	
-90.1259	
-91.7422	
-91.0522	
-90.0114	
-90.7682	
-90.8813	
-90.4652	
-89.9094	
-90.5082	
-90.5628	
-90.2828	
-87.7205	
-90.9148	
-92.4162	
-91.523	
-87.9224	
-91.0795	
-90.9967	
-90.5567	
-91.2038	
-91.5047	
-93.6635	
-89.8414	
-91.2114	
-91.154	
-90.6259	
-91.4674	
-91.069	
-90.241	
-90.3567	
-91.0609	
-90.367	
-89.793	
-90.0722	
-91.1215	
-91.2687	
-90.553	
-90.5692	
-57.0235	
-92.1979	
-91.3551	
-90.7383	
-93.1364	
				</DataArray>
			</CellData>
			<Points>
				<DataArray type="Float64" Name="Position" NumberOfComponents="3" Format="ascii">
-3.55594	0	-0.392846	
-2.89226	0.0524256	-0.33656	
-4.76367	0	-0.50426	
-3.70199	2	-0.395651	
-3.73322	1.93467	-0.39652	
-4.41487	2	-0.453835	
-3.62892	0	-0.393986	
-3.59351	0.0610502	-0.393368	
-3.73774	0.0745738	-0.396654	
-3.70199	0	-0.395651	
-3.77447	0	-0.397806	
-3.8474	0	-0.400423	
-3.92009	0	-0.40337	
-3.87872	0.0639395	-0.40166	
-3.79481	1.39584	-0.36068	
-4.42085	1.3266	-0.418529	
-4.48285	1.35721	-0.392202	
-4.76367	1.92786	-0.50426	
-2.89313	1.94512	-0.336569	
-5.12326	0.0721374	-0.448231	
-4.41888	0.0533506	-0.418726	
-3.84245	0	-0.336173	
-5.12326	0.215036	-0.448231	
-5.67382	0.171582	-0.53254	
-3.84245	0.143615	-0.336173	
-3.84245	0.286611	-0.336173	
-5.12326	0.358269	-0.448231	
-4.43267	0.326064	-0.417086	
-4.43046	0.252841	-0.417393	
-4.48285	0.714404	-0.392202	
-4.48285	0.786116	-0.392202	
-5.06381	0.754574	-0.474285	
-3.92009	2	-0.40337	
-3.8474	2	-0.400423	
-5.16533	1.91204	-0.513952	
-3.93533	1.66657	-0.404016	
-4.50577	1.60722	-0.457154	
-3.74598	0.446925	-0.396902	
-3.69304	0.397747	-0.395419	
-5.04805	0.354616	-0.509628	
-3.48285	2	-0.392202	
-4.48285	1.42879	-0.392202	
-3.20204	2	-0.280144	
-3.78291	2	-0.362237	
-5.12326	1.92786	-0.448231	
-3.62892	2	-0.393986	
-2.91554	2	-0.336817	
-3.59384	1.93956	-0.393373	
-3.3197	1.94176	-0.349049	
-5.31422	1.9167	-0.520269	
-3.99248	2	-0.406472	
-4.48285	1.21388	-0.392202	
-3.79078	1.19029	-0.361265	
-4.48285	1.14216	-0.392202	
-4.48285	1.2856	-0.392202	
-4.42115	1.25405	-0.418498	
-5.12326	1.78496	-0.448231	
-4.48285	1.85639	-0.392202	
-3.15815	1.82617	-0.304041	
-3.78349	0.114671	-0.362173	
-5.05002	1.46922	-0.475548	
-5.0045	1.38862	-0.477197	
-3.67765	0.824164	-0.395038	
-4.29516	0.897364	-0.450543	
-3.59986	0.840188	-0.39347	
-4.3255	1.46561	-0.420838	
-4.12326	1	-0.448231	
-4.82381	0.999321	-0.504754	
-4.76367	1.07055	-0.50426	
-3.94416	1.60348	-0.404393	
-3.57538	0.356544	-0.393099	
-2.99928	0.353408	-0.338169	
-3.61979	0.427857	-0.393815	
-4.55577	1.82506	-0.4592	
-4.55946	1.7382	-0.459355	
-3.33578	1.77788	-0.349741	
-3.99762	1.71777	-0.406693	
-4.04552	1.78088	-0.408715	
-4.71931	1.70728	-0.466081	
-4.75936	1.79378	-0.467751	
-3.89882	1.54291	-0.402481	
-3.83658	1.8351	-0.40001	
-4.8776	1.45384	-0.473523	
-4.20266	1.53294	-0.41579	
-4.15518	1.49429	-0.413423	
-4.83604	1.28284	-0.471466	
-5.38476	1.30815	-0.523123	
-4.13295	1.23305	-0.412362	
-5.57136	1.05577	-0.531857	
-4.32902	0.974397	-0.420911	
-3.7289	1.02275	-0.365089	
-4.05641	0.65903	-0.40916	
-4.68294	0.738857	-0.46462	
-3.98937	0.685529	-0.406338	
-4.65824	1.33866	-0.463584	
-4.66792	1.25226	-0.463993	
-4.76367	1.42879	-0.50426	
-4.20836	1.46516	-0.449027	
-4.76367	1.49933	-0.50426	
-3.57032	0.918262	-0.39303	
-5.02933	0.881052	-0.509037	
-3.83345	0.891355	-0.399892	
-3.81992	0.954992	-0.39939	
-3.44127	0.867158	-0.35413	
-4.13024	0.817822	-0.412236	
-4.78839	0.888323	-0.469103	
-4.29872	0.589259	-0.450621	
-4.38105	0.618435	-0.452769	
-4.31576	0.676586	-0.451012	
-4.28132	0	-0.419449	
-4.35262	0	-0.421189	
-4.98387	0.0790961	-0.477156	
-3.96281	1.27156	-0.405194	
-3.95239	1.20368	-0.404746	
-4.00308	0.496767	-0.406926	
-4.03978	0.442032	-0.408477	
-4.72493	0.502871	-0.466299	
-4.76063	0.698424	-0.467808	
-3.88749	1.23016	-0.402016	
-3.83813	1.27217	-0.400069	
-4.44961	1.19537	-0.455031	
-3.26632	1.2898	-0.346781	
-3.47738	1.02577	-0.355641	
-4.78265	0.967174	-0.468828	
-4.1962	1.0342	-0.415465	
-5.24649	1.00672	-0.517375	
-4.00246	0.93866	-0.4069	
-4.05403	0.987296	-0.409063	
-4.50125	0.378981	-0.456976	
-3.92168	0.426844	-0.403437	
-4.50919	0.470462	-0.45729	
-5.04113	1.87857	-0.476128	
-5.02689	1.79633	-0.476761	
-4.3212	1.84585	-0.420741	
-4.11092	0.270573	-0.411367	
-3.45581	0.200611	-0.354713	
-4.80388	0.193571	-0.469858	
-4.74217	0.123897	-0.467002	
-4.04537	0.249496	-0.408708	
-4.03626	0.173576	-0.408331	
-4.99451	1.20923	-0.477222	
-4.32399	1.13932	-0.420805	
-4.40861	1.13751	-0.419593	
-4.16119	0.531427	-0.413717	
-4.16209	0.463982	-0.413761	
-4.10526	0.427199	-0.411122	
-4.17197	0.382421	-0.414251	
-3.71805	0.742778	-0.365164	
-5.00466	0.813881	-0.477196	
-4.72735	0.580015	-0.466394	
-4.16597	1.7199	-0.413953	
-4.81961	0.757182	-0.470641	
-3.55322	0.698895	-0.359307	
-4.25278	0.732194	-0.418225	
-4.2331	0.893597	-0.417297	
-4.20013	0.830458	-0.415663	
-4.9233	0.834567	-0.475539	
-4.35032	1.53139	-0.42118	
-4.29775	1.59044	-0.420055	
-4.2734	1.5207	-0.419128	
-4.46922	1.10613	-0.455748	
-3.75877	1.13654	-0.397299	
-4.96477	0.567577	-0.476842	
-5.0319	0.624293	-0.476575	
-4.31855	0.641057	-0.420676	
-4.25021	0.667946	-0.418107	
-4.2501	0.607392	-0.418102	
-4.88244	0.97644	-0.473754	
-4.42332	0	-0.418266	
-3.91586	1.40806	-0.403192	
-3.94854	1.34451	-0.40458	
-3.98212	1.41675	-0.406026	
-3.94304	1.48085	-0.404345	
-4.68868	1.43176	-0.464857	
-4.00771	1.49613	-0.407125	
-4.0737	0.925911	-0.409849	
-4.24074	1.74077	-0.417663	
-5.52231	1.66215	-0.529757	
-3.66537	1.70694	-0.364287	
-4.76367	1.71339	-0.50426	
-4.83412	1.77904	-0.504872	
-4.76367	1.78496	-0.50426	
-4.28132	2	-0.419449	
-4.96432	1.92525	-0.476832	
-4.35262	2	-0.421189	
-4.11374	0.350099	-0.41149	
-4.05002	0.315549	-0.4089	
-3.80983	1.02327	-0.399025	
-4.51982	1.02942	-0.457717	
-3.80489	0.0746863	-0.398848	
-3.8396	0.130322	-0.400125	
-4.40581	0.159825	-0.45354	
-4.41819	0.255296	-0.453945	
-3.18048	0.198868	-0.343397	
-3.88297	0.185075	-0.401832	
-4.37097	0.53229	-0.452472	
-6.04449	0.358269	-0.616317	
-4.12326	0.286611	-0.448231	
-3.54504	0.283499	-0.392719	
-4.76367	0.143615	-0.50426	
-4.20104	0.19815	-0.448932	
-4.76367	0.215036	-0.50426	
-4.90844	0.268711	-0.506019	
-4.63288	0	-0.4625	
-3.42485	0	-0.353487	
-4.07209	0.0522709	-0.409786	
-3.09435	0.233077	-0.308968	
-5.00165	0.293965	-0.477214	
-4.71531	1.52249	-0.465925	
-4.0734	1.6164	-0.409837	
-4.01378	1.57352	-0.407383	
-4.00931	1.65009	-0.407193	
-4.37094	1.59898	-0.421096	
-4.20981	0	-0.416148	
-4.15522	0.0589648	-0.413425	
-4.13718	0	-0.41256	
-3.65526	1.47391	-0.394525	
-4.3784	1.46129	-0.45269	
-4.35592	1.53681	-0.452045	
-4.81696	0.286849	-0.470508	
-3.7963	0.724627	-0.398546	
-3.16607	0.784216	-0.342876	
-4.38546	0.788387	-0.452903	
-4.95149	0.223399	-0.476503	
-3.6566	1.34531	-0.364001	
-3.65186	1.40661	-0.363834	
-4.87063	1.36487	-0.473186	
-4.26505	1.29047	-0.418773	
-3.63818	0.414541	-0.363311	
-4.22586	0.434011	-0.416944	
-4.87549	0.349215	-0.473422	
-4.34145	0.422964	-0.421106	
-4.93224	0.489015	-0.475876	
-4.36376	0.488653	-0.421171	
-2.80255	1.24582	-0.298167	
-4.06932	1.18695	-0.409677	
-3.59807	1.58611	-0.361527	
-3.1696	0.42229	-0.343002	
-3.19178	0.312816	-0.343816	
-4.55306	0.310713	-0.459086	
-3.86205	0.255176	-0.400995	
-3.9279	0.23291	-0.4037	
-5.53968	1.20734	-0.530559	
-4.12836	1.1572	-0.412149	
-4.1976	1.15129	-0.415536	
-3.54594	1.2101	-0.358941	
-4.77803	1.08885	-0.46861	
-3.741	1.61914	-0.396751	
-3.75984	1.69424	-0.397333	
-4.32165	1.67616	-0.451154	
-3.80873	1.64844	-0.398985	
-3.83713	1.72086	-0.400031	
-4.18217	0.644913	-0.41476	
-3.61012	1.94629	-0.362093	
-4.81895	1.93331	-0.470607	
-4.25196	1.88539	-0.418188	
-4.304	0.0804625	-0.450739	
-2.96355	0.127785	-0.337509	
-2.97479	1.88257	-0.337703	
-4.30707	1.92762	-0.450809	
-3.70249	0.21589	-0.395664	
-3.60275	0.273142	-0.361749	
-4.23627	0.209198	-0.41745	
-3.59139	0.143339	-0.361205	
-4.30243	0.145092	-0.42021	
-3.53892	0.115792	-0.358589	
-4.17909	1.85807	-0.414606	
-4.11335	1.88373	-0.411473	
-3.46319	1.94611	-0.355022	
-3.42485	2	-0.353487	
-4.13718	2	-0.41256	
-3.79312	0.682902	-0.360933	
-5.12326	0.64279	-0.448231	
-3.31969	1.88295	-0.349048	
-3.838	1.53147	-0.400064	
-3.81557	1.46174	-0.399232	
-3.88004	1.47178	-0.401713	
-4.38245	1.08229	-0.420856	
-3.05083	0.329519	-0.339344	
-4.1858	0.43708	-0.448752	
-4.12326	0.429861	-0.448231	
-3.23256	1.67699	-0.3454	
-3.79066	1.57544	-0.398352	
-3.54597	1.60691	-0.358943	
-4.14465	1.65508	-0.412915	
-4.24573	1.81461	-0.417899	
-3.54454	1.78507	-0.358871	
-3.04964	0.749751	-0.339314	
-3.7399	0.701087	-0.396718	
-4.26027	0.758919	-0.449845	
-4.48285	0.429861	-0.392202	
-5.05713	0.409639	-0.474959	
-4.31388	1.77163	-0.420553	
-5.0239	1.71936	-0.476855	
-4.317	1.1716	-0.451042	
-3.70939	1.09553	-0.395849	
-4.42255	1.76477	-0.454091	
-3.21893	1.7791	-0.344859	
-3.98285	0.277236	-0.406057	
-4.59848	0.151691	-0.461019	
-3.42417	1.84554	-0.353459	
-3.99837	1.83711	-0.406725	
-3.87888	1.33945	-0.401666	
-3.84991	1.40104	-0.40052	
-3.65173	0.297567	-0.363829	
-4.31153	0.357474	-0.420488	
-3.46792	0.760525	-0.355225	
-4.05864	0.810302	-0.40925	
-3.96667	0.749841	-0.40536	
-3.90165	0.751361	-0.402599	
-3.92393	0.686344	-0.403532	
-3.99333	0.810027	-0.406508	
-3.92801	0.81571	-0.403705	
-5.40408	1.64173	-0.560289	
-3.54851	1.65788	-0.392758	
-5.12326	1	-0.448231	
-5.12326	1.07055	-0.448231	
-3.79381	1.0308	-0.360831	
-2.90721	1.5272	-0.336719	
-4.76367	1.57014	-0.50426	
-3.26286	0.121062	-0.346637	
-3.94988	0.068568	-0.404638	
-4.01737	0.0968802	-0.407536	
-4.76367	1.85639	-0.50426	
-4.18997	1.8723	-0.448799	
-4.76367	0.0721374	-0.50426	
-3.54309	0.116381	-0.392698	
-4.0491	0.378957	-0.408862	
-4.76367	1.2856	-0.50426	
-3.54862	1.33655	-0.392759	
-4.76367	1.35721	-0.50426	
-3.29737	1.07097	-0.348091	
-3.94427	1.13809	-0.404397	
-3.24999	1.10545	-0.346106	
-3.99736	1.08867	-0.406681	
-3.95862	0.876824	-0.405014	
-3.89696	0.882801	-0.402404	
-4.5036	0.819303	-0.457068	
-4.1166	1.38959	-0.411617	
-3.46975	1.45442	-0.355305	
-4.17537	1.41914	-0.41442	
-3.34623	0.213959	-0.350191	
-3.94461	0.621411	-0.404412	
-3.90678	0.549577	-0.402812	
-3.96819	0.556476	-0.405425	
-3.93592	0.491713	-0.404041	
-4.88916	0.0712931	-0.474069	
-3.87661	1.1672	-0.401575	
-4.13206	1.57159	-0.412321	
-3.67643	0.47164	-0.395009	
-3.78976	0.476615	-0.361404	
-5.04575	0.546631	-0.475847	
-4.12326	0.500665	-0.448231	
-3.54283	0.802839	-0.392695	
-2.97767	0.646217	-0.337755	
-2.95549	0.69766	-0.337377	
-3.59599	1.17495	-0.393407	
-4.18874	1.0996	-0.448785	
-4.27316	1.1007	-0.450089	
-4.38132	1.32398	-0.452778	
-3.03195	1.29855	-0.338883	
-3.70217	1.24767	-0.395655	
-3.88479	0.61668	-0.401906	
-3.84765	0.546139	-0.400433	
-3.14856	0.561624	-0.342265	
-3.80085	0.491616	-0.398705	
-3.03831	1.0418	-0.339035	
-3.73936	1.02609	-0.396702	
-4.32072	0.976287	-0.451131	
-3.75645	0.965074	-0.397226	
-3.88893	0.954567	-0.402075	
-3.61644	1.62515	-0.393754	
-3.03739	1.59965	-0.339013	
-3.73559	0.360303	-0.364981	
-3.55303	1.5889	-0.392811	
-3.81058	1.33334	-0.399052	
-3.78425	1.39903	-0.398133	
-3.77183	1.2624	-0.39772	
-4.49974	0.683934	-0.456916	
-4.41464	0.967445	-0.419115	
-5.67722	0.89983	-0.532384	
-4.30116	0.914042	-0.420169	
-4.051	1.0505	-0.40894	
-3.62064	1.13415	-0.362569	
-3.57704	1.09375	-0.3605	
-3.31867	1.5431	-0.349004	
-4.30907	0.770923	-0.420416	
-3.6028	0.785107	-0.361751	
-3.52546	1.34839	-0.357919	
-4.99019	1.29694	-0.477206	
-4.33262	1.65281	-0.420977	
-4.19483	1.25411	-0.448856	
-3.61264	1.32162	-0.393686	
-3.47866	0.633745	-0.355699	
-4.17319	0.587288	-0.414311	
-4.37387	0.6882	-0.42105	
-4.01978	0.873522	-0.407638	
-2.78918	1.36753	-0.297646	
-4.20981	2	-0.416148	
-3.10098	1.1987	-0.340734	
-3.98619	0.394274	-0.406201	
-3.98552	0.336713	-0.406172	
-4.30758	0.702848	-0.420371	
-4.48285	0.929454	-0.392202	
-4.48285	0.857842	-0.392202	
-3.75779	1.94387	-0.364207	
-4.00748	1.16572	-0.407115	
-4.06422	1.11814	-0.409474	
-4.34119	1.79696	-0.451648	
-3.06862	1.73661	-0.33981	
-3.28977	0.370041	-0.347768	
-3.33806	0.446178	-0.34984	
-3.30224	0.936014	-0.348299	
-2.30367	1.0523	-0.281173	
-3.62247	1.01699	-0.393864	
-4.48285	1.49933	-0.392202	
-4.20645	0.586375	-0.449002	
-4.24297	0.509874	-0.449543	
-4.42128	1.54624	-0.418484	
-3.1562	0.664255	-0.342528	
-3.20734	0.750955	-0.344408	
-3.15938	0.837223	-0.342639	
-4.76367	1.21388	-0.50426	
-2.89374	1.17543	-0.336575	
-4.76367	0.929454	-0.50426	
-2.8946	0.873321	-0.336584	
-5.40408	0.857842	-0.560289	
-3.53939	0.725606	-0.392658	
-4.76367	0.786116	-0.50426	
-4.76367	0.714404	-0.50426	
-3.55541	0.653203	-0.392839	
-4.76367	0.64279	-0.50426	
-5.40408	0.571209	-0.560289	
-4.76367	1.14216	-0.50426	
-2.97372	0.957788	-0.337684	
-2.42883	0.930031	-0.283798	
-3.82367	0.613315	-0.399528	
-3.79845	1.6049	-0.360089	
-3.38811	0.552048	-0.351978	
-4.00808	0.616488	-0.40714	
-4.26533	1.54065	-0.449939	
-3.64191	0.177963	-0.394243	
-3.62861	1.24487	-0.39398	
-4.25505	1.39957	-0.449751	
-3.06325	0.139289	-0.339666	
-3.60585	1.69928	-0.393569	
-3.63888	1.75272	-0.394182	
-3.67734	1.35868	-0.395031	
-3.0897	1.39206	-0.340401	
-3.04321	1.42097	-0.339154	
-3.6164	1.81911	-0.393753	
-4.41623	1.6612	-0.418975	
-4.48285	1.71339	-0.392202	
-3.58231	0.496577	-0.360761	
-4.24651	0.549039	-0.417935	
-3.02552	1.85508	-0.338735	
-2.89628	0.520218	-0.336601	
-2.38513	0.528047	-0.282706	
-4.48285	1.57014	-0.392202	
-5.12326	0.500665	-0.448231	
-2.90968	0.932053	-0.303121	
-3.13474	1.07414	-0.3418	
-3.13819	1.51028	-0.341914	
-5.12326	1.64173	-0.448231	
-3.07446	0.282674	-0.339969	
-4.48285	0.571209	-0.392202	
-3.15745	0.59575	-0.30416	
-2.26756	1.71321	-0.280699	
-4.4371	1.88726	-0.454589	
-3.78625	0.827624	-0.361851	
-3.12494	1.82622	-0.34148	
-2.90543	1.40032	-0.336699	
-3.72087	1.87065	-0.396165	
-3.05489	0.866054	-0.30897	
-3.02206	1.24863	-0.308167	
-3.1836	1.94589	-0.343512	
-3.155	1.75284	-0.304558	
-2.50138	1.94185	-0.286006	
-4.44658	0.611259	-0.351702	
-5.06692	0.691022	-0.398056	
-3.80316	0.951279	-0.294075	
-5.07309	0.885946	-0.400809	
-3.97137	0	-0.301431	
-3.90302	0	-0.308632	
-4.58264	0.0792566	-0.360288	
-4.83371	0	-0.485774	
-2.95025	0.0639973	-0.308494	
-3.62235	0	-0.357216	
-3.536	0.0936441	-0.378003	
-3.83188	0	-0.318147	
-3.76131	0	-0.329501	
-3.80441	0.0798839	-0.322344	
-3.81414	0.821071	-0.300239	
-4.4454	1.45488	-0.351069	
-4.44846	1.89867	-0.352731	
-3.33096	2	-0.245402	
-4.04299	2	-0.296097	
-4.66122	1.91895	-0.353523	
-2.95369	1.93754	-0.307683	
-3.5411	1.90585	-0.376696	
-3.55289	2	-0.373717	
-3.62235	2	-0.357216	
-3.90302	2	-0.308632	
-3.86733	1.92228	-0.313157	
-3.83188	2	-0.318147	
-4.07959	1.85759	-0.294324	
-4.64553	1.82278	-0.354651	
-4.44042	0.600657	-0.379072	
-3.74493	0.663037	-0.332403	
-4.4527	0.68441	-0.37714	
-3.53766	0.939959	-0.377578	
-3.54672	1.33496	-0.375269	
-4.631	1.68417	-0.355797	
-3.3802	1.74973	-0.241478	
-5.36783	1.71007	-0.406111	
-3.79745	1.02684	-0.323454	
-4.4483	0.943151	-0.377826	
-3.74226	0.965528	-0.332884	
-3.57317	0.553448	-0.368715	
-3.53022	0.495631	-0.379493	
-4.23262	1.36962	-0.298129	
-5.44515	1.42353	-0.405952	
-4.24318	1.43872	-0.299189	
-4.98925	1.02505	-0.373015	
-4.28271	0.965827	-0.304225	
-4.89627	1.04082	-0.356647	
-4.83514	1.21008	-0.351268	
-5.56431	1.26463	-0.416401	
-4.27749	1.19252	-0.303459	
-3.78627	1.8275	-0.325273	
-4.43898	1.91186	-0.379302	
-4.49409	1.83465	-0.371048	
-4.55774	1.04863	-0.362991	
-3.85679	1.0111	-0.314589	
-4.48066	1.09426	-0.372953	
-3.26883	1.10778	-0.251868	
-4.63053	1.09436	-0.355835	
-4.02606	0.92332	-0.297142	
-4.06426	0.983948	-0.294985	
-5.38801	0.912712	-0.405596	
-3.41064	1.65028	-0.23962	
-3.46444	1.64109	-0.237552	
-4.69756	1.58611	-0.35136	
-3.55308	0.621253	-0.373671	
-2.97914	0.607584	-0.301817	
-4.29969	0.544593	-0.405193	
-4.32036	0.626188	-0.400903	
-4.55562	0.883867	-0.363233	
-3.87416	0.814004	-0.312251	
-3.84984	0.883506	-0.315558	
-3.22801	0.94284	-0.256982	
-3.17492	0.823889	-0.264613	
-3.78069	0.86549	-0.326198	
-4.2261	0.577518	-0.297532	
-4.86401	0.659851	-0.353343	
-4.28782	0.634606	-0.305005	
-4.2951	0.0913029	-0.406166	
-3.58348	0.141129	-0.366231	
-4.00961	1.15841	-0.298288	
-5.37723	1.18235	-0.405831	
-3.41966	1.11752	-0.239157	
-5.00793	0.938839	-0.377818	
-3.77698	0.99711	-0.282212	
-4.0428	0.516229	-0.296108	
-4.71153	0.597248	-0.350703	
-4.11718	0.53029	-0.293404	
-4.53336	1.25683	-0.365886	
-4.51332	1.17353	-0.368444	
-3.82443	1.22905	-0.319256	
-5.02895	1.10599	-0.38402	
-4.43244	1.05145	-0.344669	
-4.38925	1.1866	-0.328216	
-4.4423	1.17077	-0.349444	
-5.09046	1.39834	-0.433581	
-3.17363	1.4857	-0.264813	
-3.87423	1.4682	-0.312243	
-4.84746	0.907417	-0.352056	
-4.15409	0.841878	-0.293627	
-5.68454	0.492781	-0.445153	
-3.70668	0.543817	-0.260538	
-4.396	0.570722	-0.330426	
-4.17409	1.72433	-0.294235	
-4.13001	1.78876	-0.293352	
-4.04435	0.853718	-0.29602	
-3.95731	0.389993	-0.30275	
-3.32433	0.316743	-0.246013	
-3.90312	0.343184	-0.308621	
-4.07773	0.780432	-0.294398	
-3.45628	0.84375	-0.237737	
-4.14779	0.770799	-0.293507	
-3.99293	0.577671	-0.299577	
-4.19787	1.02428	-0.428605	
-4.3999	0.237428	-0.385848	
-3.77533	0.153222	-0.327098	
-3.70773	0.163431	-0.339355	
-4.49096	0.159631	-0.371486	
-4.19723	1.80219	-0.295387	
-3.58674	1.86234	-0.241596	
-4.27612	1.80354	-0.303262	
-4.10528	0.329138	-0.293573	
-4.82037	0.30982	-0.35051	
-4.76826	0.244444	-0.34938	
-4.1374	0.391669	-0.293384	
-3.0965	1.03303	-0.277829	
-4.10569	0.717798	-0.293565	
-4.02406	0.718603	-0.297274	
-3.42157	0.665477	-0.239064	
-4.13708	0.658642	-0.293382	
-3.32277	1.87015	-0.24616	
-3.92752	1.80864	-0.305825	
-3.42781	1.78424	-0.238774	
-3.9551	1.74797	-0.302965	
-4.20258	0.386445	-0.295724	
-4.23262	0.441074	-0.298129	
-4.27195	0.365688	-0.302681	
-4.04386	1.25637	-0.296048	
-4.1187	1.24657	-0.293391	
-4.06671	1.3122	-0.294871	
-3.49182	1.30199	-0.237328	
-4.19222	1.27096	-0.295096	
-3.91779	0.276367	-0.30691	
-5.11736	0.292881	-0.42952	
-3.2315	0.234809	-0.256519	
-3.17558	0.216682	-0.264511	
-4.29444	0.891352	-0.306065	
-4.09379	1.48059	-0.293844	
-4.01794	1.4429	-0.297692	
-4.65665	1.51083	-0.353839	
-3.94655	1.45569	-0.303817	
-4.1063	1.36546	-0.293554	
-4.17677	1.34038	-0.294344	
-3.84232	1.70558	-0.316626	
-3.8573	1.63351	-0.314518	
-3.78535	1.65739	-0.325425	
-3.70617	0.837679	-0.339658	
-3.75045	0.792044	-0.331414	
-3.7627	1.09876	-0.32926	
-4.43293	1.30603	-0.380278	
-3.10544	1.35315	-0.276209	
-4.79911	0.166399	-0.349765	
-4.0769	0.169498	-0.294432	
-4.35098	1.40455	-0.394835	
-4.51647	0.41495	-0.368032	
-4.56903	0.474418	-0.361734	
-4.80408	1.05334	-0.349903	
-4.20458	0.984567	-0.295857	
-4.16801	1.13834	-0.294013	
-3.80278	0.452043	-0.322602	
-4.44035	0.374434	-0.379083	
-3.10361	0.42015	-0.276539	
-4.36344	0.484457	-0.392463	
-4.32061	0	-0.310798	
-4.33725	0.0667918	-0.314298	
-4.385	0	-0.326878	
-4.32061	2	-0.310798	
-3.64867	1.94291	-0.249174	
-3.60975	2	-0.243925	
-4.35819	0.853126	-0.319314	
-4.385	2	-0.326878	
-4.99203	1.92333	-0.373691	
-3.33998	0.506745	-0.244601	
-3.92736	0.56183	-0.305843	
-3.93512	0.636864	-0.305005	
-3.86603	0.546278	-0.31333	
-3.86676	0.617676	-0.313233	
-4.90845	0.078087	-0.358182	
-4.86853	1.56345	-0.353742	
-3.63977	1.62497	-0.247821	
-4.31228	1.57191	-0.309194	
-5.01063	0.153301	-0.378563	
-5.01487	0.252546	-0.379763	
-3.78527	0.211952	-0.28564	
-3.99847	0.650538	-0.299135	
-4.5882	0.718414	-0.35972	
-3.93705	0.798942	-0.3048	
-4.0041	0.786413	-0.298699	
-3.24214	0.678765	-0.255136	
-3.8768	0.741319	-0.311907	
-5.07344	1.80752	-0.400973	
-4.38429	1.74768	-0.32666	
-4.99572	1.83308	-0.374608	
-3.94463	1.20637	-0.304013	
-4.3003	1.92648	-0.405064	
-4.24462	1.86025	-0.417382	
-4.40397	0.344499	-0.333185	
-4.42989	0.410465	-0.343512	
-4.90539	0.282592	-0.35778	
-4.97521	0.338159	-0.369788	
-4.63206	0.251286	-0.35571	
-3.40787	0.217721	-0.239771	
-4.62499	0.164212	-0.356299	
-4.20072	0.230355	-0.427899	
-4.75626	1.93673	-0.349446	
-4.37269	1.26103	-0.323229	
-4.43629	1.24459	-0.346475	
-4.3577	1.32491	-0.319187	
-5.06873	1.31978	-0.398848	
-4.93082	0.804788	-0.361443	
-5.00264	0.759874	-0.376394	
-4.29945	0.714139	-0.306902	
-3.92578	0.206449	-0.306017	
-3.2698	0.138218	-0.251755	
-3.60611	1.72394	-0.360914	
-3.57111	1.78328	-0.369216	
-4.29056	1.79352	-0.407136	
-4.00368	1.03613	-0.298732	
-4.71722	1.05319	-0.350464	
-4.12756	0.992616	-0.293352	
-3.47708	1.10914	-0.237372	
-4.94008	0.204267	-0.362969	
-4.21117	0.22975	-0.296322	
-3.97974	0.863551	-0.300686	
-3.96169	0.938032	-0.30233	
-3.68713	1.76807	-0.256179	
-4.95684	1.69808	-0.366011	
-4.24463	1.73846	-0.299344	
-4.3016	0.425321	-0.307272	
-4.25765	0.500006	-0.300833	
-4.16118	0.456585	-0.293802	
-4.18869	0.51622	-0.294905	
-3.68282	0.232607	-0.344292	
-3.85686	1.33248	-0.31458	
-3.9324	1.52656	-0.305295	
-4.49794	1.55451	-0.370517	
-4.57403	1.60907	-0.361194	
-3.10175	0.903738	-0.276875	
-4.30892	0.902651	-0.403258	
-4.18259	0	-0.294601	
-4.11138	0	-0.293472	
-4.13397	0.051764	-0.293364	
-4.04299	0	-0.296097	
-4.06425	0.0537652	-0.294985	
-3.96101	1.3862	-0.302394	
-3.8903	1.3946	-0.310187	
-3.96687	1.26486	-0.301843	
-3.37493	1.21166	-0.241845	
-3.924	1.32507	-0.306213	
-3.99497	1.32038	-0.299412	
-3.76558	0.814456	-0.277879	
-3.73059	1.88165	-0.335023	
-4.1584	0.594595	-0.293728	
-3.81392	1.38879	-0.300109	
-4.40462	1.39048	-0.333415	
-4.31233	0.75837	-0.402552	
-3.62851	0.821275	-0.355838	
-4.43717	0.75743	-0.346898	
-4.36009	1.60921	-0.393094	
-3.71943	1.68446	-0.337113	
-3.07238	1.75212	-0.28235	
-4.41529	1.73879	-0.383202	
-4.27615	1.59941	-0.410268	
-3.65079	1.66432	-0.350971	
-4.85733	1.93182	-0.352791	
-4.29175	1.87756	-0.305628	
-4.44541	0.146224	-0.351074	
-3.81149	1.10891	-0.298658	
-3.80565	0.544978	-0.29539	
-4.31216	1.32361	-0.402587	
-3.72988	0.0813768	-0.335154	
-3.69248	0	-0.34235	
-3.69323	1.21454	-0.257477	
-4.33335	1.14931	-0.313443	
-4.15624	1.87232	-0.293675	
-3.63307	1.24379	-0.354828	
-3.59491	1.29411	-0.363521	
-3.69909	1.24385	-0.341042	
-3.79708	1.16415	-0.323513	
-4.94929	0.398041	-0.459294	
-4.1972	1.20048	-0.428771	
-3.54607	1.11243	-0.375435	
-3.7326	0.560548	-0.334651	
-3.79736	0.523541	-0.323468	
-4.86644	1.65544	-0.353555	
-4.09469	0.109422	-0.293819	
-3.26497	1.86761	-0.252323	
-3.93879	1.9304	-0.304617	
-3.60584	0.741046	-0.243491	
-4.35622	0.676971	-0.318809	
-3.04576	0.693471	-0.287585	
-3.74517	0.726744	-0.33236	
-3.81214	0.760134	-0.321135	
-2.45815	0.61385	-0.221426	
-2.8889	0.170423	-0.323703	
-3.58772	1.15632	-0.241684	
-3.57505	1.09603	-0.240618	
-4.27294	1.1197	-0.302817	
-3.0313	1.85832	-0.290538	
-3.72495	1.8111	-0.336074	
-4.38461	1.45652	-0.32676	
-4.34508	1.39372	-0.316091	
-3.08864	1.94352	-0.27928	
-3.76131	2	-0.329501	
-4.20883	0.79232	-0.296152	
-3.59323	0.850283	-0.242198	
-4.18439	0.718066	-0.294688	
-3.63439	0.180772	-0.354535	
-4.15874	1.51591	-0.293737	
-4.79208	1.59438	-0.349606	
-3.57038	1.48768	-0.240265	
-4.27757	1.50665	-0.303471	
-2.89819	1.83632	-0.321308	
-4.40419	1.53312	-0.385101	
-3.05173	1.54488	-0.28639	
-3.53606	1.71558	-0.377987	
-5.04478	1.66217	-0.389354	
-3.72818	0.358669	-0.33547	
-3.67154	0.310734	-0.346602	
-3.6462	1.39867	-0.248789	
-4.31681	1.4537	-0.310055	
-4.29632	1.33896	-0.306375	
-4.09066	0.46147	-0.293936	
-3.43103	0.394907	-0.238632	
-4.65318	0.433969	-0.354086	
-3.44424	1.42238	-0.238106	
-4.03126	1.37641	-0.296807	
-4.34326	0.606335	-0.315665	
-3.57977	0.879786	-0.367118	
-3.59113	0.752034	-0.364412	
-3.54789	0.815753	-0.374975	
-4.2597	1.38066	-0.413932	
-5.06656	1.52165	-0.397899	
-4.35114	1.51493	-0.317545	
-3.67857	1.08423	-0.254447	
-3.54821	1.59815	-0.374895	
-3.47097	2	-0.237443	
-4.36154	1.16076	-0.39282	
-3.02431	1.18618	-0.291993	
-3.3018	1.14984	-0.248233	
-3.7611	1.23168	-0.329539	
-3.60698	1.16237	-0.360713	
-3.91288	1.68406	-0.307473	
-2.95137	0.333428	-0.186031	
-3.54872	1.52552	-0.374767	
-3.59515	0.488947	-0.363464	
-3.15233	1.59304	-0.268185	
-4.38355	1.57917	-0.326433	
-3.57324	1.65719	-0.368697	
-4.2881	0.559694	-0.305049	
-4.32597	0.490232	-0.311881	
-3.61211	0.956713	-0.359537	
-3.68276	0.989568	-0.344304	
-3.88696	1.75665	-0.310605	
-3.18672	1.77244	-0.262823	
-3.02557	1.72615	-0.291728	
-3.13362	0.310718	-0.27129	
-3.08106	0.290342	-0.280699	
-3.0921	1.29539	-0.278638	
-4.18259	2	-0.294601	
-3.21898	0.482459	-0.258203	
-3.59714	1.30941	-0.242581	
-4.02092	0.109198	-0.297486	
-3.6357	1.03572	-0.354249	
-3.69673	1.07584	-0.341507	
-3.69248	2	-0.34235	
-3.75781	0.633303	-0.275148	
-4.36518	0.422033	-0.321153	
-3.03955	0.266461	-0.198693	
-3.6191	0.262786	-0.357948	
-3.51607	1.66446	-0.237652	
-3.45336	1.54135	-0.237816	
-3.57695	0.371856	-0.3678	
-2.96884	0.429791	-0.304163	
-3.34752	1.56661	-0.24396	
-3.36194	1.62234	-0.242805	
-2.55994	1.2804	-0.204793	
-3.54521	0.68957	-0.375653	
-2.88949	0.753859	-0.323549	
-4.44262	0.285029	-0.349611	
-2.89357	1.26259	-0.322493	
-5.08451	0	-0.406408	
-2.90153	1.39629	-0.320454	
-4.20852	1.45609	-0.425977	
-3.55325	0.308608	-0.373627	
-4.25915	0.682551	-0.414057	
-3.54226	0.423502	-0.376402	
-4.4441	2	-0.35038	
-3.36382	0.980727	-0.242661	
-4.27041	1.51237	-0.411535	
-3.6533	1.11653	-0.350434	
-3.42138	0.277428	-0.239073	
-4.66703	0.33864	-0.353134	
-2.95832	1.08627	-0.306599	
-3.51826	0.0993244	-0.237706	
-4.20677	0.0548078	-0.296007	
-2.31145	1.55961	-0.252085	
-4.44401	1.72118	-0.350335	
-3.76868	1.94239	-0.279017	
-3.7605	1.87535	-0.276075	
-3.01589	0.473525	-0.293767	
-2.97938	0.331482	-0.301763	
-3.70337	1.63205	-0.259757	
-3.80117	1.59521	-0.293048	
-3.70278	1.47977	-0.340317	
-4.24262	0.160133	-0.299131	
-3.57035	0.114041	-0.240263	
-3.12096	1.45658	-0.273463	
-3.66588	0.130179	-0.252067	
-3.91099	0.972536	-0.307692	
-4.4158	0.0752793	-0.337613	
-3.36088	0.0509452	-0.242886	
-3.31592	1.00206	-0.246816	
-2.57074	0.356044	-0.203259	
-3.87088	0.0762643	-0.312683	
-3.00596	1.44431	-0.295894	
-4.25015	0	-0.299953	
-3.17185	0.460204	-0.243083	
-2.87889	0.946643	-0.181704	
-3.55718	2	-0.382906	
-3.63617	2	-0.374372	
-3.79973	2	-0.361109	
-3.88573	2	-0.356519	
-3.71673	2	-0.367096	
-4.70245	2	-0.408279	
-4.88061	2	-0.41442	
-4.41211	2	-0.379305	
-4.32878	2	-0.367322	
-4.15105	2	-0.353365	
-4.61295	2	-0.409583	
-4.76367	-0.0721374	-0.50426	
-2.89226	-0.0524234	-0.33656	
-3.15938	-1.94219	-0.34264	
-3.7341	-1.93265	-0.396546	
-3.77447	-2	-0.397806	
-3.5935	-0.0610541	-0.393368	
-3.73775	-0.0745946	-0.396654	
-3.87975	-0.063891	-0.401702	
-4.48285	-1.2856	-0.392202	
-4.42113	-1.32684	-0.4185	
-4.48285	-1.35721	-0.392202	
-4.48285	-0.0721374	-0.392202	
-5.12326	-0.215036	-0.448231	
-4.48285	-0.143615	-0.392202	
-4.43162	-0.177622	-0.417234	
-3.84245	-0.286611	-0.336173	
-4.4327	-0.326516	-0.417082	
-5.12326	-0.358269	-0.448231	
-4.43289	-0.255005	-0.417055	
-4.48285	-0.714404	-0.392202	
-5.06383	-0.754353	-0.474283	
-4.48285	-0.786116	-0.392202	
-3.92009	-2	-0.40337	
-4.51532	-1.91632	-0.457535	
-3.8474	-2	-0.400423	
-2.91554	-2	-0.336817	
-2.89336	-1.94543	-0.336571	
-3.48285	-2	-0.392202	
-4.43392	-1.39944	-0.416904	
-4.48285	-1.42879	-0.392202	
-3.20204	-2	-0.280144	
-5.12326	-1.92786	-0.448231	
-3.78291	-2	-0.362237	
-3.62892	-2	-0.393986	
-3.59307	-1.9425	-0.393361	
-4.67405	-1.91894	-0.464251	
-3.99248	-2	-0.406472	
-3.42485	-2	-0.353487	
-4.48285	-1.21388	-0.392202	
-4.42103	-1.25457	-0.41851	
-5.12326	-1.78496	-0.448231	
-3.15819	-1.82622	-0.304035	
-4.48285	-1.85639	-0.392202	
-3.67765	-0.824164	-0.395038	
-3.59986	-0.840188	-0.39347	
-4.29516	-0.897364	-0.450543	
-4.76367	-1.07055	-0.50426	
-4.18874	-1.0996	-0.448785	
-4.82381	-0.999321	-0.504754	
-3.86217	-1.67801	-0.400999	
-3.93324	-1.66711	-0.403927	
-4.5062	-1.60664	-0.457171	
-3.74575	-0.446895	-0.396895	
-5.04748	-0.354649	-0.509609	
-3.69193	-0.398171	-0.39539	
-4.55725	-1.83141	-0.459262	
-3.33579	-1.78071	-0.349741	
-4.55881	-1.74009	-0.459327	
-4.71915	-1.7075	-0.466075	
-3.99724	-1.71822	-0.406676	
-4.04434	-1.78279	-0.408666	
-4.75909	-1.79397	-0.467739	
-3.94414	-1.60358	-0.404392	
-3.8989	-1.5428	-0.402485	
-3.2044	-1.84473	-0.344295	
-4.87778	-1.45461	-0.473532	
-4.15514	-1.49442	-0.413421	
-4.20261	-1.53304	-0.415788	
-5.48509	-1.28582	-0.527929	
-4.13428	-1.23395	-0.412424	
-5.38593	-1.30809	-0.523174	
-5.57027	-1.05755	-0.531818	
-3.72399	-1.02435	-0.365137	
-3.6754	-0.98494	-0.364576	
-4.0564	-0.659051	-0.409159	
-3.98937	-0.685531	-0.406338	
-4.68294	-0.738859	-0.46462	
-4.65835	-1.33862	-0.463589	
-4.66803	-1.25231	-0.463998	
-4.76367	-1.42879	-0.50426	
-4.76367	-1.49933	-0.50426	
-4.20783	-1.4654	-0.44902	
-3.57032	-0.918262	-0.39303	
-3.62247	-1.01699	-0.393864	
-2.97372	-0.957788	-0.337684	
-5.02933	-0.881052	-0.509037	
-3.75645	-0.965074	-0.397226	
-3.81992	-0.954992	-0.39939	
-3.44128	-0.86716	-0.354131	
-4.7885	-0.888326	-0.469108	
-4.13026	-0.817828	-0.412237	
-4.29872	-0.589278	-0.450621	
-4.31576	-0.676587	-0.451012	
-4.38105	-0.618429	-0.452769	
-4.9753	-0.0745363	-0.477044	
-4.06947	-1.18703	-0.409683	
-4.0075	-1.16574	-0.407116	
-4.00284	-0.496062	-0.406916	
-4.72424	-0.503541	-0.466272	
-4.03848	-0.439924	-0.408424	
-4.76063	-0.698429	-0.467808	
-3.88749	-1.23016	-0.402016	
-4.44961	-1.19538	-0.455031	