<VTKFile type="UnstructuredGrid" version="0.1" byte_order="LittleEndian">
	<UnstructuredGrid>
		<Piece NumberOfPoints="1917" NumberOfCells="56">
			<CellData Scalars="scalars">
				<DataArray type="Float64" Name="Doublet Strengths" NumberOfComponents="1" Format="ascii">
-0.622577	
-2.42978	
-1.8536	
-2.31759	
-2.60544	
-2.77893	
-2.76051	
-2.70092	
-2.11662	
-1.80524	
-1.12646	
-3.30044	
-1.86533	
-3.08903	
-1.88128	
-1.9004	
-2.628	
-2.48724	
-2.47049	
-2.15567	
-2.52162	
-2.74915	
-2.06829	
-2.66313	
-4.85637	
-2.42693	
-1.83656	
-1.80864	
-4.85434	
-1.80008	
-2.35386	
-2.61644	
-2.20127	
-1.63685	
-0.909253	
-3.24941	
-1.76732	
-2.19058	
-2.67414	
-1.68466	
-1.79395	
-2.28995	
-2.27863	
-2.14966	
-2.01492	
-2.24619	
-2.25479	
-2.16574	
-1.7823	
-1.94864	
-2.19433	
-0.5495	
-1.47423	
-1.72758	
-2.20726	
-1.16171	
				</DataArray>
				<DataArray type="Float64" Name="Velocity Potential" NumberOfComponents="1" Format="ascii">
-382.202	
-492.567	
-493.709	
-492.65	
-493.07	
-491.275	
-492.683	
-492.652	
-492.84	
-493.605	
-494.025	
-488.718	
-493.589	
-491.992	
-493.338	
-493.478	
-491.938	
-492.467	
-492.704	
-493.071	
-492.244	
-492.335	
-493.3	
-492.031	
-486.1	
-492.739	
-493.233	
-493.675	
-486.969	
-493.153	
-493.257	
-492.937	
-493.419	
-493.312	
-494.605	
-490.44	
-493.293	
-493.396	
-492.37	
-493.162	
-493.22	
-492.371	
-492.696	
-493.103	
-492.746	
-492.373	
-492.365	
-493.279	
-493.038	
-492.916	
-492.618	
-382.506	
-493.791	
-493.26	
-492.893	
-494.317	
				</DataArray>
			</CellData>
			<Points>
				<DataArray type="Float64" Name="Position" NumberOfComponents="3" Format="ascii">
-10.5293	0	-1.00294	
-8.8694	0.0524256	-0.859496	
-13.7294	0	-1.28866	
-10.6753	2	-1.00574	
-10.7066	1.93467	-1.00661	
-12.3844	2	-1.15108	
-10.6022	0	-1.00408	
-10.5668	0.0610502	-1.00346	
-10.7111	0.0745738	-1.00675	
-10.6753	0	-1.00574	
-10.7478	0	-1.0079	
-10.8207	0	-1.01052	
-10.8934	0	-1.01346	
-10.852	0.0639395	-1.01175	
-9.77195	1.39584	-0.883616	
-11.3942	1.3266	-1.02862	
-11.4562	1.35721	-1.00229	
-13.7294	1.92786	-1.28866	
-8.87027	1.94512	-0.859505	
-13.0928	0.0721374	-1.14548	
-11.3922	0.0533506	-1.02882	
-9.81959	0	-0.859109	
-13.0928	0.215036	-1.14548	
-14.6395	0.171582	-1.31694	
-9.81959	0.143615	-0.859109	
-9.81959	0.286611	-0.859109	
-13.0928	0.358269	-1.14548	
-11.406	0.326064	-1.02718	
-11.4038	0.252841	-1.02749	
-11.4562	0.714404	-1.00229	
-11.4562	0.786116	-1.00229	
-13.0333	0.754574	-1.17153	
-10.8934	2	-1.01346	
-10.8207	2	-1.01052	
-14.131	1.91204	-1.29836	
-10.9087	1.66657	-1.01411	
-12.4753	1.60722	-1.1544	
-10.7193	0.446925	-1.00699	
-10.6664	0.397747	-1.00551	
-14.0138	0.354616	-1.29403	
-10.4562	2	-1.00229	
-11.4562	1.42879	-1.00229	
-8.18299	2	-0.715924	
-9.76005	2	-0.885173	
-13.0928	1.92786	-1.14548	
-10.6022	2	-1.00408	
-8.89268	2	-0.859753	
-10.5672	1.93956	-1.00347	
-9.29684	1.94176	-0.871985	
-14.2799	1.9167	-1.30467	
-10.9658	2	-1.01656	
-11.4562	1.21388	-1.00229	
-9.76792	1.19029	-0.884201	
-11.4562	1.14216	-1.00229	
-11.4562	1.2856	-1.00229	
-11.3945	1.25405	-1.02859	
-13.0928	1.78496	-1.14548	
-11.4562	1.85639	-1.00229	
-8.1391	1.82617	-0.739821	
-9.76063	0.114671	-0.885109	
-13.0195	1.46922	-1.1728	
-12.974	1.38862	-1.17445	
-10.651	0.824164	-1.00513	
-12.2647	0.897364	-1.14779	
-10.5732	0.840188	-1.00356	
-11.2988	1.46561	-1.03093	
-12.0928	1	-1.14548	
-13.7895	0.999321	-1.28916	
-13.7294	1.07055	-1.28866	
-10.9175	1.60348	-1.01448	
-10.5487	0.356544	-1.00319	
-8.97642	0.353408	-0.861105	
-10.5931	0.427857	-1.00391	
-12.5253	1.82506	-1.15645	
-12.529	1.7382	-1.1566	
-9.31292	1.77788	-0.872677	
-10.971	1.71777	-1.01678	
-11.0188	1.78088	-1.01881	
-12.6888	1.70728	-1.16333	
-12.7289	1.79378	-1.165	
-10.8722	1.54291	-1.01257	
-10.8099	1.8351	-1.0101	
-12.8471	1.45384	-1.17077	
-11.176	1.53294	-1.02588	
-11.1285	1.49429	-1.02351	
-12.8056	1.28284	-1.16871	
-14.3505	1.30815	-1.30753	
-11.1063	1.23305	-1.02245	
-14.5371	1.05577	-1.31626	
-11.3024	0.974397	-1.031	
-9.70604	1.02275	-0.888025	
-11.0297	0.65903	-1.01925	
-12.6525	0.738857	-1.16187	
-10.9627	0.685529	-1.01643	
-12.6278	1.33866	-1.16083	
-12.6374	1.25226	-1.16124	
-13.7294	1.42879	-1.28866	
-12.1779	1.46516	-1.14627	
-13.7294	1.49933	-1.28866	
-10.5437	0.918262	-1.00312	
-13.995	0.881052	-1.29344	
-10.8068	0.891355	-1.00998	
-10.7933	0.954992	-1.00948	
-9.41841	0.867158	-0.877066	
-11.1036	0.817822	-1.02233	
-12.7579	0.888323	-1.16635	
-12.2682	0.589259	-1.14787	
-12.3506	0.618435	-1.15002	
-12.2853	0.676586	-1.14826	
-11.2547	0	-1.02954	
-11.3259	0	-1.03128	
-12.9534	0.0790961	-1.1744	
-10.9361	1.27156	-1.01529	
-10.9257	1.20368	-1.01484	
-10.9764	0.496767	-1.01702	
-11.0131	0.442032	-1.01857	
-12.6945	0.502871	-1.16355	
-12.7302	0.698424	-1.16506	
-10.8608	1.23016	-1.01211	
-10.8115	1.27217	-1.01016	
-12.4191	1.19537	-1.15228	
-9.24346	1.2898	-0.869717	
-9.45452	1.02577	-0.878577	
-12.7522	0.967174	-1.16608	
-11.1695	1.0342	-1.02556	
-14.2122	1.00672	-1.30178	
-10.9758	0.93866	-1.01699	
-11.0274	0.987296	-1.01916	
-12.4708	0.378981	-1.15422	
-10.895	0.426844	-1.01353	
-12.4787	0.470462	-1.15454	
-13.0106	1.87857	-1.17338	
-12.9964	1.79633	-1.17401	
-11.2945	1.84585	-1.03083	
-11.0842	0.270573	-1.02146	
-9.43295	0.200611	-0.877649	
-12.7734	0.193571	-1.16711	
-12.7117	0.123897	-1.16425	
-11.0187	0.249496	-1.0188	
-11.0096	0.173576	-1.01842	
-12.964	1.20923	-1.17447	
-11.2973	1.13932	-1.0309	
-11.3819	1.13751	-1.02968	
-11.1345	0.531427	-1.02381	
-11.1354	0.463982	-1.02385	
-11.0786	0.427199	-1.02121	
-11.1453	0.382421	-1.02434	
-9.69519	0.742778	-0.8881	
-12.9742	0.813881	-1.17444	
-12.6969	0.580015	-1.16364	
-11.1393	1.7199	-1.02404	
-12.7891	0.757182	-1.16789	
-9.53036	0.698895	-0.882243	
-11.2261	0.732194	-1.02832	
-11.2064	0.893597	-1.02739	
-11.1735	0.830458	-1.02576	
-12.8928	0.834567	-1.17279	
-11.3237	1.53139	-1.03127	
-11.2711	1.59044	-1.03015	
-11.2467	1.5207	-1.02922	
-12.4387	1.10613	-1.153	
-10.7321	1.13654	-1.00739	
-12.9343	0.567577	-1.17409	
-13.0014	0.624293	-1.17382	
-11.2919	0.641057	-1.03077	
-11.2235	0.667946	-1.0282	
-11.2234	0.607392	-1.02819	
-12.852	0.97644	-1.171	
-11.3966	0	-1.02836	
-10.8892	1.40806	-1.01328	
-10.9219	1.34451	-1.01467	
-10.9554	1.41675	-1.01612	
-10.9164	1.48085	-1.01444	
-12.6582	1.43176	-1.1621	
-10.981	1.49613	-1.01722	
-11.047	0.925911	-1.01994	
-11.2141	1.74077	-1.02776	
-14.488	1.66215	-1.31416	
-9.64251	1.70694	-0.887223	
-13.7294	1.71339	-1.28866	
-13.7998	1.77904	-1.28928	
-13.7294	1.78496	-1.28866	
-11.2547	2	-1.02954	
-12.9338	1.92525	-1.17408	
-11.3259	2	-1.03128	
-11.0871	0.350099	-1.02158	
-11.0234	0.315549	-1.01899	
-10.7832	1.02327	-1.00912	
-12.4893	1.02942	-1.15496	
-10.7782	0.0746863	-1.00894	
-10.8129	0.130322	-1.01022	
-12.3753	0.159825	-1.15079	
-12.3877	0.255296	-1.15119	
-9.15762	0.198868	-0.866333	
-10.8563	0.185075	-1.01192	
-12.3405	0.53229	-1.14972	
-17.0026	0.358269	-1.57503	
-12.0928	0.286611	-1.14548	
-10.5184	0.283499	-1.00281	
-13.7294	0.143615	-1.28866	
-12.1706	0.19815	-1.14618	
-13.7294	0.215036	-1.28866	
-13.8741	0.268711	-1.29042	
-12.6024	0	-1.15975	
-9.40199	0	-0.876423	
-11.0454	0.0522709	-1.01988	
-8.0753	0.233077	-0.744748	
-12.9712	0.293965	-1.17446	
-12.6848	1.52249	-1.16317	
-11.0467	1.6164	-1.01993	
-10.9871	1.57352	-1.01748	
-10.9826	1.65009	-1.01728	
-11.3443	1.59898	-1.03119	
-11.1831	0	-1.02624	
-11.1286	0.0589648	-1.02352	
-11.1105	0	-1.02265	
-10.6286	1.47391	-1.00462	
-12.3479	1.46129	-1.14994	
-12.3254	1.53681	-1.14929	
-12.7865	0.286849	-1.16776	
-10.7696	0.724627	-1.00864	
-9.14321	0.784216	-0.865812	
-12.355	0.788387	-1.15015	
-12.921	0.223399	-1.17375	
-9.63374	1.34531	-0.886937	
-9.629	1.40661	-0.88677	
-12.8401	1.36487	-1.17043	
-11.2384	1.29047	-1.02887	
-9.61532	0.414541	-0.886247	
-11.1992	0.434011	-1.02704	
-12.845	0.349215	-1.17067	
-11.3148	0.422964	-1.0312	
-12.9018	0.489015	-1.17312	
-11.3371	0.488653	-1.03126	
-7.7835	1.24582	-0.733947	
-11.0427	1.18695	-1.01977	
-9.57521	1.58611	-0.884463	
-9.14674	0.42229	-0.865938	
-9.16892	0.312816	-0.866752	
-12.5226	0.310713	-1.15633	
-10.8354	0.255176	-1.01109	
-10.9012	0.23291	-1.01379	
-14.5054	1.20734	-1.31496	
-11.1017	1.1572	-1.02224	
-11.1709	1.15129	-1.02563	
-9.52308	1.2101	-0.881877	
-12.7475	1.08885	-1.16586	
-10.7143	1.61914	-1.00684	
-10.7332	1.69424	-1.00743	
-12.2912	1.67616	-1.1484	
-10.7821	1.64844	-1.00908	
-10.8105	1.72086	-1.01012	
-11.1555	0.644913	-1.02485	
-9.58726	1.94629	-0.885029	
-12.7885	1.93331	-1.16786	
-11.2253	1.88539	-1.02828	
-12.2735	0.0804625	-1.14799	
-8.94069	0.127785	-0.860445	
-8.95193	1.88257	-0.860639	
-12.2766	1.92762	-1.14806	
-10.6758	0.21589	-1.00576	
-9.57989	0.273142	-0.884685	
-11.2096	0.209198	-1.02754	
-9.56853	0.143339	-0.884141	
-11.2758	0.145092	-1.0303	
-9.51606	0.115792	-0.881525	
-11.1524	1.85807	-1.0247	
-11.0867	1.88373	-1.02157	
-9.44033	1.94611	-0.877958	
-9.40199	2	-0.876423	
-11.1105	2	-1.02265	
-9.77026	0.682902	-0.883869	
-13.0928	0.64279	-1.14548	
-9.29683	1.88295	-0.871984	
-10.8113	1.53147	-1.01016	
-10.7889	1.46174	-1.00932	
-10.8534	1.47178	-1.01181	
-11.3558	1.08229	-1.03095	
-9.02797	0.329519	-0.86228	
-12.1553	0.43708	-1.146	
-12.0928	0.429861	-1.14548	
-9.2097	1.67699	-0.868336	
-10.764	1.57544	-1.00844	
-9.52311	1.60691	-0.881879	
-11.118	1.65508	-1.02301	
-11.2191	1.81461	-1.02799	
-9.52168	1.78507	-0.881807	
-9.02678	0.749751	-0.86225	
-10.7132	0.701087	-1.00681	
-12.2298	0.758919	-1.14709	
-11.4562	0.429861	-1.00229	
-13.0267	0.409639	-1.17221	
-11.2872	1.77163	-1.03065	
-12.9934	1.71936	-1.1741	
-12.2865	1.1716	-1.14829	
-10.6827	1.09553	-1.00594	
-12.3921	1.76477	-1.15134	
-9.19607	1.7791	-0.867795	
-10.9562	0.277236	-1.01615	
-12.568	0.151691	-1.15827	
-9.40131	1.84554	-0.876395	
-10.9717	1.83711	-1.01682	
-10.8522	1.33945	-1.01176	
-10.8232	1.40104	-1.01061	
-9.62887	0.297567	-0.886765	
-11.2849	0.357474	-1.03058	
-9.44506	0.760525	-0.878161	
-11.032	0.810302	-1.01934	
-10.94	0.749841	-1.01545	
-10.875	0.751361	-1.01269	
-10.8973	0.686344	-1.01362	
-10.9667	0.810027	-1.0166	
-10.9013	0.81571	-1.0138	
-15.366	1.64173	-1.43185	
-10.5218	1.65788	-1.00285	
-13.0928	1	-1.14548	
-13.0928	1.07055	-1.14548	
-9.77095	1.0308	-0.883767	
-8.88435	1.5272	-0.859655	
-13.7294	1.57014	-1.28866	
-9.24	0.121062	-0.869573	
-10.9232	0.068568	-1.01473	
-10.9907	0.0968802	-1.01763	
-13.7294	1.85639	-1.28866	
-12.1595	1.8723	-1.14605	
-13.7294	0.0721374	-1.28866	
-10.5164	0.116381	-1.00279	
-11.0224	0.378957	-1.01895	
-13.7294	1.2856	-1.28866	
-10.5219	1.33655	-1.00285	
-13.7294	1.35721	-1.28866	
-9.27451	1.07097	-0.871027	
-10.9176	1.13809	-1.01449	
-9.22713	1.10545	-0.869042	
-10.9707	1.08867	-1.01677	
-10.932	0.876824	-1.01511	
-10.8703	0.882801	-1.0125	
-12.4731	0.819303	-1.15432	
-11.0899	1.38959	-1.02171	
-9.44689	1.45442	-0.878241	
-11.1487	1.41914	-1.02451	
-9.32337	0.213959	-0.873127	
-10.9179	0.621411	-1.0145	
-10.8801	0.549577	-1.0129	
-10.9415	0.556476	-1.01552	
-10.9092	0.491713	-1.01413	
-12.8587	0.0712931	-1.17132	
-10.8499	1.1672	-1.01167	
-11.1054	1.57159	-1.02241	
-10.6498	0.47164	-1.0051	
-9.7669	0.476615	-0.88434	
-13.0153	0.546631	-1.17309	
-12.0928	0.500665	-1.14548	
-10.5162	0.802839	-1.00279	
-8.95481	0.646217	-0.860691	
-8.93263	0.69766	-0.860313	
-10.5693	1.17495	-1.0035	
-12.1583	1.0996	-1.14603	
-12.2427	1.1007	-1.14734	
-12.3508	1.32398	-1.15003	
-9.00909	1.29855	-0.861819	
-10.6755	1.24767	-1.00575	
-10.8581	0.61668	-1.012	
-10.821	0.546139	-1.01052	
-9.1257	0.561624	-0.865201	
-10.7742	0.491616	-1.0088	
-9.01545	1.0418	-0.861971	
-10.7127	1.02609	-1.00679	
-12.2902	0.976287	-1.14838	
-10.7298	0.965074	-1.00732	
-10.8623	0.954567	-1.01217	
-10.5898	1.62515	-1.00385	
-9.01453	1.59965	-0.861949	
-9.71273	0.360303	-0.887917	
-10.5264	1.5889	-1.0029	
-10.7839	1.33334	-1.00914	
-10.7576	1.39903	-1.00822	
-10.7452	1.2624	-1.00781	
-12.4693	0.683934	-1.15416	
-11.388	0.967445	-1.02921	
-14.6429	0.89983	-1.31679	
-11.2745	0.914042	-1.03026	
-11.0243	1.0505	-1.01903	
-9.59778	1.13415	-0.885505	
-9.55418	1.09375	-0.883436	
-9.29581	1.5431	-0.87194	
-11.2824	0.770923	-1.03051	
-9.57994	0.785107	-0.884687	
-9.5026	1.34839	-0.880855	
-12.9597	1.29694	-1.17445	
-11.3059	1.65281	-1.03107	
-12.1644	1.25411	-1.1461	
-10.586	1.32162	-1.00378	
-9.4558	0.633745	-0.878635	
-11.1465	0.587288	-1.0244	
-11.3472	0.6882	-1.03114	
-10.9931	0.873522	-1.01773	
-7.77013	1.36753	-0.733426	
-11.1831	2	-1.02624	
-9.07812	1.1987	-0.86367	
-10.9595	0.394274	-1.01629	
-10.9589	0.336713	-1.01626	
-11.2809	0.702848	-1.03046	
-11.4562	0.929454	-1.00229	
-11.4562	0.857842	-1.00229	
-9.73493	1.94387	-0.887143	
-10.9808	1.16572	-1.01721	
-11.0376	1.11814	-1.01957	
-12.3107	1.79696	-1.1489	
-9.04576	1.73661	-0.862746	
-9.26691	0.370041	-0.870704	
-9.3152	0.446178	-0.872776	
-9.27938	0.936014	-0.871235	
-7.28462	1.0523	-0.716953	
-10.5958	1.01699	-1.00396	
-11.4562	1.49933	-1.00229	
-12.176	0.586375	-1.14625	
-12.2125	0.509874	-1.14679	
-11.3946	1.54624	-1.02858	
-9.13334	0.664255	-0.865464	
-9.18448	0.750955	-0.867344	
-9.13652	0.837223	-0.865575	
-13.7294	1.21388	-1.28866	
-8.87088	1.17543	-0.859511	
-13.7294	0.929454	-1.28866	
-8.87174	0.873321	-0.85952	
-15.366	0.857842	-1.43185	
-10.5127	0.725606	-1.00275	
-13.7294	0.786116	-1.28866	
-13.7294	0.714404	-1.28866	
-10.5287	0.653203	-1.00293	
-13.7294	0.64279	-1.28866	
-15.366	0.571209	-1.43185	
-13.7294	1.14216	-1.28866	
-8.95086	0.957788	-0.86062	
-7.40978	0.930031	-0.719578	
-10.797	0.613315	-1.00962	
-9.77559	1.6049	-0.883025	
-9.36525	0.552048	-0.874914	
-10.9814	0.616488	-1.01723	
-12.2348	1.54065	-1.14719	
-10.6152	0.177963	-1.00434	
-10.6019	1.24487	-1.00407	
-12.2246	1.39957	-1.147	
-9.04039	0.139289	-0.862602	
-10.5792	1.69928	-1.00366	
-10.6122	1.75272	-1.00427	
-10.6507	1.35868	-1.00512	
-9.06684	1.39206	-0.863337	
-9.02035	1.42097	-0.86209	
-10.5897	1.81911	-1.00385	
-11.3896	1.6612	-1.02907	
-11.4562	1.71339	-1.00229	
-9.55945	0.496577	-0.883697	
-11.2198	0.549039	-1.02803	
-9.00266	1.85508	-0.861671	
-8.87342	0.520218	-0.859537	
-7.36608	0.528047	-0.718486	
-11.4562	1.57014	-1.00229	
-13.0928	0.500665	-1.14548	
-7.89063	0.932053	-0.738901	
-9.11188	1.07414	-0.864736	
-9.11533	1.51028	-0.86485	
-13.0928	1.64173	-1.14548	
-9.0516	0.282674	-0.862905	
-11.4562	0.571209	-1.00229	
-8.1384	0.59575	-0.73994	
-7.24851	1.71321	-0.716479	
-12.4066	1.88726	-1.15184	
-9.76339	0.827624	-0.884787	
-9.10208	1.82622	-0.864416	
-8.88257	1.40032	-0.859635	
-10.6942	1.87065	-1.00626	
-8.03584	0.866054	-0.74475	
-8.00301	1.24863	-0.743947	
-9.16074	1.94589	-0.866448	
-8.13595	1.75284	-0.740338	
-7.48233	1.94185	-0.721786	
-11.4199	0.611259	-0.961794	
-13.0364	0.691022	-1.0953	
-9.7803	0.951279	-0.817011	
-13.0426	0.885946	-1.09806	
-10.9447	0	-0.911523	
-10.8764	0	-0.918724	
-12.5522	0.0792566	-1.05754	
-13.7994	0	-1.27018	
-8.92739	0.0639973	-0.83143	
-10.5957	0	-0.967308	
-10.5093	0.0936441	-0.988095	
-10.8052	0	-0.928239	
-10.7346	0	-0.939593	
-10.7777	0.0798839	-0.932436	
-9.79128	0.821071	-0.823175	
-11.4187	1.45488	-0.961161	
-11.4218	1.89867	-0.962823	
-9.3081	2	-0.768338	
-11.0163	2	-0.906189	
-12.6307	1.91895	-1.05077	
-8.93083	1.93754	-0.830619	
-10.5144	1.90585	-0.986788	
-10.5262	2	-0.983809	
-10.5957	2	-0.967308	
-10.8764	2	-0.918724	
-10.8407	1.92228	-0.923249	
-10.8052	2	-0.928239	
-11.0529	1.85759	-0.904416	
-12.615	1.82278	-1.0519	
-12.4099	0.600657	-1.07632	
-10.7183	0.663037	-0.942495	
-12.4222	0.68441	-1.07439	
-10.511	0.939959	-0.98767	
-10.5201	1.33496	-0.985361	
-12.6005	1.68417	-1.05304	
-9.35734	1.74973	-0.764414	
-14.3335	1.71007	-1.19051	
-10.7708	1.02684	-0.933546	
-12.4178	0.943151	-1.07507	
-10.7156	0.965528	-0.942976	
-10.5465	0.553448	-0.978807	
-10.5036	0.495631	-0.989585	
-11.2059	1.36962	-0.908221	
-14.4109	1.42353	-1.19036	
-11.2165	1.43872	-0.909281	
-12.9588	1.02505	-1.07026	
-11.256	0.965827	-0.914317	
-12.8658	1.04082	-1.05389	
-12.8047	1.21008	-1.04852	
-14.53	1.26463	-1.2008	
-11.2508	1.19252	-0.913551	
-10.7596	1.8275	-0.935365	
-12.4085	1.91186	-1.07655	
-12.4636	1.83465	-1.0683	
-12.5273	1.04863	-1.06024	
-10.8301	1.0111	-0.924681	
-12.4502	1.09426	-1.0702	
-9.24597	1.10778	-0.774804	
-12.6001	1.09436	-1.05308	
-10.9994	0.92332	-0.907234	
-11.0376	0.983948	-0.905077	
-14.3537	0.912712	-1.19	
-9.38778	1.65028	-0.762556	
-9.44158	1.64109	-0.760488	
-12.6671	1.58611	-1.04861	
-10.5264	0.621253	-0.983763	
-8.95628	0.607584	-0.824753	
-12.2692	0.544593	-1.10244	
-12.2899	0.626188	-1.09815	
-12.5251	0.883867	-1.06048	
-10.8475	0.814004	-0.922343	
-10.8232	0.883506	-0.92565	
-9.20515	0.94284	-0.779918	
-9.15206	0.823889	-0.787549	
-10.754	0.86549	-0.93629	
-11.1994	0.577518	-0.907624	
-12.8335	0.659851	-1.05059	
-11.2611	0.634606	-0.915097	
-12.2646	0.0913029	-1.10341	
-10.5568	0.141129	-0.976323	
-10.9829	1.15841	-0.90838	
-14.3429	1.18235	-1.19023	
-9.3968	1.11752	-0.762093	
-12.9775	0.938839	-1.07507	
-9.75412	0.99711	-0.805148	
-11.0161	0.516229	-0.9062	
-12.6811	0.597248	-1.04795	
-11.0905	0.53029	-0.903496	
-12.5029	1.25683	-1.06313	
-12.4828	1.17353	-1.06569	
-10.7978	1.22905	-0.929348	
-12.9985	1.10599	-1.08127	
-11.4058	1.05145	-0.954761	
-11.3626	1.1866	-0.938308	
-11.4156	1.17077	-0.959536	
-14.0562	1.39834	-1.21799	
-9.15077	1.4857	-0.787749	
-10.8476	1.4682	-0.922335	
-12.817	0.907417	-1.0493	
-11.1274	0.841878	-0.903719	
-14.6502	0.492781	-1.22956	
-9.68382	0.543817	-0.783474	
-11.3693	0.570722	-0.940518	
-11.1474	1.72433	-0.904327	
-11.1033	1.78876	-0.903444	
-11.0177	0.853718	-0.906112	
-10.9306	0.389993	-0.912842	
-9.30147	0.316743	-0.768949	
-10.8764	0.343184	-0.918713	
-11.0511	0.780432	-0.90449	
-9.43342	0.84375	-0.760673	
-11.1211	0.770799	-0.903599	
-10.9663	0.577671	-0.909669	
-12.1674	1.02428	-1.12585	
-12.3694	0.237428	-1.0831	
-10.7487	0.153222	-0.93719	
-10.6811	0.163431	-0.949447	
-12.4605	0.159631	-1.06873	
-11.1706	1.80219	-0.905479	
-9.56388	1.86234	-0.764532	
-11.2494	1.80354	-0.913354	
-11.0786	0.329138	-0.903665	
-12.7899	0.30982	-1.04776	
-12.7378	0.244444	-1.04663	
-11.1107	0.391669	-0.903476	
-9.07364	1.03303	-0.800765	
-11.079	0.717798	-0.903657	
-10.9974	0.718603	-0.907366	
-9.39871	0.665477	-0.762	
-11.1104	0.658642	-0.903474	
-9.29991	1.87015	-0.769096	
-10.9009	1.80864	-0.915917	
-9.40495	1.78424	-0.76171	
-10.9284	1.74797	-0.913057	
-11.1759	0.386445	-0.905816	
-11.206	0.441074	-0.908221	
-11.2453	0.365688	-0.912773	
-11.0172	1.25637	-0.90614	
-11.092	1.24657	-0.903483	
-11.04	1.3122	-0.904963	
-9.46896	1.30199	-0.760264	
-11.1655	1.27096	-0.905188	
-10.8911	0.276367	-0.917002	
-14.0831	0.292881	-1.21392	
-9.20864	0.234809	-0.779455	
-9.15272	0.216682	-0.787447	
-11.2678	0.891352	-0.916157	
-11.0671	1.48059	-0.903936	
-10.9913	1.4429	-0.907784	
-12.6262	1.51083	-1.05109	
-10.9199	1.45569	-0.913909	
-11.0796	1.36546	-0.903646	
-11.1501	1.34038	-0.904436	
-10.8157	1.70558	-0.926718	
-10.8306	1.63351	-0.92461	
-10.7587	1.65739	-0.935517	
-10.6795	0.837679	-0.94975	
-10.7238	0.792044	-0.941506	
-10.736	1.09876	-0.939352	
-12.4025	1.30603	-1.07753	
-9.08258	1.35315	-0.799145	
-12.7686	0.166399	-1.04701	
-11.0502	0.169498	-0.904524	
-12.3205	1.40455	-1.09208	
-12.486	0.41495	-1.06528	
-12.5386	0.474418	-1.05898	
-12.7736	1.05334	-1.04715	
-11.1779	0.984567	-0.905949	
-11.1413	1.13834	-0.904105	
-10.7761	0.452043	-0.932694	
-12.4099	0.374434	-1.07633	
-9.08075	0.42015	-0.799475	
-12.333	0.484457	-1.08971	
-11.2939	0	-0.92089	
-11.3106	0.0667918	-0.92439	
-11.3583	0	-0.93697	
-11.2939	2	-0.92089	
-9.62581	1.94291	-0.77211	
-9.58689	2	-0.766861	
-11.3315	0.853126	-0.929406	
-11.3583	2	-0.93697	
-12.9616	1.92333	-1.07094	
-9.31712	0.506745	-0.767537	
-10.9007	0.56183	-0.915935	
-10.9085	0.636864	-0.915097	
-10.8394	0.546278	-0.923422	
-10.8401	0.617676	-0.923325	
-12.878	0.078087	-1.05543	
-12.8381	1.56345	-1.05099	
-9.61691	1.62497	-0.770757	
-11.2856	1.57191	-0.919286	
-12.9801	0.153301	-1.07581	
-12.9844	0.252546	-1.07701	
-9.76241	0.211952	-0.808576	
-10.9718	0.650538	-0.909227	
-12.5577	0.718414	-1.05697	
-10.9104	0.798942	-0.914892	
-10.9774	0.786413	-0.908791	
-9.21928	0.678765	-0.778072	
-10.8501	0.741319	-0.921999	
-13.043	1.80752	-1.09822	
-11.3576	1.74768	-0.936752	
-12.9652	1.83308	-1.07186	
-10.918	1.20637	-0.914105	
-12.2698	1.92648	-1.10231	
-12.2141	1.86025	-1.11463	
-11.3773	0.344499	-0.943277	
-11.4032	0.410465	-0.953604	
-12.8749	0.282592	-1.05503	
-12.9447	0.338159	-1.06704	
-12.6016	0.251286	-1.05296	
-9.38501	0.217721	-0.762707	
-12.5945	0.164212	-1.05355	
-12.1702	0.230355	-1.12515	
-12.7258	1.93673	-1.04669	
-11.346	1.26103	-0.933321	
-11.4096	1.24459	-0.956567	
-11.331	1.32491	-0.929279	
-13.0383	1.31978	-1.0961	
-12.9003	0.804788	-1.05869	
-12.9722	0.759874	-1.07364	
-11.2728	0.714139	-0.916994	
-10.8991	0.206449	-0.916109	
-9.24694	0.138218	-0.774691	
-10.5794	1.72394	-0.971006	
-10.5444	1.78328	-0.979308	
-12.2601	1.79352	-1.10438	
-10.977	1.03613	-0.908824	
-12.6867	1.05319	-1.04771	
-11.1009	0.992616	-0.903444	
-9.45422	1.10914	-0.760308	
-12.9096	0.204267	-1.06022	
-11.1845	0.22975	-0.906414	
-10.9531	0.863551	-0.910778	
-10.935	0.938032	-0.912422	
-9.66427	1.76807	-0.779115	
-12.9264	1.69808	-1.06326	
-11.218	1.73846	-0.909436	
-11.2749	0.425321	-0.917364	
-11.231	0.500006	-0.910925	
-11.1345	0.456585	-0.903894	
-11.162	0.51622	-0.904997	
-10.6561	0.232607	-0.954384	
-10.8302	1.33248	-0.924672	
-10.9057	1.52656	-0.915387	
-12.4675	1.55451	-1.06776	
-12.5435	1.60907	-1.05844	
-9.07889	0.903738	-0.799811	
-12.2784	0.902651	-1.10051	
-11.1559	0	-0.904693	
-11.0847	0	-0.903564	
-11.1073	0.051764	-0.903456	
-11.0163	0	-0.906189	
-11.0376	0.0537652	-0.905077	
-10.9343	1.3862	-0.912486	
-10.8636	1.3946	-0.920279	
-10.9402	1.26486	-0.911935	
-9.35207	1.21166	-0.764781	
-10.8973	1.32507	-0.916305	
-10.9683	1.32038	-0.909504	
-9.74272	0.814456	-0.800815	
-10.7039	1.88165	-0.945115	
-11.1317	0.594595	-0.90382	
-9.79106	1.38879	-0.823045	
-11.3779	1.39048	-0.943507	
-12.2818	0.75837	-1.0998	
-10.6018	0.821275	-0.96593	
-11.4105	0.75743	-0.95699	
-12.3296	1.60921	-1.09034	
-10.6928	1.68446	-0.947205	
-9.04952	1.75212	-0.805286	
-12.3848	1.73879	-1.08045	
-12.2457	1.59941	-1.10752	
-10.6241	1.66432	-0.961063	
-12.8269	1.93182	-1.05004	
-11.2651	1.87756	-0.91572	
-11.4187	0.146224	-0.961166	
-9.78863	1.10891	-0.821594	
-9.78279	0.544978	-0.818326	
-12.2817	1.32361	-1.09983	
-10.7032	0.0813768	-0.945246	
-10.6658	0	-0.952442	
-9.67037	1.21454	-0.780413	
-11.3067	1.14931	-0.923535	
-11.1296	1.87232	-0.903767	
-10.6064	1.24379	-0.96492	
-10.5682	1.29411	-0.973613	
-10.6724	1.24385	-0.951134	
-10.7704	1.16415	-0.933605	
-13.915	0.398041	-1.2437	
-12.1667	1.20048	-1.12602	
-10.5194	1.11243	-0.985527	
-10.7059	0.560548	-0.944743	
-10.7707	0.523541	-0.93356	
-12.836	1.65544	-1.0508	
-11.068	0.109422	-0.903911	
-9.24211	1.86761	-0.775259	
-10.9121	1.9304	-0.914709	
-9.58298	0.741046	-0.766427	
-11.3295	0.676971	-0.928901	
-9.0229	0.693471	-0.810521	
-10.7185	0.726744	-0.942452	
-10.7855	0.760134	-0.931227	
-7.4391	0.61385	-0.657206	
-8.86604	0.170423	-0.846639	
-9.56486	1.15632	-0.76462	
-9.55219	1.09603	-0.763554	
-11.2463	1.1197	-0.912909	
-9.00844	1.85832	-0.813474	
-10.6983	1.8111	-0.946166	
-11.3579	1.45652	-0.936852	
-11.3184	1.39372	-0.926183	
-9.06578	1.94352	-0.802216	
-10.7346	2	-0.939593	
-11.1822	0.79232	-0.906244	
-9.57037	0.850283	-0.765134	
-11.1577	0.718066	-0.90478	
-10.6077	0.180772	-0.964627	
-11.1321	1.51591	-0.903829	
-12.7616	1.59438	-1.04685	
-9.54752	1.48768	-0.763201	
-11.2509	1.50665	-0.913563	
-8.87533	1.83632	-0.844244	
-12.3737	1.53312	-1.08235	
-9.02887	1.54488	-0.809326	
-10.5094	1.71558	-0.988079	
-13.0143	1.66217	-1.0866	
-10.7015	0.358669	-0.945562	
-10.6449	0.310734	-0.956694	
-9.62334	1.39867	-0.771725	
-11.2901	1.4537	-0.920147	
-11.2697	1.33896	-0.916467	
-11.064	0.46147	-0.904028	
-9.40817	0.394907	-0.761568	
-12.6227	0.433969	-1.05133	
-9.42138	1.42238	-0.761042	
-11.0046	1.37641	-0.906899	
-11.3166	0.606335	-0.925757	
-10.5531	0.879786	-0.97721	
-10.5645	0.752034	-0.974504	
-10.5212	0.815753	-0.985067	
-12.2292	1.38066	-1.11118	
-13.0361	1.52165	-1.09515	
-11.3245	1.51493	-0.927637	
-9.65571	1.08423	-0.777383	
-10.5215	1.59815	-0.984987	
-9.44811	2	-0.760379	
-12.3311	1.16076	-1.09007	
-9.00145	1.18618	-0.814929	
-9.27894	1.14984	-0.771169	
-10.7344	1.23168	-0.939631	
-10.5803	1.16237	-0.970805	
-10.8862	1.68406	-0.917565	
-7.93232	0.333428	-0.621811	
-10.522	1.52552	-0.984859	
-10.5685	0.488947	-0.973556	
-9.12947	1.59304	-0.791121	
-11.3569	1.57917	-0.936525	
-10.5466	1.65719	-0.978789	
-11.2614	0.559694	-0.915141	
-11.2993	0.490232	-0.921973	
-10.5854	0.956713	-0.969629	
-10.6561	0.989568	-0.954396	
-10.8603	1.75665	-0.920697	
-9.16386	1.77244	-0.785759	
-9.00271	1.72615	-0.814664	
-9.11076	0.310718	-0.794226	
-9.0582	0.290342	-0.803635	
-9.06924	1.29539	-0.801574	
-11.1559	2	-0.904693	
-9.19612	0.482459	-0.781139	
-9.57428	1.30941	-0.765517	
-10.9942	0.109198	-0.907578	
-10.609	1.03572	-0.964341	
-10.6701	1.07584	-0.951599	
-10.6658	2	-0.952442	
-9.73495	0.633303	-0.798084	
-11.3385	0.422033	-0.931245	
-8.0205	0.266461	-0.634473	
-10.5924	0.262786	-0.96804	
-9.49321	1.66446	-0.760588	
-9.4305	1.54135	-0.760752	
-10.5503	0.371856	-0.977892	
-8.94598	0.429791	-0.827099	
-9.32466	1.56661	-0.766896	
-9.33908	1.62234	-0.765741	
-7.54089	1.2804	-0.640573	
-10.5185	0.68957	-0.985745	
-8.86663	0.753859	-0.846485	
-11.4159	0.285029	-0.959703	
-8.87071	1.26259	-0.845429	
-13.054	0	-1.10366	
-8.87867	1.39629	-0.84339	
-12.178	1.45609	-1.12322	
-10.5266	0.308608	-0.983719	
-12.2287	0.682551	-1.11131	
-10.5156	0.423502	-0.986494	
-11.4174	2	-0.960472	
-9.34096	0.980727	-0.765597	
-12.2399	1.51237	-1.10878	
-10.6266	1.11653	-0.960526	
-9.39852	0.277428	-0.762009	
-12.6365	0.33864	-1.05038	
-8.93546	1.08627	-0.829535	
-9.4954	0.0993244	-0.760642	
-11.1801	0.0548078	-0.906099	
-7.2924	1.55961	-0.687865	
-11.4173	1.72118	-0.960427	
-9.74582	1.94239	-0.801953	
-9.73764	1.87535	-0.799011	
-8.99303	0.473525	-0.816703	
-8.95652	0.331482	-0.824699	
-9.68051	1.63205	-0.782693	
-9.77831	1.59521	-0.815984	
-10.6761	1.47977	-0.950409	
-11.216	0.160133	-0.909223	
-9.54749	0.114041	-0.763199	
-9.0981	1.45658	-0.796399	
-9.64302	0.130179	-0.775003	
-10.8843	0.972536	-0.917784	
-11.3891	0.0752793	-0.947705	
-9.33802	0.0509452	-0.765822	
-9.29306	1.00206	-0.769752	
-7.55169	0.356044	-0.639039	
-10.8442	0.0762643	-0.922775	
-8.9831	1.44431	-0.81883	
-11.2235	0	-0.910045	
-8.1528	0.460204	-0.678863	
-7.85984	0.946643	-0.617484	
-10.5305	2	-0.992998	
-10.6095	2	-0.984464	
-10.7731	2	-0.971201	
-10.8591	2	-0.966611	
-10.6901	2	-0.977188	
-12.672	2	-1.10553	
-12.8501	2	-1.11167	
-11.3854	2	-0.989397	
-11.3021	2	-0.977414	
-11.1244	2	-0.963457	
-12.5825	2	-1.10683	
-13.7294	-0.0721374	-1.28866	
-8.8694	-0.0524234	-0.859496	
-9.13652	-1.94219	-0.865576	
-10.7074	-1.93265	-1.00664	
-10.7478	-2	-1.0079	
-10.5668	-0.0610541	-1.00346	
-10.7111	-0.0745946	-1.00675	
-10.8531	-0.063891	-1.01179	
-11.4562	-1.2856	-1.00229	
-11.3945	-1.32684	-1.02859	
-11.4562	-1.35721	-1.00229	
-11.4562	-0.0721374	-1.00229	
-13.0928	-0.215036	-1.14548	
-11.4562	-0.143615	-1.00229	
-11.405	-0.177622	-1.02733	
-9.81959	-0.286611	-0.859109	
-11.406	-0.326516	-1.02717	
-13.0928	-0.358269	-1.14548	
-11.4062	-0.255005	-1.02715	
-11.4562	-0.714404	-1.00229	
-13.0334	-0.754353	-1.17153	
-11.4562	-0.786116	-1.00229	
-10.8934	-2	-1.01346	
-12.4848	-1.91632	-1.15478	
-10.8207	-2	-1.01052	
-8.89268	-2	-0.859753	
-8.8705	-1.94543	-0.859507	
-10.4562	-2	-1.00229	
-11.4073	-1.39944	-1.027	
-11.4562	-1.42879	-1.00229	
-8.18299	-2	-0.715924	
-13.0928	-1.92786	-1.14548	
-9.76005	-2	-0.885173	
-10.6022	-2	-1.00408	
-10.5664	-1.9425	-1.00345	
-12.6436	-1.91894	-1.1615	
-10.9658	-2	-1.01656	
-9.40199	-2	-0.876423	
-11.4562	-1.21388	-1.00229	
-11.3944	-1.25457	-1.0286	
-13.0928	-1.78496	-1.14548	
-8.13914	-1.82622	-0.739815	
-11.4562	-1.85639	-1.00229	
-10.651	-0.824164	-1.00513	
-10.5732	-0.840188	-1.00356	
-12.2647	-0.897364	-1.14779	
-13.7294	-1.07055	-1.28866	
-12.1583	-1.0996	-1.14603	
-13.7895	-0.999321	-1.28916	
-10.8355	-1.67801	-1.01109	
-10.9066	-1.66711	-1.01402	
-12.4757	-1.60664	-1.15442	
-10.7191	-0.446895	-1.00699	
-14.0132	-0.354649	-1.29401	
-10.6653	-0.398171	-1.00548	
-12.5268	-1.83141	-1.15651	
-9.31293	-1.78071	-0.872677	
-12.5283	-1.74009	-1.15658	
-12.6887	-1.7075	-1.16332	
-10.9706	-1.71822	-1.01677	
-11.0177	-1.78279	-1.01876	
-12.7286	-1.79397	-1.16499	
-10.9175	-1.60358	-1.01448	
-10.8722	-1.5428	-1.01258	
-9.18154	-1.84473	-0.867231	
-12.8473	-1.45461	-1.17078	
-11.1285	-1.49442	-1.02351	
-11.1759	-1.53304	-1.02588	
-14.4508	-1.28582	-1.31233	
-11.1076	-1.23395	-1.02252	
-14.3516	-1.30809	-1.30758	
-14.536	-1.05755	-1.31622	
-9.70113	-1.02435	-0.888073	
-9.65254	-0.98494	-0.887512	
-11.0297	-0.659051	-1.01925	
-10.9627	-0.685531	-1.01643	
-12.6525	-0.738859	-1.16187	
-12.6279	-1.33862	-1.16084	
-12.6375	-1.25231	-1.16125	
-13.7294	-1.42879	-1.28866	
-13.7294	-1.49933	-1.28866	
-12.1773	-1.4654	-1.14627	
-10.5437	-0.918262	-1.00312	
-10.5958	-1.01699	-1.00396	
-8.95086	-0.957788	-0.86062	
-13.995	-0.881052	-1.29344	
-10.7298	-0.965074	-1.00732	
-10.7933	-0.954992	-1.00948	
-9.41842	-0.86716	-0.877067	
-12.758	-0.888326	-1.16636	
-11.1036	-0.817828	-1.02233	
-12.2682	-0.589278	-1.14787	
-12.2853	-0.676587	-1.14826	
-12.3506	-0.618429	-1.15002	
-12.9448	-0.0745363	-1.17429	
-11.0428	-1.18703	-1.01977	
-10.9808	-1.16574	-1.01721	
-10.9762	-0.496062	-1.01701	
-12.6938	-0.503541	-1.16352	
-11.0118	-0.439924	-1.01852	
-12.7301	-0.698429	-1.16506	
-10.8608	-1.23016	-1.01211	
-12.4191	-1.19538	-1.15228	
-10.8115	-1.27217	-1.01016	
-10.8522	-1.33945	-1.01176	
-9.24346	-1.2898	-0.869717	
-12.8504	-0.976561	-1.17093	
-12.752	-0.96716	-1.16607	
-11.1693	-1.03431	-1.02555	
-14.2122	-1.00672	-1.30178	
-11.0273	-0.987297	-1.01915	
-10.9758	-0.93866	-1.01699	
-12.4697	-0.379548	-1.15418	
-12.4788	-0.470375	-1.15454	
-10.8961	-0.425581	-1.01357	
-13.0107	-1.87861	-1.17337	
-11.3601	-1.79701	-1.03081	
-11.2945	-1.84585	-1.03083	
-11.0107	-0.176311	-1.01847	
-11.0191	-0.252878	-1.01882	
-9.43396	-0.202898	-0.87769	
-12.7154	-0.126149	-1.16441	