<VTKFile type="UnstructuredGrid" version="0.1" byte_order="LittleEndian">
	<UnstructuredGrid>
		<Piece NumberOfPoints="1917" NumberOfCells="56">
			<CellData Scalars="scalars">
				<DataArray type="Float64" Name="Doublet Strengths" NumberOfComponents="1" Format="ascii">
0	
0	
0	
0	
0	
0	
0	
0	
0	
0	
0	
0	
0	
0	
0	
0	
0	
0	
0	
0	
0	
0	
0	
0	
0	
0	
0	
0	
0	
0	
0	
0	
0	
0	
0	
0	
0	
0	
0	
0	
0	
0	
0	
0	
0	
0	
0	
0	
0	
0	
0	
0	
0	
0	
0	
0	
				</DataArray>
				<DataArray type="Float64" Name="Velocity Potential" NumberOfComponents="1" Format="ascii">
0	
0	
0	
0	
0	
0	
0	
0	
0	
0	
0	
0	
0	
0	
0	
0	
0	
0	
0	
0	
0	
0	
0	
0	
0	
0	
0	
0	
0	
0	
0	
0	
0	
0	
0	
0	
0	
0	
0	
0	
0	
0	
0	
0	
0	
0	
0	
0	
0	
0	
0	
0	
0	
0	
0	
0	
				</DataArray>
			</CellData>
			<Points>
				<DataArray type="Float64" Name="Position" NumberOfComponents="3" Format="ascii">
0.950188	0.0524256	-0.000386893	
1	0	0	
0.780863	2	-0.00344885	
0.749633	1.93467	-0.00431839	
0.70839	2	-0.00560417	
0.853935	0	-0.00178367	
0.88935	0.0610502	-0.00116591	
0.745113	0.0745738	-0.00445184	
0.780863	0	-0.00344885	
0.70839	0	-0.00560417	
0.635451	0	-0.00822146	
0.562765	0	-0.0111678	
0.60414	0.0639395	-0.00945769	
0.0476403	1.39584	-0.0245068	
0.0620026	1.3266	-0.0263266	
0	1.35721	0	
1	1.92786	0	
0.949322	1.94512	-0.000395552	
0	0.0721374	0	
0.0639709	0.0533506	-0.0265238	
0	0	0	
0	0.215036	0	
0.0898462	0.171582	-0.0282803	
0	0.143615	0	
0	0.286611	0	
0	0.358269	0	
0.0501829	0.326064	-0.0248843	
0.0523932	0.252841	-0.0251914	
0	0.714404	0	
0	0.786116	0	
0.0594546	0.754574	-0.0260546	
0.562765	2	-0.0111678	
0.635451	2	-0.00822146	
0.598344	1.91204	-0.00969252	
0.547528	1.66657	-0.0118136	
0.617494	1.60722	-0.0089234	
0.736871	0.446925	-0.00469995	
0.789814	0.397747	-0.00321678	
0.715618	0.354616	-0.00536794	
1	2	0	
0	1.42879	0	
0	2	0	
0.0595367	2	-0.0260636	
0	1.92786	0	
0.853935	2	-0.00178367	
0.92691	2	-0.000643736	
0.889015	1.93956	-0.00117117	
0.522747	1.94176	-0.0128754	
0.449453	1.9167	-0.0160097	
0.490378	2	-0.0142695	
0	1.21388	0	
0.0516642	1.19029	-0.0250922	
0	1.14216	0	
0	1.2856	0	
0.0617046	1.25405	-0.0262958	
0	1.78496	0	
0	1.85639	0	
0.0438844	1.82617	-0.0238968	
0.0589594	0.114671	-0.0259994	
0.0732467	1.46922	-0.0273173	
0.118764	1.38862	-0.0289663	
0.8052	0.824164	-0.00283604	
0.828108	0.897364	-0.00231219	
0.882997	0.840188	-0.00126767	
0.157357	1.46561	-0.0286363	
1	1	0	
0.939859	0.999321	-0.000494686	
1	1.07055	0	
0.538692	1.60348	-0.0121909	
0.907475	0.356544	-0.00089705	
0.843164	0.353408	-0.00199607	
0.86307	0.427857	-0.00161254	
0.567492	1.82506	-0.0109689	
0.563805	1.7382	-0.011124	
0.506671	1.77788	-0.0135679	
0.485231	1.71777	-0.0144906	
0.43734	1.78088	-0.0165126	
0.403953	1.70728	-0.01785	
0.363904	1.79378	-0.0195201	
0.584034	1.54291	-0.0102794	
0.646275	1.8351	-0.0078083	
0.245666	1.45384	-0.025292	
0.280192	1.53294	-0.0235882	
0.32768	1.49429	-0.0212206	
0.287219	1.28284	-0.023235	
0.378913	1.30815	-0.0188638	
0.349903	1.23305	-0.0201602	
0.192315	1.05577	-0.0275978	
0.15383	0.974397	-0.0287087	
0.113551	1.02275	-0.0289156	
0.42645	0.65903	-0.0169576	
0.440325	0.738857	-0.0163894	
0.493486	0.685529	-0.0141358	
0.465022	1.33866	-0.0153535	
0.455346	1.25226	-0.0157625	
1	1.42879	0	
0.914902	1.46516	-0.000796012	
1	1.49933	0	
0.912531	0.918262	-0.000827707	
0.734337	0.881052	-0.0047775	
0.649403	0.891355	-0.00769037	
0.662931	0.954992	-0.00718835	
0.401179	0.867158	-0.0179571	
0.352612	0.817822	-0.0200345	
0.33487	0.888323	-0.0208724	
0.824538	0.589259	-0.00239041	
0.742215	0.618435	-0.00453838	
0.807504	0.676586	-0.00278102	
0.201533	0	-0.0272471	
0.130237	0	-0.0289872	
0.139391	0.0790961	-0.0289254	
0.520043	1.27156	-0.0129918	
0.530466	1.20368	-0.0125436	
0.47978	0.496767	-0.0147243	
0.443074	0.442032	-0.0162755	
0.39833	0.502871	-0.0180678	
0.362633	0.698424	-0.0195772	
0.595369	1.23016	-0.00981374	
0.644727	1.27217	-0.0078669	
0.0963693	1.79633	-0.02853	
0.161659	1.84585	-0.0285387	
0.371939	0.270573	-0.0191647	
0.386637	0.200611	-0.0185395	
0.319381	0.193571	-0.0216275	
0.381096	0.123897	-0.0187712	
0.437488	0.249496	-0.0165065	
0.44659	0.173576	-0.0161292	
0.128756	1.20923	-0.028991	
0.158867	1.13932	-0.0286032	
0.0742469	1.13751	-0.0273907	
0.321663	0.531427	-0.0215151	
0.320762	0.463982	-0.0215595	
0.377596	0.427199	-0.01892	
0.31088	0.382421	-0.0220487	
0.124397	0.742778	-0.0289913	
0.118604	0.813881	-0.0289652	
0.395913	0.580015	-0.0181633	
0.316881	1.7199	-0.0217509	
0.303648	0.757182	-0.0224098	
0.53506	0.718414	0.0885109	
0.545803	0.798942	0.0874017	
0.478752	0.786413	0.0935029	
0.600304	0.678765	0.081037	
0.606055	0.741319	0.0802953	
0.0498182	1.80752	0.0472581	
0.0985642	1.74768	0.0655415	
0.127547	1.83308	0.0736228	
0.538223	1.20637	0.0881894	
0.822963	1.92648	0.0431668	
0.878645	1.86025	0.030849	
0.0788811	0.344499	0.0590171	
0.0529696	0.410465	0.0486904	
0.217877	0.282592	0.090451	
0.14805	0.338159	0.078443	
0.491198	0.251286	0.0925211	
0.92691	0	-0.000643736	
0.673651	1.19537	-0.00680009	
0.576129	1.2898	-0.0106075	
0.36507	1.02577	-0.019468	
0.340618	0.967174	-0.0205974	
0.286656	1.0342	-0.0232633	
0.517186	1.00672	-0.0131148	
0.480391	0.93866	-0.0146982	
0.428826	0.987296	-0.0168612	
0.622015	0.378981	-0.00874483	
0.561173	0.426844	-0.0112349	
0.614077	0.470462	-0.00905916	
0.0821356	1.87857	-0.027897	
0.289224	0.698895	-0.0231341	
0.230079	0.732194	-0.0260234	
0.249756	0.893597	-0.025095	
0.282721	0.830458	-0.0234611	
0.199966	0.834567	-0.0273085	
0.132533	1.53139	-0.0289778	
0.185102	1.59044	-0.027853	
0.209451	1.5207	-0.0269265	
0.654041	1.10613	-0.00751679	
0.72408	1.13654	-0.00509719	
0.158492	0.567577	-0.0286115	
0.0913651	0.624293	-0.0283442	
0.1643	0.641057	-0.0284741	
0.232648	0.667946	-0.0259053	
0.232757	0.607392	-0.0259003	
0.240824	0.97644	-0.0255228	
0.0595367	0	-0.0260636	
0.566992	1.40806	-0.0109899	
0.534314	1.34451	-0.0123785	
0.500737	1.41675	-0.0138236	
0.539819	1.48085	-0.0121427	
0.434584	1.43176	-0.0166259	
0.47514	1.49613	-0.0149228	
0.409158	0.925911	-0.0176472	
0.242118	1.74077	-0.0254614	
0.241366	1.66215	-0.0254971	
0.177078	1.70694	-0.0281143	
1	1.71339	0	
0.929547	1.77904	-0.000612118	
1	1.78496	0	
0.201533	2	-0.0272471	
0.158945	1.92525	-0.0286014	
0.130237	2	-0.0289872	
0.369117	0.350099	-0.0192885	
0.432834	0.315549	-0.0166976	
0.673021	1.02327	-0.00682265	
0.603444	1.02942	-0.00948579	
0.677966	0.0746863	-0.00664626	
0.643259	0.130322	-0.00792265	
0.717453	0.159825	-0.00530869	
0.705071	0.255296	-0.00571412	
0.661963	0.198868	-0.00722385	
0.599887	0.185075	-0.00962984	
0.752296	0.53229	-0.00424069	
1	0.358269	0	
1	0.286611	0	
0.937812	0.283499	-0.000517204	
1	0.143615	0	
0.922223	0.19815	-0.000701548	
1	0.215036	0	
0.855235	0.268711	-0.00175882	
0.490378	0	-0.0142695	
0.417595	0	-0.0173136	
0.410769	0.0522709	-0.017584	
0.107686	0.233077	-0.028824	
0.121617	0.293965	-0.0289827	
0.407954	1.52249	-0.0176943	
0.409458	1.6164	-0.0176355	
0.469076	1.57352	-0.0151813	
0.473544	1.65009	-0.0149909	
0.111915	1.59898	-0.0288939	
0.273048	0	-0.0239462	
0.327634	0.0589648	-0.0212228	
0.345678	0	-0.020358	
0.827592	1.47391	-0.00232341	
0.744867	1.46129	-0.00445916	
0.767347	1.53681	-0.00381386	
0.306301	0.286849	-0.0222771	
0.686559	0.724627	-0.0063443	
0.676382	0.784216	-0.00670258	
0.737801	0.788387	-0.00467166	
0.171773	0.223399	-0.0282726	
0.185843	1.34531	-0.0278276	
0.190591	1.40661	-0.0276604	
0.252636	1.36487	-0.0249552	
0.217805	1.29047	-0.0265714	
0.204265	0.414541	-0.0271383	
0.256995	0.434011	-0.0247423	
0.247768	0.349215	-0.025191	
0.141402	0.422964	-0.0289035	
0.191019	0.489015	-0.0276449	
0.119093	0.488653	-0.0289686	
0.399486	1.24582	-0.0180225	
0.413535	1.18695	-0.0174749	
0.244379	1.58611	-0.0253537	
0.672842	0.42229	-0.00682908	
0.650662	0.312816	-0.00764311	
0.570206	0.310713	-0.010855	
0.620805	0.255176	-0.00879251	
0.554956	0.23291	-0.011498	
0.22399	1.20734	-0.0262988	
0.3545	1.1572	-0.0199474	
0.285252	1.15129	-0.0233339	
0.296509	1.2101	-0.0227679	
0.345236	1.08885	-0.0203788	
0.741854	1.61914	-0.00454922	
0.723011	1.69424	-0.00513104	
0.801612	1.67616	-0.00292278	
0.674128	1.64844	-0.006783	
0.645723	1.72086	-0.00782919	
0.30069	0.644913	-0.022558	
0.232325	1.94629	-0.0259202	
0.304315	1.93331	-0.0223764	
0.2309	1.88539	-0.0259858	
0.819263	0.0804625	-0.00250833	
0.878897	0.127785	-0.00133545	
0.867657	1.88257	-0.00152969	
0.816194	1.92762	-0.0025782	
0.780369	0.21589	-0.00346189	
0.239693	0.273142	-0.0255763	
0.246587	0.209198	-0.0252478	
0.251062	0.143339	-0.0250317	
0.180427	0.145092	-0.0280083	
0.303532	0.115792	-0.0224156	
0.303762	1.85807	-0.0224041	
0.369505	1.88373	-0.0192714	
0.379256	1.94611	-0.0188492	
0.417595	2	-0.0173136	
0.345678	2	-0.020358	
0.0493241	0.682902	-0.0247598	
0	0.64279	0	
0.522758	1.88295	-0.0128749	
0.644856	1.53147	-0.00786201	
0.667285	1.46174	-0.00702961	
0.602812	1.47178	-0.00951133	
0.100404	1.08229	-0.0286538	
0.791618	0.329519	-0.00317095	
0.937462	0.43708	-0.000521101	
1	0.429861	0	
0.609888	1.67699	-0.00922648	
0.692193	1.57544	-0.00614954	
0.296477	1.60691	-0.0227695	
0.338203	1.65508	-0.0207125	
0.237123	1.81461	-0.0256971	
0.297909	1.78507	-0.0226975	
0.792806	0.749751	-0.00314094	
0.742957	0.701087	-0.00451614	
0.862993	0.758919	-0.00161394	
0	0.429861	0	
0.0661299	0.409639	-0.0267278	
0.168974	1.77163	-0.0283511	
0.0993618	1.71936	-0.0286239	
0.806259	1.1716	-0.00281069	
0.77346	1.09553	-0.0036466	
0.700711	1.76477	-0.00585998	
0.623516	1.7791	-0.00868581	
0.500003	0.277236	-0.0138552	
0.524785	0.151691	-0.0127877	
0.41828	1.84554	-0.0172863	
0.484487	1.83711	-0.0145225	
0.603972	1.33945	-0.00946445	
0.632945	1.40104	-0.00831823	
0.190718	0.297567	-0.0276558	
0.171322	0.357474	-0.0282855	
0.374523	0.760525	-0.0190523	
0.42421	0.810302	-0.0170482	
0.516183	0.749841	-0.013158	
0.581201	0.751361	-0.0103967	
0.558922	0.686344	-0.01133	
0.489527	0.810027	-0.0143061	
0.554844	0.81571	-0.0115027	
1	1.64173	0	
0.934345	1.65788	-0.000556243	
0	1	0	
0	1.07055	0	
0.0486333	1.0308	-0.0246574	
0.935237	1.5272	-0.0005461	
1	1.57014	0	
0.579586	0.121062	-0.0104637	
0.532974	0.068568	-0.0124359	
0.465482	0.0968802	-0.015334	
1	1.85639	0	
0.933294	1.8723	-0.0005683	
1	0.0721374	0	
0.93977	0.116381	-0.000495655	
0.433757	0.378957	-0.0166598	
1	1.2856	0	
0.934237	1.33655	-0.000557474	
1	1.35721	0	
0.545077	1.07097	-0.0119181	
0.538589	1.13809	-0.0121953	
0.592459	1.10545	-0.00993273	
0.485499	1.08867	-0.0144791	
0.524231	0.876824	-0.0128115	
0.585897	0.882801	-0.0102025	
0.619662	0.819303	-0.0088376	
0.366255	1.38959	-0.0194152	
0.372698	1.45442	-0.0191315	
0.307482	1.41914	-0.0222182	
0.49622	0.213959	-0.0140182	
0.538245	0.621411	-0.0122101	
0.576071	0.549577	-0.0106099	
0.514667	0.556476	-0.0132233	
0.546939	0.491713	-0.0118387	
0.234099	0.0712931	-0.0258381	
0.606244	1.1672	-0.00937284	
0.350794	1.57159	-0.0201187	
0.80642	0.47164	-0.00280685	
0.0526847	0.476615	-0.0252305	
0.0775157	0.546631	-0.0276157	
1	0.500665	0	
0.940023	0.802839	-0.000492893	
0.864775	0.646217	-0.0015815	
0.88696	0.69766	-0.00120372	
0.886864	1.17495	-0.00120526	
0.934522	1.0996	-0.000554228	
0.8501	1.1007	-0.00185799	
0.741938	1.32398	-0.00454668	
0.810501	1.29855	-0.00271024	
0.780688	1.24767	-0.00345347	
0.598065	0.61668	-0.00970388	
0.635206	0.546139	-0.0082309	
0.693885	0.561624	-0.00609153	
0.682008	0.491616	-0.00650349	
0.804138	1.0418	-0.00286158	
0.743499	1.02609	-0.00449994	
0.802545	0.976287	-0.00290009	
0.726409	0.965074	-0.00502378	
0.59392	0.954567	-0.00987291	
0.86641	1.62515	-0.00155201	
0.805062	1.59965	-0.00283937	
0.106855	0.360303	-0.0288078	
0.929825	1.5889	-0.000608822	
0.672272	1.33334	-0.00684956	
0.698609	1.39903	-0.00593087	
0.711024	1.2624	-0.00551755	
0.623527	0.683934	-0.00868538	
0.0682168	0.967445	-0.0269135	
0.0864477	0.89983	-0.0281238	
0.181699	0.914042	-0.0279668	
0.431853	1.0505	-0.0167377	
0.221807	1.13415	-0.0263959	
0.265406	1.09375	-0.024327	
0.523776	1.5431	-0.0128311	
0.173785	0.770923	-0.028214	
0.23965	0.785107	-0.0255783	
0.316987	1.34839	-0.0217457	
0.133074	1.29694	-0.028975	
0.15024	1.65281	-0.0287749	
0.928431	1.25411	-0.000625417	
0.870211	1.32162	-0.00148446	
0.363783	0.633745	-0.0195256	
0.309666	0.587288	-0.0221092	
0.108983	0.6882	-0.0288475	
0.463075	0.873522	-0.0154361	
0.412864	1.36753	-0.0175014	
0.273048	2	-0.0239462	
0.74147	1.1987	-0.00456074	
0.496668	0.394274	-0.0139989	
0.497331	0.336713	-0.0139703	
0.175277	0.702848	-0.0281694	
0	0.929454	0	
0	0.857842	0	
0.0846617	1.94387	-0.0280339	
0.475372	1.16572	-0.0149128	
0.418633	1.11814	-0.0172722	
0.78207	1.79696	-0.00341711	
0.773822	1.73661	-0.00363681	
0.552675	0.370041	-0.0115947	
0.504385	0.446178	-0.0136664	
0.540207	0.936014	-0.0121261	
0.898365	1.0523	-0.00102822	
0.860388	1.01699	-0.00166193	
0	1.49933	0	
0.916808	0.586375	-0.000770928	
0.880291	0.509874	-0.00131222	
0.0615701	1.54624	-0.0262818	
0.686252	0.664255	-0.006355	
0.635109	0.750955	-0.00823464	
0.683067	0.837223	-0.0064663	
1	1.21388	0	
0.948709	1.17543	-0.000401721	
1	0.929454	0	
0.947851	0.873321	-0.000410419	
1	0.857842	0	
0.943461	0.725606	-0.00045598	
1	0.786116	0	
1	0.714404	0	
0.927448	0.653203	-0.000637232	
1	0.64279	0	
1	0.571209	0	
1	1.14216	0	
0.868727	0.957788	-0.00151067	
0.773208	0.930031	-0.00365343	
0.65919	0.613315	-0.00732589	
0.0439968	1.6049	-0.023916	
0.454342	0.552048	-0.0158047	
0.474773	0.616488	-0.0149384	
0.857933	1.54065	-0.00170776	
0.840948	0.177963	-0.0020412	
0.854249	1.24487	-0.00177765	
0.868211	1.39957	-0.00151983	
0.779194	0.139289	-0.00349298	
0.877	1.69928	-0.00136736	
0.843978	1.75272	-0.00197961	
0.805511	1.35868	-0.0028286	
0.752747	1.39206	-0.00422758	
0.799235	1.42097	-0.00298091	
0.866459	1.81911	-0.00155112	
0.0666251	1.6612	-0.0267729	
0	1.71339	0	
0.260134	0.496577	-0.0245878	
0.236347	0.549039	-0.0257335	
0.816925	1.85508	-0.00256147	
0.946166	0.520218	-0.000427703	
0.816906	0.528047	-0.00256189	
0	1.57014	0	
0	0.500665	0	
0.292363	0.932053	-0.0229763	
0.707702	1.07414	-0.00562687	
0.704256	1.51028	-0.00574126	
0	1.64173	0	
0.767988	0.282674	-0.00379615	
0	0.571209	0	
0.0445868	0.59575	-0.0240159	
0.93448	1.71321	-0.000554701	
0.686164	1.88726	-0.00635805	
0.0562014	0.827624	-0.0256779	
0.717511	1.82622	-0.00530683	
0.937014	1.40032	-0.000526093	
0.761985	1.87065	-0.00396347	
0.147151	0.866054	-0.0288256	
0.179978	1.24863	-0.0280228	
0.658843	1.94589	-0.0073387	
0.0470426	1.75284	-0.024414	
0.700658	1.94185	-0.00586178	
0.0362726	0.611259	0.0404999	
0.056343	0.691022	0.0501746	
0.039284	0.951279	0.0420984	
0.0501737	0.885946	0.047422	
0.511488	0	0.090771	
0.579833	0	0.0835698	
0.540619	0.0792566	0.0879431	
0.929961	0	0.0184854	
0.892196	0.0639973	0.0276791	
0.860507	0	0.034986	
0.946854	0.0936441	0.0141991	
0.650978	0	0.074055	
0.721541	0	0.0627006	
0.678443	0.0798839	0.0698577	
0.0283091	0.821071	0.0359337	
0.0374509	1.45488	0.0411328	
0.0343955	1.89867	0.0394706	
0.511488	2	0.090771	
0.439864	2	0.0961047	
0.462046	1.91895	0.0947083	
0.888758	1.93754	0.0284899	
0.94175	1.90585	0.0155056	
0.929961	2	0.0184854	
0.860507	2	0.034986	
0.579833	2	0.0835698	
0.615527	1.92228	0.0790451	
0.650978	2	0.074055	
0.403261	1.85759	0.0978779	
0.477736	1.82278	0.0935799	
0.682842	0.600657	0.069159	
0.737929	0.663037	0.0597988	
0.670566	0.68441	0.0710907	
0.945197	0.939959	0.0146243	
0.93613	1.33496	0.0169326	
0.492259	1.68417	0.0924342	
0.462244	1.74973	0.0946948	
0.395841	1.71007	0.0981489	
0.685408	1.02684	0.0687479	
0.674963	0.943151	0.0704053	
0.740593	0.965528	0.0593177	
0.909689	0.553448	0.0234867	
0.952631	0.495631	0.0127087	
0.250238	1.36962	0.0940729	
0.31852	1.42353	0.0983076	
0.239677	1.43872	0.0930126	
0.13401	1.02505	0.0752156	
0.200143	0.965827	0.087977	
0.226989	1.04082	0.0915843	
0.288125	1.21008	0.0969629	
0.199356	1.26463	0.0878588	
0.205365	1.19252	0.0887432	
0.696589	1.8275	0.0669285	
0.684282	1.91186	0.0689286	
0.62917	1.83465	0.0771824	
0.565519	1.04863	0.08524	
0.626061	1.0111	0.0776132	
0.6426	1.09426	0.0752781	
0.57362	1.10778	0.0843051	
0.492728	1.09436	0.0923956	
0.456799	0.92332	0.0950599	
0.418598	0.983948	0.0972174	
0.375663	0.912712	0.0986639	
0.431806	1.65028	0.0965527	
0.378002	1.64109	0.0986209	
0.425703	1.58611	0.0968707	
0.929778	0.621253	0.0185311	
0.863304	0.607584	0.0343558	
0.823571	0.544593	0.0430384	
0.802901	0.626188	0.047328	
0.567639	0.883867	0.0849979	
0.608691	0.814004	0.0799509	
0.633016	0.883506	0.0766442	
0.614435	0.94284	0.0791909	
0.667525	0.823889	0.0715605	
0.702162	0.86549	0.0660043	
0.256755	0.577518	0.0946703	
0.259255	0.659851	0.0948882	
0.195037	0.634606	0.0871965	
0.828161	0.0913029	0.0420647	
0.89938	0.141129	0.0259713	
0.47325	1.15841	0.0939142	
0.386439	1.18235	0.0984292	
0.42279	1.11752	0.0970159	
0.11533	0.938839	0.070413	
0.0654641	0.99711	0.0539607	
0.440055	0.516229	0.0960936	
0.411729	0.597248	0.0975282	
0.365678	0.53029	0.0987978	
0.589901	1.25683	0.0823451	
0.60994	1.17353	0.0797867	
0.658422	1.22905	0.0729457	
0.0943122	1.10599	0.0642113	
0.0504153	1.05145	0.047533	
0.0936058	1.1866	0.0639863	
0.0405599	1.17077	0.0427575	
0.673215	1.39834	0.0706786	
0.668821	1.4857	0.0713606	
0.608627	1.4682	0.0799593	
0.275803	0.907417	0.0961752	
0.328767	0.841878	0.0985754	
0.0791339	0.492781	0.0591072	
0.135763	0.543817	0.0756356	
0.0868544	0.570722	0.0617761	
0.308765	1.72433	0.0979668	
0.352846	1.78876	0.0988499	
0.438507	0.853718	0.0961824	
0.52555	0.389993	0.0894517	
0.518115	0.316743	0.09016	
0.579736	0.343184	0.0835815	
0.405129	0.780432	0.0978039	
0.386165	0.84375	0.0984363	
0.335067	0.770799	0.0986948	
0.489922	0.577671	0.092625	
0.925391	1.02428	0.0196262	
0.723365	0.237428	0.0623826	
0.707522	0.153222	0.0651045	
0.775129	0.163431	0.0528467	
0.632301	0.159631	0.0767447	
0.28563	1.80219	0.096815	
0.255704	1.86234	0.0945769	
0.206739	1.80354	0.0889396	
0.377572	0.329138	0.0986291	
0.302889	0.30982	0.0977205	
0.355001	0.244444	0.0988506	
0.345455	0.391669	0.0988178	
0.745943	1.03303	0.0583438	
0.37717	0.717798	0.0986367	
0.458797	0.718603	0.0949275	
0.420873	0.665477	0.0971091	
0.34577	0.658642	0.0988201	
0.519675	1.87015	0.0900134	
0.555331	1.80864	0.0863773	
0.414641	1.78424	0.0973994	
0.527757	1.74797	0.0892368	
0.28028	0.386445	0.096478	
0.250235	0.441074	0.0940726	
0.210905	0.365688	0.0895214	
0.438999	1.25637	0.0961543	
0.364152	1.24657	0.0988111	
0.41615	1.3122	0.0973309	
0.350624	1.30199	0.098845	
0.290637	1.27096	0.097106	
0.565063	0.276367	0.0852917	
0.646308	0.292881	0.0747401	
0.610945	0.234809	0.0796543	
0.666864	0.216682	0.0716621	
0.188415	0.891352	0.0861373	
0.389064	1.48059	0.098358	
0.464917	1.4429	0.0945105	
0.466613	1.51083	0.0943917	
0.536302	1.45569	0.0883852	
0.376553	1.36546	0.0986481	
0.306089	1.34038	0.0978584	
0.640531	1.70558	0.0755761	
0.625551	1.63351	0.0776836	
0.697507	1.65739	0.0667771	
0.776689	0.837679	0.052544	
0.732402	0.792044	0.0607885	
0.720152	1.09876	0.0629421	
0.690331	1.30603	0.0679527	
0.737009	1.35315	0.0599643	
0.32415	0.166399	0.098466	
0.405959	0.169498	0.0977705	
0.772283	1.40455	0.0533963	
0.606796	0.41495	0.0801987	
0.554232	0.474418	0.0864973	
0.319181	1.05334	0.0983276	
0.278277	0.984567	0.0963449	
0.314843	1.13834	0.098189	
0.680074	0.452043	0.0695995	
0.682914	0.374434	0.0691474	
0.73884	0.42015	0.0596346	
0.759826	0.484457	0.0557677	
0.162247	0	0.0814039	
0.14561	0.0667918	0.077904	
0.0978599	0	0.065324	
0.162247	2	0.0814039	
0.193777	1.94291	0.0869991	
0.232701	2	0.0922486	
0.12466	0.853126	0.0728884	
0.0978599	2	0.065324	
0.131233	1.92333	0.0745398	
0.502468	0.506745	0.0915717	
0.555497	0.56183	0.086359	
0.547733	0.636864	0.0871972	
0.61682	0.546278	0.0788716	
0.616098	0.617676	0.0789685	
0.214812	0.078087	0.0900492	
0.254728	1.56345	0.0944891	
0.202673	1.62497	0.0883523	
0.170573	1.57191	0.0830082	
0.112636	0.153301	0.0696681	
0.108398	0.252546	0.0684677	
0.0571746	0.211952	0.0505331	
0.484385	0.650538	0.0930673	
0.434576	0.217721	0.0964023	
0.498273	0.164212	0.0919318	
0.922547	0.230355	0.0203323	
0.366998	1.93673	0.0987847	
0.110166	1.26103	0.0689729	
0.0465612	1.24459	0.0457275	
0.125154	1.32491	0.0730151	
0.0545307	1.31978	0.0493833	
0.192442	0.804788	0.0867879	
0.120623	0.759874	0.0718366	
0.183406	0.714139	0.0853001	
0.557077	0.206449	0.0861854	
0.572649	0.138218	0.0844185	
0.876747	1.72394	0.0312875	
0.911746	1.78328	0.0229863	
0.8327	1.79352	0.0410945	
0.47918	1.03613	0.0934703	
0.406042	1.05319	0.0977671	
0.355292	0.992616	0.0988505	
0.365363	1.10914	0.0988007	
0.18318	0.204267	0.0852615	
0.271682	0.22975	0.0958797	
0.50311	0.863551	0.0915159	
0.521169	0.938032	0.0898719	
0.155313	1.76807	0.0799941	
0.166419	1.69808	0.0822197	
0.238224	1.73846	0.0928578	
0.181253	0.425321	0.0849303	
0.225204	0.500006	0.0913694	
0.321676	0.456585	0.0983998	
0.29416	0.51622	0.0972968	
0.800037	0.232607	0.04791	
0.625995	1.33248	0.0776223	
0.550451	1.52656	0.0869066	
0.625328	1.55451	0.0777143	
0.549237	1.60907	0.0870369	
0.740701	0.903738	0.0592982	
0.814343	0.902651	0.0449727	
0.300269	0	0.0976006	
0.371475	0	0.0987299	
0.348887	0.051764	0.0988384	
0.439864	0	0.0961047	
0.418604	0.0537652	0.0972171	
0.521842	1.3862	0.0898079	
0.592559	1.3946	0.0820151	
0.515984	1.26486	0.0903586	
0.467516	1.21166	0.094328	
0.558855	1.32507	0.0859887	
0.48788	1.32038	0.0927897	
0.0768711	0.814456	0.0582942	
0.752267	1.88165	0.0571792	
0.324452	0.594595	0.0984738	
0.0285244	1.38879	0.0360646	
0.0782392	1.39048	0.0587875	
0.810936	0.75837	0.0456788	
0.854346	0.821275	0.0363637	
0.0456807	0.75743	0.0453043	
0.763172	1.60921	0.0551364	
0.76342	1.68446	0.0550893	
0.770066	1.75212	0.0538227	
0.707969	1.73879	0.0650289	
0.847118	1.59941	0.0379625	
0.832062	1.66432	0.0412313	
0.265929	1.93182	0.0954395	
0.191105	1.87756	0.0865741	
0.037441	0.146224	0.0411275	
0.030961	1.10891	0.0375151	
0.0367986	0.544978	0.0407836	
0.811105	1.32361	0.0456439	
0.752972	0.0813768	0.0570484	
0.790375	0	0.0498518	
0.149213	1.21454	0.0786966	
0.1495	1.14931	0.0787589	
0.326613	1.87232	0.0985266	
0.849789	1.24379	0.0373739	
0.887943	1.29411	0.0286815	
0.783766	1.24385	0.0511604	
0.685773	1.16415	0.0686892	
0.814378	0.398041	0.0449653	
0.926061	1.20048	0.0194594	
0.936785	1.11243	0.016767	
0.750256	0.560548	0.057551	
0.685497	0.523541	0.0687337	
0.25682	1.65544	0.0946761	
0.388167	0.109422	0.0983829	
0.577479	1.86761	0.0838502	
0.544062	1.9304	0.0875848	
0.236605	0.741046	0.0926825	
0.126636	0.676971	0.0733927	
0.796683	0.693471	0.048588	
0.73769	0.726744	0.0598419	
0.670718	0.760134	0.0710671	
0.743893	0.61385	0.0587183	
0.953551	0.170423	0.01247	
0.254729	1.15632	0.0944892	
0.267397	1.09603	0.0955548	
0.209912	1.1197	0.0893846	
0.811147	1.85832	0.0456353	
0.75791	1.8111	0.0561276	
0.0982417	1.45652	0.065442	
0.137773	1.39372	0.0761113	
0.753805	1.94352	0.0568936	
0.721541	2	0.0627006	
0.274023	0.79232	0.0960496	
0.249215	0.850283	0.0939752	
0.298463	0.718066	0.0975143	
0.848461	0.180772	0.0376668	
0.324118	1.51591	0.0984652	
0.331185	1.59438	0.0986253	
0.272064	1.48768	0.0959078	
0.205281	1.50665	0.0887312	
0.944256	1.83632	0.0148655	
0.719071	1.53312	0.0631295	
0.79072	1.54488	0.0497831	
0.946794	1.71558	0.0142146	
0.0784874	1.66217	0.0588764	
0.754674	0.358669	0.0567319	
0.81132	0.310734	0.0455996	
0.196248	1.39867	0.0873845	
0.166043	1.4537	0.0821471	
0.186535	1.33896	0.0858267	
0.3922	0.46147	0.0982657	
0.41142	0.394907	0.0975416	
0.470081	0.433969	0.0941448	
0.398206	1.42238	0.0980674	
0.451599	1.37641	0.0953954	
0.139594	0.606335	0.0765365	
0.903082	0.879786	0.0250836	
0.891728	0.752034	0.0277899	
0.934965	0.815753	0.0172269	
0.863559	1.38066	0.0342984	
0.0567077	1.52165	0.0503322	
0.131711	1.51493	0.0746571	
0.163879	1.08423	0.0817258	
0.934647	1.59815	0.0173073	
0.371475	2	0.0987299	
0.761722	1.16076	0.0554105	
0.818141	1.18618	0.0441804	
0.54065	1.14984	0.0879398	
0.721759	1.23168	0.0626628	
0.875872	1.16237	0.0314894	
0.569976	1.68406	0.0847289	
0.250665	0.333428	0.0941134	
0.934139	1.52552	0.0174355	
0.887703	0.488947	0.0287377	
0.690114	1.59304	0.0679878	
0.0993052	1.57917	0.0657692	
0.909612	1.65719	0.0235054	
0.194755	0.559694	0.0871525	
0.15689	0.490232	0.0803208	
0.870747	0.956713	0.0326653	
0.800096	0.989568	0.047898	
0.595893	1.75665	0.081597	
0.655727	1.77244	0.0733498	
0.816875	1.72615	0.044445	
0.708829	0.310718	0.0648834	
0.761383	0.290342	0.0554745	
0.750345	1.29539	0.0575347	
0.300269	2	0.0976006	
0.623464	0.482459	0.0779702	
0.245304	1.30941	0.0935919	
0.461939	0.109198	0.0947156	
0.847159	1.03572	0.0379535	
0.786127	1.07584	0.0506948	
0.790375	2	0.0498518	
0.0846371	0.633303	0.0610256	
0.117673	0.422033	0.0710494	
0.162485	0.266461	0.081451	
0.863754	0.262786	0.0342543	
0.32638	1.66446	0.0985211	
0.389086	1.54135	0.0983573	
0.905909	0.371856	0.0244023	
0.87361	0.429791	0.0320097	
0.494928	1.56661	0.0922133	
0.480511	1.62234	0.0933684	
0.642095	1.2804	0.0753511	
0.937647	0.68957	0.0165487	
0.952957	0.753859	0.0126241	
0.0402357	0.285029	0.042591	
0.948873	1.26259	0.0136798	
0.0387556	0	0.0418224	
0.940914	1.39629	0.0157187	
0.914745	1.45609	0.0222539	
0.929604	0.308608	0.0185746	
0.864112	0.682551	0.0341734	
0.940594	0.423502	0.0158002	
0.0387556	2	0.0418224	
0.478629	0.980727	0.0935122	
0.852851	1.51237	0.0366959	
0.829553	1.11653	0.041768	
0.421068	0.277428	0.0970997	
0.456233	0.33864	0.095097	
0.884132	1.08627	0.0295738	
0.324184	0.0993244	0.0984669	
0.276088	0.0548078	0.0961951	
0.890585	1.55961	0.0280596	
0.0388415	1.72118	0.0418674	
0.0737712	1.94239	0.0571565	
0.0819469	1.87535	0.0600979	
0.826556	0.473525	0.0424061	
0.863063	0.331482	0.0344104	
0.139075	1.63205	0.0764157	
0.0412796	1.59521	0.0431248	
0.780074	1.47977	0.0518846	
0.240231	0.160133	0.0930712	
0.272096	0.114041	0.0959101	
0.721488	1.45658	0.0627098	
0.176572	0.130179	0.0841062	
0.57186	0.972536	0.0845104	
0.0670518	0.0752793	0.054589	
0.481571	0.0509452	0.0932867	
0.526525	1.00206	0.089357	
0.631297	0.356044	0.0768854	
0.611971	0.0762643	0.0795185	
0.836487	1.44431	0.0402792	
0.232701	0	0.0922486	
0.0301883	0.460204	0.0370611	
0.323154	0.946643	0.09844	
0.925675	2	0.00929616	
0.846689	2	0.0178298	
0.683125	2	0.0310933	
0.597122	2	0.0356825	
0.766125	2	0.0251058	
0.420811	2	0.0399519	
0.242657	2	0.0338108	
0.0707405	2	0.0128971	
0.154074	2	0.0248801	
0.331805	2	0.0388374	
0.510309	2	0.038648	
1	-0.0721374	0	
0.950188	-0.0524234	-0.000386884	
0.683064	-1.94219	-0.00646642	
0.748759	-1.93265	-0.00434407	
0.70839	-2	-0.00560417	
0.88935	-0.0610541	-0.0011659	
0.745102	-0.0745946	-0.00445217	
0.603102	-0.063891	-0.0094996	
0	-1.2856	0	
0.0617259	-1.32684	-0.026298	
0	-1.35721	0	
0	-0.0721374	0	
0	-0.215036	0	
0	-0.143615	0	
0.0512321	-0.177622	-0.0250324	
0	-0.286611	0	
0.0501538	-0.326516	-0.0248802	
0	-0.358269	0	
0.049963	-0.255005	-0.0248527	
0	-0.714404	0	
0.0594291	-0.754353	-0.0260518	
0	-0.786116	0	
0.562765	-2	-0.0111678	
0.60794	-1.91632	-0.00930462	
0.635451	-2	-0.00822146	
0.92691	-2	-0.000643736	
0.949083	-1.94543	-0.000397949	
1	-2	0	
0.0489325	-1.39944	-0.024702	
0	-1.42879	0	
0	-2	0	
0	-1.92786	0	
0.0595367	-2	-0.0260636	
0.853935	-2	-0.00178367	
0.889786	-1.9425	-0.00115906	
0.449214	-1.91894	-0.0160196	
0.490378	-2	-0.0142695	
0.417595	-2	-0.0173136	
0	-1.21388	0	
0.0618206	-1.25457	-0.0263078	
0	-1.78496	0	
0.0438481	-1.82622	-0.0238906	
0	-1.85639	0	
0.8052	-0.824164	-0.00283604	
0.882997	-0.840188	-0.00126767	
0.828108	-0.897364	-0.00231219	
1	-1.07055	0	
0.934522	-1.0996	-0.000554227	
0.939859	-0.999321	-0.000494686	
0.620687	-1.67801	-0.00879715	
0.549611	-1.66711	-0.011725	
0.617063	-1.60664	-0.00894047	
0.737106	-0.446895	-0.00469279	
0.71619	-0.354649	-0.00534944	
0.790926	-0.398171	-0.0031885	
0.566014	-1.83141	-0.011031	
0.506662	-1.78071	-0.0135683	
0.564455	-1.74009	-0.0110966	
0.40411	-1.7075	-0.017844	
0.48562	-1.71822	-0.0144739	
0.43851	-1.78279	-0.0164643	
0.364176	-1.79397	-0.019508	
0.538715	-1.60358	-0.0121899	
0.583956	-1.5428	-0.0102826	
0.638043	-1.84473	-0.00812183	
0.245485	-1.45461	-0.0253007	
0.327718	-1.49442	-0.0212187	
0.28024	-1.53304	-0.0235858	
0.278583	-1.28582	-0.0236689	
0.348579	-1.23395	-0.020222	
0.377741	-1.30809	-0.0189138	
0.193402	-1.05755	-0.0275578	
0.118455	-1.02435	-0.0289641	
0.167046	-0.98494	-0.0284031	
0.426459	-0.659051	-0.0169573	
0.493488	-0.685531	-0.0141357	
0.440325	-0.738859	-0.0163893	
0.464916	-1.33862	-0.0153581	
0.455233	-1.25231	-0.0157672	
1	-1.42879	0	
1	-1.49933	0	
0.915434	-1.4654	-0.00078898	
0.912531	-0.918262	-0.000827707	
0.860388	-1.01699	-0.00166193	
0.868727	-0.957788	-0.00151067	
0.734337	-0.881052	-0.0047775	
0.726409	-0.965074	-0.00502378	
0.662931	-0.954992	-0.00718835	
0.401169	-0.86716	-0.0179575	
0.334764	-0.888326	-0.0208775	
0.352597	-0.817828	-0.0200352	
0.82454	-0.589278	-0.00239037	
0.807504	-0.676587	-0.00278103	
0.742217	-0.618429	-0.00453832	
0.147966	-0.0745363	-0.0288128	
0.413385	-1.18703	-0.0174808	
0.475351	-1.16574	-0.0149137	
0.480015	-0.496062	-0.0147143	
0.39902	-0.503541	-0.0180407	
0.444372	-0.439924	-0.0162215	
0.362633	-0.698429	-0.0195772	
0.595368	-1.23016	-0.00981378	
0.673653	-1.19538	-0.00680002	
0.644732	-1.27217	-0.00786674	
0.603975	-1.33945	-0.00946432	
0.576128	-1.2898	-0.0106076	
0.242358	-0.976561	-0.02545	
0.340763	-0.96716	-0.0205905	
0.286838	-1.03431	-0.0232542	
0.517186	-1.00672	-0.0131148	
0.428838	-0.987297	-0.0168606	
0.480391	-0.93866	-0.0146981	
0.623087	-0.379548	-0.00870266	
0.613949	-0.470375	-0.00906427	
0.560088	-0.425581	-0.0112807	
0.0821195	-1.87861	-0.0278961	
0.0960902	-1.79701	-0.0285206	
0.161646	-1.84585	-0.028539	
0.445437	-0.176311	-0.0161772	
0.437056	-0.252878	-0.0165243	
0.385631	-0.202898	-0.0185812	
0.377367	-0.126149	-0.0189298	
0.368455	-0.277581	-0.0193177	
0.318934	-0.192415	-0.0216495	
0.133576	-1.21378	-0.0289722	
0.0840783	-1.14736	-0.0280033	
0.160178	-1.14008	-0.0285734	
0.32196	-0.532687	-0.0215005	
0.320855	-0.470109	-0.0215549	
0.371106	-0.361936	-0.0192011	
0.375902	-0.431933	-0.0189928	
0.299531	-0.402116	-0.0226161	
0.124408	-0.742677	-0.0289913	
0.118429	-0.813272	-0.0289639	
0.396047	-0.580202	-0.018158	
0.316895	-1.71994	-0.0217503	
0.520027	-1.27156	-0.0129924	
0.232648	-0.667954	-0.0259053	
0.289224	-0.698899	-0.0231341	