<VTKFile type="UnstructuredGrid" version="0.1" byte_order="LittleEndian">
	<UnstructuredGrid>
		<Piece NumberOfPoints="1917" NumberOfCells="56">
			<CellData Scalars="scalars">
				<DataArray type="Float64" Name="Doublet Strengths" NumberOfComponents="1" Format="ascii">
-3.54035	
-14.2928	
-11.8979	
-8.5049	
-13.6506	
-13.7203	
-14.8801	
-13.3405	
-8.83697	
-10.169	
-5.73367	
-13.7152	
-11.3389	
-13.7138	
-9.32337	
-11.7843	
-12.8052	
-11.8494	
-12.3542	
-13.1647	
-13.226	
-13.0816	
-13.3922	
-12.4006	
-14.7515	
-12.0537	
-7.20271	
-10.8731	
-14.7664	
-13.056	
-13.6353	
-14.8864	
-13.0583	
-10.3488	
-6.19664	
-13.7464	
-12.1222	
-13.1547	
-13.6983	
-10.3635	
-12.394	
-13.1599	
-14.5865	
-12.8595	
-13.6019	
-14.6328	
-13.537	
-12.941	
-11.2494	
-13.9304	
-12.9616	
-3.78338	
-9.41415	
-11.8314	
-13.3714	
-7.48379	
				</DataArray>
				<DataArray type="Float64" Name="Velocity Potential" NumberOfComponents="1" Format="ascii">
38.2574	
34.8724	
28.8104	
26.0755	
32.8669	
32.9617	
34.2598	
32.2593	
26.2668	
27.2766	
23.9588	
32.6359	
28.9461	
32.492	
26.6698	
30.5172	
32.2687	
30.2618	
30.6746	
33.643	
33.329	
31.666	
33.156	
31.2039	
33.5519	
30.3102	
25.0287	
27.8642	
33.5685	
30.2692	
32.5005	
34.1289	
31.612	
27.0598	
23.3938	
32.831	
29.9884	
31.7494	
33.0072	
27.4405	
31.335	
32.2471	
33.2048	
31.6473	
33.9093	
34.8239	
33.1787	
31.6819	
28.4894	
33.7696	
31.623	
37.4315	
26.012	
29.121	
32.1141	
24.2814	
				</DataArray>
			</CellData>
			<Points>
				<DataArray type="Float64" Name="Position" NumberOfComponents="3" Format="ascii">
-1.56356	0	-0.218534	
-1.18451	0.0524256	-0.18715	
-2.20204	0	-0.280144	
-1.70961	2	-0.221339	
-1.74084	1.93467	-0.222208	
-2.13787	2	-0.254621	
-1.63654	0	-0.219674	
-1.60113	0.0610502	-0.219056	
-1.74536	0.0745738	-0.222342	
-1.70961	0	-0.221339	
-1.78209	0	-0.223494	
-1.85502	0	-0.226111	
-1.92771	0	-0.229058	
-1.88634	0.0639395	-0.227348	
-2.08705	1.39584	-0.21127	
-2.42847	1.3266	-0.244217	
-2.49047	1.35721	-0.21789	
-2.20204	1.92786	-0.280144	
-1.18537	1.94512	-0.187158	
-2.84626	0.0721374	-0.249017	
-2.4265	0.0533506	-0.244414	
-2.13469	0	-0.186763	
-2.84626	0.215036	-0.249017	
-3.11219	0.171582	-0.308425	
-2.13469	0.143615	-0.186763	
-2.13469	0.286611	-0.186763	
-2.84626	0.358269	-0.249017	
-2.44029	0.326064	-0.242774	
-2.43808	0.252841	-0.243081	
-2.49047	0.714404	-0.21789	
-2.49047	0.786116	-0.21789	
-2.7868	0.754574	-0.275072	
-1.92771	2	-0.229058	
-1.85502	2	-0.226111	
-2.6037	1.91204	-0.289837	
-1.94295	1.66657	-0.229704	
-2.22876	1.60722	-0.257941	
-1.7536	0.446925	-0.22259	
-1.70066	0.397747	-0.221107	
-2.48642	0.354616	-0.285512	
-1.49047	2	-0.21789	
-2.49047	1.42879	-0.21789	
-1.77891	2	-0.155636	
-2.07516	2	-0.212826	
-2.84626	1.92786	-0.249017	
-1.63654	2	-0.219674	
-1.20778	2	-0.187407	
-1.60146	1.93956	-0.219061	
-1.61195	1.94176	-0.199638	
-2.75259	1.9167	-0.296154	
-2.0001	2	-0.23216	
-2.49047	1.21388	-0.21789	
-2.08303	1.19029	-0.211855	
-2.49047	1.14216	-0.21789	
-2.49047	1.2856	-0.21789	
-2.42877	1.25405	-0.244186	
-2.84626	1.78496	-0.249017	
-2.49047	1.85639	-0.21789	
-1.73503	1.82617	-0.179533	
-2.07573	0.114671	-0.212762	
-2.77301	1.46922	-0.276334	
-2.72749	1.38862	-0.277983	
-1.68527	0.824164	-0.220726	
-2.01815	0.897364	-0.251329	
-1.60748	0.840188	-0.219158	
-2.33312	1.46561	-0.246526	
-1.84626	1	-0.249017	
-2.26218	0.999321	-0.280639	
-2.20204	1.07055	-0.280144	
-1.95178	1.60348	-0.230081	
-1.583	0.356544	-0.218787	
-1.29153	0.353408	-0.188759	
-1.62741	0.427857	-0.219503	
-2.27876	1.82506	-0.259986	
-2.28245	1.7382	-0.260141	
-1.62802	1.77788	-0.200331	
-2.00524	1.71777	-0.232381	
-2.05314	1.78088	-0.234403	
-2.4423	1.70728	-0.266867	
-2.48235	1.79378	-0.268537	
-1.90644	1.54291	-0.228169	
-1.8442	1.8351	-0.225698	
-2.60059	1.45384	-0.274309	
-2.21028	1.53294	-0.241478	
-2.1628	1.49429	-0.239111	
-2.55904	1.28284	-0.272252	
-2.82313	1.30815	-0.299008	
-2.14057	1.23305	-0.23805	
-3.00972	1.05577	-0.307742	
-2.33664	0.974397	-0.246599	
-2.02114	1.02275	-0.215678	
-2.06403	0.65903	-0.234848	
-2.40593	0.738857	-0.265407	
-1.99699	0.685529	-0.232026	
-2.38123	1.33866	-0.264371	
-2.39091	1.25226	-0.26478	
-2.20204	1.42879	-0.280144	
-1.93135	1.46516	-0.249813	
-2.20204	1.49933	-0.280144	
-1.57794	0.918262	-0.218718	
-2.4677	0.881052	-0.284922	
-1.84107	0.891355	-0.22558	
-1.82754	0.954992	-0.225078	
-1.73351	0.867158	-0.20472	
-2.13786	0.817822	-0.237924	
-2.51139	0.888323	-0.26989	
-2.02172	0.589259	-0.251408	
-2.10404	0.618435	-0.253556	
-2.03875	0.676586	-0.251798	
-2.28894	0	-0.245137	
-2.36024	0	-0.246877	
-2.70687	0.0790961	-0.277943	
-1.97043	1.27156	-0.230882	
-1.96001	1.20368	-0.230434	
-2.0107	0.496767	-0.232614	
-2.0474	0.442032	-0.234165	
-2.44793	0.502871	-0.267085	
-2.48362	0.698424	-0.268594	
-1.89511	1.23016	-0.227704	
-1.84575	1.27217	-0.225757	
-2.17261	1.19537	-0.255817	
-1.55856	1.2898	-0.19737	
-1.76962	1.02577	-0.206231	
-2.50564	0.967174	-0.269615	
-2.20382	1.0342	-0.241153	
-2.68485	1.00672	-0.293259	
-2.01008	0.93866	-0.232588	
-2.06165	0.987296	-0.234751	
-2.22424	0.378981	-0.257762	
-1.9293	0.426844	-0.229125	
-2.23218	0.470462	-0.258076	
-2.76412	1.87857	-0.276914	
-2.74989	1.79633	-0.277547	
-2.32882	1.84585	-0.246429	
-2.11854	0.270573	-0.237055	
-1.74806	0.200611	-0.205302	
-2.52688	0.193571	-0.270645	
-2.46516	0.123897	-0.267788	
-2.05299	0.249496	-0.234396	
-2.04388	0.173576	-0.234019	
-2.7175	1.20923	-0.278008	
-2.33161	1.13932	-0.246493	
-2.41623	1.13751	-0.245281	
-2.16881	0.531427	-0.239405	
-2.16971	0.463982	-0.239449	
-2.11288	0.427199	-0.23681	
-2.17959	0.382421	-0.239939	
-2.0103	0.742778	-0.215754	
-2.72765	0.813881	-0.277982	
-2.45034	0.580015	-0.26718	
-2.17359	1.7199	-0.239641	
-2.54261	0.757182	-0.271427	
-1.84547	0.698895	-0.209897	
-2.2604	0.732194	-0.243913	
-2.24072	0.893597	-0.242985	
-2.20775	0.830458	-0.241351	
-2.64629	0.834567	-0.276326	
-2.35794	1.53139	-0.246868	
-2.30537	1.59044	-0.245743	
-2.28102	1.5207	-0.244816	
-2.19222	1.10613	-0.256534	
-1.76639	1.13654	-0.222987	
-2.68777	0.567577	-0.277629	
-2.75489	0.624293	-0.277361	
-2.32617	0.641057	-0.246364	
-2.25783	0.667946	-0.243795	
-2.25772	0.607392	-0.24379	
-2.60543	0.97644	-0.27454	
-2.43094	0	-0.243954	
-1.92348	1.40806	-0.22888	
-1.95616	1.34451	-0.230268	
-1.98974	1.41675	-0.231714	
-1.95066	1.48085	-0.230033	
-2.41167	1.43176	-0.265643	
-2.01533	1.49613	-0.232813	
-2.08132	0.925911	-0.235537	
-2.24836	1.74077	-0.243351	
-2.96067	1.66215	-0.305641	
-1.95762	1.70694	-0.214877	
-2.20204	1.71339	-0.280144	
-2.27249	1.77904	-0.280756	
-2.20204	1.78496	-0.280144	
-2.28894	2	-0.245137	
-2.68731	1.92525	-0.277619	
-2.36024	2	-0.246877	
-2.12136	0.350099	-0.237178	
-2.05764	0.315549	-0.234588	
-1.81745	1.02327	-0.224713	
-2.24281	1.02942	-0.258503	
-1.81251	0.0746863	-0.224536	
-1.84722	0.130322	-0.225813	
-2.1288	0.159825	-0.254326	
-2.14119	0.255296	-0.254731	
-1.47273	0.198868	-0.193987	
-1.89059	0.185075	-0.22752	
-2.09396	0.53229	-0.253258	
-2.9136	0.358269	-0.342399	
-1.84626	0.286611	-0.249017	
-1.55266	0.283499	-0.218407	
-2.20204	0.143615	-0.280144	
-1.92403	0.19815	-0.249719	
-2.20204	0.215036	-0.280144	
-2.3468	0.268711	-0.281903	
-2.35588	0	-0.263287	
-1.7171	0	-0.204076	
-2.07971	0.0522709	-0.235474	
-1.67122	0.233077	-0.18446	
-2.72464	0.293965	-0.278	
-2.4383	1.52249	-0.266711	
-2.08102	1.6164	-0.235525	
-2.0214	1.57352	-0.233071	
-2.01693	1.65009	-0.232881	
-2.37856	1.59898	-0.246784	
-2.21743	0	-0.241836	
-2.16284	0.0589648	-0.239113	
-2.1448	0	-0.238248	
-1.66288	1.47391	-0.220213	
-2.10139	1.46129	-0.253476	
-2.07891	1.53681	-0.252831	
-2.53996	0.286849	-0.271294	
-1.80392	0.724627	-0.224234	
-1.45831	0.784216	-0.193465	
-2.10846	0.788387	-0.253689	
-2.67448	0.223399	-0.27729	
-1.94885	1.34531	-0.21459	
-1.9441	1.40661	-0.214423	
-2.59362	1.36487	-0.273972	
-2.27267	1.29047	-0.244461	
-1.93043	0.414541	-0.213901	
-2.23348	0.434011	-0.242632	
-2.59849	0.349215	-0.274208	
-2.34907	0.422964	-0.246794	
-2.65524	0.489015	-0.276662	
-2.37138	0.488653	-0.246859	
-1.37942	1.24582	-0.173658	
-2.07694	1.18695	-0.235365	
-1.89031	1.58611	-0.212117	
-1.46185	0.42229	-0.193592	
-1.48403	0.312816	-0.194406	
-2.27605	0.310713	-0.259872	
-1.86967	0.255176	-0.226683	
-1.93552	0.23291	-0.229388	
-2.97805	1.20734	-0.306443	
-2.13598	1.1572	-0.237837	
-2.20522	1.15129	-0.241224	
-1.83818	1.2101	-0.209531	
-2.50102	1.08885	-0.269396	
-1.74862	1.61914	-0.222439	
-1.76746	1.69424	-0.223021	
-2.04465	1.67616	-0.25194	
-1.81635	1.64844	-0.224673	
-1.84475	1.72086	-0.225719	
-2.18979	0.644913	-0.240448	
-1.90237	1.94629	-0.212683	
-2.54194	1.93331	-0.271394	
-2.25958	1.88539	-0.243876	
-2.02699	0.0804625	-0.251525	
-1.2558	0.127785	-0.188098	
-1.26704	1.88257	-0.188293	
-2.03006	1.92762	-0.251595	
-1.71011	0.21589	-0.221352	
-1.895	0.273142	-0.212339	
-2.24389	0.209198	-0.243138	
-1.88363	0.143339	-0.211795	
-2.31005	0.145092	-0.245898	
-1.83116	0.115792	-0.209178	
-2.18671	1.85807	-0.240294	
-2.12097	1.88373	-0.237161	
-1.75544	1.94611	-0.205612	
-1.7171	2	-0.204076	
-2.1448	2	-0.238248	
-2.08537	0.682902	-0.211523	
-2.84626	0.64279	-0.249017	
-1.61194	1.88295	-0.199638	
-1.84562	1.53147	-0.225752	
-1.82319	1.46174	-0.22492	
-1.88766	1.47178	-0.227401	
-2.39007	1.08229	-0.246544	
-1.34307	0.329519	-0.189934	
-1.9088	0.43708	-0.249538	
-1.84626	0.429861	-0.249017	
-1.5248	1.67699	-0.195989	
-1.79828	1.57544	-0.22404	
-1.83822	1.60691	-0.209532	
-2.15227	1.65508	-0.238603	
-2.25335	1.81461	-0.243587	
-1.83678	1.78507	-0.20946	
-1.34189	0.749751	-0.189904	
-1.74752	0.701087	-0.222406	
-1.98326	0.758919	-0.250631	
-2.49047	0.429861	-0.21789	
-2.78013	0.409639	-0.275745	
-2.3215	1.77163	-0.246241	
-2.7469	1.71936	-0.277641	
-2.04	1.1716	-0.251828	
-1.71701	1.09553	-0.221537	
-2.14555	1.76477	-0.254877	
-1.51118	1.7791	-0.195449	
-1.99047	0.277236	-0.231745	
-2.32147	0.151691	-0.261805	
-1.71641	1.84554	-0.204049	
-2.00599	1.83711	-0.232413	
-1.8865	1.33945	-0.227354	
-1.85753	1.40104	-0.226208	
-1.94397	0.297567	-0.214419	
-2.31915	0.357474	-0.246176	
-1.76017	0.760525	-0.205815	
-2.06626	0.810302	-0.234938	
-1.97429	0.749841	-0.231048	
-1.90927	0.751361	-0.228287	
-1.93155	0.686344	-0.22922	
-2.00095	0.810027	-0.232196	
-1.93563	0.81571	-0.229393	
-2.55782	1.64173	-0.311271	
-1.55613	1.65788	-0.218446	
-2.84626	1	-0.249017	
-2.84626	1.07055	-0.249017	
-2.08606	1.0308	-0.21142	
-1.19946	1.5272	-0.187309	
-2.20204	1.57014	-0.280144	
-1.55511	0.121062	-0.197227	
-1.9575	0.068568	-0.230326	
-2.02499	0.0968802	-0.233224	
-2.20204	1.85639	-0.280144	
-1.91296	1.8723	-0.249585	
-2.20204	0.0721374	-0.280144	
-1.55071	0.116381	-0.218386	
-2.05672	0.378957	-0.23455	
-2.20204	1.2856	-0.280144	
-1.55624	1.33655	-0.218447	
-2.20204	1.35721	-0.280144	
-1.58962	1.07097	-0.198681	
-1.95189	1.13809	-0.230085	
-1.54223	1.10545	-0.196696	
-2.00498	1.08867	-0.232369	
-1.96624	0.876824	-0.230702	
-1.90458	0.882801	-0.228092	
-2.22659	0.819303	-0.257855	
-2.12422	1.38959	-0.237305	
-1.76199	1.45442	-0.205894	
-2.18299	1.41914	-0.240108	
-1.63847	0.213959	-0.200781	
-1.95223	0.621411	-0.2301	
-1.9144	0.549577	-0.2285	
-1.97581	0.556476	-0.231113	
-1.94354	0.491713	-0.229729	
-2.61216	0.0712931	-0.274855	
-1.88423	1.1672	-0.227263	
-2.13968	1.57159	-0.238009	
-1.68405	0.47164	-0.220697	
-2.08201	0.476615	-0.211993	
-2.76874	0.546631	-0.276633	
-1.84626	0.500665	-0.249017	
-1.55045	0.802839	-0.218383	
-1.26992	0.646217	-0.188344	
-1.24773	0.69766	-0.187967	
-1.60361	1.17495	-0.219095	
-1.91174	1.0996	-0.249571	
-1.99616	1.1007	-0.250875	
-2.10432	1.32398	-0.253564	
-1.32419	1.29855	-0.189473	
-1.70979	1.24767	-0.221343	
-1.89241	0.61668	-0.227594	
-1.85527	0.546139	-0.226121	
-1.44081	0.561624	-0.192854	
-1.80847	0.491616	-0.224393	
-1.33055	1.0418	-0.189624	
-1.74698	1.02609	-0.22239	
-2.04371	0.976287	-0.251917	
-1.76407	0.965074	-0.222914	
-1.89655	0.954567	-0.227763	
-1.62406	1.62515	-0.219442	
-1.32963	1.59965	-0.189602	
-2.02784	0.360303	-0.215571	
-1.56065	1.5889	-0.218499	
-1.8182	1.33334	-0.22474	
-1.79187	1.39903	-0.223821	
-1.77945	1.2624	-0.223408	
-2.22273	0.683934	-0.257703	
-2.42226	0.967445	-0.244803	
-3.11559	0.89983	-0.308268	
-2.30878	0.914042	-0.245857	
-2.05862	1.0505	-0.234628	
-1.91289	1.13415	-0.213159	
-1.86929	1.09375	-0.21109	
-1.61092	1.5431	-0.199594	
-2.31669	0.770923	-0.246104	
-1.89504	0.785107	-0.212341	
-1.81771	1.34839	-0.208509	
-2.71318	1.29694	-0.277992	
-2.34024	1.65281	-0.246665	
-1.91783	1.25411	-0.249643	
-1.62026	1.32162	-0.219374	
-1.77091	0.633745	-0.206288	
-2.18081	0.587288	-0.239999	
-2.38149	0.6882	-0.246738	
-2.0274	0.873522	-0.233326	
-1.36605	1.36753	-0.173137	
-2.21743	2	-0.241836	
-1.39322	1.1987	-0.191324	
-1.99381	0.394274	-0.231889	
-1.99314	0.336713	-0.23186	
-2.3152	0.702848	-0.246059	
-2.49047	0.929454	-0.21789	
-2.49047	0.857842	-0.21789	
-2.05003	1.94387	-0.214797	
-2.0151	1.16572	-0.232803	
-2.07184	1.11814	-0.235162	
-2.06419	1.79696	-0.252434	
-1.36087	1.73661	-0.1904	
-1.58202	0.370041	-0.198358	
-1.63031	0.446178	-0.200429	
-1.59449	0.936014	-0.198889	
-0.880546	1.0523	-0.156664	
-1.63009	1.01699	-0.219552	
-2.49047	1.49933	-0.21789	
-1.92945	0.586375	-0.249788	
-1.96597	0.509874	-0.250329	
-2.4289	1.54624	-0.244172	
-1.44844	0.664255	-0.193118	
-1.49958	0.750955	-0.194997	
-1.45163	0.837223	-0.193229	
-2.20204	1.21388	-0.280144	
-1.18598	1.17543	-0.187165	
-2.20204	0.929454	-0.280144	
-1.18684	0.873321	-0.187173	
-2.55782	0.857842	-0.311271	
-1.54701	0.725606	-0.218346	
-2.20204	0.786116	-0.280144	
-2.20204	0.714404	-0.280144	
-1.56303	0.653203	-0.218527	
-2.20204	0.64279	-0.280144	
-2.55782	0.571209	-0.311271	
-2.20204	1.14216	-0.280144	
-1.26597	0.957788	-0.188274	
-1.0057	0.930031	-0.159289	
-1.83129	0.613315	-0.225216	
-2.0907	1.6049	-0.210679	
-1.68035	0.552048	-0.202568	
-2.0157	0.616488	-0.232828	
-1.98832	1.54065	-0.250725	
-1.64953	0.177963	-0.219931	
-1.63623	1.24487	-0.219668	
-1.97805	1.39957	-0.250537	
-1.3555	0.139289	-0.190256	
-1.61347	1.69928	-0.219257	
-1.6465	1.75272	-0.21987	
-1.68496	1.35868	-0.220719	
-1.38195	1.39206	-0.19099	
-1.33546	1.42097	-0.189744	
-1.62402	1.81911	-0.219441	
-2.42385	1.6612	-0.244663	
-2.49047	1.71339	-0.21789	
-1.87456	0.496577	-0.211351	
-2.25413	0.549039	-0.243623	
-1.31777	1.85508	-0.189324	
-1.18853	0.520218	-0.187191	
-0.962004	0.528047	-0.158198	
-2.49047	1.57014	-0.21789	
-2.84626	0.500665	-0.249017	
-1.48655	0.932053	-0.178612	
-1.42699	1.07414	-0.19239	
-1.43044	1.51028	-0.192504	
-2.84626	1.64173	-0.249017	
-1.36671	0.282674	-0.190559	
-2.49047	0.571209	-0.21789	
-1.73432	0.59575	-0.179652	
-0.84443	1.71321	-0.15619	
-2.16009	1.88726	-0.255375	
-2.07849	0.827624	-0.212441	
-1.41718	1.82622	-0.19207	
-1.19768	1.40032	-0.187289	
-1.72849	1.87065	-0.221853	
-1.63176	0.866054	-0.184461	
-1.59893	1.24863	-0.183658	
-1.47585	1.94589	-0.194102	
-1.73187	1.75284	-0.18005	
-1.07825	1.94185	-0.161497	
-2.4542	0.611259	-0.17739	
-2.78991	0.691022	-0.198843	
-2.09541	0.951279	-0.144664	
-2.79608	0.885946	-0.201595	
-1.97899	0	-0.127119	
-1.91064	0	-0.13432	
-2.30564	0.0792566	-0.161074	
-2.27208	0	-0.261659	
-1.2425	0.0639973	-0.159084	
-1.62997	0	-0.182904	
-1.54362	0.0936441	-0.203691	
-1.8395	0	-0.143835	
-1.76893	0	-0.155189	
-1.81203	0.0798839	-0.148032	
-2.10638	0.821071	-0.150829	
-2.45302	1.45488	-0.176757	
-2.45608	1.89867	-0.178419	
-1.6232	2	-0.0959918	
-2.05061	2	-0.121785	
-2.38421	1.91895	-0.154309	
-1.24594	1.93754	-0.158273	
-1.54872	1.90585	-0.202384	
-1.56051	2	-0.199405	
-1.62997	2	-0.182904	
-1.91064	2	-0.13432	
-1.87495	1.92228	-0.138845	
-1.8395	2	-0.143835	
-2.08721	1.85759	-0.120012	
-2.36852	1.82278	-0.155437	
-2.16342	0.600657	-0.179858	
-1.75255	0.663037	-0.158091	
-2.17569	0.68441	-0.177926	
-1.54528	0.939959	-0.203266	
-1.55434	1.33496	-0.200957	
-2.354	1.68417	-0.156583	
-1.67245	1.74973	-0.0920681	
-2.8062	1.71007	-0.181995	
-1.80507	1.02684	-0.149142	
-2.17129	0.943151	-0.178612	
-1.74988	0.965528	-0.158572	
-1.58079	0.553448	-0.194403	
-1.53784	0.495631	-0.205181	
-2.24024	1.36962	-0.123817	
-2.88352	1.42353	-0.181837	
-2.2508	1.43872	-0.124877	
-2.71225	1.02505	-0.173802	
-2.29033	0.965827	-0.129913	
-2.61927	1.04082	-0.157433	
-2.55813	1.21008	-0.152054	
-3.00268	1.26463	-0.192285	
-2.28511	1.19252	-0.129147	
-1.79389	1.8275	-0.150961	
-2.16197	1.91186	-0.180089	
-2.21709	1.83465	-0.171835	
-2.28074	1.04863	-0.163777	
-1.86441	1.0111	-0.140277	
-2.20366	1.09426	-0.173739	
-1.56107	1.10778	-0.102458	
-2.35353	1.09436	-0.156622	
-2.03368	0.92332	-0.12283	
-2.07188	0.983948	-0.120673	
-2.82638	0.912712	-0.18148	
-1.70289	1.65028	-0.0902101	
-1.75669	1.64109	-0.088142	
-2.42055	1.58611	-0.152146	
-1.5607	0.621253	-0.199359	
-1.27139	0.607584	-0.152407	
-2.02269	0.544593	-0.205979	
-2.04336	0.626188	-0.201689	
-2.27862	0.883867	-0.164019	
-1.88178	0.814004	-0.137939	
-1.85746	0.883506	-0.141246	
-1.52026	0.94284	-0.107572	
-1.46717	0.823889	-0.115202	
-1.78831	0.86549	-0.151886	
-2.23372	0.577518	-0.12322	
-2.587	0.659851	-0.154129	
-2.29544	0.634606	-0.130693	
-2.0181	0.0913029	-0.206952	
-1.5911	0.141129	-0.191919	
-2.01723	1.15841	-0.123976	
-2.8156	1.18235	-0.181715	
-1.7119	1.11752	-0.0897469	
-2.73093	0.938839	-0.178604	
-2.06923	0.99711	-0.132802	
-2.05042	0.516229	-0.121796	
-2.43453	0.597248	-0.151489	
-2.1248	0.53029	-0.119092	
-2.25636	1.25683	-0.166672	
-2.23632	1.17353	-0.16923	
-1.83205	1.22905	-0.144944	
-2.75194	1.10599	-0.184806	
-2.44006	1.05145	-0.170357	
-2.39687	1.1866	-0.153904	
-2.44992	1.17077	-0.175132	
-2.52882	1.39834	-0.209466	
-1.46587	1.4857	-0.115402	
-1.88185	1.4682	-0.137931	
-2.57045	0.907417	-0.152842	
-2.16171	0.841878	-0.119315	
-3.12291	0.492781	-0.221037	
-1.99893	0.543817	-0.111127	
-2.40362	0.570722	-0.156114	
-2.18171	1.72433	-0.119923	
-2.13763	1.78876	-0.11904	
-2.05197	0.853718	-0.121708	
-1.96493	0.389993	-0.128438	
-1.61658	0.316743	-0.0966029	
-1.91074	0.343184	-0.134309	
-2.08535	0.780432	-0.120086	
-1.74853	0.84375	-0.0883265	
-2.15541	0.770799	-0.119195	
-2.00055	0.577671	-0.125265	
-1.92087	1.02428	-0.229391	
-2.12289	0.237428	-0.186635	
-1.78295	0.153222	-0.152786	
-1.71535	0.163431	-0.165043	
-2.21396	0.159631	-0.172272	
-2.20485	1.80219	-0.121075	
-1.87899	1.86234	-0.092186	
-2.28374	1.80354	-0.12895	
-2.1129	0.329138	-0.119261	
-2.54337	0.30982	-0.151297	
-2.49126	0.244444	-0.150166	
-2.14502	0.391669	-0.119072	
-1.38875	1.03303	-0.128419	
-2.11331	0.717798	-0.119253	
-2.03168	0.718603	-0.122962	
-1.71382	0.665477	-0.0896537	
-2.1447	0.658642	-0.11907	
-1.61502	1.87015	-0.0967495	
-1.93514	1.80864	-0.131513	
-1.72005	1.78424	-0.0893635	
-1.96272	1.74797	-0.128653	
-2.2102	0.386445	-0.121412	
-2.24024	0.441074	-0.123817	
-2.27957	0.365688	-0.128369	
-2.05148	1.25637	-0.121736	
-2.12632	1.24657	-0.119079	
-2.07433	1.3122	-0.120559	
-1.78407	1.30199	-0.0879178	
-2.19984	1.27096	-0.120784	
-1.92541	0.276367	-0.132598	
-2.55573	0.292881	-0.205404	
-1.52375	0.234809	-0.107109	
-1.46783	0.216682	-0.115101	
-2.30206	0.891352	-0.131753	
-2.10141	1.48059	-0.119532	
-2.02556	1.4429	-0.12338	
-2.37964	1.51083	-0.154625	
-1.95417	1.45569	-0.129505	
-2.11392	1.36546	-0.119242	
-2.18439	1.34038	-0.120032	
-1.84994	1.70558	-0.142314	
-1.86492	1.63351	-0.140206	
-1.79297	1.65739	-0.151113	
-1.71379	0.837679	-0.165346	
-1.75807	0.792044	-0.157102	
-1.77032	1.09876	-0.154948	
-2.15593	1.30603	-0.181064	
-1.39768	1.35315	-0.126799	
-2.52211	0.166399	-0.150551	
-2.08452	0.169498	-0.12012	
-2.07397	1.40455	-0.195621	
-2.23946	0.41495	-0.168818	
-2.29203	0.474418	-0.16252	
-2.52708	1.05334	-0.15069	
-2.2122	0.984567	-0.121545	
-2.17563	1.13834	-0.119701	
-1.8104	0.452043	-0.14829	
-2.16334	0.374434	-0.17987	
-1.39585	0.42015	-0.127128	
-2.08643	0.484457	-0.193249	
-2.32823	0	-0.136486	
-2.34487	0.0667918	-0.139986	
-2.39262	0	-0.152566	
-2.32823	2	-0.136486	
-1.94092	1.94291	-0.0997638	
-1.90199	2	-0.0945143	
-2.36581	0.853126	-0.145002	
-2.39262	2	-0.152566	
-2.71502	1.92333	-0.174477	
-1.63222	0.506745	-0.0951912	
-1.93498	0.56183	-0.131531	
-1.94274	0.636864	-0.130693	
-1.87365	0.546278	-0.139018	
-1.87438	0.617676	-0.138921	
-2.63144	0.078087	-0.158968	
-2.59153	1.56345	-0.154528	
-1.93202	1.62497	-0.0984106	
-2.3199	1.57191	-0.134882	
-2.73362	0.153301	-0.179349	
-2.73786	0.252546	-0.180549	
-2.07752	0.211952	-0.13623	
-2.00609	0.650538	-0.124823	
-2.3112	0.718414	-0.160506	
-1.94467	0.798942	-0.130488	
-2.01172	0.786413	-0.124387	
-1.53439	0.678765	-0.105726	
-1.88442	0.741319	-0.137595	
-2.79644	1.80752	-0.201759	
-2.39191	1.74768	-0.152348	
-2.71871	1.83308	-0.175394	
-1.95225	1.20637	-0.129701	
-2.02329	1.92648	-0.20585	
-1.96761	1.86025	-0.218168	
-2.41159	0.344499	-0.158873	
-2.43751	0.410465	-0.1692	
-2.62838	0.282592	-0.158566	
-2.69821	0.338159	-0.170574	
-2.35506	0.251286	-0.156496	
-1.70012	0.217721	-0.0903605	
-2.34798	0.164212	-0.157085	
-1.92371	0.230355	-0.228685	
-2.47926	1.93673	-0.150232	
-2.38031	1.26103	-0.148917	
-2.44391	1.24459	-0.172163	
-2.36532	1.32491	-0.144875	
-2.79173	1.31978	-0.199634	
-2.65382	0.804788	-0.162229	
-2.72563	0.759874	-0.177181	
-2.30707	0.714139	-0.13259	
-1.9334	0.206449	-0.131705	
-1.56204	0.138218	-0.102344	
-1.61373	1.72394	-0.186602	
-1.57873	1.78328	-0.194904	
-2.01356	1.79352	-0.207923	
-2.0113	1.03613	-0.12442	
-2.44021	1.05319	-0.15125	
-2.13518	0.992616	-0.11904	
-1.76933	1.10914	-0.0879622	
-2.66308	0.204267	-0.163756	
-2.21879	0.22975	-0.12201	
-1.98736	0.863551	-0.126374	
-1.96931	0.938032	-0.128018	
-1.97938	1.76807	-0.106769	
-2.67984	1.69808	-0.166797	
-2.25225	1.73846	-0.125032	
-2.30922	0.425321	-0.13296	
-2.26527	0.500006	-0.126521	
-2.1688	0.456585	-0.11949	
-2.19631	0.51622	-0.120593	
-1.69044	0.232607	-0.16998	
-1.86448	1.33248	-0.140268	
-1.94002	1.52656	-0.130983	
-2.22093	1.55451	-0.171303	
-2.29702	1.60907	-0.16198	
-1.39399	0.903738	-0.127465	
-2.03191	0.902651	-0.204044	
-2.19021	0	-0.120289	
-2.119	0	-0.11916	
-2.14159	0.051764	-0.119052	
-2.05061	0	-0.121785	
-2.07187	0.0537652	-0.120673	
-1.96863	1.3862	-0.128082	
-1.89792	1.3946	-0.135875	
-1.97449	1.26486	-0.127531	
-1.66718	1.21166	-0.0924349	
-1.93162	1.32507	-0.131901	
-2.00259	1.32038	-0.1251	
-2.05782	0.814456	-0.128469	
-1.73821	1.88165	-0.160711	
-2.16602	0.594595	-0.119416	
-2.10617	1.38879	-0.150698	
-2.41224	1.39048	-0.159103	
-2.03532	0.75837	-0.203338	
-1.63613	0.821275	-0.181526	
-2.44479	0.75743	-0.172586	
-2.08309	1.60921	-0.193881	
-1.72705	1.68446	-0.162801	
-1.36463	1.75212	-0.13294	
-2.13829	1.73879	-0.183988	
-1.99914	1.59941	-0.211055	
-1.65841	1.66432	-0.176659	
-2.58033	1.93182	-0.153578	
-2.29937	1.87756	-0.131316	
-2.45303	0.146224	-0.176762	
-2.10373	1.10891	-0.149248	
-2.09789	0.544978	-0.145979	
-2.03515	1.32361	-0.203373	
-1.7375	0.0813768	-0.160842	
-1.7001	0	-0.168038	
-1.98548	1.21454	-0.108066	
-2.34097	1.14931	-0.139131	
-2.16386	1.87232	-0.119363	
-1.64069	1.24379	-0.180516	
-1.60253	1.29411	-0.189209	
-1.70671	1.24385	-0.16673	
-1.8047	1.16415	-0.149201	
-2.38766	0.398041	-0.235179	
-1.9202	1.20048	-0.229558	
-1.55369	1.11243	-0.201123	
-1.74022	0.560548	-0.160339	
-1.80498	0.523541	-0.149156	
-2.58944	1.65544	-0.154341	
-2.10231	0.109422	-0.119507	
-1.55721	1.86761	-0.102913	
-1.94641	1.9304	-0.130305	
-1.89809	0.741046	-0.0940804	
-2.36384	0.676971	-0.144497	
-1.33801	0.693471	-0.138175	
-1.75279	0.726744	-0.158048	
-1.81976	0.760134	-0.146823	
-1.03502	0.61385	-0.0969174	
-1.18114	0.170423	-0.174293	
-1.87996	1.15632	-0.0922737	
-1.8673	1.09603	-0.091208	
-2.28056	1.1197	-0.128505	
-1.32355	1.85832	-0.141128	
-1.73257	1.8111	-0.161762	
-2.39223	1.45652	-0.152448	
-2.3527	1.39372	-0.141779	
-1.38089	1.94352	-0.129869	
-1.76893	2	-0.155189	
-2.21645	0.79232	-0.12184	
-1.88548	0.850283	-0.0927876	
-2.19201	0.718066	-0.120376	
-1.64201	0.180772	-0.180223	
-2.16636	1.51591	-0.119425	
-2.51507	1.59438	-0.150392	
-1.86263	1.48768	-0.0908551	
-2.28519	1.50665	-0.129159	
-1.19044	1.83632	-0.171897	
-2.12719	1.53312	-0.185888	
-1.34397	1.54488	-0.13698	
-1.54368	1.71558	-0.203675	
-2.76777	1.66217	-0.190141	
-1.7358	0.358669	-0.161158	
-1.67916	0.310734	-0.17229	
-1.93845	1.39867	-0.0993784	
-2.32443	1.4537	-0.135743	
-2.30394	1.33896	-0.132063	
-2.09828	0.46147	-0.119624	
-1.72327	0.394907	-0.0892213	
-2.37618	0.433969	-0.154872	
-1.73649	1.42238	-0.0886955	
-2.03888	1.37641	-0.122495	
-2.35088	0.606335	-0.141353	
-1.58739	0.879786	-0.192806	
-1.59875	0.752034	-0.1901	
-1.55551	0.815753	-0.200663	
-1.9827	1.38066	-0.214719	
-2.78955	1.52165	-0.198685	
-2.35876	1.51493	-0.143233	
-1.97081	1.08423	-0.105037	
-1.55583	1.59815	-0.200583	
-1.76322	2	-0.0880329	
-2.08454	1.16076	-0.193607	
-1.31655	1.18618	-0.142582	
-1.59404	1.14984	-0.098823	
-1.76872	1.23168	-0.155227	
-1.6146	1.16237	-0.186401	
-1.9205	1.68406	-0.133161	
-1.52825	0.333428	-0.0615224	
-1.55634	1.52552	-0.200455	
-1.60277	0.488947	-0.189152	
-1.44458	1.59304	-0.118775	
-2.39117	1.57917	-0.152121	
-1.58086	1.65719	-0.194385	
-2.29572	0.559694	-0.130737	
-2.33359	0.490232	-0.137569	
-1.61973	0.956713	-0.185225	
-1.69038	0.989568	-0.169992	
-1.89458	1.75665	-0.136293	
-1.47897	1.77244	-0.113413	
-1.31782	1.72615	-0.142318	
-1.42586	0.310718	-0.121879	
-1.37331	0.290342	-0.131288	
-1.38435	1.29539	-0.129228	
-2.19021	2	-0.120289	
-1.51123	0.482459	-0.108793	
-1.88939	1.30941	-0.093171	
-2.02854	0.109198	-0.123174	
-1.64332	1.03572	-0.179937	
-1.70435	1.07584	-0.167195	
-1.7001	2	-0.168038	
-2.05006	0.633303	-0.125737	
-2.3728	0.422033	-0.146841	
-1.61643	0.266461	-0.0741847	
-1.62672	0.262786	-0.183636	
-1.80831	1.66446	-0.0882417	
-1.74561	1.54135	-0.0884055	
-1.58457	0.371856	-0.193488	
-1.26108	0.429791	-0.154753	
-1.63977	1.56661	-0.0945496	
-1.65418	1.62234	-0.0933944	
-1.13682	1.2804	-0.0802847	
-1.55283	0.68957	-0.201341	
-1.18174	0.753859	-0.174139	
-2.45024	0.285029	-0.175299	
-1.18582	1.26259	-0.173083	
-2.8075	0	-0.207195	
-1.19378	1.39629	-0.171044	
-1.93151	1.45609	-0.226763	
-1.56087	0.308608	-0.199315	
-1.98215	0.682551	-0.214844	
-1.54988	0.423502	-0.20209	
-2.45172	2	-0.176068	
-1.65606	0.980727	-0.0932506	
-1.99341	1.51237	-0.212321	
-1.66092	1.11653	-0.176122	
-1.71362	0.277428	-0.0896631	
-2.39002	0.33864	-0.15392	
-1.25056	1.08627	-0.157189	
-1.81051	0.0993244	-0.088296	
-2.21439	0.0548078	-0.121695	
-0.888325	1.55961	-0.127576	
-2.45163	1.72118	-0.176023	
-2.06092	1.94239	-0.129606	
-2.05275	1.87535	-0.126665	
-1.30814	0.473525	-0.144357	
-1.27163	0.331482	-0.152352	
-1.99562	1.63205	-0.110347	
-2.09341	1.59521	-0.143638	
-1.7104	1.47977	-0.166005	
-2.25024	0.160133	-0.124819	
-1.8626	0.114041	-0.0908528	
-1.4132	1.45658	-0.124053	
-1.95812	0.130179	-0.102657	
-1.91861	0.972536	-0.13338	
-2.42342	0.0752793	-0.163301	
-1.65312	0.0509452	-0.0934762	
-1.60817	1.00206	-0.0974058	
-1.14761	0.356044	-0.0787503	
-1.8785	0.0762643	-0.138371	
-1.29821	1.44431	-0.146484	
-2.25777	0	-0.125641	
-1.74872	0.460204	-0.118575	
-1.45576	0.946643	-0.0571957	
-1.5648	2	-0.208594	
-1.64379	2	-0.20006	
-1.80735	2	-0.186797	
-1.89335	2	-0.182207	
-1.72435	2	-0.192784	
-2.42545	2	-0.209065	
-2.6036	2	-0.215206	
-2.41973	2	-0.204993	
-2.3364	2	-0.19301	
-2.15867	2	-0.179053	
-2.33595	2	-0.210369	
-2.20204	-0.0721374	-0.280144	
-1.1845	-0.0524234	-0.18715	
-1.45163	-1.94219	-0.193229	
-1.74172	-1.93265	-0.222234	
-1.78209	-2	-0.223494	
-1.60112	-0.0610541	-0.219056	
-1.74537	-0.0745946	-0.222342	
-1.88737	-0.063891	-0.22739	
-2.49047	-1.2856	-0.21789	
-2.42875	-1.32684	-0.244188	
-2.49047	-1.35721	-0.21789	
-2.49047	-0.0721374	-0.21789	
-2.84626	-0.215036	-0.249017	
-2.49047	-0.143615	-0.21789	
-2.43924	-0.177622	-0.242922	
-2.13469	-0.286611	-0.186763	
-2.44032	-0.326516	-0.24277	
-2.84626	-0.358269	-0.249017	
-2.44051	-0.255005	-0.242743	
-2.49047	-0.714404	-0.21789	
-2.78683	-0.754353	-0.275069	
-2.49047	-0.786116	-0.21789	
-1.92771	-2	-0.229058	
-2.23832	-1.91632	-0.258322	
-1.85502	-2	-0.226111	
-1.20778	-2	-0.187407	
-1.18561	-1.94543	-0.187161	
-1.49047	-2	-0.21789	
-2.44154	-1.39944	-0.242592	
-2.49047	-1.42879	-0.21789	
-1.77891	-2	-0.155636	
-2.84626	-1.92786	-0.249017	
-2.07516	-2	-0.212826	
-1.63654	-2	-0.219674	
-1.60069	-1.9425	-0.219049	
-2.39704	-1.91894	-0.265037	
-2.0001	-2	-0.23216	
-1.7171	-2	-0.204076	
-2.49047	-1.21388	-0.21789	
-2.42865	-1.25457	-0.244198	
-2.84626	-1.78496	-0.249017	
-1.73506	-1.82622	-0.179526	
-2.49047	-1.85639	-0.21789	
-1.68527	-0.824164	-0.220726	
-1.60748	-0.840188	-0.219158	
-2.01815	-0.897364	-0.251329	
-2.20204	-1.07055	-0.280144	
-1.91174	-1.0996	-0.249571	
-2.26218	-0.999321	-0.280639	
-1.86979	-1.67801	-0.226687	
-1.94086	-1.66711	-0.229615	
-2.22919	-1.60664	-0.257958	
-1.75337	-0.446895	-0.222583	
-2.48585	-0.354649	-0.285494	
-1.69955	-0.398171	-0.221078	
-2.28024	-1.83141	-0.260048	
-1.62803	-1.78071	-0.200331	
-2.2818	-1.74009	-0.260114	
-2.44215	-1.7075	-0.266861	
-2.00486	-1.71822	-0.232364	
-2.05196	-1.78279	-0.234354	
-2.48208	-1.79397	-0.268525	
-1.95176	-1.60358	-0.23008	
-1.90652	-1.5428	-0.228173	
-1.49665	-1.84473	-0.194885	
-2.60077	-1.45461	-0.274318	
-2.16276	-1.49442	-0.239109	
-2.21023	-1.53304	-0.241476	
-2.92346	-1.28582	-0.303813	
-2.1419	-1.23395	-0.238112	
-2.8243	-1.30809	-0.299058	
-3.00864	-1.05755	-0.307702	
-2.01624	-1.02435	-0.215727	
-1.96765	-0.98494	-0.215166	
-2.06402	-0.659051	-0.234847	
-1.99699	-0.685531	-0.232026	
-2.40593	-0.738859	-0.265406	
-2.38134	-1.33862	-0.264375	
-2.39102	-1.25231	-0.264784	
-2.20204	-1.42879	-0.280144	
-2.20204	-1.49933	-0.280144	
-1.93082	-1.4654	-0.249806	
-1.57794	-0.918262	-0.218718	
-1.63009	-1.01699	-0.219552	
-1.26597	-0.957788	-0.188274	
-2.4677	-0.881052	-0.284922	
-1.76407	-0.965074	-0.222914	
-1.82754	-0.954992	-0.225078	
-1.73352	-0.86716	-0.20472	
-2.51149	-0.888326	-0.269895	
-2.13788	-0.817828	-0.237925	
-2.02172	-0.589278	-0.251408	
-2.03875	-0.676587	-0.251798	
-2.10404	-0.618429	-0.253555	
-2.69829	-0.0745363	-0.27783	
-2.07709	-1.18703	-0.235371	
-2.01512	-1.16574	-0.232804	
-2.01046	-0.496062	-0.232604	
-2.44724	-0.503541	-0.267058	
-2.0461	-0.439924	-0.234112	
-2.48362	-0.698429	-0.268594	
-1.89511	-1.23016	-0.227704	
-2.1726	-1.19538	-0.255817	