<VTKFile type="UnstructuredGrid" version="0.1" byte_order="LittleEndian">
	<UnstructuredGrid>
		<Piece NumberOfPoints="1917" NumberOfCells="56">
			<CellData Scalars="scalars">
				<DataArray type="Float64" Name="Doublet Strengths" NumberOfComponents="1" Format="ascii">
-1.82111	
-7.30792	
-5.47088	
-4.71954	
-6.52328	
-6.59695	
-7.00951	
-6.58839	
-4.71668	
-4.92721	
-2.87953	
-7.01664	
-5.51086	
-6.98679	
-4.71583	
-5.67929	
-6.83416	
-6.20409	
-6.21109	
-6.38002	
-6.94228	
-6.5691	
-6.30121	
-6.62293	
-8.46834	
-6.14961	
-3.91609	
-5.21583	
-8.47329	
-5.81964	
-6.38177	
-6.92955	
-6.21569	
-5.28297	
-2.83835	
-6.99366	
-5.69992	
-6.31185	
-6.52894	
-5.06079	
-5.80719	
-6.77204	
-7.05246	
-6.16919	
-6.43952	
-7.32238	
-6.90581	
-6.22796	
-5.32209	
-6.40068	
-6.5629	
-1.82326	
-4.63785	
-5.47772	
-6.51212	
-3.5358	
				</DataArray>
				<DataArray type="Float64" Name="Velocity Potential" NumberOfComponents="1" Format="ascii">
-9.58981	
-30.302	
-32.5328	
-33.4194	
-31.4815	
-31.284	
-30.9556	
-31.4701	
-33.3051	
-33.0631	
-35.3827	
-30.7327	
-32.3838	
-31.1249	
-33.2611	
-32.0688	
-30.9532	
-32.0092	
-32.0715	
-31.2361	
-30.7133	
-31.6319	
-31.3681	
-31.3655	
-29.2265	
-32.1547	
-34.3345	
-32.7693	
-29.3818	
-32.1558	
-31.8233	
-31.2657	
-32.1007	
-32.8608	
-35.8163	
-31.0913	
-32.339	
-32.0573	
-31.6654	
-32.8832	
-32.1094	
-31.1505	
-31.1439	
-32.1168	
-31.1907	
-30.2937	
-30.8362	
-32.1237	
-32.5862	
-31.3738	
-31.4986	
-10.183	
-33.7889	
-32.5725	
-31.7097	
-35.0953	
				</DataArray>
			</CellData>
			<Points>
				<DataArray type="Float64" Name="Position" NumberOfComponents="3" Format="ascii">
-2.55975	0	-0.30569	
-2.03838	0.0524256	-0.261855	
-3.48285	0	-0.392202	
-2.7058	2	-0.308495	
-2.73703	1.93467	-0.309364	
-3.27637	2	-0.354228	
-2.63273	0	-0.30683	
-2.59732	0.0610502	-0.306212	
-2.74155	0.0745738	-0.309498	
-2.7058	0	-0.308495	
-2.77828	0	-0.31065	
-2.85121	0	-0.313267	
-2.9239	0	-0.316214	
-2.88253	0.0639395	-0.314504	
-2.94093	1.39584	-0.285975	
-3.42466	1.3266	-0.331373	
-3.48666	1.35721	-0.305046	
-3.48285	1.92786	-0.392202	
-2.03925	1.94512	-0.261864	
-3.98476	0.0721374	-0.348624	
-3.42269	0.0533506	-0.33157	
-2.98857	0	-0.261468	
-3.98476	0.215036	-0.348624	
-4.39301	0.171582	-0.420482	
-2.98857	0.143615	-0.261468	
-2.98857	0.286611	-0.261468	
-3.98476	0.358269	-0.348624	
-3.43648	0.326064	-0.32993	
-3.43427	0.252841	-0.330237	
-3.48666	0.714404	-0.305046	
-3.48666	0.786116	-0.305046	
-3.92531	0.754574	-0.374679	
-2.9239	2	-0.316214	
-2.85121	2	-0.313267	
-3.88451	1.91204	-0.401895	
-2.93914	1.66657	-0.31686	
-3.36727	1.60722	-0.357547	
-2.74979	0.446925	-0.309746	
-2.69685	0.397747	-0.308263	
-3.76724	0.354616	-0.39757	
-2.48666	2	-0.305046	
-3.48666	1.42879	-0.305046	
-2.49047	2	-0.21789	
-2.92903	2	-0.287532	
-3.98476	1.92786	-0.348624	
-2.63273	2	-0.30683	
-2.06166	2	-0.262112	
-2.59765	1.93956	-0.306217	
-2.46582	1.94176	-0.274343	
-4.0334	1.9167	-0.408212	
-2.99629	2	-0.319316	
-3.48666	1.21388	-0.305046	
-2.93691	1.19029	-0.28656	
-3.48666	1.14216	-0.305046	
-3.48666	1.2856	-0.305046	
-3.42496	1.25405	-0.331342	
-3.98476	1.78496	-0.348624	
-3.48666	1.85639	-0.305046	
-2.44659	1.82617	-0.241787	
-2.92961	0.114671	-0.287467	
-3.91151	1.46922	-0.375941	
-3.866	1.38862	-0.37759	
-2.68146	0.824164	-0.307882	
-3.15665	0.897364	-0.350936	
-2.60367	0.840188	-0.306314	
-3.32931	1.46561	-0.333682	
-2.98476	1	-0.348624	
-3.543	0.999321	-0.392697	
-3.48285	1.07055	-0.392202	
-2.94797	1.60348	-0.317237	
-2.57919	0.356544	-0.305943	
-2.14541	0.353408	-0.263464	
-2.6236	0.427857	-0.306659	
-3.41727	1.82506	-0.359593	
-3.42096	1.7382	-0.359748	
-2.4819	1.77788	-0.275036	
-3.00143	1.71777	-0.319537	
-3.04933	1.78088	-0.321559	
-3.58081	1.70728	-0.366474	
-3.62086	1.79378	-0.368144	
-2.90263	1.54291	-0.315325	
-2.84039	1.8351	-0.312854	
-3.73909	1.45384	-0.373916	
-3.20647	1.53294	-0.328634	
-3.15899	1.49429	-0.326267	
-3.69754	1.28284	-0.371859	
-4.10394	1.30815	-0.411066	
-3.13676	1.23305	-0.325206	
-4.29054	1.05577	-0.4198	
-3.33283	0.974397	-0.333755	
-2.87502	1.02275	-0.290384	
-3.06022	0.65903	-0.322004	
-3.54444	0.738857	-0.365013	
-2.99318	0.685529	-0.319182	
-3.51974	1.33866	-0.363978	
-3.52941	1.25226	-0.364386	
-3.48285	1.42879	-0.392202	
-3.06986	1.46516	-0.34942	
-3.48285	1.49933	-0.392202	
-2.57413	0.918262	-0.305874	
-3.74852	0.881052	-0.396979	
-2.83726	0.891355	-0.312736	
-2.82373	0.954992	-0.312234	
-2.58739	0.867158	-0.279425	
-3.13405	0.817822	-0.32508	
-3.64989	0.888323	-0.369496	
-3.16022	0.589259	-0.351014	
-3.24255	0.618435	-0.353162	
-3.17726	0.676586	-0.351405	
-3.28513	0	-0.332293	
-3.35643	0	-0.334033	
-3.84537	0.0790961	-0.377549	
-2.96662	1.27156	-0.318038	
-2.9562	1.20368	-0.31759	
-3.00689	0.496767	-0.31977	
-3.04359	0.442032	-0.321321	
-3.58643	0.502871	-0.366692	
-3.62213	0.698424	-0.368201	
-2.8913	1.23016	-0.31486	
-2.84194	1.27217	-0.312913	
-3.31111	1.19537	-0.355424	
-2.41244	1.2898	-0.272076	
-2.6235	1.02577	-0.280936	
-3.64414	0.967174	-0.369221	
-3.20001	1.0342	-0.328309	
-3.96567	1.00672	-0.405317	
-3.00627	0.93866	-0.319744	
-3.05784	0.987296	-0.321907	
-3.36274	0.378981	-0.357369	
-2.92549	0.426844	-0.316281	
-3.37068	0.470462	-0.357683	
-3.90262	1.87857	-0.376521	
-3.88839	1.79633	-0.377154	
-3.32501	1.84585	-0.333585	
-3.11473	0.270573	-0.324211	
-2.60193	0.200611	-0.280008	
-3.66538	0.193571	-0.370251	
-3.60366	0.123897	-0.367395	
-3.04918	0.249496	-0.321552	
-3.04007	0.173576	-0.321175	
-3.856	1.20923	-0.377615	
-3.3278	1.13932	-0.333649	
-3.41242	1.13751	-0.332437	
-3.165	0.531427	-0.326561	
-3.1659	0.463982	-0.326605	
-3.10907	0.427199	-0.323966	
-3.17578	0.382421	-0.327095	
-2.86417	0.742778	-0.290459	
-3.86616	0.813881	-0.377589	
-3.58885	0.580015	-0.366787	
-3.16978	1.7199	-0.326797	
-3.68111	0.757182	-0.371034	
-2.69935	0.698895	-0.284602	
-3.25659	0.732194	-0.331069	
-3.23691	0.893597	-0.330141	
-3.20394	0.830458	-0.328507	
-3.78479	0.834567	-0.375932	
-3.35413	1.53139	-0.334024	
-3.30156	1.59044	-0.332899	
-3.27721	1.5207	-0.331972	
-3.33072	1.10613	-0.356141	
-2.76258	1.13654	-0.310143	
-3.82627	0.567577	-0.377236	
-3.89339	0.624293	-0.376968	
-3.32236	0.641057	-0.33352	
-3.25402	0.667946	-0.330951	
-3.25391	0.607392	-0.330946	
-3.74394	0.97644	-0.374147	
-3.42713	0	-0.33111	
-2.91967	1.40806	-0.316036	
-2.95235	1.34451	-0.317424	
-2.98593	1.41675	-0.31887	
-2.94685	1.48085	-0.317189	
-3.55018	1.43176	-0.36525	
-3.01152	1.49613	-0.319969	
-3.07751	0.925911	-0.322693	
-3.24455	1.74077	-0.330507	
-4.24149	1.66215	-0.417699	
-2.81149	1.70694	-0.289582	
-3.48285	1.71339	-0.392202	
-3.55331	1.77904	-0.392814	
-3.48285	1.78496	-0.392202	
-3.28513	2	-0.332293	
-3.82582	1.92525	-0.377225	
-3.35643	2	-0.334033	
-3.11755	0.350099	-0.324334	
-3.05383	0.315549	-0.321744	
-2.81364	1.02327	-0.311869	
-3.38132	1.02942	-0.35811	
-2.8087	0.0746863	-0.311692	
-2.84341	0.130322	-0.312969	
-3.26731	0.159825	-0.353933	
-3.27969	0.255296	-0.354338	
-2.32661	0.198868	-0.268692	
-2.88678	0.185075	-0.314676	
-3.23246	0.53229	-0.352865	
-4.47904	0.358269	-0.479358	
-2.98476	0.286611	-0.348624	
-2.54885	0.283499	-0.305563	
-3.48285	0.143615	-0.392202	
-3.06254	0.19815	-0.349326	
-3.48285	0.215036	-0.392202	
-3.62762	0.268711	-0.393961	
-3.49438	0	-0.362894	
-2.57097	0	-0.278782	
-3.0759	0.0522709	-0.32263	
-2.38279	0.233077	-0.246714	
-3.86314	0.293965	-0.377607	
-3.57681	1.52249	-0.366318	
-3.07721	1.6164	-0.322681	
-3.01759	1.57352	-0.320227	
-3.01312	1.65009	-0.320037	
-3.37475	1.59898	-0.33394	
-3.21362	0	-0.328992	
-3.15903	0.0589648	-0.326269	
-3.14099	0	-0.325404	
-2.65907	1.47391	-0.307369	
-3.23989	1.46129	-0.353083	
-3.21741	1.53681	-0.352438	
-3.67846	0.286849	-0.370901	
-2.80011	0.724627	-0.31139	
-2.31219	0.784216	-0.268171	
-3.24696	0.788387	-0.353296	
-3.81299	0.223399	-0.376897	
-2.80273	1.34531	-0.289296	
-2.79798	1.40661	-0.289128	
-3.73212	1.36487	-0.373579	
-3.26886	1.29047	-0.331617	
-2.78431	0.414541	-0.288606	
-3.22967	0.434011	-0.329788	
-3.73699	0.349215	-0.373815	
-3.34526	0.422964	-0.33395	
-3.79374	0.489015	-0.376269	
-3.36757	0.488653	-0.334015	
-2.09099	1.24582	-0.235912	
-3.07313	1.18695	-0.322521	
-2.74419	1.58611	-0.286822	
-2.31573	0.42229	-0.268297	
-2.33791	0.312816	-0.269111	
-3.41455	0.310713	-0.359479	
-2.86586	0.255176	-0.313839	
-2.93171	0.23291	-0.316544	
-4.25887	1.20734	-0.418501	
-3.13217	1.1572	-0.324993	
-3.20141	1.15129	-0.32838	
-2.69206	1.2101	-0.284236	
-3.63952	1.08885	-0.369003	
-2.74481	1.61914	-0.309595	
-2.76365	1.69424	-0.310177	
-3.18315	1.67616	-0.351547	
-2.81254	1.64844	-0.311829	
-2.84094	1.72086	-0.312875	
-3.18598	0.644913	-0.327604	
-2.75625	1.94629	-0.287388	
-3.68045	1.93331	-0.371	
-3.25577	1.88539	-0.331032	
-3.1655	0.0804625	-0.351132	
-2.10967	0.127785	-0.262803	
-2.12091	1.88257	-0.262998	
-3.16857	1.92762	-0.351202	
-2.7063	0.21589	-0.308508	
-2.74888	0.273142	-0.287044	
-3.24008	0.209198	-0.330294	
-2.73751	0.143339	-0.2865	
-3.30624	0.145092	-0.333054	
-2.68504	0.115792	-0.283884	
-3.1829	1.85807	-0.32745	
-3.11716	1.88373	-0.324317	
-2.60931	1.94611	-0.280317	
-2.57097	2	-0.278782	
-3.14099	2	-0.325404	
-2.93925	0.682902	-0.286228	
-3.98476	0.64279	-0.348624	
-2.46581	1.88295	-0.274343	
-2.84181	1.53147	-0.312908	
-2.81938	1.46174	-0.312076	
-2.88385	1.47178	-0.314557	
-3.38626	1.08229	-0.3337	
-2.19695	0.329519	-0.264639	
-3.0473	0.43708	-0.349145	
-2.98476	0.429861	-0.348624	
-2.37868	1.67699	-0.270694	
-2.79447	1.57544	-0.311196	
-2.69209	1.60691	-0.284237	
-3.14846	1.65508	-0.325759	
-3.24954	1.81461	-0.330743	
-2.69066	1.78507	-0.284166	
-2.19576	0.749751	-0.264609	
-2.74371	0.701087	-0.309562	
-3.12177	0.758919	-0.350238	
-3.48666	0.429861	-0.305046	
-3.91863	0.409639	-0.375352	
-3.31769	1.77163	-0.333397	
-3.8854	1.71936	-0.377248	
-3.1785	1.1716	-0.351435	
-2.7132	1.09553	-0.308693	
-3.28405	1.76477	-0.354484	
-2.36505	1.7791	-0.270154	
-2.98666	0.277236	-0.318901	
-3.45998	0.151691	-0.361412	
-2.57029	1.84554	-0.278754	
-3.00218	1.83711	-0.319569	
-2.88269	1.33945	-0.31451	
-2.85372	1.40104	-0.313364	
-2.79785	0.297567	-0.289124	
-3.31534	0.357474	-0.333332	
-2.61405	0.760525	-0.28052	
-3.06245	0.810302	-0.322094	
-2.97048	0.749841	-0.318204	
-2.90546	0.751361	-0.315443	
-2.92774	0.686344	-0.316376	
-2.99714	0.810027	-0.319352	
-2.93182	0.81571	-0.316549	
-3.98095	1.64173	-0.43578	
-2.55232	1.65788	-0.305602	
-3.98476	1	-0.348624	
-3.98476	1.07055	-0.348624	
-2.93994	1.0308	-0.286125	
-2.05333	1.5272	-0.262014	
-3.48285	1.57014	-0.392202	
-2.40898	0.121062	-0.271932	
-2.95369	0.068568	-0.317482	
-3.02118	0.0968802	-0.32038	
-3.48285	1.85639	-0.392202	
-3.05147	1.8723	-0.349192	
-3.48285	0.0721374	-0.392202	
-2.5469	0.116381	-0.305542	
-3.05291	0.378957	-0.321706	
-3.48285	1.2856	-0.392202	
-2.55243	1.33655	-0.305603	
-3.48285	1.35721	-0.392202	
-2.44349	1.07097	-0.273386	
-2.94808	1.13809	-0.317241	
-2.39611	1.10545	-0.271401	
-3.00117	1.08867	-0.319525	
-2.96243	0.876824	-0.317858	
-2.90077	0.882801	-0.315248	
-3.3651	0.819303	-0.357462	
-3.12041	1.38959	-0.324461	
-2.61587	1.45442	-0.2806	
-3.17918	1.41914	-0.327264	
-2.49235	0.213959	-0.275486	
-2.94842	0.621411	-0.317256	
-2.91059	0.549577	-0.315656	
-2.972	0.556476	-0.318269	
-2.93973	0.491713	-0.316885	
-3.75066	0.0712931	-0.374462	
-2.88042	1.1672	-0.314419	
-3.13587	1.57159	-0.325165	
-2.68024	0.47164	-0.307853	
-2.93589	0.476615	-0.286698	
-3.90724	0.546631	-0.37624	
-2.98476	0.500665	-0.348624	
-2.54664	0.802839	-0.305539	
-2.12379	0.646217	-0.263049	
-2.10161	0.69766	-0.262672	
-2.5998	1.17495	-0.306251	
-3.05024	1.0996	-0.349178	
-3.13466	1.1007	-0.350482	
-3.24282	1.32398	-0.353171	
-2.17807	1.29855	-0.264178	
-2.70598	1.24767	-0.308499	
-2.8886	0.61668	-0.31475	
-2.85146	0.546139	-0.313277	
-2.29468	0.561624	-0.26756	
-2.80466	0.491616	-0.311549	
-2.18443	1.0418	-0.26433	
-2.74317	1.02609	-0.309546	
-3.18221	0.976287	-0.351524	
-2.76026	0.965074	-0.31007	
-2.89274	0.954567	-0.314919	
-2.62025	1.62515	-0.306598	
-2.18351	1.59965	-0.264307	
-2.88172	0.360303	-0.290276	
-2.55684	1.5889	-0.305655	
-2.81439	1.33334	-0.311896	
-2.78806	1.39903	-0.310977	
-2.77564	1.2624	-0.310564	
-3.36123	0.683934	-0.357309	
-3.41845	0.967445	-0.331959	
-4.39641	0.89983	-0.420326	
-3.30497	0.914042	-0.333013	
-3.05481	1.0505	-0.321784	
-2.76676	1.13415	-0.287864	
-2.72316	1.09375	-0.285795	
-2.46479	1.5431	-0.274299	
-3.31288	0.770923	-0.33326	
-2.74892	0.785107	-0.287046	
-2.67158	1.34839	-0.283214	
-3.85169	1.29694	-0.377599	
-3.33643	1.65281	-0.333821	
-3.05633	1.25411	-0.349249	
-2.61645	1.32162	-0.30653	
-2.62479	0.633745	-0.280994	
-3.177	0.587288	-0.327155	
-3.37768	0.6882	-0.333894	
-3.02359	0.873522	-0.320482	
-2.07761	1.36753	-0.235391	
-3.21362	2	-0.328992	
-2.2471	1.1987	-0.266029	
-2.99	0.394274	-0.319045	
-2.98933	0.336713	-0.319016	
-3.31139	0.702848	-0.333215	
-3.48666	0.929454	-0.305046	
-3.48666	0.857842	-0.305046	
-2.90391	1.94387	-0.289502	
-3.01129	1.16572	-0.319959	
-3.06803	1.11814	-0.322318	
-3.20269	1.79696	-0.352041	
-2.21475	1.73661	-0.265105	
-2.43589	0.370041	-0.273063	
-2.48419	0.446178	-0.275134	
-2.44836	0.936014	-0.273594	
-1.59211	1.0523	-0.218918	
-2.62628	1.01699	-0.306708	
-3.48666	1.49933	-0.305046	
-3.06795	0.586375	-0.349395	
-3.10447	0.509874	-0.349936	
-3.42509	1.54624	-0.331328	
-2.30232	0.664255	-0.267823	
-2.35346	0.750955	-0.269703	
-2.3055	0.837223	-0.267934	
-3.48285	1.21388	-0.392202	
-2.03986	1.17543	-0.26187	
-3.48285	0.929454	-0.392202	
-2.04072	0.873321	-0.261878	
-3.98095	0.857842	-0.43578	
-2.5432	0.725606	-0.305502	
-3.48285	0.786116	-0.392202	
-3.48285	0.714404	-0.392202	
-2.55922	0.653203	-0.305683	
-3.48285	0.64279	-0.392202	
-3.98095	0.571209	-0.43578	
-3.48285	1.14216	-0.392202	
-2.11984	0.957788	-0.262979	
-1.71727	0.930031	-0.221543	
-2.82748	0.613315	-0.312372	
-2.94457	1.6049	-0.285384	
-2.53423	0.552048	-0.277273	
-3.01189	0.616488	-0.319984	
-3.12683	1.54065	-0.350332	
-2.64572	0.177963	-0.307087	
-2.63242	1.24487	-0.306824	
-3.11655	1.39957	-0.350144	
-2.20938	0.139289	-0.264961	
-2.60966	1.69928	-0.306413	
-2.64269	1.75272	-0.307026	
-2.68115	1.35868	-0.307875	
-2.23582	1.39206	-0.265696	
-2.18933	1.42097	-0.264449	
-2.62021	1.81911	-0.306597	
-3.42004	1.6612	-0.331819	
-3.48666	1.71339	-0.305046	
-2.72844	0.496577	-0.286056	
-3.25032	0.549039	-0.330779	
-2.17165	1.85508	-0.264029	
-2.0424	0.520218	-0.261896	
-1.67357	0.528047	-0.220452	
-3.48666	1.57014	-0.305046	
-3.98476	0.500665	-0.348624	
-2.19811	0.932053	-0.240866	
-2.28087	1.07414	-0.267095	
-2.28431	1.51028	-0.267209	
-3.98476	1.64173	-0.348624	
-2.22058	0.282674	-0.265264	
-3.48666	0.571209	-0.305046	
-2.44589	0.59575	-0.241906	
-1.55599	1.71321	-0.218445	
-3.2986	1.88726	-0.354982	
-2.93237	0.827624	-0.287146	
-2.27106	1.82622	-0.266775	
-2.05156	1.40032	-0.261994	
-2.72468	1.87065	-0.309009	
-2.34332	0.866054	-0.246716	
-2.3105	1.24863	-0.245913	
-2.32973	1.94589	-0.268807	
-2.44343	1.75284	-0.242304	
-1.78982	1.94185	-0.223752	
-3.45039	0.611259	-0.264546	
-3.92842	0.691022	-0.298449	
-2.94929	0.951279	-0.21937	
-3.93459	0.885946	-0.301202	
-2.97518	0	-0.214275	
-2.90683	0	-0.221476	
-3.44414	0.0792566	-0.260681	
-3.55289	0	-0.373717	
-2.09637	0.0639973	-0.233789	
-2.62616	0	-0.27006	
-2.53981	0.0936441	-0.290847	
-2.83569	0	-0.230991	
-2.76512	0	-0.242345	
-2.80822	0.0798839	-0.235188	
-2.96026	0.821071	-0.225534	
-3.44921	1.45488	-0.263913	
-3.45227	1.89867	-0.265575	
-2.47708	2	-0.170697	
-3.0468	2	-0.208941	
-3.52271	1.91895	-0.253916	
-2.09981	1.93754	-0.232978	
-2.54491	1.90585	-0.28954	
-2.5567	2	-0.286561	
-2.62616	2	-0.27006	
-2.90683	2	-0.221476	
-2.87114	1.92228	-0.226001	
-2.83569	2	-0.230991	
-3.0834	1.85759	-0.207168	
-3.50702	1.82278	-0.255044	
-3.30192	0.600657	-0.279465	
-2.74874	0.663037	-0.245247	
-3.31419	0.68441	-0.277533	
-2.54147	0.939959	-0.290422	
-2.55053	1.33496	-0.288113	
-3.4925	1.68417	-0.25619	
-2.52633	1.74973	-0.166773	
-4.08701	1.71007	-0.294053	
-2.80126	1.02684	-0.236298	
-3.3098	0.943151	-0.278219	
-2.74607	0.965528	-0.245728	
-2.57698	0.553448	-0.281559	
-2.53403	0.495631	-0.292337	
-3.23643	1.36962	-0.210973	
-4.16433	1.42353	-0.293894	
-3.24699	1.43872	-0.212033	
-3.85075	1.02505	-0.273408	
-3.28652	0.965827	-0.217069	
-3.75777	1.04082	-0.25704	
-3.69663	1.21008	-0.251661	
-4.2835	1.26463	-0.304343	
-3.2813	1.19252	-0.216303	
-2.79008	1.8275	-0.238117	
-3.30048	1.91186	-0.279695	
-3.35559	1.83465	-0.271442	
-3.41924	1.04863	-0.263384	
-2.8606	1.0111	-0.227433	
-3.34216	1.09426	-0.273346	
-2.41495	1.10778	-0.177163	
-3.49203	1.09436	-0.256228	
-3.02987	0.92332	-0.209986	
-3.06807	0.983948	-0.207829	
-4.10719	0.912712	-0.293538	
-2.55676	1.65028	-0.164915	
-2.61057	1.64109	-0.162847	
-3.55906	1.58611	-0.251753	
-2.55689	0.621253	-0.286515	
-2.12527	0.607584	-0.227112	
-3.16119	0.544593	-0.305586	
-3.18186	0.626188	-0.301296	
-3.41712	0.883867	-0.263626	
-2.87797	0.814004	-0.225095	
-2.85365	0.883506	-0.228402	
-2.37413	0.94284	-0.182277	
-2.32105	0.823889	-0.189907	
-2.7845	0.86549	-0.239042	
-3.22991	0.577518	-0.210376	
-3.7255	0.659851	-0.253736	
-3.29163	0.634606	-0.217849	
-3.1566	0.0913029	-0.306559	
-2.58729	0.141129	-0.279075	
-3.01342	1.15841	-0.211132	
-4.09642	1.18235	-0.293773	
-2.56578	1.11752	-0.164452	
-3.86943	0.938839	-0.278211	
-2.92311	0.99711	-0.207507	
-3.04661	0.516229	-0.208952	
-3.57303	0.597248	-0.251096	
-3.12099	0.53029	-0.206248	
-3.39486	1.25683	-0.266279	
-3.37482	1.17353	-0.268837	
-2.82824	1.22905	-0.2321	
-3.89045	1.10599	-0.284413	
-3.43625	1.05145	-0.257513	
-3.39306	1.1866	-0.24106	
-3.44611	1.17077	-0.262288	
-3.80964	1.39834	-0.321523	
-2.31975	1.4857	-0.190107	
-2.87804	1.4682	-0.225087	
-3.70896	0.907417	-0.252449	
-3.1579	0.841878	-0.206471	
-4.40372	0.492781	-0.333095	
-2.85281	0.543817	-0.185832	
-3.39981	0.570722	-0.24327	
-3.1779	1.72433	-0.207079	
-3.13382	1.78876	-0.206196	
-3.04816	0.853718	-0.208864	
-2.96112	0.389993	-0.215594	
-2.47045	0.316743	-0.171308	
-2.90693	0.343184	-0.221465	
-3.08154	0.780432	-0.207242	
-2.6024	0.84375	-0.163032	
-3.1516	0.770799	-0.206351	
-2.99674	0.577671	-0.212421	
-3.05937	1.02428	-0.328998	
-3.2614	0.237428	-0.286241	
-2.77914	0.153222	-0.239942	
-2.71154	0.163431	-0.252199	
-3.35246	0.159631	-0.271879	
-3.20104	1.80219	-0.208231	
-2.73287	1.86234	-0.166891	
-3.27993	1.80354	-0.216106	
-3.10909	0.329138	-0.206417	
-3.68187	0.30982	-0.250904	
-3.62976	0.244444	-0.249773	
-3.14121	0.391669	-0.206228	
-2.24263	1.03303	-0.203124	
-3.1095	0.717798	-0.206409	
-3.02787	0.718603	-0.210118	
-2.5677	0.665477	-0.164359	
-3.14089	0.658642	-0.206226	
-2.46889	1.87015	-0.171455	
-2.93133	1.80864	-0.218669	
-2.57393	1.78424	-0.164069	
-2.95891	1.74797	-0.215809	
-3.20639	0.386445	-0.208568	
-3.23643	0.441074	-0.210973	
-3.27576	0.365688	-0.215525	
-3.04767	1.25637	-0.208892	
-3.12251	1.24657	-0.206235	
-3.07052	1.3122	-0.207715	
-2.63795	1.30199	-0.162623	
-3.19603	1.27096	-0.20794	
-2.9216	0.276367	-0.219754	
-3.83655	0.292881	-0.317462	
-2.37763	0.234809	-0.181814	
-2.32171	0.216682	-0.189806	
-3.29825	0.891352	-0.218909	
-3.0976	1.48059	-0.206688	
-3.02175	1.4429	-0.210536	
-3.51815	1.51083	-0.254232	
-2.95036	1.45569	-0.216661	
-3.11011	1.36546	-0.206398	
-3.18058	1.34038	-0.207188	
-2.84613	1.70558	-0.22947	
-2.86111	1.63351	-0.227362	
-2.78916	1.65739	-0.238269	
-2.70998	0.837679	-0.252502	
-2.75426	0.792044	-0.244258	
-2.76651	1.09876	-0.242104	
-3.29443	1.30603	-0.280671	
-2.25156	1.35315	-0.201504	
-3.66061	0.166399	-0.250158	
-3.08071	0.169498	-0.207276	
-3.21248	1.40455	-0.295228	
-3.37796	0.41495	-0.268425	
-3.43053	0.474418	-0.262127	
-3.66558	1.05334	-0.250296	
-3.20839	0.984567	-0.208701	
-3.17182	1.13834	-0.206857	
-2.80659	0.452043	-0.235446	
-3.30185	0.374434	-0.279477	
-2.24973	0.42015	-0.201833	
-3.22493	0.484457	-0.292856	
-3.32442	0	-0.223642	
-3.34106	0.0667918	-0.227142	
-3.38881	0	-0.239722	
-3.32442	2	-0.223642	
-2.79479	1.94291	-0.174469	
-2.75587	2	-0.169219	
-3.362	0.853126	-0.232158	
-3.38881	2	-0.239722	
-3.85353	1.92333	-0.274084	
-2.4861	0.506745	-0.169896	
-2.93117	0.56183	-0.218687	
-2.93893	0.636864	-0.217849	
-2.86984	0.546278	-0.226174	
-2.87057	0.617676	-0.226077	
-3.76995	0.078087	-0.258575	
-3.73003	1.56345	-0.254135	
-2.7859	1.62497	-0.173116	
-3.31609	1.57191	-0.222038	
-3.87212	0.153301	-0.278956	
-3.87636	0.252546	-0.280156	
-2.9314	0.211952	-0.210935	
-3.00228	0.650538	-0.211979	
-3.4497	0.718414	-0.260113	
-2.94086	0.798942	-0.217644	
-3.00791	0.786413	-0.211543	
-2.38827	0.678765	-0.180431	
-2.88061	0.741319	-0.224751	
-3.93494	1.80752	-0.301366	
-3.3881	1.74768	-0.239504	
-3.85721	1.83308	-0.275001	
-2.94844	1.20637	-0.216857	
-3.1618	1.92648	-0.305457	
-3.10611	1.86025	-0.317775	
-3.40778	0.344499	-0.246029	
-3.4337	0.410465	-0.256356	
-3.76688	0.282592	-0.258173	
-3.83671	0.338159	-0.270181	
-3.49356	0.251286	-0.256103	
-2.55399	0.217721	-0.165066	
-3.48649	0.164212	-0.256692	
-3.06221	0.230355	-0.328292	
-3.61776	1.93673	-0.249839	
-3.3765	1.26103	-0.236073	
-3.4401	1.24459	-0.259319	
-3.36151	1.32491	-0.232031	
-3.93023	1.31978	-0.299241	
-3.79232	0.804788	-0.261836	
-3.86414	0.759874	-0.276787	
-3.30326	0.714139	-0.219746	
-2.92959	0.206449	-0.218861	
-2.41592	0.138218	-0.17705	
-2.60992	1.72394	-0.273758	
-2.57492	1.78328	-0.28206	
-3.15206	1.79352	-0.307529	
-3.00749	1.03613	-0.211576	
-3.57872	1.05319	-0.250857	
-3.13137	0.992616	-0.206196	
-2.62321	1.10914	-0.162667	
-3.80158	0.204267	-0.263363	
-3.21498	0.22975	-0.209166	
-2.98355	0.863551	-0.21353	
-2.9655	0.938032	-0.215174	
-2.83326	1.76807	-0.181474	
-3.81834	1.69808	-0.266404	
-3.24844	1.73846	-0.212188	
-3.30541	0.425321	-0.220116	
-3.26146	0.500006	-0.213677	
-3.16499	0.456585	-0.206646	
-3.1925	0.51622	-0.207749	
-2.68663	0.232607	-0.257136	
-2.86067	1.33248	-0.227424	
-2.93621	1.52656	-0.218139	
-3.35943	1.55451	-0.27091	
-3.43552	1.60907	-0.261587	
-2.24787	0.903738	-0.20217	
-3.17042	0.902651	-0.303651	
-3.1864	0	-0.207445	
-3.11519	0	-0.206316	
-3.13778	0.051764	-0.206208	
-3.0468	0	-0.208941	
-3.06806	0.0537652	-0.207829	
-2.96482	1.3862	-0.215238	
-2.89411	1.3946	-0.223031	
-2.97068	1.26486	-0.214687	
-2.52105	1.21166	-0.16714	
-2.92781	1.32507	-0.219057	
-2.99878	1.32038	-0.212256	
-2.9117	0.814456	-0.203174	
-2.7344	1.88165	-0.247867	
-3.16221	0.594595	-0.206572	
-2.96005	1.38879	-0.225403	
-3.40843	1.39048	-0.246259	
-3.17382	0.75837	-0.302945	
-2.63232	0.821275	-0.268682	
-3.44098	0.75743	-0.259742	
-3.22159	1.60921	-0.293488	
-2.72324	1.68446	-0.249957	
-2.2185	1.75212	-0.207645	
-3.27679	1.73879	-0.283595	
-3.13764	1.59941	-0.310661	
-2.6546	1.66432	-0.263815	
-3.71883	1.93182	-0.253185	
-3.29556	1.87756	-0.218472	
-3.44922	0.146224	-0.263918	
-2.95761	1.10891	-0.223953	
-2.95177	0.544978	-0.220684	
-3.17365	1.32361	-0.30298	
-2.73369	0.0813768	-0.247998	
-2.69629	0	-0.255194	
-2.83936	1.21454	-0.182771	
-3.33716	1.14931	-0.226287	
-3.16005	1.87232	-0.206519	
-2.63688	1.24379	-0.267672	
-2.59872	1.29411	-0.276365	
-2.7029	1.24385	-0.253886	
-2.80089	1.16415	-0.236357	
-3.66848	0.398041	-0.347237	
-3.0587	1.20048	-0.329165	
-2.54988	1.11243	-0.288279	
-2.73641	0.560548	-0.247495	
-2.80117	0.523541	-0.236312	
-3.72794	1.65544	-0.253948	
-3.0985	0.109422	-0.206663	
-2.41109	1.86761	-0.177618	
-2.9426	1.9304	-0.217461	
-2.75197	0.741046	-0.168786	
-3.36003	0.676971	-0.231653	
-2.19189	0.693471	-0.21288	
-2.74898	0.726744	-0.245204	
-2.81595	0.760134	-0.233979	
-1.74658	0.61385	-0.159172	
-2.03502	0.170423	-0.248998	
-2.73384	1.15632	-0.166979	
-2.72117	1.09603	-0.165913	
-3.27675	1.1197	-0.215661	
-2.17742	1.85832	-0.215833	
-2.72876	1.8111	-0.248918	
-3.38842	1.45652	-0.239604	
-3.34889	1.39372	-0.228935	
-2.23477	1.94352	-0.204574	
-2.76512	2	-0.242345	
-3.21264	0.79232	-0.208996	
-2.73935	0.850283	-0.167493	
-3.1882	0.718066	-0.207532	
-2.6382	0.180772	-0.267379	
-3.16255	1.51591	-0.206581	
-3.65358	1.59438	-0.249999	
-2.71651	1.48768	-0.16556	
-3.28138	1.50665	-0.216315	
-2.04431	1.83632	-0.246602	
-3.26569	1.53312	-0.285495	
-2.19785	1.54488	-0.211685	
-2.53987	1.71558	-0.290831	
-3.90627	1.66217	-0.289748	
-2.73199	0.358669	-0.248314	
-2.67535	0.310734	-0.259446	
-2.79232	1.39867	-0.174084	
-3.32062	1.4537	-0.222899	
-3.30013	1.33896	-0.219219	
-3.09447	0.46147	-0.20678	
-2.57715	0.394907	-0.163926	
-3.51468	0.433969	-0.254479	
-2.59036	1.42238	-0.163401	
-3.03507	1.37641	-0.209651	
-3.34707	0.606335	-0.228509	
-2.58358	0.879786	-0.279962	
-2.59494	0.752034	-0.277256	
-2.5517	0.815753	-0.287819	
-3.1212	1.38066	-0.314326	
-3.92805	1.52165	-0.298292	
-3.35495	1.51493	-0.230389	
-2.82469	1.08423	-0.179742	
-2.55202	1.59815	-0.287739	
-2.61709	2	-0.162738	
-3.22304	1.16076	-0.293214	
-2.17043	1.18618	-0.217288	
-2.44792	1.14984	-0.173528	
-2.76491	1.23168	-0.242383	
-2.61079	1.16237	-0.273557	
-2.91669	1.68406	-0.220317	
-2.23981	0.333428	-0.123777	
-2.55253	1.52552	-0.287611	
-2.59896	0.488947	-0.276308	
-2.29846	1.59304	-0.19348	
-3.38736	1.57917	-0.239277	
-2.57705	1.65719	-0.281541	
-3.29191	0.559694	-0.217893	
-3.32978	0.490232	-0.224725	
-2.61592	0.956713	-0.272381	
-2.68657	0.989568	-0.257148	
-2.89077	1.75665	-0.223449	
-2.33284	1.77244	-0.188118	
-2.17169	1.72615	-0.217023	
-2.27974	0.310718	-0.196585	
-2.22719	0.290342	-0.205994	
-2.23823	1.29539	-0.203933	
-3.1864	2	-0.207445	
-2.36511	0.482459	-0.183498	
-2.74327	1.30941	-0.167876	
-3.02473	0.109198	-0.21033	
-2.63951	1.03572	-0.267093	
-2.70054	1.07584	-0.254351	
-2.69629	2	-0.255194	
-2.90393	0.633303	-0.200442	
-3.36899	0.422033	-0.233997	
-2.32799	0.266461	-0.136439	
-2.62291	0.262786	-0.270792	
-2.66219	1.66446	-0.162947	
-2.59948	1.54135	-0.163111	
-2.58076	0.371856	-0.280644	
-2.11496	0.429791	-0.229458	
-2.49364	1.56661	-0.169255	
-2.50806	1.62234	-0.1681	
-1.84838	1.2804	-0.142539	
-2.54902	0.68957	-0.288497	
-2.03561	0.753859	-0.248844	
-3.44643	0.285029	-0.262455	
-2.0397	1.26259	-0.247788	
-3.946	0	-0.306802	
-2.04766	1.39629	-0.245749	
-3.07002	1.45609	-0.32637	
-2.55706	0.308608	-0.286471	
-3.12065	0.682551	-0.314451	
-2.54607	0.423502	-0.289246	
-3.44791	2	-0.263224	
-2.50994	0.980727	-0.167956	
-3.13191	1.51237	-0.311928	
-2.65711	1.11653	-0.263278	
-2.5675	0.277428	-0.164368	
-3.52853	0.33864	-0.253527	
-2.10444	1.08627	-0.231894	
-2.66439	0.0993244	-0.163001	
-3.21058	0.0548078	-0.208851	
-1.59989	1.55961	-0.18983	
-3.44782	1.72118	-0.263179	
-2.9148	1.94239	-0.204311	
-2.90662	1.87535	-0.20137	
-2.16201	0.473525	-0.219062	
-2.12551	0.331482	-0.227058	
-2.8495	1.63205	-0.185052	
-2.94729	1.59521	-0.218343	
-2.70659	1.47977	-0.253161	
-3.24643	0.160133	-0.211975	
-2.71647	0.114041	-0.165558	
-2.26708	1.45658	-0.198758	
-2.812	0.130179	-0.177362	
-2.9148	0.972536	-0.220536	
-3.41961	0.0752793	-0.250457	
-2.507	0.0509452	-0.168181	
-2.46205	1.00206	-0.172111	
-1.85918	0.356044	-0.141005	
-2.87469	0.0762643	-0.225527	
-2.15208	1.44431	-0.221189	
-3.25396	0	-0.212797	
-2.46029	0.460204	-0.180829	
-2.16732	0.946643	-0.11945	
-2.56099	2	-0.29575	
-2.63998	2	-0.287216	
-2.80354	2	-0.273953	
-2.88954	2	-0.269363	
-2.72054	2	-0.27994	
-3.56395	2	-0.308672	
-3.7421	2	-0.314813	
-3.41592	2	-0.292149	
-3.33259	2	-0.280166	
-3.15486	2	-0.266209	
-3.47445	2	-0.309976	
-3.48285	-0.0721374	-0.392202	
-2.03838	-0.0524234	-0.261855	
-2.30551	-1.94219	-0.267934	
-2.73791	-1.93265	-0.30939	
-2.77828	-2	-0.31065	
-2.59731	-0.0610541	-0.306212	
-2.74156	-0.0745946	-0.309498	
-2.88356	-0.063891	-0.314546	
-3.48666	-1.2856	-0.305046	
-3.42494	-1.32684	-0.331344	
-3.48666	-1.35721	-0.305046	
-3.48666	-0.0721374	-0.305046	
-3.98476	-0.215036	-0.348624	
-3.48666	-0.143615	-0.305046	
-3.43543	-0.177622	-0.330078	
-2.98857	-0.286611	-0.261468	
-3.43651	-0.326516	-0.329926	
-3.98476	-0.358269	-0.348624	
-3.4367	-0.255005	-0.329899	
-3.48666	-0.714404	-0.305046	
-3.92533	-0.754353	-0.374676	
-3.48666	-0.786116	-0.305046	
-2.9239	-2	-0.316214	
-3.37682	-1.91632	-0.357929	
-2.85121	-2	-0.313267	
-2.06166	-2	-0.262112	
-2.03949	-1.94543	-0.261866	
-2.48666	-2	-0.305046	
-3.43773	-1.39944	-0.329748	
-3.48666	-1.42879	-0.305046	
-2.49047	-2	-0.21789	
-3.98476	-1.92786	-0.348624	
-2.92903	-2	-0.287532	
-2.63273	-2	-0.30683	
-2.59688	-1.9425	-0.306205	
-3.53555	-1.91894	-0.364644	
-2.99629	-2	-0.319316	
-2.57097	-2	-0.278782	
-3.48666	-1.21388	-0.305046	
-3.42484	-1.25457	-0.331354	
-3.98476	-1.78496	-0.348624	
-2.44663	-1.82622	-0.241781	
-3.48666	-1.85639	-0.305046	
-2.68146	-0.824164	-0.307882	
-2.60367	-0.840188	-0.306314	
-3.15665	-0.897364	-0.350936	
-3.48285	-1.07055	-0.392202	
-3.05024	-1.0996	-0.349178	
-3.543	-0.999321	-0.392697	
-2.86598	-1.67801	-0.313843	
-2.93705	-1.66711	-0.316771	
-3.3677	-1.60664	-0.357564	
-2.74956	-0.446895	-0.309739	
-3.76666	-0.354649	-0.397551	
-2.69574	-0.398171	-0.308234	
-3.41875	-1.83141	-0.359655	
-2.48191	-1.78071	-0.275036	
-3.4203	-1.74009	-0.359721	
-3.58065	-1.7075	-0.366468	
-3.00105	-1.71822	-0.31952	
-3.04815	-1.78279	-0.32151	
-3.62058	-1.79397	-0.368132	
-2.94795	-1.60358	-0.317236	
-2.90271	-1.5428	-0.315329	
-2.35053	-1.84473	-0.26959	
-3.73927	-1.45461	-0.373925	
-3.15895	-1.49442	-0.326265	
-3.20642	-1.53304	-0.328632	
-4.20427	-1.28582	-0.415871	
-3.13809	-1.23395	-0.325268	
-4.10511	-1.30809	-0.411116	
-4.28945	-1.05755	-0.41976	
-2.87012	-1.02435	-0.290432	
-2.82152	-0.98494	-0.289871	
-3.06021	-0.659051	-0.322003	
-2.99318	-0.685531	-0.319182	
-3.54443	-0.738859	-0.365013	
-3.51984	-1.33862	-0.363982	
-3.52953	-1.25231	-0.364391	
-3.48285	-1.42879	-0.392202	
-3.48285	-1.49933	-0.392202	
-3.06933	-1.4654	-0.349413	
-2.57413	-0.918262	-0.305874	
-2.62628	-1.01699	-0.306708	
-2.11984	-0.957788	-0.262979	
-3.74852	-0.881052	-0.396979	
-2.76026	-0.965074	-0.31007	
-2.82373	-0.954992	-0.312234	
-2.5874	-0.86716	-0.279425	
-3.65	-0.888326	-0.369502	
-3.13407	-0.817828	-0.325081	
-3.16022	-0.589278	-0.351014	
-3.17726	-0.676587	-0.351405	
-3.24254	-0.618429	-0.353162	
-3.83679	-0.0745363	-0.377437	
-3.07328	-1.18703	-0.322527	
-3.01131	-1.16574	-0.31996	
-3.00665	-0.496062	-0.31976	
-3.58574	-0.503541	-0.366665	
-3.04229	-0.439924	-0.321268	
-3.62213	-0.698429	-0.368201	
-2.8913	-1.23016	-0.31486	