<VTKFile type="UnstructuredGrid" version="0.1" byte_order="LittleEndian">
	<UnstructuredGrid>
		<Piece NumberOfPoints="1917" NumberOfCells="56">
			<CellData Scalars="scalars">
				<DataArray type="Float64" Name="Doublet Strengths" NumberOfComponents="1" Format="ascii">
-5.62452	
-18.3446	
-16.3696	
-13.4313	
-18.7404	
-17.9632	
-18.5036	
-18.5754	
-14.3733	
-15.9568	
-9.37464	
-18.3368	
-16.948	
-18.657	
-15.1886	
-16.8894	
-18.1937	
-18.0325	
-18.2982	
-17.9506	
-18.1938	
-18.5422	
-18.0611	
-18.4558	
-18.5521	
-18.1707	
-11.8244	
-16.6451	
-18.5802	
-16.4239	
-18.7937	
-18.5517	
-18.4651	
-14.2158	
-9.37099	
-18.3759	
-17.0131	
-18.6122	
-17.9878	
-15.0357	
-16.921	
-18.363	
-19.0773	
-18.1676	
-18.0018	
-18.4015	
-18.2817	
-18.9233	
-15.9298	
-18.0915	
-18.7491	
-5.62613	
-13.6688	
-16.7204	
-18.52	
-11.8076	
				</DataArray>
				<DataArray type="Float64" Name="Velocity Potential" NumberOfComponents="1" Format="ascii">
111.646	
124.274	
122.186	
119.144	
124.854	
124.041	
124.587	
124.698	
120.041	
121.688	
115.304	
124.434	
122.886	
124.731	
120.859	
122.826	
124.178	
123.956	
124.238	
123.843	
124.171	
124.536	
123.961	
124.403	
124.678	
124.095	
117.629	
122.539	
124.743	
122.446	
125.136	
124.82	
124.847	
120.23	
115.665	
124.574	
123.08	
124.949	
124.213	
121.042	
122.962	
124.391	
125.117	
124.324	
123.907	
124.314	
124.257	
125.169	
121.942	
124.054	
124.784	
111.931	
119.731	
122.767	
124.6	
117.983	
				</DataArray>
			</CellData>
			<Points>
				<DataArray type="Float64" Name="Position" NumberOfComponents="3" Format="ascii">
-0.0692799	0	-0.0877997	
0.0963104	0.0524256	-0.075092	
-0.280816	0	-0.112058	
-0.215327	2	-0.0906048	
-0.246557	1.93467	-0.0914744	
-0.430113	2	-0.105211	
-0.142255	0	-0.0889397	
-0.10684	0.0610502	-0.0883219	
-0.251077	0.0745738	-0.0916078	
-0.215327	0	-0.0906048	
-0.2878	0	-0.0927602	
-0.360739	0	-0.0953775	
-0.433425	0	-0.0983238	
-0.39205	0.0639395	-0.0966137	
-0.806237	1.39584	-0.0992119	
-0.934187	1.3266	-0.113483	
-0.99619	1.35721	-0.087156	
-0.280816	1.92786	-0.112058	
0.0954448	1.94512	-0.0751007	
-1.1385	0.0721374	-0.0996069	
-0.932219	0.0533506	-0.11368	
-0.853877	0	-0.0747051	
-1.1385	0.215036	-0.0996069	
-1.19097	0.171582	-0.140338	
-0.853877	0.143615	-0.0747051	
-0.853877	0.286611	-0.0747051	
-1.1385	0.358269	-0.0996069	
-0.946007	0.326064	-0.11204	
-0.943797	0.252841	-0.112347	
-0.99619	0.714404	-0.087156	
-0.99619	0.786116	-0.087156	
-1.07905	0.754574	-0.125661	
-0.433425	2	-0.0983238	
-0.360739	2	-0.0953775	
-0.682472	1.91204	-0.12175	
-0.448662	1.66657	-0.0989696	
-0.521009	1.60722	-0.10853	
-0.259319	0.446925	-0.0918559	
-0.206376	0.397747	-0.0903728	
-0.565197	0.354616	-0.117426	
0.00381	2	-0.087156	
-0.99619	1.42879	-0.087156	
-0.711564	2	-0.0622543	
-0.79434	2	-0.100769	
-1.1385	1.92786	-0.0996069	
-0.142255	2	-0.0889397	
0.0730329	2	-0.0753489	
-0.107175	1.93956	-0.0883272	
-0.33113	1.94176	-0.0875805	
-0.831363	1.9167	-0.128067	
-0.505812	2	-0.101426	
-0.99619	1.21388	-0.087156	
-0.802213	1.19029	-0.0997973	
-0.99619	1.14216	-0.087156	
-0.99619	1.2856	-0.087156	
-0.934485	1.25405	-0.113452	
-1.1385	1.78496	-0.0996069	
-0.99619	1.85639	-0.087156	
-0.66768	1.82617	-0.0861511	
-0.794918	0.114671	-0.100705	
-1.06526	1.46922	-0.126924	
-1.01974	1.38862	-0.128573	
-0.19099	0.824164	-0.089992	
-0.310395	0.897364	-0.101919	
-0.113193	0.840188	-0.0884237	
-0.838833	1.46561	-0.115792	
-0.138503	1	-0.0996069	
-0.340957	0.999321	-0.112552	
-0.280816	1.07055	-0.112058	
-0.457498	1.60348	-0.0993469	
-0.0887145	0.356544	-0.0880531	
-0.0107131	0.353408	-0.0767012	
-0.13312	0.427857	-0.0887685	
-0.571011	1.82506	-0.110576	
-0.574698	1.7382	-0.110731	
-0.347206	1.77788	-0.088273	
-0.510959	1.71777	-0.101647	
-0.55885	1.78088	-0.103669	
-0.73455	1.70728	-0.117457	
-0.774599	1.79378	-0.119127	
-0.412156	1.54291	-0.0974354	
-0.349915	1.8351	-0.0949643	
-0.892837	1.45384	-0.124899	
-0.715998	1.53294	-0.110744	
-0.66851	1.49429	-0.108377	
-0.851283	1.28284	-0.122842	
-0.901902	1.30815	-0.130921	
-0.646287	1.23305	-0.107316	
-1.0885	1.05577	-0.139655	
-0.84236	0.974397	-0.115865	
-0.740326	1.02275	-0.103621	
-0.56974	0.65903	-0.104114	
-0.698178	0.738857	-0.115996	
-0.502704	0.685529	-0.101292	
-0.67348	1.33866	-0.11496	
-0.683157	1.25226	-0.115369	
-0.280816	1.42879	-0.112058	
-0.223601	1.46516	-0.100403	
-0.280816	1.49933	-0.112058	
-0.0836595	0.918262	-0.0879837	
-0.546479	0.881052	-0.116835	
-0.346787	0.891355	-0.0948464	
-0.333259	0.954992	-0.0943443	
-0.452698	0.867158	-0.0926623	
-0.643578	0.817822	-0.10719	
-0.803633	0.888323	-0.120479	
-0.313964	0.589259	-0.101997	
-0.396288	0.618435	-0.104145	
-0.330999	0.676586	-0.102388	
-0.794657	0	-0.114403	
-0.865953	0	-0.116143	
-0.999112	0.0790961	-0.128532	
-0.476147	1.27156	-0.100148	
-0.465724	1.20368	-0.0996996	
-0.51641	0.496767	-0.10188	
-0.553116	0.442032	-0.103431	
-0.740173	0.502871	-0.117675	
-0.77587	0.698424	-0.119184	
-0.400821	1.23016	-0.0969697	
-0.351463	1.27217	-0.0950229	
-0.464852	1.19537	-0.106407	
-0.277748	1.2898	-0.0853127	
-0.488807	1.02577	-0.0941731	
-0.797885	0.967174	-0.120204	
-0.709534	1.0342	-0.110419	
-0.76363	1.00672	-0.125173	
-0.515799	0.93866	-0.101854	
-0.567364	0.987296	-0.104017	
-0.516488	0.378981	-0.108352	
-0.435017	0.426844	-0.0983909	
-0.524426	0.470462	-0.108666	
-1.05637	1.87857	-0.127504	
-1.04213	1.79633	-0.128137	
-0.834531	1.84585	-0.115695	
-0.624251	0.270573	-0.106321	
-0.46724	0.200611	-0.0932446	
-0.819121	0.193571	-0.121234	
-0.757407	0.123897	-0.118378	
-0.558702	0.249496	-0.103662	
-0.5496	0.173576	-0.103285	
-1.00975	1.20923	-0.128598	
-0.837323	1.13932	-0.115759	
-0.921943	1.13751	-0.114547	
-0.674527	0.531427	-0.108671	
-0.675428	0.463982	-0.108715	
-0.618594	0.427199	-0.106076	
-0.68531	0.382421	-0.109205	
-0.72948	0.742778	-0.103696	
-1.0199	0.813881	-0.128572	
-0.742589	0.580015	-0.11777	
-0.679309	1.7199	-0.108907	
-0.834855	0.757182	-0.122017	
-0.564653	0.698895	-0.0978393	
-0.766111	0.732194	-0.113179	
-0.746434	0.893597	-0.112251	
-0.713469	0.830458	-0.110617	
-0.938536	0.834567	-0.126915	
-0.863657	1.53139	-0.116134	
-0.811088	1.59044	-0.115009	
-0.786739	1.5207	-0.114082	
-0.484462	1.10613	-0.107124	
-0.27211	1.13654	-0.0922532	
-0.980011	0.567577	-0.128218	
-1.04714	0.624293	-0.127951	
-0.83189	0.641057	-0.11563	
-0.763542	0.667946	-0.113061	
-0.763433	0.607392	-0.113056	
-0.897679	0.97644	-0.12513	
-0.936653	0	-0.11322	
-0.429198	1.40806	-0.0981459	
-0.461876	1.34451	-0.0995345	
-0.495453	1.41675	-0.10098	
-0.456371	1.48085	-0.0992987	
-0.703919	1.43176	-0.116233	
-0.52105	1.49613	-0.102079	
-0.587032	0.925911	-0.104803	
-0.754072	1.74077	-0.112617	
-1.03945	1.66215	-0.137555	
-0.6768	1.70694	-0.102819	
-0.280816	1.71339	-0.112058	
-0.351269	1.77904	-0.11267	
-0.280816	1.78496	-0.112058	
-0.794657	2	-0.114403	
-0.979558	1.92525	-0.128208	
-0.865953	2	-0.116143	
-0.627073	0.350099	-0.106444	
-0.563356	0.315549	-0.103854	
-0.323169	1.02327	-0.0939787	
-0.535059	1.02942	-0.109093	
-0.318224	0.0746863	-0.0938023	
-0.352931	0.130322	-0.0950787	
-0.421049	0.159825	-0.104916	
-0.433432	0.255296	-0.105321	
-0.191914	0.198868	-0.081929	
-0.396303	0.185075	-0.0967858	
-0.386207	0.53229	-0.103848	
-0.565441	0.358269	-0.136959	
-0.138503	0.286611	-0.0996069	
-0.0583777	0.283499	-0.0876732	
-0.280816	0.143615	-0.112058	
-0.216279	0.19815	-0.100308	
-0.280816	0.215036	-0.112058	
-0.425581	0.268711	-0.113817	
-0.648125	0	-0.113876	
-0.436282	0	-0.0920188	
-0.585421	0.0522709	-0.10474	
-0.603878	0.233077	-0.0910782	
-1.01689	0.293965	-0.12859	
-0.730548	1.52249	-0.117301	
-0.586732	1.6164	-0.104791	
-0.527114	1.57352	-0.102337	
-0.522646	1.65009	-0.102147	
-0.884275	1.59898	-0.11605	
-0.723142	0	-0.111102	
-0.668556	0.0589648	-0.108379	
-0.650512	0	-0.107514	
-0.168598	1.47391	-0.0894794	
-0.393636	1.46129	-0.104066	
-0.371156	1.53681	-0.103421	
-0.832201	0.286849	-0.121884	
-0.309631	0.724627	-0.0935003	
-0.177495	0.784216	-0.0814077	
-0.400702	0.788387	-0.104279	
-0.96673	0.223399	-0.127879	
-0.668034	1.34531	-0.102533	
-0.663286	1.40661	-0.102366	
-0.885867	1.36487	-0.124562	
-0.778385	1.29047	-0.113727	
-0.649612	0.414541	-0.101843	
-0.739195	0.434011	-0.111898	
-0.890735	0.349215	-0.124798	
-0.854788	0.422964	-0.11606	
-0.947484	0.489015	-0.127252	
-0.877097	0.488653	-0.116125	
-0.312078	1.24582	-0.0802768	
-0.582655	1.18695	-0.104631	
-0.609498	1.58611	-0.100059	
-0.181035	0.42229	-0.0815342	
-0.203215	0.312816	-0.0823483	
-0.568297	0.310713	-0.110462	
-0.375385	0.255176	-0.0959485	
-0.441234	0.23291	-0.098654	
-1.05683	1.20734	-0.138357	
-0.64169	1.1572	-0.107103	
-0.710938	1.15129	-0.11049	
-0.557368	1.2101	-0.097473	
-0.793267	1.08885	-0.119986	
-0.254336	1.61914	-0.0917052	
-0.273179	1.69424	-0.092287	
-0.336891	1.67616	-0.10253	
-0.322062	1.64844	-0.093939	
-0.350467	1.72086	-0.0949852	
-0.6955	0.644913	-0.109714	
-0.621552	1.94629	-0.100625	
-0.834188	1.93331	-0.121983	
-0.76529	1.88539	-0.113142	
-0.31924	0.0804625	-0.102115	
0.0250199	0.127785	-0.0760406	
0.01378	1.88257	-0.0762348	
-0.322309	1.92762	-0.102185	
-0.215821	0.21589	-0.0906179	
-0.614184	0.273142	-0.100281	
-0.749603	0.209198	-0.112404	
-0.602815	0.143339	-0.0997369	
-0.815763	0.145092	-0.115164	
-0.550345	0.115792	-0.0971208	
-0.692428	1.85807	-0.10956	
-0.626685	1.88373	-0.106427	
-0.474622	1.94611	-0.0935543	
-0.436282	2	-0.0920188	
-0.650512	2	-0.107514	
-0.804553	0.682902	-0.099465	
-1.1385	0.64279	-0.0996069	
-0.331119	1.88295	-0.08758	
-0.351334	1.53147	-0.095018	
-0.328905	1.46174	-0.0941856	
-0.393378	1.47178	-0.0966673	
-0.895786	1.08229	-0.11581	
-0.0622592	0.329519	-0.0778761	
-0.201041	0.43708	-0.100128	
-0.138503	0.429861	-0.0996069	
-0.243989	1.67699	-0.0839316	
-0.303997	1.57544	-0.0933055	
-0.5574	1.60691	-0.0974746	
-0.657987	1.65508	-0.107869	
-0.759067	1.81461	-0.112853	
-0.555968	1.78507	-0.0974027	
-0.0610715	0.749751	-0.0778461	
-0.253233	0.701087	-0.0916721	
-0.27551	0.758919	-0.101221	
-0.99619	0.429861	-0.087156	
-1.07237	0.409639	-0.126335	
-0.827216	1.77163	-0.115507	
-1.03914	1.71936	-0.128231	
-0.332244	1.1716	-0.102418	
-0.22273	1.09553	-0.0908026	
-0.437792	1.76477	-0.105467	
-0.230361	1.7791	-0.083391	
-0.496187	0.277236	-0.101011	
-0.613718	0.151691	-0.112395	
-0.435598	1.84554	-0.0919914	
-0.511703	1.83711	-0.101679	
-0.392218	1.33945	-0.0966205	
-0.363245	1.40104	-0.0954742	
-0.663159	0.297567	-0.102361	
-0.824868	0.357474	-0.115442	
-0.479354	0.760525	-0.0937574	
-0.57198	0.810302	-0.104204	
-0.480007	0.749841	-0.100314	
-0.414989	0.751361	-0.0975527	
-0.437268	0.686344	-0.098486	
-0.506663	0.810027	-0.101462	
-0.441346	0.81571	-0.0986587	
-0.423129	1.64173	-0.124509	
-0.0618449	1.65788	-0.0877122	
-1.1385	1	-0.0996069	
-1.1385	1.07055	-0.0996069	
-0.805244	1.0308	-0.0993626	
0.0813594	1.5272	-0.0752512	
-0.280816	1.57014	-0.112058	
-0.274291	0.121062	-0.0851689	
-0.463216	0.068568	-0.0995919	
-0.530708	0.0968802	-0.10249	
-0.280816	1.85639	-0.112058	
-0.205209	1.8723	-0.100175	
-0.280816	0.0721374	-0.112058	
-0.0564203	0.116381	-0.0876517	
-0.562433	0.378957	-0.103816	
-0.280816	1.2856	-0.112058	
-0.0619525	1.33655	-0.0877135	
-0.280816	1.35721	-0.112058	
-0.3088	1.07097	-0.0866232	
-0.457601	1.13809	-0.0993513	
-0.261418	1.10545	-0.0846379	
-0.510691	1.08867	-0.101635	
-0.471959	0.876824	-0.0999675	
-0.410293	0.882801	-0.0973585	
-0.51884	0.819303	-0.108444	
-0.629935	1.38959	-0.106571	
-0.481179	1.45442	-0.0938367	
-0.688708	1.41914	-0.109374	
-0.357657	0.213959	-0.0887233	
-0.457945	0.621411	-0.0993661	
-0.420119	0.549577	-0.0977659	
-0.481523	0.556476	-0.100379	
-0.449251	0.491713	-0.0989947	
-0.904404	0.0712931	-0.125445	
-0.389946	1.1672	-0.0965288	
-0.645396	1.57159	-0.107275	
-0.18977	0.47164	-0.0899628	
-0.801192	0.476615	-0.0999356	
-1.06099	0.546631	-0.127223	
-0.138503	0.500665	-0.0996069	
-0.056167	0.802839	-0.0876489	
0.0108979	0.646217	-0.0762866	
0.0330831	0.69766	-0.0759089	
-0.109326	1.17495	-0.0883613	
-0.203981	1.0996	-0.100161	
-0.288403	1.1007	-0.101465	
-0.396565	1.32398	-0.104154	
-0.0433766	1.29855	-0.0774154	
-0.215502	1.24767	-0.0906095	
-0.398125	0.61668	-0.0968599	
-0.360984	0.546139	-0.0953869	
-0.159992	0.561624	-0.0807967	
-0.314182	0.491616	-0.0936595	
-0.0497388	1.0418	-0.0775667	
-0.252691	1.02609	-0.0916559	
-0.335958	0.976287	-0.102507	
-0.269781	0.965074	-0.0921798	
-0.40227	0.954567	-0.0970289	
-0.12978	1.62515	-0.088708	
-0.0488155	1.59965	-0.0775445	
-0.747023	0.360303	-0.103513	
-0.0663653	1.5889	-0.0877648	
-0.323918	1.33334	-0.0940056	
-0.297581	1.39903	-0.0930869	
-0.285166	1.2624	-0.0926736	
-0.514976	0.683934	-0.108292	
-0.927973	0.967445	-0.114069	
-1.19437	0.89983	-0.140182	
-0.814491	0.914042	-0.115123	
-0.564337	1.0505	-0.103894	
-0.63207	1.13415	-0.101101	
-0.588471	1.09375	-0.0990322	
-0.330101	1.5431	-0.0875362	
-0.822405	0.770923	-0.11537	
-0.614227	0.785107	-0.100283	
-0.536891	1.34839	-0.0964509	
-1.00543	1.29694	-0.128582	
-0.84595	1.65281	-0.115931	
-0.210072	1.25411	-0.100232	
-0.125979	1.32162	-0.0886405	
-0.490094	0.633745	-0.0942307	
-0.686524	0.587288	-0.109265	
-0.887207	0.6882	-0.116004	
-0.533115	0.873522	-0.102592	
-0.298701	1.36753	-0.0797557	
-0.723142	2	-0.111102	
-0.112407	1.1987	-0.0792659	
-0.499522	0.394274	-0.101155	
-0.498859	0.336713	-0.101126	
-0.820913	0.702848	-0.115325	
-0.99619	0.929454	-0.087156	
-0.99619	0.857842	-0.087156	
-0.769215	1.94387	-0.102739	
-0.520818	1.16572	-0.102069	
-0.577557	1.11814	-0.104428	
-0.356433	1.79696	-0.103024	
-0.080055	1.73661	-0.078342	
-0.301202	0.370041	-0.0862999	
-0.349493	0.446178	-0.0883716	
-0.31367	0.936014	-0.0868313	
0.1868	1.0523	-0.0632825	
-0.135802	1.01699	-0.0888179	
-0.99619	1.49933	-0.087156	
-0.221694	0.586375	-0.100378	
-0.258212	0.509874	-0.100919	
-0.93462	1.54624	-0.113438	
-0.167625	0.664255	-0.0810601	
-0.218768	0.750955	-0.0829398	
-0.17081	0.837223	-0.0811714	
-0.280816	1.21388	-0.112058	
0.0948322	1.17543	-0.0751069	
-0.280816	0.929454	-0.112058	
0.0939743	0.873321	-0.0751156	
-0.423129	0.857842	-0.124509	
-0.052729	0.725606	-0.087612	
-0.280816	0.786116	-0.112058	
-0.280816	0.714404	-0.112058	
-0.068742	0.653203	-0.0877932	
-0.280816	0.64279	-0.112058	
-0.423129	0.571209	-0.124509	
-0.280816	1.14216	-0.112058	
0.0148498	0.957788	-0.0762158	
0.0616436	0.930031	-0.0659077	
-0.337	0.613315	-0.0944819	
-0.80988	1.6049	-0.0986212	
-0.399536	0.552048	-0.0905098	
-0.521417	0.616488	-0.102094	
-0.28057	1.54065	-0.101315	
-0.155242	0.177963	-0.0891972	
-0.141941	1.24487	-0.0889337	
-0.270292	1.39957	-0.101127	
-0.0746834	0.139289	-0.0781981	
-0.11919	1.69928	-0.0885234	
-0.152212	1.75272	-0.0891356	
-0.190679	1.35868	-0.0899846	
-0.10113	1.39206	-0.0789327	
-0.054642	1.42097	-0.0776861	
-0.129731	1.81911	-0.0887071	
-0.929565	1.6612	-0.113929	
-0.99619	1.71339	-0.087156	
-0.593743	0.496577	-0.099293	
-0.759843	0.549039	-0.112889	
-0.0369526	1.85508	-0.0772666	
0.0922886	0.520218	-0.0751328	
0.105342	0.528047	-0.0648162	
-0.99619	1.57014	-0.087156	
-1.1385	0.500665	-0.0996069	
-0.419201	0.932053	-0.0852305	
-0.146175	1.07414	-0.080332	
-0.149621	1.51028	-0.0804464	
-1.1385	1.64173	-0.0996069	
-0.0858893	0.282674	-0.0785013	
-0.99619	0.571209	-0.087156	
-0.666977	0.59575	-0.0862702	
0.222916	1.71321	-0.062809	
-0.452339	1.88726	-0.105965	
-0.797676	0.827624	-0.100383	
-0.136366	1.82622	-0.080012	
0.0831369	1.40032	-0.0752312	
-0.234205	1.87065	-0.0911195	
-0.564413	0.866054	-0.0910799	
-0.531586	1.24863	-0.090277	
-0.195035	1.94589	-0.0820438	
-0.664522	1.75284	-0.0866683	
-0.0109065	1.94185	-0.0681161	
-0.959917	0.611259	-0.0466561	
-1.08216	0.691022	-0.0494322	
-0.814593	0.951279	-0.0326067	
-1.08833	0.885946	-0.0521849	
-0.484702	0	0.00361504	
-0.416357	0	-0.00358615	
-0.597884	0.0792566	-0.0116638	
-0.350855	0	-0.0935723	
0.0383192	0.0639973	-0.047026	
-0.135683	0	-0.05217	
-0.0493356	0.0936441	-0.0729569	
-0.345212	0	-0.013101	
-0.274649	0	-0.0244554	
-0.317747	0.0798839	-0.0172983	
-0.825568	0.821071	-0.0387715	
-0.958739	1.45488	-0.0460232	
-0.961795	1.89867	-0.0476854	
-0.342389	2	0.0160659	
-0.556326	2	0.00894867	
-0.676457	1.91895	-0.00489852	
0.0348805	1.93754	-0.0462152	
-0.0544398	1.90585	-0.0716504	
-0.0662293	2	-0.0686706	
-0.135683	2	-0.05217	
-0.416357	2	-0.00358615	
-0.380663	1.92228	-0.00811092	
-0.345212	2	-0.013101	
-0.592929	1.85759	0.0107219	
-0.660767	1.82278	-0.00602695	
-0.455661	0.600657	-0.0304479	
-0.258261	0.663037	-0.0273572	
-0.467937	0.68441	-0.0285161	
-0.0509926	0.939959	-0.0725317	
-0.0600599	1.33496	-0.0702234	
-0.646244	1.68417	-0.00717266	
-0.391633	1.74973	0.0199896	
-0.884975	1.71007	-0.0139089	
-0.310782	1.02684	-0.0184081	
-0.46354	0.943151	-0.0292015	
-0.255597	0.965528	-0.0278383	
-0.0865007	0.553448	-0.0636693	
-0.0435593	0.495631	-0.0744473	
-0.745952	1.36962	0.00691693	
-0.962295	1.42353	-0.0137502	
-0.756513	1.43872	0.00585663	
-1.00449	1.02505	-0.0243913	
-0.796047	0.965827	0.000821005	
-0.911514	1.04082	-0.00802256	
-0.850377	1.21008	-0.00264394	
-1.08146	1.26463	-0.0241989	
-0.790825	1.19252	0.00158722	
-0.299601	1.8275	-0.0202275	
-0.454221	1.91186	-0.0306783	
-0.509333	1.83465	-0.0224244	
-0.572984	1.04863	-0.0143669	
-0.370129	1.0111	-0.00954282	
-0.495903	1.09426	-0.0243287	
-0.280258	1.10778	0.00959994	
-0.645775	1.09436	-0.00721128	
-0.539391	0.92332	0.00790387	
-0.577592	0.983948	0.0100614	
-0.905153	0.912712	-0.0133938	
-0.422071	1.65028	0.0218476	
-0.475875	1.64109	0.0239157	
-0.7128	1.58611	-0.00273612	
-0.0664118	0.621253	-0.0686249	
0.00942724	0.607584	-0.0403493	
-0.314931	0.544593	-0.0565685	
-0.335602	0.626188	-0.0522789	
-0.570864	0.883867	-0.014609	
-0.387499	0.814004	-0.00720508	
-0.363174	0.883506	-0.0105118	
-0.239442	0.94284	0.0044858	
-0.186353	0.823889	-0.00314464	
-0.294028	0.86549	-0.0211517	
-0.739435	0.577518	0.00751431	
-0.879248	0.659851	-0.00471865	
-0.801153	0.634606	4.05073e-05	
-0.310341	0.0913029	-0.0575421	
-0.0968104	0.141129	-0.0611847	
-0.52294	1.15841	0.00675823	
-0.894377	1.18235	-0.0136285	
-0.431087	1.11752	0.0223108	
-1.02317	0.938839	-0.0291938	
-0.788413	0.99711	-0.0207444	
-0.556135	0.516229	0.00893763	
-0.726774	0.597248	-0.0020787	
-0.630512	0.53029	0.0116418	
-0.548601	1.25683	-0.0172617	
-0.528563	1.17353	-0.0198201	
-0.337768	1.22905	-0.0142103	
-1.04419	1.10599	-0.0353956	
-0.945775	1.05145	-0.039623	
-0.902584	1.1866	-0.0231697	
-0.95563	1.17077	-0.0443985	
-0.607601	1.39834	-0.0413791	
-0.185056	1.4857	-0.00334454	
-0.387563	1.4682	-0.00719668	
-0.8627	0.907417	-0.00343161	
-0.667423	0.841878	0.0114194	
-1.20168	0.492781	-0.0529505	
-0.718115	0.543817	0.000930479	
-0.909336	0.570722	-0.0253799	
-0.687425	1.72433	0.0108108	
-0.643344	1.78876	0.0116939	
-0.557683	0.853718	0.00902638	
-0.47064	0.389993	0.00229569	
-0.335762	0.316743	0.0154549	
-0.416454	0.343184	-0.00357454	
-0.591061	0.780432	0.0106479	
-0.467712	0.84375	0.0237312	
-0.661123	0.770799	0.0115388	
-0.506268	0.577671	0.00546903	
-0.213112	1.02428	-0.0799806	
-0.415138	0.237428	-0.0372243	
-0.288668	0.153222	-0.0220515	
-0.221061	0.163431	-0.0343093	
-0.506202	0.159631	-0.0228622	
-0.71056	1.80219	0.00965895	
-0.598173	1.86234	0.0198717	
-0.789451	1.80354	0.00178362	
-0.618618	0.329138	0.0114731	
-0.835614	0.30982	-0.00188637	
-0.783502	0.244444	-0.000756212	
-0.650735	0.391669	0.0116618	
-0.107934	1.03303	-0.0163613	
-0.61902	0.717798	0.0114807	
-0.537393	0.718603	0.00777154	
-0.433004	0.665477	0.022404	
-0.65042	0.658642	0.0116641	
-0.334202	1.87015	0.0153082	
-0.440859	1.80864	-0.00077874	
-0.439236	1.78424	0.0226942	
-0.468433	1.74797	0.0020808	
-0.71591	0.386445	0.00932204	
-0.745955	0.441074	0.0069166	
-0.785285	0.365688	0.00236539	
-0.557191	1.25637	0.00899831	
-0.632038	1.24657	0.0116551	
-0.58004	1.3122	0.0101749	
-0.503253	1.30199	0.0241399	
-0.705553	1.27096	0.00994996	
-0.431127	0.276367	-0.00186426	
-0.634508	0.292881	-0.0373176	
-0.242932	0.234809	0.00494912	
-0.187013	0.216682	-0.00304306	
-0.807775	0.891352	-0.00101874	
-0.607126	1.48059	0.011202	
-0.531273	1.4429	0.00735445	
-0.67189	1.51083	-0.00521513	
-0.459888	1.45569	0.00122918	
-0.619637	1.36546	0.0114921	
-0.690101	1.34038	0.0107024	
-0.355659	1.70558	-0.0115799	
-0.370639	1.63351	-0.00947237	
-0.298683	1.65739	-0.0203789	
-0.219501	0.837679	-0.034612	
-0.263788	0.792044	-0.0263675	
-0.276038	1.09876	-0.0242139	
-0.448172	1.30603	-0.0316542	
-0.116868	1.35315	-0.0147408	
-0.814353	0.166399	-0.00114084	
-0.590231	0.169498	0.0106145	
-0.36622	1.40455	-0.0462105	
-0.531707	0.41495	-0.0194081	
-0.584271	0.474418	-0.0131095	
-0.819322	1.05334	-0.00127927	
-0.717913	0.984567	0.00918892	
-0.681347	1.13834	0.011033	
-0.316116	0.452043	-0.0175565	
-0.455589	0.374434	-0.0304595	
-0.115037	0.42015	-0.0150705	
-0.378677	0.484457	-0.0438391	
-0.833943	0	-0.00575212	
-0.85058	0.0667918	-0.00925198	
-0.89833	0	-0.021832	
-0.833943	2	-0.00575212	
-0.660101	1.94291	0.0122939	
-0.621176	2	0.0175434	
-0.87153	0.853126	-0.0142676	
-0.89833	2	-0.021832	
-1.00727	1.92333	-0.025067	
-0.351409	0.506745	0.0168665	
-0.440693	0.56183	-0.000796955	
-0.448457	0.636864	4.12266e-05	
-0.37937	0.546278	-0.00828439	
-0.380092	0.617676	-0.00818747	
-0.923691	0.078087	-0.0095577	
-0.883775	1.56345	-0.00511775	
-0.651204	1.62497	0.0136471	
-0.825617	1.57191	-0.00414784	
-1.02587	0.153301	-0.0299387	
-1.03011	0.252546	-0.0311392	
-0.796703	0.211952	-0.024172	
-0.511805	0.650538	0.00591129	
-0.603443	0.718414	-0.011096	
-0.450387	0.798942	0.00024574	
-0.517438	0.786413	0.0063469	
-0.253573	0.678765	0.00633188	
-0.390135	0.741319	-0.00686073	
-1.08868	1.80752	-0.0523488	
-0.897626	1.74768	-0.0216145	
-1.01096	1.83308	-0.025984	
-0.457967	1.20637	0.00103341	
-0.31554	1.92648	-0.05644	
-0.259858	1.86025	-0.0687579	
-0.917309	0.344499	-0.0281389	
-0.94322	0.410465	-0.0384656	
-0.920626	0.282592	-0.00915582	
-0.990453	0.338159	-0.0211639	
-0.647304	0.251286	-0.00708576	
-0.419301	0.217721	0.0216972	
-0.64023	0.164212	-0.0076751	
-0.215956	0.230355	-0.0792746	
-0.771505	1.93673	-0.000822132	
-0.886024	1.26103	-0.0181831	
-0.949629	1.24459	-0.0414285	
-0.871036	1.32491	-0.0141409	
-1.08397	1.31978	-0.0502235	
-0.946061	0.804788	-0.012819	
-1.01788	0.759874	-0.0277702	
-0.812784	0.714139	-0.00185592	
-0.439113	0.206449	-0.000970584	
-0.281228	0.138218	0.00971332	
-0.119443	1.72394	-0.0558685	
-0.0844442	1.78328	-0.0641697	
-0.305803	1.79352	-0.0585123	
-0.51701	1.03613	0.00631432	
-0.73246	1.05319	-0.00183976	
-0.640898	0.992616	0.0116945	
-0.488514	1.10914	0.0240955	
-0.955323	0.204267	-0.0143454	
-0.724508	0.22975	0.00872366	
-0.49308	0.863551	0.0043599	
-0.475021	0.938032	0.00271592	
-0.698564	1.76807	0.005289	
-0.972083	1.69808	-0.0173871	
-0.757966	1.73846	0.00570175	
-0.814937	0.425321	-0.00222568	
-0.770986	0.500006	0.00421345	
-0.674514	0.456585	0.0112438	
-0.70203	0.51622	0.0101408	
-0.196153	0.232607	-0.039246	
-0.370195	1.33248	-0.00953369	
-0.445739	1.52656	-0.000249351	
-0.513175	1.55451	-0.0218925	
-0.589266	1.60907	-0.01257	
-0.113176	0.903738	-0.015407	
-0.32416	0.902651	-0.0546342	
-0.695921	0	0.0104446	
-0.624715	0	0.0115739	
-0.647303	0.051764	0.0116824	
-0.556326	0	0.00894867	
-0.577586	0.0537652	0.0100611	
-0.474348	1.3862	0.00265189	
-0.403631	1.3946	-0.00514094	
-0.480206	1.26486	0.00320263	
-0.386361	1.21166	0.0196228	
-0.437335	1.32507	-0.00116733	
-0.50831	1.32038	0.00563374	
-0.777006	0.814456	-0.0164109	
-0.243923	1.88165	-0.0299768	
-0.671738	0.594595	0.0113178	
-0.825353	1.38879	-0.0386405	
-0.917951	1.39048	-0.0283685	
-0.327566	0.75837	-0.053928	
-0.141844	0.821275	-0.0507923	
-0.950509	0.75743	-0.0418517	
-0.375331	1.60921	-0.0444704	
-0.23277	1.68446	-0.0320667	
-0.0838115	1.75212	-0.0208825	
-0.430534	1.73879	-0.0345779	
-0.291385	1.59941	-0.0616443	
-0.164128	1.66432	-0.0459247	
-0.872574	1.93182	-0.00416739	
-0.805085	1.87756	-0.000581918	
-0.958749	0.146224	-0.0460285	
-0.822916	1.10891	-0.03719	
-0.817079	0.544978	-0.0339215	
-0.327397	1.32361	-0.053963	
-0.243218	0.0813768	-0.0301076	
-0.205815	0	-0.0373042	
-0.704664	1.21454	0.00399146	
-0.84669	1.14931	-0.00839707	
-0.669577	1.87232	0.0113706	
-0.146401	1.24379	-0.0497821	
-0.108247	1.29411	-0.0584745	
-0.212424	1.24385	-0.0359956	
-0.310417	1.16415	-0.0184668	
-0.466437	0.398041	-0.0670924	
-0.212441	1.20048	-0.0801475	
-0.0594053	1.11243	-0.070389	
-0.245934	0.560548	-0.029605	
-0.310693	0.523541	-0.0184223	
-0.881683	1.65544	-0.00493077	
-0.608023	0.109422	0.0112269	
-0.276398	1.86761	0.00914508	
-0.452128	1.9304	0.000428755	
-0.617273	0.741046	0.0179773	
-0.869554	0.676971	-0.0137633	
-0.0571945	0.693471	-0.0261172	
-0.2585	0.726744	-0.0273141	
-0.325472	0.760134	-0.0160889	
0.0323286	0.61385	-0.00353601	
0.099674	0.170423	-0.0622351	
-0.599148	1.15632	0.019784	
-0.58648	1.09603	0.0208497	
-0.786278	1.1197	0.00222861	
-0.04273	1.85832	-0.0290699	
-0.23828	1.8111	-0.0310284	
-0.897948	1.45652	-0.021714	
-0.858417	1.39372	-0.0110447	
-0.100072	1.94352	-0.0178115	
-0.274649	2	-0.0244554	
-0.722167	0.79232	0.00889357	
-0.604662	0.850283	0.0192701	
-0.697727	0.718066	0.0103583	
-0.147729	0.180772	-0.0494892	
-0.672072	1.51591	0.0113092	
-0.807318	1.59438	-0.000981601	
-0.581813	1.48768	0.0212026	
-0.790909	1.50665	0.00157518	
0.0903786	1.83632	-0.0598396	
-0.419432	1.53312	-0.0364774	
-0.0631573	1.54488	-0.0249221	
-0.0493958	1.71558	-0.0729414	
-1.06002	1.66217	-0.0407305	
-0.241516	0.358669	-0.0304241	
-0.18487	0.310734	-0.0415564	
-0.657629	1.39867	0.0126793	
-0.830147	1.4537	-0.0050089	
-0.809655	1.33896	-0.00132926	
-0.60399	0.46147	0.0111097	
-0.442457	0.394907	0.0228364	
-0.668422	0.433969	-0.00546207	
-0.455672	1.42238	0.0233622	
-0.544591	1.37641	0.00823936	
-0.856596	0.606335	-0.0106195	
-0.0931079	0.879786	-0.0620724	
-0.104462	0.752034	-0.0593661	
-0.0612248	0.815753	-0.0699291	
-0.274944	1.38066	-0.0653085	
-1.0818	1.52165	-0.0492747	
-0.864479	1.51493	-0.0124989	
-0.689998	1.08423	0.00702067	
-0.0615433	1.59815	-0.0698487	
-0.482402	2	0.0240248	
-0.376781	1.16076	-0.0441964	
-0.0357365	1.18618	-0.0305247	
-0.313227	1.14984	0.0132347	
-0.274431	1.23168	-0.0244932	
-0.120318	1.16237	-0.0556666	
-0.426214	1.68406	-0.00242714	
-0.460899	0.333428	0.0318591	
-0.0620515	1.52552	-0.0697205	
-0.108487	0.488947	-0.0584183	
-0.163763	1.59304	-0.0067173	
-0.896885	1.57917	-0.0213868	
-0.0865776	1.65719	-0.0636506	
-0.801435	0.559694	-3.49355e-06	
-0.8393	0.490232	-0.0068352	
-0.125443	0.956713	-0.0544907	
-0.196094	0.989568	-0.039258	
-0.400297	1.75665	-0.00555901	
-0.198151	1.77244	-0.00135537	
-0.0370021	1.72615	-0.0302601	
-0.145048	0.310718	-0.00982175	
-0.0924943	0.290342	-0.0192307	
-0.103533	1.29539	-0.0171704	
-0.695921	2	0.0104446	
-0.230413	0.482459	0.0032651	
-0.608573	1.30941	0.0188867	
-0.534251	0.109198	0.00755962	
-0.149031	1.03572	-0.0492025	
-0.210063	1.07584	-0.0364612	
-0.205815	2	-0.0373042	
-0.76924	0.633303	-0.0136795	
-0.878517	0.422033	-0.0161066	
-0.54908	0.266461	0.0191967	
-0.132436	0.262786	-0.0529017	
-0.527497	1.66446	0.023816	
-0.464791	1.54135	0.0236522	
-0.0902809	0.371856	-0.0627537	
0.0197324	0.429791	-0.0426955	
-0.35895	1.56661	0.0175081	
-0.373367	1.62234	0.0186633	
-0.0694698	1.2804	0.0130968	
-0.0585431	0.68957	-0.0706073	
0.0990798	0.753859	-0.062081	
-0.955954	0.285029	-0.044565	
0.0949957	1.26259	-0.0610254	
-1.09975	0	-0.0577845	
0.0870367	1.39629	-0.0589864	
-0.223758	1.45609	-0.077353	
-0.0665856	0.308608	-0.0685814	
-0.274391	0.682551	-0.0654335	
-0.0555963	0.423502	-0.0713558	
-0.957434	2	-0.0453336	
-0.375248	0.980727	0.0188071	
-0.285651	1.51237	-0.0629109	
-0.166637	1.11653	-0.045388	
-0.432809	0.277428	0.0223946	
-0.68227	0.33864	-0.00450984	
0.0302544	1.08627	-0.0451313	
-0.529693	0.0993244	0.0237618	
-0.720102	0.0548078	0.00903909	
0.179021	1.55961	-0.0341947	
-0.957348	1.72118	-0.0452886	
-0.780106	1.94239	-0.0175486	
-0.77193	1.87535	-0.0146072	
-0.0273211	0.473525	-0.032299	
0.00918539	0.331482	-0.0402947	
-0.714802	1.63205	0.00171057	
-0.812598	1.59521	-0.0315803	
-0.216116	1.47977	-0.0352714	
-0.755959	0.160133	0.00591517	
-0.581781	0.114041	0.021205	
-0.132389	1.45658	-0.0119953	
-0.677305	0.130179	0.00940104	
-0.42433	0.972536	-0.0026456	
-0.929138	0.0752793	-0.032567	
-0.372306	0.0509452	0.0185815	
-0.327352	1.00206	0.0146519	
-0.0802669	0.356044	0.0146311	
-0.384219	0.0762643	-0.00763748	
-0.0173903	1.44431	-0.0344259	
-0.763489	0	0.00509257	
-0.681376	0.460204	-0.0251932	
-0.388411	0.946643	0.0361857	
-0.0705146	2	-0.0778598	
-0.149501	2	-0.0693262	
-0.313065	2	-0.0560627	
-0.399068	2	-0.0514735	
-0.230065	2	-0.0620502	
-0.717692	2	-0.0596549	
-0.895846	2	-0.0657961	
-0.925449	2	-0.0742589	
-0.842116	2	-0.0622759	
-0.664385	2	-0.0483186	
-0.628194	2	-0.0609589	
-0.280816	-0.0721374	-0.112058	
0.0963113	-0.0524234	-0.075092	
-0.170813	-1.94219	-0.0811716	
-0.247431	-1.93265	-0.0915001	
-0.2878	-2	-0.0927602	
-0.10684	-0.0610541	-0.0883219	
-0.251088	-0.0745946	-0.0916082	
-0.393088	-0.063891	-0.0966556	
-0.99619	-1.2856	-0.087156	
-0.934464	-1.32684	-0.113454	
-0.99619	-1.35721	-0.087156	
-0.99619	-0.0721374	-0.087156	
-1.1385	-0.215036	-0.0996069	
-0.99619	-0.143615	-0.087156	
-0.944958	-0.177622	-0.112188	
-0.853877	-0.286611	-0.0747051	
-0.946036	-0.326516	-0.112036	
-1.1385	-0.358269	-0.0996069	
-0.946227	-0.255005	-0.112009	
-0.99619	-0.714404	-0.087156	
-1.07907	-0.754353	-0.125659	
-0.99619	-0.786116	-0.087156	
-0.433425	-2	-0.0983238	
-0.530562	-1.91632	-0.108911	
-0.360739	-2	-0.0953775	
0.0730329	-2	-0.0753489	
0.0952064	-1.94543	-0.0751031	
0.00381	-2	-0.087156	
-0.947258	-1.39944	-0.111858	
-0.99619	-1.42879	-0.087156	
-0.711564	-2	-0.0622543	
-1.1385	-1.92786	-0.0996069	
-0.79434	-2	-0.100769	
-0.142255	-2	-0.0889397	
-0.106404	-1.9425	-0.0883151	
-0.689289	-1.91894	-0.115627	
-0.505812	-2	-0.101426	
-0.436282	-2	-0.0920188	
-0.99619	-1.21388	-0.087156	
-0.934369	-1.25457	-0.113464	
-1.1385	-1.78496	-0.0996069	
-0.667716	-1.82622	-0.0861449	
-0.99619	-1.85639	-0.087156	
-0.19099	-0.824164	-0.089992	
-0.113193	-0.840188	-0.0884237	
-0.310395	-0.897364	-0.101919	
-0.280816	-1.07055	-0.112058	
-0.203981	-1.0996	-0.100161	
-0.340957	-0.999321	-0.112552	