<VTKFile type="UnstructuredGrid" version="0.1" byte_order="LittleEndian">
	<UnstructuredGrid>
		<Piece NumberOfPoints="1917" NumberOfCells="56">
			<CellData Scalars="scalars">
				<DataArray type="Float64" Name="Doublet Strengths" NumberOfComponents="1" Format="ascii">
-0.583718	
-2.29085	
-1.74816	
-2.24499	
-2.4923	
-2.66804	
-2.63907	
-2.58917	
-2.03699	
-1.71143	
-1.07212	
-3.19115	
-1.75842	
-2.97841	
-1.79517	
-1.79028	
-2.50603	
-2.37808	
-2.3613	
-2.03291	
-2.39454	
-2.63884	
-1.94512	
-2.54791	
-4.7513	
-2.31748	
-1.77324	
-1.7079	
-4.74909	
-1.68416	
-2.23736	
-2.49304	
-2.08629	
-1.52394	
-0.849375	
-3.13938	
-1.6527	
-2.07195	
-2.56201	
-1.58214	
-1.67751	
-2.15904	
-2.13938	
-2.0318	
-1.88648	
-2.10125	
-2.12028	
-2.04658	
-1.67701	
-1.81963	
-2.06578	
-0.508287	
-1.37575	
-1.61781	
-2.08048	
-1.08813	
				</DataArray>
				<DataArray type="Float64" Name="Velocity Potential" NumberOfComponents="1" Format="ascii">
-451.801	
-578.59	
-579.473	
-578.443	
-579.229	
-577.095	
-578.782	
-578.669	
-578.661	
-579.32	
-579.8	
-573.985	
-579.509	
-577.889	
-579.035	
-579.401	
-578.06	
-578.306	
-578.578	
-578.861	
-578.252	
-578.186	
-579.112	
-578.185	
-571.03	
-578.602	
-579.015	
-579.584	
-572.089	
-578.81	
-579.266	
-578.916	
-579.374	
-579.189	
-580.391	
-575.996	
-579.155	
-579.281	
-578.247	
-578.879	
-579.09	
-578.447	
-578.9	
-578.965	
-578.454	
-578.047	
-578.335	
-579.133	
-578.748	
-578.786	
-578.741	
-452.151	
-579.669	
-579.096	
-578.762	
-580.176	
				</DataArray>
			</CellData>
			<Points>
				<DataArray type="Float64" Name="Position" NumberOfComponents="3" Format="ascii">
-12.0236	0	-1.13367	
-10.1502	0.0524256	-0.971554	
-15.6506	0	-1.45675	
-12.1696	2	-1.13648	
-12.2008	1.93467	-1.13735	
-14.0921	2	-1.30049	
-12.0965	0	-1.13481	
-12.0611	0.0610502	-1.13419	
-12.2054	0.0745738	-1.13748	
-12.1696	0	-1.13648	
-12.2421	0	-1.13863	
-12.315	0	-1.14125	
-12.3877	0	-1.1442	
-12.3463	0.0639395	-1.14249	
-11.0528	1.39584	-0.995674	
-12.8885	1.3266	-1.15935	
-12.9505	1.35721	-1.13303	
-15.6506	1.92786	-1.45675	
-10.1511	1.94512	-0.971562	
-14.8005	0.0721374	-1.29489	
-12.8865	0.0533506	-1.15955	
-11.1004	0	-0.971167	
-14.8005	0.215036	-1.29489	
-16.5608	0.171582	-1.48503	
-11.1004	0.143615	-0.971167	
-11.1004	0.286611	-0.971167	
-14.8005	0.358269	-1.29489	
-12.9003	0.326064	-1.15791	
-12.8981	0.252841	-1.15822	
-12.9505	0.714404	-1.13303	
-12.9505	0.786116	-1.13303	
-14.7411	0.754574	-1.32094	
-12.3877	2	-1.1442	
-12.315	2	-1.14125	
-16.0523	1.91204	-1.46644	
-12.4029	1.66657	-1.14484	
-14.183	1.60722	-1.30381	
-12.2136	0.446925	-1.13773	
-12.1607	0.397747	-1.13624	
-15.935	0.354616	-1.46212	
-11.9505	2	-1.13303	
-12.9505	1.42879	-1.13303	
-9.25034	2	-0.809306	
-11.0409	2	-0.99723	
-14.8005	1.92786	-1.29489	
-12.0965	2	-1.13481	
-10.1735	2	-0.971811	
-12.0615	1.93956	-1.1342	
-10.5777	1.94176	-0.984042	
-16.2012	1.9167	-1.47276	
-12.4601	2	-1.1473	
-12.9505	1.21388	-1.13303	
-11.0487	1.19029	-0.996259	
-12.9505	1.14216	-1.13303	
-12.9505	1.2856	-1.13303	
-12.8888	1.25405	-1.15932	
-14.8005	1.78496	-1.29489	
-12.9505	1.85639	-1.13303	
-9.20645	1.82617	-0.833203	
-11.0414	0.114671	-0.997166	
-14.7273	1.46922	-1.32221	
-14.6818	1.38862	-1.32386	
-12.1453	0.824164	-1.13586	
-13.9724	0.897364	-1.2972	
-12.0675	0.840188	-1.1343	
-12.7931	1.46561	-1.16166	
-13.8005	1	-1.29489	
-15.7107	0.999321	-1.45724	
-15.6506	1.07055	-1.45675	
-12.4118	1.60348	-1.14522	
-12.043	0.356544	-1.13393	
-10.2572	0.353408	-0.973163	
-12.0874	0.427857	-1.13464	
-14.233	1.82506	-1.30586	
-14.2367	1.7382	-1.30601	
-10.5937	1.77788	-0.984735	
-12.4652	1.71777	-1.14752	
-12.5131	1.78088	-1.14954	
-14.3966	1.70728	-1.31274	
-14.4366	1.79378	-1.31441	
-12.3664	1.54291	-1.14331	
-12.3042	1.8351	-1.14084	
-14.5549	1.45384	-1.32018	
-12.6703	1.53294	-1.15662	
-12.6228	1.49429	-1.15425	
-14.5133	1.28284	-1.31812	
-16.2717	1.30815	-1.47561	
-12.6006	1.23305	-1.15319	
-16.4583	1.05577	-1.48435	
-12.7966	0.974397	-1.16174	
-10.9869	1.02275	-1.00008	
-12.524	0.65903	-1.14999	
-14.3602	0.738857	-1.31128	
-12.457	0.685529	-1.14716	
-14.3355	1.33866	-1.31024	
-14.3452	1.25226	-1.31065	
-15.6506	1.42879	-1.45675	
-13.8856	1.46516	-1.29569	
-15.6506	1.49933	-1.45675	
-12.0379	0.918262	-1.13386	
-15.9163	0.881052	-1.46153	
-12.3011	0.891355	-1.14072	
-12.2875	0.954992	-1.14022	
-10.6992	0.867158	-0.989124	
-12.5979	0.817822	-1.15306	
-14.4657	0.888323	-1.31576	
-13.976	0.589259	-1.29728	
-14.0583	0.618435	-1.29943	
-13.993	0.676586	-1.29767	
-12.7489	0	-1.16028	
-12.8202	0	-1.16202	
-14.6611	0.0790961	-1.32381	
-12.4304	1.27156	-1.14602	
-12.42	1.20368	-1.14557	
-12.4707	0.496767	-1.14775	
-12.5074	0.442032	-1.1493	
-14.4022	0.502871	-1.31296	
-14.4379	0.698424	-1.31447	
-12.3551	1.23016	-1.14284	
-12.3057	1.27217	-1.14089	
-14.1269	1.19537	-1.30169	
-10.5243	1.2898	-0.981774	
-10.7353	1.02577	-0.990635	
-14.4599	0.967174	-1.31549	
-12.6638	1.0342	-1.15629	
-16.1334	1.00672	-1.46987	
-12.4701	0.93866	-1.14773	
-12.5216	0.987296	-1.14989	
-14.1785	0.378981	-1.30363	
-12.3893	0.426844	-1.14426	
-14.1865	0.470462	-1.30395	
-14.7184	1.87857	-1.32279	
-14.7042	1.79633	-1.32342	
-12.7888	1.84585	-1.16157	
-12.5785	0.270573	-1.15219	
-10.7138	0.200611	-0.989706	
-14.4812	0.193571	-1.31652	
-14.4194	0.123897	-1.31366	
-12.513	0.249496	-1.14953	
-12.5039	0.173576	-1.14916	
-14.6718	1.20923	-1.32388	
-12.7916	1.13932	-1.16163	
-12.8762	1.13751	-1.16042	
-12.6288	0.531427	-1.15454	
-12.6297	0.463982	-1.15459	
-12.5729	0.427199	-1.15195	
-12.6396	0.382421	-1.15508	
-10.976	0.742778	-1.00016	
-14.6819	0.813881	-1.32385	
-14.4046	0.580015	-1.31305	
-12.6336	1.7199	-1.15478	
-14.4969	0.757182	-1.3173	
-10.8112	0.698895	-0.994301	
-12.7204	0.732194	-1.15905	
-12.7007	0.893597	-1.15812	
-12.6677	0.830458	-1.15649	
-14.6006	0.834567	-1.3222	
-12.8179	1.53139	-1.16201	
-12.7654	1.59044	-1.16088	
-12.741	1.5207	-1.15995	
-14.1465	1.10613	-1.30241	
-12.2264	1.13654	-1.13813	
-14.642	0.567577	-1.3235	
-14.7092	0.624293	-1.32323	
-12.7862	0.641057	-1.1615	
-12.7178	0.667946	-1.15893	
-12.7177	0.607392	-1.15893	
-14.5597	0.97644	-1.32041	
-12.8909	0	-1.15909	
-12.3835	1.40806	-1.14402	
-12.4162	1.34451	-1.14541	
-12.4497	1.41675	-1.14685	
-12.4107	1.48085	-1.14517	
-14.366	1.43176	-1.31152	
-12.4753	1.49613	-1.14795	
-12.5413	0.925911	-1.15068	
-12.7084	1.74077	-1.15849	
-16.4092	1.66215	-1.48225	
-10.9233	1.70694	-0.999281	
-15.6506	1.71339	-1.45675	
-15.7211	1.77904	-1.45736	
-15.6506	1.78496	-1.45675	
-12.7489	2	-1.16028	
-14.6416	1.92525	-1.32349	
-12.8202	2	-1.16202	
-12.5814	0.350099	-1.15232	
-12.5176	0.315549	-1.14973	
-12.2774	1.02327	-1.13985	
-14.1971	1.02942	-1.30437	
-12.2725	0.0746863	-1.13967	
-12.3072	0.130322	-1.14095	
-14.0831	0.159825	-1.3002	
-14.0955	0.255296	-1.3006	
-10.4384	0.198868	-0.978391	
-12.3506	0.185075	-1.14266	
-14.0482	0.53229	-1.29913	
-19.3507	0.358269	-1.78047	
-13.8005	0.286611	-1.29489	
-12.0127	0.283499	-1.13355	
-15.6506	0.143615	-1.45675	
-13.8783	0.19815	-1.29559	
-15.6506	0.215036	-1.45675	
-15.7954	0.268711	-1.45851	
-14.3102	0	-1.30916	
-10.6828	0	-0.98848	
-12.5397	0.0522709	-1.15061	
-9.14265	0.233077	-0.83813	
-14.6789	0.293965	-1.32387	
-14.3926	1.52249	-1.31258	
-12.541	1.6164	-1.15066	
-12.4814	1.57352	-1.14821	
-12.4769	1.65009	-1.14802	
-12.8386	1.59898	-1.16192	
-12.6774	0	-1.15697	
-12.6228	0.0589648	-1.15425	
-12.6048	0	-1.15339	
-12.1229	1.47391	-1.13535	
-14.0557	1.46129	-1.29935	
-14.0332	1.53681	-1.2987	
-14.4942	0.286849	-1.31717	
-12.2639	0.724627	-1.13937	
-10.424	0.784216	-0.977869	
-14.0627	0.788387	-1.29956	
-14.6288	0.223399	-1.32316	
-10.9146	1.34531	-0.998994	
-10.9098	1.40661	-0.998827	
-14.5479	1.36487	-1.31984	
-12.7327	1.29047	-1.1596	
-10.8961	0.414541	-0.998305	
-12.6935	0.434011	-1.15777	
-14.5528	0.349215	-1.32008	
-12.8091	0.422964	-1.16193	
-14.6095	0.489015	-1.32253	
-12.8314	0.488653	-1.162	
-8.85085	1.24582	-0.827328	
-12.5369	1.18695	-1.1505	
-10.856	1.58611	-0.996521	
-10.4276	0.42229	-0.977996	
-10.4497	0.312816	-0.97881	
-14.2303	0.310713	-1.30574	
-12.3297	0.255176	-1.14182	
-12.3955	0.23291	-1.14453	
-16.4266	1.20734	-1.48305	
-12.596	1.1572	-1.15298	
-12.6652	1.15129	-1.15636	
-10.8039	1.2101	-0.993935	
-14.4553	1.08885	-1.31527	
-12.2086	1.61914	-1.13758	
-12.2275	1.69424	-1.13816	
-13.9989	1.67616	-1.29781	
-12.2763	1.64844	-1.13981	
-12.3047	1.72086	-1.14086	
-12.6498	0.644913	-1.15559	
-10.8681	1.94629	-0.997087	
-14.4962	1.93331	-1.31727	
-12.7196	1.88539	-1.15901	
-13.9813	0.0804625	-1.2974	
-10.2215	0.127785	-0.972502	
-10.2327	1.88257	-0.972697	
-13.9843	1.92762	-1.29747	
-12.1701	0.21589	-1.13649	
-10.8607	0.273142	-0.996743	
-12.7039	0.209198	-1.15828	
-10.8493	0.143339	-0.996199	
-12.77	0.145092	-1.16104	
-10.7969	0.115792	-0.993582	
-12.6467	1.85807	-1.15543	
-12.581	1.88373	-1.1523	
-10.7211	1.94611	-0.990016	
-10.6828	2	-0.98848	
-12.6048	2	-1.15339	
-11.0511	0.682902	-0.995927	
-14.8005	0.64279	-1.29489	
-10.5776	1.88295	-0.984042	
-12.3056	1.53147	-1.14089	
-12.2832	1.46174	-1.14006	
-12.3477	1.47178	-1.14254	
-12.8501	1.08229	-1.16168	
-10.3088	0.329519	-0.974338	
-13.8631	0.43708	-1.29541	
-13.8005	0.429861	-1.29489	
-10.4905	1.67699	-0.980393	
-12.2583	1.57544	-1.13918	
-10.8039	1.60691	-0.993936	
-12.6123	1.65508	-1.15374	
-12.7133	1.81461	-1.15873	
-10.8025	1.78507	-0.993864	
-10.3076	0.749751	-0.974308	
-12.2075	0.701087	-1.13754	
-13.9375	0.758919	-1.2965	
-12.9505	0.429861	-1.13303	
-14.7344	0.409639	-1.32162	
-12.7815	1.77163	-1.16138	
-14.7012	1.71936	-1.32351	
-13.9943	1.1716	-1.2977	
-12.177	1.09553	-1.13667	
-14.0998	1.76477	-1.30075	
-10.4769	1.7791	-0.979853	
-12.4505	0.277236	-1.14688	
-14.2758	0.151691	-1.30768	
-10.6821	1.84554	-0.988453	
-12.466	1.83711	-1.14755	
-12.3465	1.33945	-1.14249	
-12.3175	1.40104	-1.14135	
-10.9097	0.297567	-0.998823	
-12.7791	0.357474	-1.16131	
-10.7259	0.760525	-0.990219	
-12.5263	0.810302	-1.15008	
-12.4343	0.749841	-1.14619	
-12.3693	0.751361	-1.14342	
-12.3915	0.686344	-1.14436	
-12.4609	0.810027	-1.14733	
-12.3956	0.81571	-1.14453	
-17.5007	1.64173	-1.61861	
-12.0161	1.65788	-1.13358	
-14.8005	1	-1.29489	
-14.8005	1.07055	-1.29489	
-11.0518	1.0308	-0.995824	
-10.1652	1.5272	-0.971713	
-15.6506	1.57014	-1.45675	
-10.5208	0.121062	-0.981631	
-12.4175	0.068568	-1.14546	
-12.485	0.0968802	-1.14836	
-15.6506	1.85639	-1.45675	
-13.8672	1.8723	-1.29546	
-15.6506	0.0721374	-1.45675	
-12.0107	0.116381	-1.13352	
-12.5167	0.378957	-1.14969	
-15.6506	1.2856	-1.45675	
-12.0162	1.33655	-1.13359	
-15.6506	1.35721	-1.45675	
-10.5553	1.07097	-0.983085	
-12.4119	1.13809	-1.14522	
-10.5079	1.10545	-0.9811	
-12.465	1.08867	-1.14751	
-12.4262	0.876824	-1.14584	
-12.3646	0.882801	-1.14323	
-14.1809	0.819303	-1.30373	
-12.5842	1.38959	-1.15244	
-10.7277	1.45442	-0.990298	
-12.643	1.41914	-1.15525	
-10.6042	0.213959	-0.985185	
-12.4122	0.621411	-1.14524	
-12.3744	0.549577	-1.14364	
-12.4358	0.556476	-1.14625	
-12.4035	0.491713	-1.14487	
-14.5664	0.0712931	-1.32073	
-12.3442	1.1672	-1.1424	
-12.5997	1.57159	-1.15315	
-12.144	0.47164	-1.13583	
-11.0477	0.476615	-0.996397	
-14.723	0.546631	-1.3225	
-13.8005	0.500665	-1.29489	
-12.0104	0.802839	-1.13352	
-10.2356	0.646217	-0.972748	
-10.2134	0.69766	-0.972371	
-12.0636	1.17495	-1.13423	
-13.866	1.0996	-1.29544	
-13.9504	1.1007	-1.29675	
-14.0586	1.32398	-1.29944	
-10.2899	1.29855	-0.973877	
-12.1698	1.24767	-1.13648	
-12.3524	0.61668	-1.14273	
-12.3153	0.546139	-1.14126	
-10.4065	0.561624	-0.977258	
-12.2685	0.491616	-1.13953	
-10.2963	1.0418	-0.974028	
-12.207	1.02609	-1.13753	
-13.998	0.976287	-1.29779	
-12.2241	0.965074	-1.13805	
-12.3565	0.954567	-1.1429	
-12.0841	1.62515	-1.13458	
-10.2953	1.59965	-0.974006	
-10.9935	0.360303	-0.999975	
-12.0206	1.5889	-1.13364	
-12.2782	1.33334	-1.13988	
-12.2519	1.39903	-1.13896	
-12.2394	1.2624	-1.13855	
-14.177	0.683934	-1.30357	
-12.8823	0.967445	-1.15994	
-16.5642	0.89983	-1.48487	
-12.7688	0.914042	-1.16099	
-12.5186	1.0505	-1.14977	
-10.8786	1.13415	-0.997563	
-10.835	1.09375	-0.995494	
-10.5766	1.5431	-0.983998	
-12.7767	0.770923	-1.16124	
-10.8608	0.785107	-0.996745	
-10.7834	1.34839	-0.992913	
-14.6675	1.29694	-1.32386	
-12.8002	1.65281	-1.1618	
-13.8721	1.25411	-1.29551	
-12.0803	1.32162	-1.13451	
-10.7366	0.633745	-0.990692	
-12.6408	0.587288	-1.15514	
-12.8415	0.6882	-1.16188	
-12.4874	0.873522	-1.14846	
-8.83747	1.36753	-0.826807	
-12.6774	2	-1.15697	
-10.3589	1.1987	-0.975728	
-12.4538	0.394274	-1.14703	
-12.4531	0.336713	-1.147	
-12.7752	0.702848	-1.1612	
-12.9505	0.929454	-1.13303	
-12.9505	0.857842	-1.13303	
-11.0157	1.94387	-0.999201	
-12.4751	1.16572	-1.14794	
-12.5318	1.11814	-1.1503	
-14.0185	1.79696	-1.29831	
-10.3266	1.73661	-0.974804	
-10.5477	0.370041	-0.982762	
-10.596	0.446178	-0.984833	
-10.5602	0.936014	-0.983293	
-8.35197	1.0523	-0.810334	
-12.0901	1.01699	-1.13469	
-12.9505	1.49933	-1.13303	
-13.8837	0.586375	-1.29566	
-13.9202	0.509874	-1.2962	
-12.8889	1.54624	-1.15931	
-10.4142	0.664255	-0.977522	
-10.4653	0.750955	-0.979401	
-10.4173	0.837223	-0.977633	
-15.6506	1.21388	-1.45675	
-10.1517	1.17543	-0.971569	
-15.6506	0.929454	-1.45675	
-10.1526	0.873321	-0.971577	
-17.5007	0.857842	-1.61861	
-12.007	0.725606	-1.13348	
-15.6506	0.786116	-1.45675	
-15.6506	0.714404	-1.45675	
-12.023	0.653203	-1.13367	
-15.6506	0.64279	-1.45675	
-17.5007	0.571209	-1.61861	
-15.6506	1.14216	-1.45675	
-10.2317	0.957788	-0.972678	
-8.47713	0.930031	-0.812959	
-12.2913	0.613315	-1.14035	
-11.0564	1.6049	-0.995083	
-10.6461	0.552048	-0.986972	
-12.4757	0.616488	-1.14797	
-13.9426	1.54065	-1.2966	
-12.1095	0.177963	-1.13507	
-12.0962	1.24487	-1.13481	
-13.9323	1.39957	-1.29641	
-10.3212	0.139289	-0.97466	
-12.0735	1.69928	-1.1344	
-12.1065	1.75272	-1.13501	
-12.145	1.35868	-1.13586	
-10.3477	1.39206	-0.975394	
-10.3012	1.42097	-0.974148	
-12.084	1.81911	-1.13458	
-12.8838	1.6612	-1.1598	
-12.9505	1.71339	-1.13303	
-10.8403	0.496577	-0.995755	
-12.7141	0.549039	-1.15876	
-10.2835	1.85508	-0.973728	
-10.1542	0.520218	-0.971595	
-8.43343	0.528047	-0.811868	
-12.9505	1.57014	-1.13303	
-14.8005	0.500665	-1.29489	
-8.95797	0.932053	-0.832282	
-10.3927	1.07414	-0.976794	
-10.3961	1.51028	-0.976908	
-14.8005	1.64173	-1.29489	
-10.3324	0.282674	-0.974963	
-12.9505	0.571209	-1.13303	
-9.20575	0.59575	-0.833322	
-8.31586	1.71321	-0.80986	
-14.1144	1.88726	-1.30125	
-11.0442	0.827624	-0.996845	
-10.3829	1.82622	-0.976474	
-10.1634	1.40032	-0.971693	
-12.1885	1.87065	-1.13699	
-9.10318	0.866054	-0.838131	
-9.07036	1.24863	-0.837328	
-10.4416	1.94589	-0.978506	
-9.20329	1.75284	-0.83372	
-8.54968	1.94185	-0.815167	
-12.9142	0.611259	-1.09253	
-14.7442	0.691022	-1.24471	
-11.0611	0.951279	-0.929068	
-14.7504	0.885946	-1.24747	
-12.439	0	-1.04226	
-12.3706	0	-1.04946	
-14.2599	0.0792566	-1.20695	
-15.7206	0	-1.43826	
-10.2082	0.0639973	-0.943488	
-12.09	0	-1.09804	
-12.0036	0.0936441	-1.11883	
-12.2995	0	-1.05897	
-12.2289	0	-1.07033	
-12.272	0.0798839	-1.06317	
-11.0721	0.821071	-0.935233	
-12.913	1.45488	-1.0919	
-12.9161	1.89867	-1.09356	
-10.5889	2	-0.880396	
-12.5106	2	-1.03692	
-14.3385	1.91895	-1.20018	
-10.2116	1.93754	-0.942677	
-12.0087	1.90585	-1.11752	
-12.0205	2	-1.11454	
-12.09	2	-1.09804	
-12.3706	2	-1.04946	
-12.3349	1.92228	-1.05398	
-12.2995	2	-1.05897	
-12.5472	1.85759	-1.03515	
-14.3228	1.82278	-1.20131	
-14.1177	0.600657	-1.22573	
-12.2125	0.663037	-1.07323	
-14.13	0.68441	-1.2238	
-12.0053	0.939959	-1.1184	
-12.0143	1.33496	-1.1161	
-14.3083	1.68417	-1.20245	
-10.6382	1.74973	-0.876472	
-16.2548	1.71007	-1.3586	
-12.2651	1.02684	-1.06428	
-14.1256	0.943151	-1.22448	
-12.2099	0.965528	-1.07371	
-12.0408	0.553448	-1.10954	
-11.9978	0.495631	-1.12032	
-12.7002	1.36962	-1.03896	
-16.3321	1.42353	-1.35844	
-12.7108	1.43872	-1.04002	
-14.6665	1.02505	-1.21967	
-12.7503	0.965827	-1.04505	
-14.5735	1.04082	-1.2033	
-14.5124	1.21008	-1.19793	
-16.4512	1.26463	-1.36889	
-12.7451	1.19252	-1.04428	
-12.2539	1.8275	-1.0661	
-14.1163	1.91186	-1.22596	
-14.1714	1.83465	-1.21771	
-14.235	1.04863	-1.20965	
-12.3244	1.0111	-1.05541	
-14.1579	1.09426	-1.21961	
-10.5268	1.10778	-0.886862	
-14.3078	1.09436	-1.20249	
-12.4937	0.92332	-1.03797	
-12.5319	0.983948	-1.03581	
-16.2749	0.912712	-1.35809	
-10.6686	1.65028	-0.874614	
-10.7224	1.64109	-0.872546	
-14.3748	1.58611	-1.19802	
-12.0207	0.621253	-1.1145	
-10.2371	0.607584	-0.936811	
-13.977	0.544593	-1.25185	
-13.9976	0.626188	-1.24756	
-14.2329	0.883867	-1.20989	
-12.3418	0.814004	-1.05308	
-12.3175	0.883506	-1.05638	
-10.486	0.94284	-0.891976	
-10.4329	0.823889	-0.899606	
-12.2483	0.86549	-1.06702	
-12.6937	0.577518	-1.03836	
-14.5413	0.659851	-1.2	
-12.7554	0.634606	-1.04583	
-13.9724	0.0913029	-1.25282	
-12.0511	0.141129	-1.10706	
-12.4772	1.15841	-1.03911	
-16.2642	1.18235	-1.35832	
-10.6776	1.11752	-0.874151	
-14.6852	0.938839	-1.22448	
-11.0349	0.99711	-0.917206	
-12.5104	0.516229	-1.03693	
-14.3888	0.597248	-1.19736	
-12.5848	0.53029	-1.03423	
-14.2106	1.25683	-1.21254	
-14.1906	1.17353	-1.2151	
-12.292	1.22905	-1.06008	
-14.7062	1.10599	-1.23068	
-12.9001	1.05145	-1.08549	
-12.8569	1.1866	-1.06904	
-12.9099	1.17077	-1.09027	
-15.9774	1.39834	-1.38607	
-10.4316	1.4857	-0.899806	
-12.3418	1.4682	-1.05307	
-14.5247	0.907417	-1.19871	
-12.6217	0.841878	-1.03445	
-16.5715	0.492781	-1.39764	
-10.9646	0.543817	-0.895531	
-12.8636	0.570722	-1.07125	
-12.6417	1.72433	-1.03506	
-12.5976	1.78876	-1.03418	
-12.512	0.853718	-1.03685	
-12.4249	0.389993	-1.04358	
-10.5823	0.316743	-0.881007	
-12.3707	0.343184	-1.04945	
-12.5453	0.780432	-1.03522	
-10.7142	0.84375	-0.872731	
-12.6154	0.770799	-1.03433	
-12.4605	0.577671	-1.0404	
-13.8751	1.02428	-1.27526	
-14.0772	0.237428	-1.23251	
-12.2429	0.153222	-1.06792	
-12.1753	0.163431	-1.08018	
-14.1682	0.159631	-1.21814	
-12.6648	1.80219	-1.03621	
-10.8447	1.86234	-0.87659	
-12.7437	1.80354	-1.04409	
-12.5729	0.329138	-1.0344	
-14.4976	0.30982	-1.19717	
-14.4455	0.244444	-1.19604	
-12.605	0.391669	-1.03421	
-10.3545	1.03303	-0.912823	
-12.5733	0.717798	-1.03439	
-12.4917	0.718603	-1.0381	
-10.6795	0.665477	-0.874058	
-12.6047	0.658642	-1.03421	
-10.5807	1.87015	-0.881153	
-12.3951	1.80864	-1.04665	
-10.6858	1.78424	-0.873768	
-12.4227	1.74797	-1.04379	
-12.6702	0.386445	-1.03655	
-12.7002	0.441074	-1.03896	
-12.7396	0.365688	-1.04351	
-12.5115	1.25637	-1.03687	
-12.5863	1.24657	-1.03422	
-12.5343	1.3122	-1.0357	
-10.7498	1.30199	-0.872322	
-12.6598	1.27096	-1.03592	
-12.3854	0.276367	-1.04774	
-16.0043	0.292881	-1.38201	
-10.4895	0.234809	-0.891513	
-10.4335	0.216682	-0.899505	
-12.7621	0.891352	-1.04689	
-12.5614	1.48059	-1.03467	
-12.4856	1.4429	-1.03852	
-14.3339	1.51083	-1.2005	
-12.4142	1.45569	-1.04464	
-12.5739	1.36546	-1.03438	
-12.6444	1.34038	-1.03517	
-12.3099	1.70558	-1.05745	
-12.3249	1.63351	-1.05534	
-12.253	1.65739	-1.06625	
-12.1738	0.837679	-1.08048	
-12.2181	0.792044	-1.07224	
-12.2303	1.09876	-1.07009	
-14.1102	1.30603	-1.22694	
-10.3634	1.35315	-0.911203	
-14.4764	0.166399	-1.19642	
-12.5445	0.169498	-1.03526	
-14.0283	1.40455	-1.24149	
-14.1937	0.41495	-1.21469	
-14.2463	0.474418	-1.20839	
-14.4814	1.05334	-1.19656	
-12.6722	0.984567	-1.03668	
-12.6356	1.13834	-1.03484	
-12.2704	0.452043	-1.06343	
-14.1176	0.374434	-1.22574	
-10.3616	0.42015	-0.911532	
-14.0407	0.484457	-1.23912	
-12.7882	0	-1.05162	
-12.8049	0.0667918	-1.05512	
-12.8526	0	-1.0677	
-12.7882	2	-1.05162	
-10.9066	1.94291	-0.884168	
-10.8677	2	-0.878918	
-12.8258	0.853126	-1.06014	
-12.8526	2	-1.0677	
-14.6693	1.92333	-1.22035	
-10.5979	0.506745	-0.879595	
-12.395	0.56183	-1.04667	
-12.4027	0.636864	-1.04583	
-12.3336	0.546278	-1.05416	
-12.3344	0.617676	-1.05406	
-14.5857	0.078087	-1.20484	
-14.5458	1.56345	-1.2004	
-10.8977	1.62497	-0.882815	
-12.7799	1.57191	-1.05002	
-14.6879	0.153301	-1.22522	
-14.6921	0.252546	-1.22642	
-11.0432	0.211952	-0.920634	
-12.4661	0.650538	-1.03996	
-14.2655	0.718414	-1.20638	
-12.4047	0.798942	-1.04563	
-12.4717	0.786413	-1.03953	
-10.5001	0.678765	-0.89013	
-12.3444	0.741319	-1.05273	
-14.7507	1.80752	-1.24763	
-12.8519	1.74768	-1.06749	
-14.673	1.83308	-1.22127	
-12.4122	1.20637	-1.04484	
-13.9776	1.92648	-1.25172	
-13.9219	1.86025	-1.26404	
-12.8716	0.344499	-1.07401	
-12.8975	0.410465	-1.08434	
-14.5827	0.282592	-1.20444	
-14.6525	0.338159	-1.21645	
-14.3093	0.251286	-1.20237	
-10.6658	0.217721	-0.874765	
-14.3023	0.164212	-1.20296	
-13.878	0.230355	-1.27456	
-14.4335	1.93673	-1.1961	
-12.8403	1.26103	-1.06406	
-12.9039	1.24459	-1.0873	
-12.8253	1.32491	-1.06001	
-14.746	1.31978	-1.24551	
-14.6081	0.804788	-1.2081	
-14.6799	0.759874	-1.22305	
-12.7671	0.714139	-1.04773	
-12.3934	0.206449	-1.04684	
-10.5278	0.138218	-0.886748	
-12.0737	1.72394	-1.10174	
-12.0387	1.78328	-1.11004	
-13.9678	1.79352	-1.25379	
-12.4713	1.03613	-1.03956	
-14.3945	1.05319	-1.19712	
-12.5952	0.992616	-1.03418	
-10.735	1.10914	-0.872366	
-14.6174	0.204267	-1.20963	
-12.6788	0.22975	-1.03715	
-12.4474	0.863551	-1.04151	
-12.4293	0.938032	-1.04316	
-10.9451	1.76807	-0.891173	
-14.6341	1.69808	-1.21267	
-12.7122	1.73846	-1.04017	
-12.7692	0.425321	-1.0481	
-12.7253	0.500006	-1.04166	
-12.6288	0.456585	-1.03463	
-12.6563	0.51622	-1.03573	
-12.1504	0.232607	-1.08512	
-12.3245	1.33248	-1.05541	
-12.4	1.52656	-1.04612	
-14.1752	1.55451	-1.21717	
-14.2513	1.60907	-1.20785	
-10.3597	0.903738	-0.911869	
-13.9862	0.902651	-1.24992	
-12.6502	0	-1.03543	
-12.579	0	-1.0343	
-12.6016	0.051764	-1.03419	
-12.5106	0	-1.03692	
-12.5319	0.0537652	-1.03581	
-12.4286	1.3862	-1.04322	
-12.3579	1.3946	-1.05101	
-12.4345	1.26486	-1.04267	
-10.6329	1.21166	-0.876839	
-12.3916	1.32507	-1.04704	
-12.4626	1.32038	-1.04024	
-11.0235	0.814456	-0.912873	
-12.1982	1.88165	-1.07585	
-12.626	0.594595	-1.03455	
-11.0719	1.38879	-0.935102	
-12.8722	1.39048	-1.07424	
-13.9896	0.75837	-1.24921	
-12.0961	0.821275	-1.09666	
-12.9048	0.75743	-1.08772	
-14.0374	1.60921	-1.23975	
-12.187	1.68446	-1.07794	
-10.3303	1.75212	-0.917344	
-14.0926	1.73879	-1.22986	
-13.9534	1.59941	-1.25693	
-12.1184	1.66432	-1.0918	
-14.5346	1.93182	-1.19945	
-12.7594	1.87756	-1.04645	
-12.913	0.146224	-1.0919	
-11.0694	1.10891	-0.933652	
-11.0636	0.544978	-0.930383	
-13.9894	1.32361	-1.24925	
-12.1975	0.0813768	-1.07598	
-12.1601	0	-1.08318	
-10.9512	1.21454	-0.89247	
-12.801	1.14931	-1.05427	
-12.6239	1.87232	-1.0345	
-12.1007	1.24379	-1.09565	
-12.0625	1.29411	-1.10435	
-12.1667	1.24385	-1.08187	
-12.2647	1.16415	-1.06434	
-15.8362	0.398041	-1.41178	
-13.8745	1.20048	-1.27543	
-12.0137	1.11243	-1.11626	
-12.2002	0.560548	-1.07548	
-12.265	0.523541	-1.06429	
-14.5437	1.65544	-1.20021	
-12.5623	0.109422	-1.03465	
-10.5229	1.86761	-0.887317	
-12.4064	1.9304	-1.04544	
-10.8638	0.741046	-0.878484	
-12.8238	0.676971	-1.05964	
-10.3037	0.693471	-0.922579	
-12.2128	0.726744	-1.07319	
-12.2798	0.760134	-1.06196	
-8.50644	0.61385	-0.750587	
-10.1469	0.170423	-0.958697	
-10.8457	1.15632	-0.876678	
-10.833	1.09603	-0.875612	
-12.7406	1.1197	-1.04364	
-10.2893	1.85832	-0.925532	
-12.1926	1.8111	-1.0769	
-12.8522	1.45652	-1.06759	
-12.8127	1.39372	-1.05692	
-10.3466	1.94352	-0.914273	
-12.2289	2	-1.07033	
-12.6764	0.79232	-1.03698	
-10.8512	0.850283	-0.877192	
-12.652	0.718066	-1.03551	
-12.102	0.180772	-1.09536	
-12.6264	1.51591	-1.03456	
-14.4694	1.59438	-1.19626	
-10.8283	1.48768	-0.875259	
-12.7452	1.50665	-1.0443	
-10.1561	1.83632	-0.956301	
-14.0815	1.53312	-1.23176	
-10.3097	1.54488	-0.921384	
-12.0037	1.71558	-1.11881	
-14.722	1.66217	-1.23601	
-12.1958	0.358669	-1.0763	
-12.1392	0.310734	-1.08743	
-10.9042	1.39867	-0.883782	
-12.7844	1.4537	-1.05088	
-12.7639	1.33896	-1.0472	
-12.5583	0.46147	-1.03476	
-10.689	0.394907	-0.873625	
-14.3305	0.433969	-1.20074	
-10.7022	1.42238	-0.873099	
-12.4989	1.37641	-1.03763	
-12.8109	0.606335	-1.05649	
-12.0474	0.879786	-1.10794	
-12.0587	0.752034	-1.10524	
-12.0155	0.815753	-1.1158	
-13.937	1.38066	-1.26059	
-14.7438	1.52165	-1.24456	
-12.8188	1.51493	-1.05837	
-10.9365	1.08423	-0.889441	
-12.0158	1.59815	-1.11572	
-10.7289	2	-0.872437	
-14.0388	1.16076	-1.23948	
-10.2823	1.18618	-0.926986	
-10.5598	1.14984	-0.883227	
-12.2287	1.23168	-1.07037	
-12.0746	1.16237	-1.10154	
-12.3805	1.68406	-1.0483	
-8.99967	0.333428	-0.715192	
-12.0163	1.52552	-1.11559	
-12.0628	0.488947	-1.10429	
-10.4103	1.59304	-0.903179	
-12.8512	1.57917	-1.06726	
-12.0409	1.65719	-1.10952	
-12.7557	0.559694	-1.04588	
-12.7936	0.490232	-1.05271	
-12.0797	0.956713	-1.10036	
-12.1504	0.989568	-1.08513	
-12.3546	1.75665	-1.05143	
-10.4447	1.77244	-0.897817	
-10.2835	1.72615	-0.926722	
-10.3916	0.310718	-0.906283	
-10.339	0.290342	-0.915692	
-10.3501	1.29539	-0.913632	
-12.6502	2	-1.03543	
-10.4769	0.482459	-0.893197	
-10.8551	1.30941	-0.877575	
-12.4885	0.109198	-1.03831	
-12.1033	1.03572	-1.09507	
-12.1643	1.07584	-1.08233	
-12.1601	2	-1.08318	
-11.0158	0.633303	-0.910141	
-12.8328	0.422033	-1.06198	
-9.08785	0.266461	-0.727855	
-12.0867	0.262786	-1.09877	
-10.774	1.66446	-0.872646	
-10.7113	1.54135	-0.87281	
-12.0446	0.371856	-1.10863	
-10.2268	0.429791	-0.939157	
-10.6055	1.56661	-0.878954	
-10.6199	1.62234	-0.877798	
-8.60824	1.2804	-0.733955	
-12.0128	0.68957	-1.11648	
-10.1474	0.753859	-0.958543	
-12.9102	0.285029	-1.09044	
-10.1515	1.26259	-0.957487	
-14.7618	0	-1.25307	
-10.1595	1.39629	-0.955448	
-13.8858	1.45609	-1.27264	
-12.0209	0.308608	-1.11445	
-13.9364	0.682551	-1.26072	
-12.0099	0.423502	-1.11723	
-12.9117	2	-1.09121	
-10.6218	0.980727	-0.877655	
-13.9477	1.51237	-1.25819	
-12.1209	1.11653	-1.09126	
-10.6793	0.277428	-0.874067	
-14.3443	0.33864	-1.19979	
-10.2163	1.08627	-0.941593	
-10.7762	0.0993244	-0.8727	
-12.6744	0.0548078	-1.03683	
-8.35975	1.55961	-0.781246	
-12.9116	1.72118	-1.09116	
-11.0266	1.94239	-0.91401	
-11.0185	1.87535	-0.911069	
-10.2738	0.473525	-0.928761	
-10.2373	0.331482	-0.936756	
-10.9613	1.63205	-0.894751	
-11.0591	1.59521	-0.928042	
-12.1704	1.47977	-1.08114	
-12.7102	0.160133	-1.03996	
-10.8283	0.114041	-0.875257	
-10.3789	1.45658	-0.908457	
-10.9238	0.130179	-0.887061	
-12.3786	0.972536	-1.04852	
-12.8834	0.0752793	-1.07844	
-10.6188	0.0509452	-0.87788	
-10.5739	1.00206	-0.88181	
-8.61904	0.356044	-0.73242	
-12.3385	0.0762643	-1.05351	
-10.2639	1.44431	-0.930888	
-12.7178	0	-1.04078	
-9.22015	0.460204	-0.772245	
-8.92718	0.946643	-0.710866	
-12.0248	2	-1.12373	
-12.1038	2	-1.1152	
-12.2673	2	-1.10193	
-12.3533	2	-1.09735	
-12.1843	2	-1.10792	
-14.3797	2	-1.25494	
-14.5579	2	-1.26108	
-12.8797	2	-1.12013	
-12.7964	2	-1.10815	
-12.6187	2	-1.09419	
-14.2902	2	-1.25624	
-15.6506	-0.0721374	-1.45675	
-10.1502	-0.0524234	-0.971554	
-10.4173	-1.94219	-0.977633	
-12.2017	-1.93265	-1.13737	
-12.2421	-2	-1.13863	
-12.0611	-0.0610541	-1.13419	
-12.2054	-0.0745946	-1.13748	
-12.3474	-0.063891	-1.14253	
-12.9505	-1.2856	-1.13303	
-12.8887	-1.32684	-1.15933	
-12.9505	-1.35721	-1.13303	
-12.9505	-0.0721374	-1.13303	
-14.8005	-0.215036	-1.29489	
-12.9505	-0.143615	-1.13303	
-12.8992	-0.177622	-1.15806	
-11.1004	-0.286611	-0.971167	
-12.9003	-0.326516	-1.15791	
-14.8005	-0.358269	-1.29489	
-12.9005	-0.255005	-1.15788	
-12.9505	-0.714404	-1.13303	
-14.7411	-0.754353	-1.32094	
-12.9505	-0.786116	-1.13303	
-12.3877	-2	-1.1442	
-14.1926	-1.91632	-1.30419	
-12.315	-2	-1.14125	
-10.1735	-2	-0.971811	
-10.1513	-1.94543	-0.971565	
-11.9505	-2	-1.13303	
-12.9015	-1.39944	-1.15773	
-12.9505	-1.42879	-1.13303	
-9.25034	-2	-0.809306	
-14.8005	-1.92786	-1.29489	
-11.0409	-2	-0.99723	
-12.0965	-2	-1.13481	
-12.0607	-1.9425	-1.13419	
-14.3513	-1.91894	-1.31091	
-12.4601	-2	-1.1473	
-10.6828	-2	-0.98848	
-12.9505	-1.21388	-1.13303	
-12.8886	-1.25457	-1.15934	
-14.8005	-1.78496	-1.29489	
-9.20649	-1.82622	-0.833196	
-12.9505	-1.85639	-1.13303	
-12.1453	-0.824164	-1.13586	
-12.0675	-0.840188	-1.1343	
-13.9724	-0.897364	-1.2972	
-15.6506	-1.07055	-1.45675	
-13.866	-1.0996	-1.29544	
-15.7107	-0.999321	-1.45724	
-12.3298	-1.67801	-1.14183	
-12.4009	-1.66711	-1.14475	
-14.1835	-1.60664	-1.30383	
-12.2134	-0.446895	-1.13772	
-15.9344	-0.354649	-1.4621	
-12.1595	-0.398171	-1.13622	
-14.2345	-1.83141	-1.30592	
-10.5937	-1.78071	-0.984735	
-14.2361	-1.74009	-1.30599	
-14.3964	-1.7075	-1.31273	
-12.4649	-1.71822	-1.1475	
-12.512	-1.78279	-1.14949	
-14.4364	-1.79397	-1.3144	
-12.4118	-1.60358	-1.14522	
-12.3665	-1.5428	-1.14331	
-10.4624	-1.84473	-0.979289	
-14.5551	-1.45461	-1.32019	
-12.6228	-1.49442	-1.15425	
-12.6702	-1.53304	-1.15661	
-16.372	-1.28582	-1.48042	
-12.6019	-1.23395	-1.15325	
-16.2729	-1.30809	-1.47566	
-16.4572	-1.05755	-1.48431	
-10.9819	-1.02435	-1.00013	
-10.9334	-0.98494	-0.99957	
-12.524	-0.659051	-1.14999	
-12.457	-0.685531	-1.14716	
-14.3602	-0.738859	-1.31128	
-14.3356	-1.33862	-1.31025	
-14.3453	-1.25231	-1.31066	
-15.6506	-1.42879	-1.45675	
-15.6506	-1.49933	-1.45675	
-13.8851	-1.4654	-1.29568	
-12.0379	-0.918262	-1.13386	
-12.0901	-1.01699	-1.13469	
-10.2317	-0.957788	-0.972678	
-15.9163	-0.881052	-1.46153	
-12.2241	-0.965074	-1.13805	
-12.2875	-0.954992	-1.14022	
-10.6992	-0.86716	-0.989124	
-14.4658	-0.888326	-1.31577	
-12.5979	-0.817828	-1.15306	
-13.976	-0.589278	-1.29728	
-13.993	-0.676587	-1.29767	
-14.0583	-0.618429	-1.29943	
-14.6526	-0.0745363	-1.3237	
-12.5371	-1.18703	-1.15051	
-12.4751	-1.16574	-1.14794	
-12.4705	-0.496062	-1.14774	
-14.4015	-0.503541	-1.31293	
-12.5061	-0.439924	-1.14925	
-14.4379	-0.698429	-1.31447	
-12.3551	-1.23016	-1.14284	
-14.1269	-1.19538	-1.30169	
-12.3057	-1.27217	-1.14089	
-12.3465	-1.33945	-1.14249	
-10.5243	-1.2898	-0.981774	
-14.5582	-0.976561	-1.32034	
-14.4598	-0.96716	-1.31548	
-12.6636	-1.03431	-1.15628	
-16.1334	-1.00672	-1.46987	
-12.5216	-0.987297	-1.14989	
-12.4701	-0.93866	-1.14773	
-14.1775	-0.379548	-1.30359	
-14.1866	-0.470375	-1.30395	
-12.3904	-0.425581	-1.14431	
-14.7184	-1.87861	-1.32279	
-12.8544	-1.79701	-1.16155	
-12.7888	-1.84585	-1.16157	
-12.505	-0.176311	-1.14921	
-12.5134	-0.252878	-1.14955	
-10.7148	-0.202898	-0.989748	
-14.4232	-0.126149	-1.31382	
-14.4321	-0.277581	-1.31421	
-14.4816	-0.192415	-1.31654	
-14.667	-1.21378	-1.32386	
-12.8664	-1.14736	-1.16103	
-12.7903	-1.14008	-1.1616	
-12.6285	-0.532687	-1.15453	
-12.6296	-0.470109	-1.15458	