<VTKFile type="UnstructuredGrid" version="0.1" byte_order="LittleEndian">
	<UnstructuredGrid>
		<Piece NumberOfPoints="1917" NumberOfCells="56">
			<CellData Scalars="scalars">
				<DataArray type="Float64" Name="Doublet Strengths" NumberOfComponents="1" Format="ascii">
-5.42665	
-17.4976	
-15.7044	
-13.0105	
-17.7738	
-16.9743	
-17.5422	
-17.5889	
-13.8768	
-15.3071	
-9.05494	
-17.3145	
-16.1652	
-17.6586	
-14.6034	
-16.0737	
-17.3495	
-17.0581	
-17.3445	
-17.1033	
-17.3358	
-17.5364	
-17.2377	
-17.5378	
-17.5481	
-17.2023	
-11.4465	
-15.8936	
-17.5726	
-15.7624	
-17.8226	
-17.5831	
-17.4835	
-13.6632	
-9.02505	
-17.3438	
-16.2287	
-17.6373	
-16.9944	
-14.4373	
-16.1024	
-17.5216	
-18.1939	
-17.2324	
-17.1528	
-17.5556	
-17.4263	
-18.0078	
-15.282	
-17.2674	
-17.849	
-5.40973	
-13.1722	
-15.9693	
-17.5977	
-11.4051	
				</DataArray>
				<DataArray type="Float64" Name="Velocity Potential" NumberOfComponents="1" Format="ascii">
118.004	
131.211	
129.33	
126.382	
131.587	
130.769	
131.308	
131.44	
127.369	
128.92	
121.992	
131.167	
129.834	
131.549	
128.146	
129.745	
131.128	
130.831	
131.108	
130.754	
131.105	
131.399	
130.914	
131.313	
131.384	
130.966	
124.627	
129.521	
131.444	
129.362	
131.664	
131.422	
131.308	
127.064	
122.016	
131.257	
129.898	
131.382	
130.881	
127.899	
129.77	
131.288	
131.985	
130.898	
130.77	
131.211	
131.16	
131.714	
128.844	
130.935	
131.645	
118.077	
126.51	
129.591	
131.31	
124.594	
				</DataArray>
			</CellData>
			<Points>
				<DataArray type="Float64" Name="Position" NumberOfComponents="3" Format="ascii">
0.428815	0	-0.0442217	
0.523249	0.0524256	-0.0377395	
0.359592	0	-0.0560289	
0.282768	2	-0.0470268	
0.251538	1.93467	-0.0478964	
0.139138	2	-0.0554076	
0.35584	0	-0.0453617	
0.391255	0.0610502	-0.0447439	
0.247018	0.0745738	-0.0480298	
0.282768	0	-0.0470268	
0.210295	0	-0.0491822	
0.137356	0	-0.0517995	
0.0646699	0	-0.0547458	
0.106045	0.0639395	-0.0530357	
-0.379298	1.39584	-0.0618593	
-0.436092	1.3266	-0.0699046	
-0.498095	1.35721	-0.043578	
0.359592	1.92786	-0.0560289	
0.522383	1.94512	-0.0377481	
-0.569251	0.0721374	-0.0498034	
-0.434124	0.0533506	-0.0701018	
-0.426939	0	-0.0373526	
-0.569251	0.215036	-0.0498034	
-0.550562	0.171582	-0.0843091	
-0.426939	0.143615	-0.0373526	
-0.426939	0.286611	-0.0373526	
-0.569251	0.358269	-0.0498034	
-0.447912	0.326064	-0.0684623	
-0.445702	0.252841	-0.0687694	
-0.498095	0.714404	-0.043578	
-0.498095	0.786116	-0.043578	
-0.509797	0.754574	-0.075858	
0.0646699	2	-0.0547458	
0.137356	2	-0.0517995	
-0.0420637	1.91204	-0.0657214	
0.0494332	1.66657	-0.0553916	
0.0482425	1.60722	-0.0587268	
0.238776	0.446925	-0.0482779	
0.291719	0.397747	-0.0467948	
0.0752105	0.354616	-0.0613968	
0.501905	2	-0.043578	
-0.498095	1.42879	-0.043578	
-0.355782	2	-0.0311271	
-0.367402	2	-0.0634162	
-0.569251	1.92786	-0.0498034	
0.35584	2	-0.0453617	
0.499971	2	-0.0379963	
0.39092	1.93956	-0.0447492	
0.0958082	1.94176	-0.0502279	
-0.190955	1.9167	-0.0720385	
-0.00771711	2	-0.0578475	
-0.498095	1.21388	-0.043578	
-0.375274	1.19029	-0.0624448	
-0.498095	1.14216	-0.043578	
-0.498095	1.2856	-0.043578	
-0.43639	1.25405	-0.0698738	
-0.569251	1.78496	-0.0498034	
-0.498095	1.85639	-0.043578	
-0.311898	1.82617	-0.055024	
-0.367979	0.114671	-0.063352	
-0.496005	1.46922	-0.0771208	
-0.450487	1.38862	-0.0787698	
0.307105	0.824164	-0.046414	
0.258856	0.897364	-0.0521156	
0.384902	0.840188	-0.0448457	
-0.340738	1.46561	-0.0722143	
0.430749	1	-0.0498034	
0.299451	0.999321	-0.0565235	
0.359592	1.07055	-0.0560289	
0.0405968	1.60348	-0.0557689	
0.40938	0.356544	-0.0444751	
0.416225	0.353408	-0.0393486	
0.364975	0.427857	-0.0451905	
-0.00175914	1.82506	-0.0607723	
-0.00544671	1.7382	-0.0609274	
0.0797323	1.77788	-0.0509205	
-0.0128635	1.71777	-0.0580686	
-0.0607554	1.78088	-0.0600906	
-0.165299	1.70728	-0.0676535	
-0.205347	1.79378	-0.0693236	
0.0859394	1.54291	-0.0538574	
0.14818	1.8351	-0.0513863	
-0.323585	1.45384	-0.0750955	
-0.217903	1.53294	-0.0671662	
-0.170415	1.49429	-0.0647986	
-0.282032	1.28284	-0.0730384	
-0.261495	1.30815	-0.0748926	
-0.148192	1.23305	-0.0637382	
-0.448093	1.05577	-0.0836266	
-0.344265	0.974397	-0.0722867	
-0.313387	1.02275	-0.0662682	
-0.0716454	0.65903	-0.0605356	
-0.128927	0.738857	-0.0661928	
-0.00460868	0.685529	-0.0577138	
-0.104229	1.33866	-0.065157	
-0.113906	1.25226	-0.0655659	
0.359592	1.42879	-0.0560289	
0.345651	1.46516	-0.0505994	
0.359592	1.49933	-0.0560289	
0.414436	0.918262	-0.0444057	
0.0939287	0.881052	-0.0608064	
0.151308	0.891355	-0.0512684	
0.164836	0.954992	-0.0507663	
-0.0257595	0.867158	-0.0553097	
-0.145483	0.817822	-0.0636125	
-0.234382	0.888323	-0.0706758	
0.255287	0.589259	-0.0521938	
0.172963	0.618435	-0.0543418	
0.238253	0.676586	-0.0525845	
-0.296562	0	-0.0708251	
-0.367858	0	-0.0725652	
-0.429861	0.0790961	-0.0787288	
0.0219475	1.27156	-0.0565698	
0.0323708	1.20368	-0.0561216	
-0.0183153	0.496767	-0.0583023	
-0.0550214	0.442032	-0.0598535	
-0.170921	0.502871	-0.0678712	
-0.206619	0.698424	-0.0693807	
0.097274	1.23016	-0.0533917	
0.146632	1.27217	-0.0514449	
0.104399	1.19537	-0.0566035	
0.14919	1.2898	-0.0479601	
-0.0618686	1.02577	-0.0568206	
-0.228634	0.967174	-0.0704008	
-0.211439	1.0342	-0.0668413	
-0.123222	1.00672	-0.0691436	
-0.0177042	0.93866	-0.0582762	
-0.0692692	0.987296	-0.0604392	
0.0527636	0.378981	-0.0585483	
0.063078	0.426844	-0.0548129	
0.0448255	0.470462	-0.0588626	
-0.487116	1.87857	-0.0777004	
-0.472882	1.79633	-0.0783334	
-0.336436	1.84585	-0.0721167	
-0.126156	0.270573	-0.0627427	
-0.0403013	0.200611	-0.0558921	
-0.24987	0.193571	-0.0714309	
-0.188156	0.123897	-0.0685746	
-0.0606073	0.249496	-0.0600845	
-0.0515046	0.173576	-0.0597072	
-0.440495	1.20923	-0.0787945	
-0.339228	1.13932	-0.0721812	
-0.423848	1.13751	-0.0709687	
-0.176432	0.531427	-0.0650931	
-0.177333	0.463982	-0.0651375	
-0.120499	0.427199	-0.062498	
-0.187215	0.382421	-0.0656267	
-0.302542	0.742778	-0.0663439	
-0.450648	0.813881	-0.0787686	
-0.173338	0.580015	-0.0679667	
-0.181214	1.7199	-0.0653289	
-0.265603	0.757182	-0.0722132	
-0.137714	0.698895	-0.0604867	
-0.268016	0.732194	-0.0696014	
-0.248339	0.893597	-0.068673	
-0.215374	0.830458	-0.0670391	
-0.369285	0.834567	-0.0771119	
-0.365562	1.53139	-0.0725558	
-0.312993	1.59044	-0.071431	
-0.288644	1.5207	-0.0705045	
0.0847899	1.10613	-0.0573202	
0.225985	1.13654	-0.0486752	
-0.41076	0.567577	-0.0784149	
-0.477886	0.624293	-0.0781476	
-0.333795	0.641057	-0.0720521	
-0.265447	0.667946	-0.0694833	
-0.265338	0.607392	-0.0694783	
-0.328427	0.97644	-0.0753262	
-0.438558	0	-0.0696416	
0.0688975	1.40806	-0.0545679	
0.0362188	1.34451	-0.0559565	
0.00264186	1.41675	-0.0574016	
0.0417237	1.48085	-0.0557207	
-0.134667	1.43176	-0.0664293	
-0.0229549	1.49613	-0.0585008	
-0.088937	0.925911	-0.0612252	
-0.255977	1.74077	-0.0690394	
-0.399042	1.66215	-0.081526	
-0.249861	1.70694	-0.0654669	
0.359592	1.71339	-0.0560289	
0.289139	1.77904	-0.056641	
0.359592	1.78496	-0.0560289	
-0.296562	2	-0.0708251	
-0.410307	1.92525	-0.0784049	
-0.367858	2	-0.0725652	
-0.128978	0.350099	-0.0628665	
-0.0652611	0.315549	-0.0602756	
0.174926	1.02327	-0.0504007	
0.0341922	1.02942	-0.0592892	
0.179871	0.0746863	-0.0502243	
0.145164	0.130322	-0.0515007	
0.148202	0.159825	-0.0551121	
0.13582	0.255296	-0.0555175	
0.235024	0.198868	-0.0445764	
0.101792	0.185075	-0.0532078	
0.183044	0.53229	-0.0540441	
0.217279	0.358269	-0.0684797	
0.430749	0.286611	-0.0498034	
0.439717	0.283499	-0.0440952	
0.359592	0.143615	-0.0560289	
0.352972	0.19815	-0.050505	
0.359592	0.215036	-0.0560289	
0.214827	0.268711	-0.0577877	
-0.0788735	0	-0.064073	
-0.00934334	0	-0.0546662	
-0.0873261	0.0522709	-0.061162	
-0.248096	0.233077	-0.0599511	
-0.447634	0.293965	-0.0787861	
-0.161297	1.52249	-0.0674978	
-0.0886369	1.6164	-0.0612135	
-0.0290193	1.57352	-0.0587593	
-0.0245505	1.65009	-0.0585689	
-0.38618	1.59898	-0.0724719	
-0.225047	0	-0.0675242	
-0.170461	0.0589648	-0.0648008	
-0.152417	0	-0.063936	
0.329497	1.47391	-0.0459014	
0.175615	1.46129	-0.0542626	
0.198095	1.53681	-0.0536173	
-0.26295	0.286849	-0.0720805	
0.188464	0.724627	-0.0499223	
0.249443	0.784216	-0.0440552	
0.168549	0.788387	-0.0544751	
-0.397478	0.223399	-0.0780761	
-0.241095	1.34531	-0.0651801	
-0.236348	1.40661	-0.065013	
-0.316615	1.36487	-0.0747587	
-0.28029	1.29047	-0.0701494	
-0.222674	0.414541	-0.0644909	
-0.2411	0.434011	-0.0683203	
-0.321483	0.349215	-0.0749944	
-0.356693	0.422964	-0.0724815	
-0.378232	0.489015	-0.0774484	
-0.379002	0.488653	-0.0725466	
0.043704	1.24582	-0.0491496	
-0.0845601	1.18695	-0.0610529	
-0.18256	1.58611	-0.0627062	
0.245904	0.42229	-0.0441817	
0.223724	0.312816	-0.0449957	
0.000954337	0.310713	-0.0606585	
0.12271	0.255176	-0.0523705	
0.0568606	0.23291	-0.055076	
-0.416418	1.20734	-0.0823277	
-0.143595	1.1572	-0.0635254	
-0.212843	1.15129	-0.0669119	
-0.13043	1.2101	-0.0601204	
-0.224015	1.08885	-0.0701822	
0.243759	1.61914	-0.0481272	
0.224916	1.69424	-0.048709	
0.23236	1.67616	-0.0527262	
0.176033	1.64844	-0.050361	
0.147628	1.72086	-0.0514072	
-0.197405	0.644913	-0.066136	
-0.194614	1.94629	-0.0632728	
-0.264936	1.93331	-0.0721799	
-0.267195	1.88539	-0.0695638	
0.250011	0.0804625	-0.0523118	
0.451958	0.127785	-0.038688	
0.440719	1.88257	-0.0388823	
0.246942	1.92762	-0.0523816	
0.282274	0.21589	-0.0470399	
-0.187246	0.273142	-0.0629289	
-0.251508	0.209198	-0.0688258	
-0.175877	0.143339	-0.0623843	
-0.317668	0.145092	-0.0715863	
-0.123407	0.115792	-0.0597682	
-0.194333	1.85807	-0.0659821	
-0.12859	1.88373	-0.0628494	
-0.047683	1.94611	-0.0562018	
-0.00934334	2	-0.0546662	
-0.152417	2	-0.063936	
-0.377614	0.682902	-0.0621124	
-0.569251	0.64279	-0.0498034	
0.0958191	1.88295	-0.0502275	
0.146761	1.53147	-0.05144	
0.16919	1.46174	-0.0506076	
0.104717	1.47178	-0.0530893	
-0.397691	1.08229	-0.0722318	
0.364679	0.329519	-0.0405235	
0.36821	0.43708	-0.0503245	
0.430749	0.429861	-0.0498034	
0.18295	1.67699	-0.0465791	
0.194098	1.57544	-0.0497275	
-0.130462	1.60691	-0.0601221	
-0.159892	1.65508	-0.0642905	
-0.260972	1.81461	-0.0692751	
-0.129029	1.78507	-0.0600501	
0.365867	0.749751	-0.0404935	
0.244862	0.701087	-0.0480941	
0.293741	0.758919	-0.0514174	
-0.498095	0.429861	-0.043578	
-0.503122	0.409639	-0.0765313	
-0.329121	1.77163	-0.0719291	
-0.46989	1.71936	-0.0784274	
0.237008	1.1716	-0.0526141	
0.275365	1.09553	-0.0472246	
0.13146	1.76477	-0.0556634	
0.196577	1.7791	-0.0460384	
0.00190777	0.277236	-0.0574332	
-0.0444666	0.151691	-0.0625911	
-0.00865904	1.84554	-0.0546389	
-0.0136076	1.83711	-0.0581005	
0.105877	1.33945	-0.0530425	
0.13485	1.40104	-0.0518962	
-0.23622	0.297567	-0.0650084	
-0.326773	0.357474	-0.0718635	
-0.0524154	0.760525	-0.0564049	
-0.0738849	0.810302	-0.0606262	
0.0180882	0.749841	-0.056736	
0.0831065	0.751361	-0.0539747	
0.0608267	0.686344	-0.054908	
-0.00856806	0.810027	-0.0578841	
0.0567487	0.81571	-0.0550807	
0.288436	1.64173	-0.0622543	
0.43625	1.65788	-0.0441342	
-0.569251	1	-0.0498034	
-0.569251	1.07055	-0.0498034	
-0.378305	1.0308	-0.06201	
0.508298	1.5272	-0.0378987	
0.359592	1.57014	-0.0560289	
0.152648	0.121062	-0.0478163	
0.034879	0.068568	-0.0560139	
-0.0326129	0.0968802	-0.058912	
0.359592	1.85639	-0.0560289	
0.364043	1.8723	-0.0503717	
0.359592	0.0721374	-0.0560289	
0.441675	0.116381	-0.0440737	
-0.0643384	0.378957	-0.0602378	
0.359592	1.2856	-0.0560289	
0.436142	1.33655	-0.0441355	
0.359592	1.35721	-0.0560289	
0.118139	1.07097	-0.0492707	
0.0404939	1.13809	-0.0557733	
0.16552	1.10545	-0.0472853	
-0.0125964	1.08867	-0.0580571	
0.0261357	0.876824	-0.0563895	
0.0878016	0.882801	-0.0537805	
0.050411	0.819303	-0.058641	
-0.13184	1.38959	-0.0629932	
-0.0542405	1.45442	-0.0564841	
-0.190613	1.41914	-0.0657962	
0.0692817	0.213959	-0.0513707	
0.04015	0.621411	-0.0557881	
0.0779763	0.549577	-0.0541879	
0.0165718	0.556476	-0.0568013	
0.0488438	0.491713	-0.0554167	
-0.335152	0.0712931	-0.0756416	
0.108149	1.1672	-0.0529508	
-0.147301	1.57159	-0.0636967	
0.308325	0.47164	-0.0463848	
-0.374254	0.476615	-0.062583	
-0.491736	0.546631	-0.0774191	
0.430749	0.500665	-0.0498034	
0.441928	0.802839	-0.0440709	
0.437837	0.646217	-0.0389341	
0.460022	0.69766	-0.0385563	
0.388769	1.17495	-0.0447833	
0.36527	1.0996	-0.0503577	
0.280849	1.1007	-0.0516614	
0.172687	1.32398	-0.0543501	
0.383562	1.29855	-0.0400628	
0.282593	1.24767	-0.0470315	
0.0999701	0.61668	-0.0532819	
0.137111	0.546139	-0.0518089	
0.266947	0.561624	-0.0434441	
0.183913	0.491616	-0.0500815	
0.3772	1.0418	-0.0402141	
0.245404	1.02609	-0.0480779	
0.233294	0.976287	-0.0527035	
0.228314	0.965074	-0.0486018	
0.0958255	0.954567	-0.0534509	
0.368315	1.62515	-0.04513	
0.378123	1.59965	-0.0401919	
-0.320084	0.360303	-0.0661604	
0.43173	1.5889	-0.0441868	
0.174177	1.33334	-0.0504276	
0.200514	1.39903	-0.0495089	
0.212929	1.2624	-0.0490956	
0.0542755	0.683934	-0.0584888	
-0.429878	0.967445	-0.0704915	
-0.55396	0.89983	-0.0841527	
-0.316396	0.914042	-0.0715448	
-0.0662418	1.0505	-0.0603157	
-0.205131	1.13415	-0.0637485	
-0.161533	1.09375	-0.0616796	
0.0968377	1.5431	-0.0501836	
-0.32431	0.770923	-0.071792	
-0.187288	0.785107	-0.0629309	
-0.109952	1.34839	-0.0590983	
-0.436177	1.29694	-0.0787784	
-0.347855	1.65281	-0.0723529	
0.35918	1.25411	-0.0504288	
0.372116	1.32162	-0.0450625	
-0.0631557	0.633745	-0.0568782	
-0.188429	0.587288	-0.0656872	
-0.389112	0.6882	-0.0724255	
-0.0350199	0.873522	-0.0590141	
0.0570815	1.36753	-0.0486286	
-0.225047	2	-0.0675242	
0.314532	1.1987	-0.0419133	
-0.00142743	0.394274	-0.0575769	
-0.000763777	0.336713	-0.0575483	
-0.322818	0.702848	-0.0717474	
-0.498095	0.929454	-0.043578	
-0.498095	0.857842	-0.043578	
-0.342277	1.94387	-0.0653864	
-0.0227229	1.16572	-0.0584908	
-0.0794625	1.11814	-0.0608502	
0.212818	1.79696	-0.0532205	
0.346884	1.73661	-0.0409894	
0.125737	0.370041	-0.0489473	
0.077446	0.446178	-0.051019	
0.113269	0.936014	-0.0494787	
0.542583	1.0523	-0.0321554	
0.362293	1.01699	-0.0452399	
-0.498095	1.49933	-0.043578	
0.347557	0.586375	-0.0505744	
0.31104	0.509874	-0.0511156	
-0.436525	1.54624	-0.0698598	
0.259313	0.664255	-0.0437076	
0.208171	0.750955	-0.0455872	
0.256129	0.837223	-0.0438189	
0.359592	1.21388	-0.0560289	
0.521771	1.17543	-0.0377543	
0.359592	0.929454	-0.0560289	
0.520913	0.873321	-0.037763	
0.288436	0.857842	-0.0622543	
0.445366	0.725606	-0.044034	
0.359592	0.786116	-0.0560289	
0.359592	0.714404	-0.0560289	
0.429353	0.653203	-0.0442152	
0.359592	0.64279	-0.0560289	
0.288436	0.571209	-0.0622543	
0.359592	1.14216	-0.0560289	
0.441788	0.957788	-0.0388632	
0.417426	0.930031	-0.0347806	
0.161095	0.613315	-0.0509039	
-0.382942	1.6049	-0.0612686	
0.0274031	0.552048	-0.0531573	
-0.0233221	0.616488	-0.0585164	
0.288682	1.54065	-0.0515112	
0.342853	0.177963	-0.0456192	
0.356154	1.24487	-0.0453557	
0.298959	1.39957	-0.0513233	
0.352255	0.139289	-0.0408456	
0.378905	1.69928	-0.0449454	
0.345883	1.75272	-0.0455576	
0.307416	1.35868	-0.0464066	
0.325809	1.39206	-0.0415802	
0.372297	1.42097	-0.0403335	
0.368364	1.81911	-0.0451291	
-0.43147	1.6612	-0.0703509	
-0.498095	1.71339	-0.043578	
-0.166804	0.496577	-0.0619404	
-0.261748	0.549039	-0.0693115	
0.389986	1.85508	-0.039914	
0.519227	0.520218	-0.0377803	
0.461124	0.528047	-0.033689	
-0.498095	1.57014	-0.043578	
-0.569251	0.500665	-0.0498034	
-0.0634191	0.932053	-0.0541034	
0.280764	1.07414	-0.0429794	
0.277318	1.51028	-0.0430938	
-0.569251	1.64173	-0.0498034	
0.341049	0.282674	-0.0411487	
-0.498095	0.571209	-0.043578	
-0.311195	0.59575	-0.0551431	
0.578698	1.71321	-0.0316818	
0.116913	1.88726	-0.0561615	
-0.370737	0.827624	-0.0630305	
0.290573	1.82622	-0.0426594	
0.510075	1.40032	-0.0378787	
0.26389	1.87065	-0.0475415	
-0.208631	0.866054	-0.0599527	
-0.175804	1.24863	-0.0591499	
0.231904	1.94589	-0.0446913	
-0.30874	1.75284	-0.0555412	
0.344876	1.94185	-0.0369889	
-0.461822	0.611259	-0.00307813	
-0.512908	0.691022	0.00037118	
-0.387655	0.951279	0.00474585	
-0.519078	0.885946	-0.00238146	
0.0133934	0	0.047193	
0.0817379	0	0.0399918	
-0.0286326	0.0792566	0.0381396	
0.289553	0	-0.0375434	
0.465258	0.0639973	-0.00967343	
0.362412	0	-0.00859198	
0.448759	0.0936441	-0.0293789	
0.152883	0	0.030477	
0.223446	0	0.0191226	
0.180348	0.0798839	0.0262797	
-0.398629	0.821071	-0.00141892	
-0.460644	1.45488	-0.0024452	
-0.4637	1.89867	-0.00410736	
0.0845498	2	0.0534185	
-0.0582312	2	0.0525267	
-0.107206	1.91895	0.0449049	
0.461819	1.93754	-0.00886262	
0.443655	1.90585	-0.0280724	
0.431866	2	-0.0250926	
0.362412	2	-0.00859198	
0.0817379	2	0.0399918	
0.117432	1.92228	0.0354671	
0.152883	2	0.030477	
-0.094834	1.85759	0.0542999	
-0.0915157	1.82278	0.0437765	
0.11359	0.600657	0.0193556	
0.239834	0.663037	0.0162208	
0.101314	0.68441	0.0212873	
0.447102	0.939959	-0.0289537	
0.438035	1.33496	-0.0266454	
-0.0769926	1.68417	0.0426308	
0.0353053	1.74973	0.0573422	
-0.244567	1.71007	0.04212	
0.187313	1.02684	0.0251699	
0.105712	0.943151	0.0206019	
0.242498	0.965528	0.0157397	
0.411594	0.553448	-0.0200913	
0.454536	0.495631	-0.0308693	
-0.247857	1.36962	0.0504949	
-0.321888	1.42353	0.0422787	
-0.258418	1.43872	0.0494346	
-0.435242	1.02505	0.0254121	
-0.297952	0.965827	0.044399	
-0.342262	1.04082	0.0417809	
-0.281126	1.21008	0.0471595	
-0.441052	1.26463	0.03183	
-0.29273	1.19252	0.0451652	
0.198494	1.8275	0.0233505	
0.115031	1.91186	0.0191251	
0.0599183	1.83465	0.027379	
-0.00373284	1.04863	0.0354365	
0.127966	1.0111	0.0340352	
0.0733484	1.09426	0.0254747	
0.146681	1.10778	0.0469525	
-0.0765232	1.09436	0.0425921	
-0.0412958	0.92332	0.0514819	
-0.0794967	0.983948	0.0536394	
-0.264745	0.912712	0.0426351	
0.00486773	1.65028	0.0592002	
-0.0489361	1.64109	0.0612683	
-0.143549	1.58611	0.0470673	
0.431683	0.621253	-0.0250469	
0.436366	0.607584	-0.00299672	
0.25432	0.544593	-0.00676508	
0.233649	0.626188	-0.00247543	
-0.0016127	0.883867	0.0351945	
0.110596	0.814004	0.0363729	
0.134921	0.883506	0.0330662	
0.187497	0.94284	0.0418384	
0.240586	0.823889	0.0342079	
0.204067	0.86549	0.0224263	
-0.24134	0.577518	0.0510923	
-0.309996	0.659851	0.0450848	
-0.303058	0.634606	0.0436185	
0.25891	0.0913029	-0.00773868	
0.401285	0.141129	-0.0176067	
-0.0248452	1.15841	0.0503362	
-0.253969	1.18235	0.0424003	
-0.00414868	1.11752	0.0596634	
-0.453921	0.938839	0.0206096	
-0.361474	0.99711	0.0166082	
-0.0580397	0.516229	0.0525156	
-0.157523	0.597248	0.0477247	
-0.132417	0.53029	0.0552198	
0.0206501	1.25683	0.0325417	
0.0406889	1.17353	0.0299833	
0.160327	1.22905	0.0293677	
-0.474939	1.10599	0.0144079	
-0.44768	1.05145	0.00395503	
-0.404489	1.1866	0.0204083	
-0.457535	1.17077	-0.000820489	
0.0328072	1.39834	0.0146498	
0.241883	1.4857	0.034008	
0.110532	1.4682	0.0363813	
-0.293449	0.907417	0.0463718	
-0.169328	0.841878	0.0549974	
-0.561274	0.492781	0.00307831	
-0.291176	0.543817	0.0382831	
-0.411241	0.570722	0.0181981	
-0.18933	1.72433	0.0543888	
-0.145249	1.78876	0.0552719	
-0.0595884	0.853718	0.0526044	
0.0274548	0.389993	0.0458737	
0.0911766	0.316743	0.0528074	
0.0816408	0.343184	0.0400035	
-0.0929661	0.780432	0.0542259	
-0.0407734	0.84375	0.0610837	
-0.163028	0.770799	0.0551168	
-0.00817306	0.577671	0.049047	
0.35614	1.02428	-0.0301772	
0.154113	0.237428	0.0125792	
0.209427	0.153222	0.0215265	
0.277034	0.163431	0.00926868	
0.0630495	0.159631	0.0269413	
-0.212465	1.80219	0.053237	
-0.171235	1.86234	0.0572243	
-0.291356	1.80354	0.0453616	
-0.120523	0.329138	0.0550511	
-0.266362	0.30982	0.0479171	
-0.21425	0.244444	0.0490472	
-0.15264	0.391669	0.0552398	
0.319004	1.03303	0.0209913	
-0.120925	0.717798	0.0550587	
-0.039298	0.718603	0.0513495	
-0.00606509	0.665477	0.0597566	
-0.152325	0.658642	0.0552421	
0.0927365	1.87015	0.0526608	
0.0572357	1.80864	0.0427993	
-0.0122978	1.78424	0.0600468	
0.0296621	1.74797	0.0456588	
-0.217815	0.386445	0.0529	
-0.24786	0.441074	0.0504946	
-0.28719	0.365688	0.0459434	
-0.0590965	1.25637	0.0525763	
-0.133943	1.24657	0.0552331	
-0.0819455	1.3122	0.0537529	
-0.0763141	1.30199	0.0614925	
-0.207458	1.27096	0.053528	
0.0669681	0.276367	0.0417137	
0.00589998	0.292881	0.0187113	
0.184006	0.234809	0.0423017	
0.239925	0.216682	0.0343095	
-0.30968	0.891352	0.0425593	
-0.109031	1.48059	0.05478	
-0.0331783	1.4429	0.0509325	
-0.102639	1.51083	0.0445883	
0.0382067	1.45569	0.0448072	
-0.121542	1.36546	0.0550701	
-0.192006	1.34038	0.0542804	
0.142436	1.70558	0.0319981	
0.127456	1.63351	0.0341056	
0.199412	1.65739	0.0231991	
0.278594	0.837679	0.00896604	
0.234307	0.792044	0.0172105	
0.222057	1.09876	0.0193641	
0.121079	1.30603	0.0181493	
0.310071	1.35315	0.0226117	
-0.245102	0.166399	0.0486626	
-0.0921364	0.169498	0.0541925	
0.203032	1.40455	0.00359292	
0.0375446	0.41495	0.0303953	
-0.0150193	0.474418	0.0366939	
-0.250071	1.05334	0.0485242	
-0.219818	0.984567	0.0527669	
-0.183252	1.13834	0.054611	
0.181979	0.452043	0.0260215	
0.113663	0.374434	0.019344	
0.311901	0.42015	0.022282	
0.190575	0.484457	0.00596432	
-0.335848	0	0.0378259	
-0.352485	0.0667918	0.034326	
-0.400235	0	0.021746	
-0.335848	2	0.0378259	
-0.233162	1.94291	0.0496465	
-0.194238	2	0.054896	
-0.373435	0.853126	0.0293104	
-0.400235	2	0.021746	
-0.438019	1.92333	0.0247364	
0.0755297	0.506745	0.0542191	
0.0574019	0.56183	0.042781	
0.0496382	0.636864	0.0436192	
0.118725	0.546278	0.0352936	
0.118003	0.617676	0.0353905	
-0.354439	0.078087	0.0402457	
-0.314523	1.56345	0.0446857	
-0.224266	1.62497	0.0509997	
-0.327522	1.57191	0.0394302	
-0.456615	0.153301	0.0198647	
-0.460854	0.252546	0.0186643	
-0.369764	0.211952	0.0131805	
-0.0137099	0.650538	0.0494893	
-0.0341914	0.718414	0.0387074	
0.0477075	0.798942	0.0438237	
-0.0193434	0.786413	0.0499249	
0.173365	0.678765	0.0436845	
0.10796	0.741319	0.0367173	
-0.519433	1.80752	-0.00254535	
-0.399531	1.74768	0.0219635	
-0.441705	1.83308	0.0238194	
0.0401279	1.20637	0.0446114	
0.253712	1.92648	-0.00663661	
0.309394	1.86025	-0.0189545	
-0.419214	0.344499	0.0154391	
-0.445125	0.410465	0.00511239	
-0.351374	0.282592	0.0406476	
-0.421201	0.338159	0.0286396	
-0.078053	0.251286	0.0427177	
0.00763757	0.217721	0.0590497	
-0.0709783	0.164212	0.0421283	
0.353296	0.230355	-0.0294711	
-0.202253	1.93673	0.0489813	
-0.387929	1.26103	0.0253949	
-0.451534	1.24459	0.00214946	
-0.372941	1.32491	0.0294371	
-0.514721	1.31978	-0.00042012	
-0.376809	0.804788	0.0369844	
-0.448629	0.759874	0.0220332	
-0.314689	0.714139	0.0417221	
0.0589816	0.206449	0.0426074	
0.145711	0.138218	0.0470659	
0.378652	1.72394	-0.0122905	
0.413651	1.78328	-0.0205917	
0.263448	1.79352	-0.00870889	
-0.0189155	1.03613	0.0498923	
-0.163209	1.05319	0.0479637	
-0.142803	0.992616	0.0552725	
-0.0615759	1.10914	0.0614481	
-0.386072	0.204267	0.035458	
-0.226413	0.22975	0.0523017	
0.00501523	0.863551	0.0479379	
0.0230744	0.938032	0.0462939	
-0.271626	1.76807	0.0426416	
-0.402832	1.69808	0.0324163	
-0.259871	1.73846	0.0492798	
-0.316842	0.425321	0.0413523	
-0.272891	0.500006	0.0477914	
-0.176419	0.456585	0.0548218	
-0.203935	0.51622	0.0537188	
0.301942	0.232607	0.00433201	
0.1279	1.33248	0.0340443	
0.0523563	1.52656	0.0433286	
0.0560762	1.55451	0.0279109	
-0.0200146	1.60907	0.0372334	
0.313763	0.903738	0.0219456	
0.245091	0.902651	-0.00483074	
-0.197826	0	0.0540226	
-0.12662	0	0.0551519	
-0.149208	0.051764	0.0552604	
-0.0582312	0	0.0525267	
-0.0794912	0.0537652	0.0536391	
0.0237475	1.3862	0.0462299	
0.0944641	1.3946	0.0384371	
0.0178887	1.26486	0.0467806	
0.0405775	1.21166	0.0569754	
0.0607603	1.32507	0.0424107	
-0.0102148	1.32038	0.0492117	
-0.350068	0.814456	0.0209416	
0.254172	1.88165	0.0136012	
-0.173643	0.594595	0.0548958	
-0.398414	1.38879	-0.00128797	
-0.419856	1.39048	0.0152095	
0.241685	0.75837	-0.0041246	
0.356251	0.821275	-0.00721426	
-0.452414	0.75743	0.00172632	
0.19392	1.60921	0.00533301	
0.265325	1.68446	0.0115113	
0.343127	1.75212	0.0164701	
0.138718	1.73879	0.0152255	
0.277866	1.59941	-0.0118409	
0.333967	1.66432	-0.00234671	
-0.303322	1.93182	0.045636	
-0.30699	1.87756	0.0429961	
-0.460654	0.146224	-0.00245047	
-0.395978	1.10891	0.000162551	
-0.39014	0.544978	0.00343107	
0.241854	1.32361	-0.00415953	
0.254877	0.0813768	0.0134704	
0.29228	0	0.00627378	
-0.277725	1.21454	0.041344	
-0.348595	1.14931	0.0351809	
-0.171482	1.87232	0.0549486	
0.351694	1.24379	-0.00620411	
0.389848	1.29411	-0.0148965	
0.285671	1.24385	0.00758236	
0.187678	1.16415	0.0251112	
0.17397	0.398041	-0.0110635	
0.35681	1.20048	-0.030344	
0.43869	1.11243	-0.026811	
0.252161	0.560548	0.013973	
0.187402	0.523541	0.0251557	
-0.312431	1.65544	0.0448727	
-0.109928	0.109422	0.0548049	
0.150541	1.86761	0.0464977	
0.0459671	1.9304	0.0440068	
-0.190334	0.741046	0.0553299	
-0.371459	0.676971	0.0298147	
0.369744	0.693471	0.0112354	
0.239595	0.726744	0.0162639	
0.172623	0.760134	0.0274891	
0.388111	0.61385	0.0275911	
0.526613	0.170423	-0.0248825	
-0.17221	1.15632	0.0571366	
-0.159542	1.09603	0.0582023	
-0.288183	1.1197	0.0458066	
0.384209	1.85832	0.00828269	
0.259815	1.8111	0.0125496	
-0.399853	1.45652	0.021864	
-0.360322	1.39372	0.0325333	
0.326866	1.94352	0.0195411	
0.223446	2	0.0191226	
-0.224072	0.79232	0.0524716	
-0.177724	0.850283	0.0566226	
-0.199632	0.718066	0.0539363	
0.350366	0.180772	-0.00591124	
-0.173977	1.51591	0.0548872	
-0.238066	1.59438	0.0488218	
-0.154874	1.48768	0.0585552	
-0.292814	1.50665	0.0451532	
0.517317	1.83632	-0.022487	
0.149819	1.53312	0.0133261	
0.363781	1.54488	0.0124305	
0.448699	1.71558	-0.0293634	
-0.490764	1.66217	0.00907296	
0.256579	0.358669	0.0131539	
0.313225	0.310734	0.00202155	
-0.230691	1.39867	0.0500319	
-0.332052	1.4537	0.0385691	
-0.31156	1.33896	0.0422487	
-0.105895	0.46147	0.0546877	
-0.0155184	0.394907	0.060189	
-0.0991706	0.433969	0.0443414	
-0.028733	1.42238	0.0607148	
-0.0464956	1.37641	0.0518174	
-0.358501	0.606335	0.0329585	
0.404987	0.879786	-0.0184944	
0.393633	0.752034	-0.0157881	
0.43687	0.815753	-0.0263511	
0.294307	1.38066	-0.015505	
-0.512544	1.52165	0.000528759	
-0.366384	1.51493	0.0310791	
-0.26306	1.08423	0.0443732	
0.436552	1.59815	-0.0262707	
-0.0554635	2	0.0613773	
0.192471	1.16076	0.00560703	
0.391202	1.18618	0.00682783	
0.113712	1.14984	0.0505872	
0.223664	1.23168	0.0190848	
0.377777	1.16237	-0.0120886	
0.0718814	1.68406	0.0411509	
-0.105117	0.333428	0.0629862	
0.436044	1.52552	-0.0261425	
0.389608	0.488947	-0.0148403	
0.263176	1.59304	0.0306353	
-0.39879	1.57917	0.0221912	
0.411517	1.65719	-0.0200726	
-0.30334	0.559694	0.0435745	
-0.341205	0.490232	0.0367428	
0.372652	0.956713	-0.0109127	
0.302001	0.989568	0.00432004	
0.0977979	1.75665	0.038019	
0.228788	1.77244	0.0359972	
0.389936	1.72615	0.00709243	
0.281891	0.310718	0.0275308	
0.334444	0.290342	0.0181219	
0.323406	1.29539	0.0201821	
-0.197826	2	0.0540226	
0.196526	0.482459	0.0406177	
-0.181635	1.30941	0.0562393	
-0.0361561	0.109198	0.0511376	
0.349064	1.03572	-0.00562451	
0.288032	1.07584	0.0071168	
0.29228	2	0.00627378	
-0.342301	0.633303	0.023673	
-0.380422	0.422033	0.0274714	
-0.193298	0.266461	0.0503239	
0.365659	0.262786	-0.00932371	
-0.100559	1.66446	0.0611686	
-0.0378525	1.54135	0.0610048	
0.407814	0.371856	-0.0191757	
0.446671	0.429791	-0.00534292	
0.0679891	1.56661	0.0548607	
0.053572	1.62234	0.0560159	
0.286312	1.2804	0.0442239	
0.439552	0.68957	-0.0270293	
0.526018	0.753859	-0.0247284	
-0.457859	0.285029	-0.000986978	
0.521934	1.26259	-0.0236728	
-0.530496	0	-0.00798104	
0.513975	1.39629	-0.0216339	
0.345493	1.45609	-0.0275496	
0.431509	0.308608	-0.0250034	
0.294861	0.682551	-0.01563	
0.442499	0.423502	-0.0277778	
-0.459339	2	-0.00175561	
0.0516903	0.980727	0.0561597	
0.2836	1.51237	-0.0131075	
0.331458	1.11653	-0.00180998	
-0.00587015	0.277428	0.0597472	
-0.113018	0.33864	0.0452936	
0.457193	1.08627	-0.00777877	
-0.102755	0.0993244	0.0611143	
-0.222007	0.0548078	0.0526171	
0.534803	1.55961	-0.00306759	
-0.459253	1.72118	-0.00171059	
-0.353167	1.94239	0.0198039	
-0.344992	1.87535	0.0227454	
0.399617	0.473525	0.00505357	
0.436124	0.331482	-0.00294213	
-0.287864	1.63205	0.0390631	
-0.385659	1.59521	0.00577225	
0.281979	1.47977	0.00830661	
-0.257864	0.160133	0.0494932	
-0.154842	0.114041	0.0585575	
0.29455	1.45658	0.0253572	
-0.250367	0.130179	0.0467536	
0.0737653	0.972536	0.0409324	
-0.431043	0.0752793	0.011011	
0.0546328	0.0509452	0.0559341	
0.0995863	1.00206	0.0520045	
0.275515	0.356044	0.0457583	
0.113876	0.0762643	0.0359405	
0.409548	1.44431	0.00292665	
-0.265394	0	0.0486706	
-0.325594	0.460204	0.00593399	
-0.0326284	0.946643	0.0673129	
0.42758	2	-0.0342818	
0.348594	2	-0.0257482	
0.18503	2	-0.0124847	
0.0990273	2	-0.00789547	
0.26803	2	-0.0184722	
-0.14844	2	-0.00985152	
-0.326594	2	-0.0159926	
-0.427354	2	-0.0306809	
-0.344021	2	-0.0186979	
-0.16629	2	-0.00474062	
-0.0589425	2	-0.0111554	
0.359592	-0.0721374	-0.0560289	
0.52325	-0.0524234	-0.0377395	
0.256126	-1.94219	-0.043819	
0.250664	-1.93265	-0.0479221	
0.210295	-2	-0.0491822	
0.391255	-0.0610541	-0.0447439	
0.247007	-0.0745946	-0.0480302	
0.105007	-0.063891	-0.0530776	
-0.498095	-1.2856	-0.043578	
-0.436369	-1.32684	-0.069876	
-0.498095	-1.35721	-0.043578	
-0.498095	-0.0721374	-0.043578	
-0.569251	-0.215036	-0.0498034	
-0.498095	-0.143615	-0.043578	
-0.446863	-0.177622	-0.0686104	
-0.426939	-0.286611	-0.0373526	
-0.447941	-0.326516	-0.0684582	
-0.569251	-0.358269	-0.0498034	
-0.448132	-0.255005	-0.0684307	
-0.498095	-0.714404	-0.043578	
-0.509822	-0.754353	-0.0758552	
-0.498095	-0.786116	-0.043578	
0.0646699	-2	-0.0547458	
0.0386891	-1.91632	-0.059108	
0.137356	-2	-0.0517995	
0.499971	-2	-0.0379963	
0.522145	-1.94543	-0.0377505	
0.501905	-2	-0.043578	
-0.449163	-1.39944	-0.06828	
-0.498095	-1.42879	-0.043578	
-0.355782	-2	-0.0311271	
-0.569251	-1.92786	-0.0498034	
-0.367402	-2	-0.0634162	
0.35584	-2	-0.0453617	
0.391691	-1.9425	-0.0447371	
-0.120037	-1.91894	-0.0658231	
-0.00771711	-2	-0.0578475	
-0.00934334	-2	-0.0546662	
-0.498095	-1.21388	-0.043578	
-0.436274	-1.25457	-0.0698858	
-0.569251	-1.78496	-0.0498034	
-0.311934	-1.82622	-0.0550177	
-0.498095	-1.85639	-0.043578	
0.307105	-0.824164	-0.046414	
0.384902	-0.840188	-0.0448457	
0.258856	-0.897364	-0.0521156	
0.359592	-1.07055	-0.0560289	
0.36527	-1.0996	-0.0503577	
0.299451	-0.999321	-0.0565235	
0.122592	-1.67801	-0.0523751	
0.0515158	-1.66711	-0.055303	
0.047812	-1.60664	-0.0587439	
0.239011	-0.446895	-0.0482708	
0.0757826	-0.354649	-0.0613783	
0.292831	-0.398171	-0.0467665	