<VTKFile type="UnstructuredGrid" version="0.1" byte_order="LittleEndian">
	<UnstructuredGrid>
		<Piece NumberOfPoints="1917" NumberOfCells="56">
			<CellData Scalars="scalars">
				<DataArray type="Float64" Name="Doublet Strengths" NumberOfComponents="1" Format="ascii">
-0.572933	
-2.25248	
-1.71904	
-2.22491	
-2.46103	
-2.63738	
-2.60551	
-2.55828	
-2.01497	
-1.68549	
-1.05706	
-3.16092	
-1.7289	
-2.94785	
-1.77135	
-1.75988	
-2.47238	
-2.34795	
-2.33112	
-1.99897	
-2.35946	
-2.60836	
-1.91113	
-2.51612	
-4.72225	
-2.28724	
-1.75572	
-1.68007	
-4.71998	
-1.65205	
-2.2051	
-2.4589	
-2.05446	
-1.49266	
-0.832862	
-3.10891	
-1.62093	
-2.0391	
-2.53096	
-1.55372	
-1.64523	
-2.12282	
-2.10086	
-1.99917	
-1.85089	
-2.06116	
-2.08306	
-2.01359	
-1.64782	
-1.78388	
-2.03021	
-0.49692	
-1.34845	
-1.58739	
-2.0454	
-1.06776	
				</DataArray>
				<DataArray type="Float64" Name="Velocity Potential" NumberOfComponents="1" Format="ascii">
-475.073	
-607.233	
-608.076	
-606.991	
-607.926	
-605.624	
-607.474	
-607.345	
-607.152	
-607.877	
-608.354	
-602.312	
-608.115	
-606.532	
-607.558	
-608.008	
-606.685	
-606.917	
-607.208	
-607.485	
-606.883	
-606.817	
-607.739	
-606.814	
-599.241	
-607.237	
-607.566	
-608.188	
-600.378	
-607.4	
-607.836	
-607.552	
-608.012	
-607.769	
-609.028	
-604.47	
-607.743	
-607.917	
-606.84	
-607.451	
-607.68	
-607.071	
-607.184	
-607.576	
-607.068	
-606.641	
-606.953	
-607.762	
-607.258	
-607.377	
-607.374	
-475.414	
-608.259	
-607.677	
-607.382	
-608.763	
				</DataArray>
			</CellData>
			<Points>
				<DataArray type="Float64" Name="Position" NumberOfComponents="3" Format="ascii">
-12.5217	0	-1.17725	
-10.5772	0.0524256	-1.00891	
-16.291	0	-1.51278	
-12.6677	2	-1.18005	
-12.6989	1.93467	-1.18092	
-14.6614	2	-1.3503	
-12.5946	0	-1.17839	
-12.5592	0.0610502	-1.17777	
-12.7035	0.0745738	-1.18106	
-12.6677	0	-1.18005	
-12.7402	0	-1.18221	
-12.8131	0	-1.18483	
-12.8858	0	-1.18777	
-12.8444	0.0639395	-1.18606	
-11.4797	1.39584	-1.03303	
-13.3866	1.3266	-1.20293	
-13.4486	1.35721	-1.17661	
-16.291	1.92786	-1.51278	
-10.578	1.94512	-1.00891	
-15.3698	0.0721374	-1.34469	
-13.3846	0.0533506	-1.20313	
-11.5273	0	-1.00852	
-15.3698	0.215036	-1.34469	
-17.2012	0.171582	-1.54106	
-11.5273	0.143615	-1.00852	
-11.5273	0.286611	-1.00852	
-15.3698	0.358269	-1.34469	
-13.3984	0.326064	-1.20149	
-13.3962	0.252841	-1.2018	
-13.4486	0.714404	-1.17661	
-13.4486	0.786116	-1.17661	
-15.3103	0.754574	-1.37075	
-12.8858	2	-1.18777	
-12.8131	2	-1.18483	
-16.6927	1.91204	-1.52247	
-12.901	1.66657	-1.18842	
-14.7523	1.60722	-1.35362	
-12.7117	0.446925	-1.18131	
-12.6588	0.397747	-1.17982	
-16.5754	0.354616	-1.51815	
-12.4486	2	-1.17661	
-13.4486	1.42879	-1.17661	
-9.60612	2	-0.840433	
-11.4678	2	-1.03458	
-15.3698	1.92786	-1.34469	
-12.5946	2	-1.17839	
-10.6004	2	-1.00916	
-12.5595	1.93956	-1.17778	
-11.0046	1.94176	-1.02139	
-16.8416	1.9167	-1.52879	
-12.9582	2	-1.19088	
-13.4486	1.21388	-1.17661	
-11.4757	1.19029	-1.03361	
-13.4486	1.14216	-1.17661	
-13.4486	1.2856	-1.17661	
-13.3869	1.25405	-1.2029	
-15.3698	1.78496	-1.34469	
-13.4486	1.85639	-1.17661	
-9.56223	1.82617	-0.86433	
-11.4684	0.114671	-1.03452	
-15.2965	1.46922	-1.37201	
-15.251	1.38862	-1.37366	
-12.6434	0.824164	-1.17944	
-14.5417	0.897364	-1.347	
-12.5656	0.840188	-1.17787	
-13.2912	1.46561	-1.20524	
-14.3698	1	-1.34469	
-16.3512	0.999321	-1.51327	
-16.291	1.07055	-1.51278	
-12.9099	1.60348	-1.1888	
-12.5411	0.356544	-1.1775	
-10.6842	0.353408	-1.01052	
-12.5855	0.427857	-1.17822	
-14.8023	1.82506	-1.35566	
-14.806	1.7382	-1.35582	
-11.0207	1.77788	-1.02209	
-12.9633	1.71777	-1.1911	
-13.0112	1.78088	-1.19312	
-14.9658	1.70728	-1.36254	
-15.0059	1.79378	-1.36421	
-12.8645	1.54291	-1.18689	
-12.8023	1.8351	-1.18441	
-15.1241	1.45384	-1.36998	
-13.1684	1.53294	-1.20019	
-13.1209	1.49429	-1.19783	
-15.0826	1.28284	-1.36793	
-16.9121	1.30815	-1.53164	
-13.0987	1.23305	-1.19677	
-17.0987	1.05577	-1.54038	
-13.2947	0.974397	-1.20531	
-11.4138	1.02275	-1.03744	
-13.0221	0.65903	-1.19356	
-14.9295	0.738857	-1.36108	
-12.9551	0.685529	-1.19074	
-14.9048	1.33866	-1.36005	
-14.9144	1.25226	-1.36046	
-16.291	1.42879	-1.51278	
-14.4549	1.46516	-1.34549	
-16.291	1.49933	-1.51278	
-12.536	0.918262	-1.17743	
-16.5567	0.881052	-1.51756	
-12.7992	0.891355	-1.1843	
-12.7856	0.954992	-1.18379	
-11.1262	0.867158	-1.02648	
-13.096	0.817822	-1.19664	
-15.0349	0.888323	-1.36556	
-14.5453	0.589259	-1.34708	
-14.6276	0.618435	-1.34923	
-14.5623	0.676586	-1.34747	
-13.247	0	-1.20385	
-13.3183	0	-1.20559	
-15.2304	0.0790961	-1.37362	
-12.9285	1.27156	-1.1896	
-12.9181	1.20368	-1.18915	
-12.9688	0.496767	-1.19133	
-13.0055	0.442032	-1.19288	
-14.9715	0.502871	-1.36276	
-15.0072	0.698424	-1.36427	
-12.8532	1.23016	-1.18642	
-12.8038	1.27217	-1.18447	
-14.6961	1.19537	-1.35149	
-10.9512	1.2898	-1.01913	
-11.1623	1.02577	-1.02799	
-15.0292	0.967174	-1.36529	
-13.1619	1.0342	-1.19987	
-16.7738	1.00672	-1.52589	
-12.9682	0.93866	-1.1913	
-13.0197	0.987296	-1.19347	
-14.7478	0.378981	-1.35344	
-12.8874	0.426844	-1.18784	
-14.7557	0.470462	-1.35375	
-15.2877	1.87857	-1.37259	
-15.2734	1.79633	-1.37322	
-13.2869	1.84585	-1.20514	
-13.0766	0.270573	-1.19577	
-11.1407	0.200611	-1.02706	
-15.0504	0.193571	-1.36632	
-14.9887	0.123897	-1.36346	
-13.0111	0.249496	-1.19311	
-13.002	0.173576	-1.19274	
-15.241	1.20923	-1.37368	
-13.2897	1.13932	-1.20521	
-13.3743	1.13751	-1.204	
-13.1269	0.531427	-1.19812	
-13.1278	0.463982	-1.19817	
-13.071	0.427199	-1.19553	
-13.1377	0.382421	-1.19865	
-11.4029	0.742778	-1.03751	
-15.2512	0.813881	-1.37366	
-14.9739	0.580015	-1.36286	
-13.1317	1.7199	-1.19836	
-15.0661	0.757182	-1.3671	
-11.2381	0.698895	-1.03165	
-13.2185	0.732194	-1.20263	
-13.1988	0.893597	-1.2017	
-13.1658	0.830458	-1.20007	
-15.1698	0.834567	-1.372	
-13.316	1.53139	-1.20558	
-13.2635	1.59044	-1.20446	
-13.2391	1.5207	-1.20353	
-14.7157	1.10613	-1.35221	
-12.7245	1.13654	-1.1817	
-15.2113	0.567577	-1.3733	
-15.2784	0.624293	-1.37304	
-13.2843	0.641057	-1.20508	
-13.2159	0.667946	-1.20251	
-13.2158	0.607392	-1.20251	
-15.129	0.97644	-1.37022	
-13.389	0	-1.20267	
-12.8816	1.40806	-1.1876	
-12.9143	1.34451	-1.18898	
-12.9478	1.41675	-1.19043	
-12.9087	1.48085	-1.18875	
-14.9352	1.43176	-1.36132	
-12.9734	1.49613	-1.19153	
-13.0394	0.925911	-1.19425	
-13.2064	1.74077	-1.20207	
-17.0496	1.66215	-1.53828	
-11.3503	1.70694	-1.03663	
-16.291	1.71339	-1.51278	
-16.3615	1.77904	-1.51339	
-16.291	1.78496	-1.51278	
-13.247	2	-1.20385	
-15.2108	1.92525	-1.37329	
-13.3183	2	-1.20559	
-13.0794	0.350099	-1.19589	
-13.0157	0.315549	-1.1933	
-12.7755	1.02327	-1.18343	
-14.7663	1.02942	-1.35418	
-12.7706	0.0746863	-1.18325	
-12.8053	0.130322	-1.18453	
-14.6523	0.159825	-1.35	
-14.6647	0.255296	-1.35041	
-10.8654	0.198868	-1.01574	
-12.8487	0.185075	-1.18624	
-14.6175	0.53229	-1.34893	
-20.1335	0.358269	-1.84895	
-14.3698	0.286611	-1.34469	
-12.5108	0.283499	-1.17712	
-16.291	0.143615	-1.51278	
-14.4476	0.19815	-1.34539	
-16.291	0.215036	-1.51278	
-16.4358	0.268711	-1.51454	
-14.8794	0	-1.35896	
-11.1097	0	-1.02583	
-13.0378	0.0522709	-1.19419	
-9.49843	0.233077	-0.869257	
-15.2482	0.293965	-1.37368	
-14.9618	1.52249	-1.36239	
-13.0391	1.6164	-1.19424	
-12.9795	1.57352	-1.19179	
-12.975	1.65009	-1.1916	
-13.3366	1.59898	-1.2055	
-13.1755	0	-1.20055	
-13.1209	0.0589648	-1.19783	
-13.1029	0	-1.19696	
-12.621	1.47391	-1.17893	
-14.6249	1.46129	-1.34915	
-14.6024	1.53681	-1.34851	
-15.0635	0.286849	-1.36697	
-12.762	0.724627	-1.18295	
-10.851	0.784216	-1.01522	
-14.632	0.788387	-1.34936	
-15.198	0.223399	-1.37297	
-11.3415	1.34531	-1.03635	
-11.3368	1.40661	-1.03618	
-15.1172	1.36487	-1.36965	
-13.2308	1.29047	-1.20318	
-11.3231	0.414541	-1.03566	
-13.1916	0.434011	-1.20135	
-15.122	0.349215	-1.36988	
-13.3072	0.422964	-1.20551	
-15.1788	0.489015	-1.37234	
-13.3295	0.488653	-1.20557	
-9.20663	1.24582	-0.858455	
-13.035	1.18695	-1.19408	
-11.283	1.58611	-1.03387	
-10.8545	0.42229	-1.01535	
-10.8767	0.312816	-1.01616	
-14.7996	0.310713	-1.35555	
-12.8278	0.255176	-1.1854	
-12.8936	0.23291	-1.1881	
-17.067	1.20734	-1.53908	
-13.0941	1.1572	-1.19655	
-13.1633	1.15129	-1.19994	
-11.2308	1.2101	-1.03129	
-15.0246	1.08885	-1.36507	
-12.7067	1.61914	-1.18116	
-12.7256	1.69424	-1.18174	
-14.5682	1.67616	-1.34762	
-12.7744	1.64844	-1.18339	
-12.8028	1.72086	-1.18444	
-13.1479	0.644913	-1.19916	
-11.295	1.94629	-1.03444	
-15.0655	1.93331	-1.36707	
-13.2177	1.88539	-1.20259	
-14.5505	0.0804625	-1.3472	
-10.6484	0.127785	-1.00985	
-10.6597	1.88257	-1.01005	
-14.5536	1.92762	-1.34727	
-12.6682	0.21589	-1.18007	
-11.2876	0.273142	-1.0341	
-13.202	0.209198	-1.20185	
-11.2763	0.143339	-1.03355	
-13.2681	0.145092	-1.20461	
-11.2238	0.115792	-1.03094	
-13.1448	1.85807	-1.19901	
-13.0791	1.88373	-1.19588	
-11.1481	1.94611	-1.02737	
-11.1097	2	-1.02583	
-13.1029	2	-1.19696	
-11.478	0.682902	-1.03328	
-15.3698	0.64279	-1.34469	
-11.0046	1.88295	-1.02139	
-12.8037	1.53147	-1.18447	
-12.7813	1.46174	-1.18364	
-12.8458	1.47178	-1.18612	
-13.3482	1.08229	-1.20526	
-10.7357	0.329519	-1.01169	
-14.4323	0.43708	-1.34521	
-14.3698	0.429861	-1.34469	
-10.9175	1.67699	-1.01775	
-12.7564	1.57544	-1.18276	
-11.2309	1.60691	-1.03129	
-13.1104	1.65508	-1.19732	
-13.2114	1.81461	-1.2023	
-11.2294	1.78507	-1.03122	
-10.7345	0.749751	-1.01166	
-12.7056	0.701087	-1.18112	
-14.5068	0.758919	-1.34631	
-13.4486	0.429861	-1.17661	
-15.3037	0.409639	-1.37142	
-13.2796	1.77163	-1.20496	
-15.2704	1.71936	-1.37332	
-14.5635	1.1716	-1.3475	
-12.6751	1.09553	-1.18025	
-14.6691	1.76477	-1.35055	
-10.9038	1.7791	-1.01721	
-12.9486	0.277236	-1.19046	
-14.845	0.151691	-1.35748	
-11.1091	1.84554	-1.02581	
-12.9641	1.83711	-1.19113	
-12.8446	1.33945	-1.18607	
-12.8156	1.40104	-1.18492	
-11.3366	0.297567	-1.03618	
-13.2772	0.357474	-1.20489	
-11.1528	0.760525	-1.02757	
-13.0244	0.810302	-1.19365	
-12.9324	0.749841	-1.18976	
-12.8674	0.751361	-1.187	
-12.8896	0.686344	-1.18794	
-12.959	0.810027	-1.19091	
-12.8937	0.81571	-1.18811	
-18.2122	1.64173	-1.68087	
-12.5142	1.65788	-1.17716	
-15.3698	1	-1.34469	
-15.3698	1.07055	-1.34469	
-11.4787	1.0308	-1.03318	
-10.5921	1.5272	-1.00907	
-16.291	1.57014	-1.51278	
-10.9478	0.121062	-1.01898	
-12.9156	0.068568	-1.18904	
-12.9831	0.0968802	-1.19194	
-16.291	1.85639	-1.51278	
-14.4365	1.8723	-1.34526	
-16.291	0.0721374	-1.51278	
-12.5088	0.116381	-1.1771	
-13.0148	0.378957	-1.19327	
-16.291	1.2856	-1.51278	
-12.5143	1.33655	-1.17716	
-16.291	1.35721	-1.51278	
-10.9823	1.07097	-1.02044	
-12.91	1.13809	-1.1888	
-10.9349	1.10545	-1.01845	
-12.9631	1.08867	-1.19109	
-12.9243	0.876824	-1.18942	
-12.8627	0.882801	-1.18681	
-14.7501	0.819303	-1.35353	
-13.0823	1.38959	-1.19602	
-11.1546	1.45442	-1.02765	
-13.1411	1.41914	-1.19882	
-11.0311	0.213959	-1.02254	
-12.9103	0.621411	-1.18882	
-12.8725	0.549577	-1.18722	
-12.9339	0.556476	-1.18983	
-12.9016	0.491713	-1.18844	
-15.1357	0.0712931	-1.37053	
-12.8423	1.1672	-1.18598	
-13.0978	1.57159	-1.19672	
-12.6421	0.47164	-1.17941	
-11.4747	0.476615	-1.03375	
-15.2923	0.546631	-1.37231	
-14.3698	0.500665	-1.34469	
-12.5085	0.802839	-1.1771	
-10.6626	0.646217	-1.0101	
-10.6404	0.69766	-1.00972	
-12.5617	1.17495	-1.17781	
-14.4353	1.0996	-1.34525	
-14.5197	1.1007	-1.34655	
-14.6279	1.32398	-1.34924	
-10.7168	1.29855	-1.01123	
-12.6679	1.24767	-1.18006	
-12.8505	0.61668	-1.18631	
-12.8134	0.546139	-1.18484	
-10.8335	0.561624	-1.01461	
-12.7666	0.491616	-1.18311	
-10.7232	1.0418	-1.01138	
-12.7051	1.02609	-1.18111	
-14.5672	0.976287	-1.34759	
-12.7222	0.965074	-1.18163	
-12.8546	0.954567	-1.18648	
-12.5822	1.62515	-1.17816	
-10.7223	1.59965	-1.01136	
-11.4205	0.360303	-1.03733	
-12.5187	1.5889	-1.17721	
-12.7763	1.33334	-1.18346	
-12.75	1.39903	-1.18254	
-12.7375	1.2624	-1.18212	
-14.7463	0.683934	-1.35338	
-13.3803	0.967445	-1.20352	
-17.2046	0.89983	-1.5409	
-13.2669	0.914042	-1.20457	
-13.0167	1.0505	-1.19334	
-11.3055	1.13415	-1.03492	
-11.2619	1.09375	-1.03285	
-11.0036	1.5431	-1.02135	
-13.2748	0.770923	-1.20482	
-11.2877	0.785107	-1.0341	
-11.2104	1.34839	-1.03027	
-15.2367	1.29694	-1.37367	
-13.2983	1.65281	-1.20538	
-14.4414	1.25411	-1.34532	
-12.5784	1.32162	-1.17809	
-11.1636	0.633745	-1.02805	
-13.1389	0.587288	-1.19872	
-13.3396	0.6882	-1.20545	
-12.9855	0.873522	-1.19204	
-9.19325	1.36753	-0.857934	
-13.1755	2	-1.20055	
-10.7859	1.1987	-1.01308	
-12.9519	0.394274	-1.1906	
-12.9512	0.336713	-1.19058	
-13.2733	0.702848	-1.20478	
-13.4486	0.929454	-1.17661	
-13.4486	0.857842	-1.17661	
-11.4427	1.94387	-1.03655	
-12.9732	1.16572	-1.19152	
-13.0299	1.11814	-1.19388	
-14.5877	1.79696	-1.34811	
-10.7535	1.73661	-1.01216	
-10.9747	0.370041	-1.02011	
-11.023	0.446178	-1.02219	
-10.9871	0.936014	-1.02065	
-8.70775	1.0523	-0.841461	
-12.5882	1.01699	-1.17827	
-13.4486	1.49933	-1.17661	
-14.453	0.586375	-1.34546	
-14.4895	0.509874	-1.346	
-13.387	1.54624	-1.20289	
-10.8411	0.664255	-1.01487	
-10.8922	0.750955	-1.01675	
-10.8443	0.837223	-1.01499	
-16.291	1.21388	-1.51278	
-10.5786	1.17543	-1.00892	
-16.291	0.929454	-1.51278	
-10.5795	0.873321	-1.00893	
-18.2122	0.857842	-1.68087	
-12.5051	0.725606	-1.17706	
-16.291	0.786116	-1.51278	
-16.291	0.714404	-1.51278	
-12.5211	0.653203	-1.17724	
-16.291	0.64279	-1.51278	
-18.2122	0.571209	-1.68087	
-16.291	1.14216	-1.51278	
-10.6586	0.957788	-1.01003	
-8.83291	0.930031	-0.844086	
-12.7894	0.613315	-1.18393	
-11.4833	1.6049	-1.03244	
-11.073	0.552048	-1.02432	
-12.9738	0.616488	-1.19154	
-14.5119	1.54065	-1.3464	
-12.6076	0.177963	-1.17865	
-12.5943	1.24487	-1.17838	
-14.5016	1.39957	-1.34621	
-10.7481	0.139289	-1.01201	
-12.5716	1.69928	-1.17797	
-12.6046	1.75272	-1.17859	
-12.6431	1.35868	-1.17943	
-10.7746	1.39206	-1.01275	
-10.7281	1.42097	-1.0115	
-12.5821	1.81911	-1.17816	
-13.3819	1.6612	-1.20338	
-13.4486	1.71339	-1.17661	
-11.2672	0.496577	-1.03311	
-13.2122	0.549039	-1.20234	
-10.7104	1.85508	-1.01108	
-10.5812	0.520218	-1.00895	
-8.78921	0.528047	-0.842995	
-13.4486	1.57014	-1.17661	
-15.3698	0.500665	-1.34469	
-9.31375	0.932053	-0.863409	
-10.8196	1.07414	-1.01415	
-10.8231	1.51028	-1.01426	
-15.3698	1.64173	-1.34469	
-10.7594	0.282674	-1.01232	
-13.4486	0.571209	-1.17661	
-9.56153	0.59575	-0.864449	
-8.67164	1.71321	-0.840988	
-14.6836	1.88726	-1.35105	
-11.4711	0.827624	-1.0342	
-10.8098	1.82622	-1.01383	
-10.5903	1.40032	-1.00905	
-12.6866	1.87065	-1.18057	
-9.45897	0.866054	-0.869258	
-9.42614	1.24863	-0.868456	
-10.8685	1.94589	-1.01586	
-9.55908	1.75284	-0.864847	
-8.90546	1.94185	-0.846295	
-13.4123	0.611259	-1.13611	
-15.3134	0.691022	-1.29452	
-11.4881	0.951279	-0.966421	
-15.3196	0.885946	-1.29727	
-12.9371	0	-1.08583	
-12.8687	0	-1.09304	
-14.8292	0.0792566	-1.25675	
-16.3611	0	-1.49429	
-10.6351	0.0639973	-0.98084	
-12.5881	0	-1.14162	
-12.5017	0.0936441	-1.16241	
-12.7976	0	-1.10255	
-12.727	0	-1.11391	
-12.7701	0.0798839	-1.10675	
-11.499	0.821071	-0.972586	
-13.4111	1.45488	-1.13547	
-13.4142	1.89867	-1.13714	
-11.0159	2	-0.917748	
-13.0087	2	-1.0805	
-14.9077	1.91895	-1.24998	
-10.6386	1.93754	-0.980029	
-12.5068	1.90585	-1.1611	
-12.5186	2	-1.15812	
-12.5881	2	-1.14162	
-12.8687	2	-1.09304	
-12.833	1.92228	-1.09756	
-12.7976	2	-1.10255	
-13.0453	1.85759	-1.07873	
-14.8921	1.82278	-1.25111	
-14.6869	0.600657	-1.27553	
-12.7106	0.663037	-1.11681	
-14.6992	0.68441	-1.2736	
-12.5034	0.939959	-1.16198	
-12.5124	1.33496	-1.15967	
-14.8775	1.68417	-1.25226	
-11.0651	1.74973	-0.913825	
-16.8952	1.71007	-1.41463	
-12.7632	1.02684	-1.10786	
-14.6948	0.943151	-1.27429	
-12.708	0.965528	-1.11729	
-12.5389	0.553448	-1.15312	
-12.4959	0.495631	-1.1639	
-13.1983	1.36962	-1.08253	
-16.9725	1.42353	-1.41447	
-13.2089	1.43872	-1.08359	
-15.2358	1.02505	-1.26948	
-13.2484	0.965827	-1.08863	
-15.1428	1.04082	-1.25311	
-15.0817	1.21008	-1.24773	
-17.0917	1.26463	-1.42492	
-13.2432	1.19252	-1.08786	
-12.752	1.8275	-1.10968	
-14.6855	1.91186	-1.27576	
-14.7406	1.83465	-1.26751	
-14.8043	1.04863	-1.25945	
-12.8225	1.0111	-1.09899	
-14.7272	1.09426	-1.26941	
-10.9537	1.10778	-0.924214	
-14.8771	1.09436	-1.2523	
-12.9918	0.92332	-1.08155	
-13.03	0.983948	-1.07939	
-16.9153	0.912712	-1.41412	
-11.0955	1.65028	-0.911967	
-11.1493	1.64109	-0.909899	
-14.9441	1.58611	-1.24782	
-12.5188	0.621253	-1.15807	
-10.664	0.607584	-0.974164	
-14.5462	0.544593	-1.30165	
-14.5669	0.626188	-1.29736	
-14.8021	0.883867	-1.25969	
-12.8399	0.814004	-1.09666	
-12.8155	0.883506	-1.09996	
-10.9129	0.94284	-0.929328	
-10.8598	0.823889	-0.936959	
-12.7464	0.86549	-1.1106	
-13.1918	0.577518	-1.08194	
-15.1105	0.659851	-1.2498	
-13.2535	0.634606	-1.08941	
-14.5416	0.0913029	-1.30263	
-12.5492	0.141129	-1.15063	
-12.9753	1.15841	-1.08269	
-16.9046	1.18235	-1.41435	
-11.1046	1.11752	-0.911503	
-15.2545	0.938839	-1.27428	
-11.4619	0.99711	-0.954559	
-13.0085	0.516229	-1.08051	
-14.9581	0.597248	-1.24716	
-13.0829	0.53029	-1.07781	
-14.7799	1.25683	-1.26235	
-14.7598	1.17353	-1.26491	
-12.7901	1.22905	-1.10366	
-15.2755	1.10599	-1.28048	
-13.3981	1.05145	-1.12907	
-13.355	1.1866	-1.11262	
-13.408	1.17077	-1.13385	
-16.6178	1.39834	-1.4421	
-10.8585	1.4857	-0.937159	
-12.8399	1.4682	-1.09665	
-15.094	0.907417	-1.24852	
-13.1198	0.841878	-1.07803	
-17.2119	0.492781	-1.45367	
-11.3916	0.543817	-0.932884	
-13.3617	0.570722	-1.11483	
-13.1398	1.72433	-1.07864	
-13.0957	1.78876	-1.07776	
-13.0101	0.853718	-1.08042	
-12.923	0.389993	-1.08715	
-11.0092	0.316743	-0.918359	
-12.8688	0.343184	-1.09302	
-13.0434	0.780432	-1.0788	
-11.1412	0.84375	-0.910083	
-13.1135	0.770799	-1.07791	
-12.9586	0.577671	-1.08398	
-14.4444	1.02428	-1.32507	
-14.6464	0.237428	-1.28231	
-12.741	0.153222	-1.1115	
-12.6734	0.163431	-1.12376	
-14.7375	0.159631	-1.26795	
-13.1629	1.80219	-1.07979	
-11.2716	1.86234	-0.913943	
-13.2418	1.80354	-1.08767	
-13.071	0.329138	-1.07798	
-15.0669	0.30982	-1.24697	
-15.0148	0.244444	-1.24584	
-13.1031	0.391669	-1.07779	
-10.7814	1.03303	-0.950176	
-13.0714	0.717798	-1.07797	
-12.9898	0.718603	-1.08168	
-11.1065	0.665477	-0.91141	
-13.1028	0.658642	-1.07779	
-11.0077	1.87015	-0.918506	
-12.8932	1.80864	-1.09023	
-11.1127	1.78424	-0.91112	
-12.9208	1.74797	-1.08737	
-13.1683	0.386445	-1.08013	
-13.1983	0.441074	-1.08253	
-13.2377	0.365688	-1.08708	
-13.0096	1.25637	-1.08045	
-13.0844	1.24657	-1.07779	
-13.0324	1.3122	-1.07928	
-11.1767	1.30199	-0.909674	
-13.1579	1.27096	-1.0795	
-12.8835	0.276367	-1.09131	
-16.6447	0.292881	-1.43804	
-10.9164	0.234809	-0.928865	
-10.8605	0.216682	-0.936857	
-13.2602	0.891352	-1.09047	
-13.0595	1.48059	-1.07825	
-12.9836	1.4429	-1.0821	
-14.9032	1.51083	-1.2503	
-12.9123	1.45569	-1.08822	
-13.072	1.36546	-1.07796	
-13.1425	1.34038	-1.07875	
-12.808	1.70558	-1.10103	
-12.823	1.63351	-1.09892	
-12.7511	1.65739	-1.10983	
-12.6719	0.837679	-1.12406	
-12.7162	0.792044	-1.11582	
-12.7284	1.09876	-1.11366	
-14.6795	1.30603	-1.27674	
-10.7903	1.35315	-0.948555	
-15.0456	0.166399	-1.24623	
-13.0426	0.169498	-1.07884	
-14.5975	1.40455	-1.2913	
-14.763	0.41495	-1.26449	
-14.8156	0.474418	-1.2582	
-15.0506	1.05334	-1.24636	
-13.1703	0.984567	-1.08026	
-13.1337	1.13834	-1.07842	
-12.7685	0.452043	-1.10701	
-14.6869	0.374434	-1.27555	
-10.7885	0.42015	-0.948885	
-14.61	0.484457	-1.28892	
-13.2863	0	-1.0952	
-13.303	0.0667918	-1.0987	
-13.3507	0	-1.11128	
-13.2863	2	-1.0952	
-11.3336	1.94291	-0.92152	
-11.2946	2	-0.916271	
-13.3239	0.853126	-1.10372	
-13.3507	2	-1.11128	
-15.2386	1.92333	-1.27015	
-11.0249	0.506745	-0.916948	
-12.8931	0.56183	-1.09025	
-12.9008	0.636864	-1.08941	
-12.8317	0.546278	-1.09773	
-12.8325	0.617676	-1.09764	
-15.155	0.078087	-1.25464	
-15.1151	1.56345	-1.2502	
-11.3247	1.62497	-0.920167	
-13.278	1.57191	-1.0936	
-15.2572	0.153301	-1.27502	
-15.2614	0.252546	-1.27622	
-11.4702	0.211952	-0.957986	
-12.9642	0.650538	-1.08354	
-14.8347	0.718414	-1.25618	
-12.9028	0.798942	-1.0892	
-12.9698	0.786413	-1.0831	
-10.927	0.678765	-0.927482	
-12.8425	0.741319	-1.09631	
-15.32	1.80752	-1.29743	
-13.35	1.74768	-1.11106	
-15.2422	1.83308	-1.27107	
-12.9103	1.20637	-1.08842	
-14.5468	1.92648	-1.30153	
-14.4911	1.86025	-1.31384	
-13.3697	0.344499	-1.11759	
-13.3956	0.410465	-1.12792	
-15.1519	0.282592	-1.25424	
-15.2217	0.338159	-1.26625	
-14.8786	0.251286	-1.25217	
-11.0928	0.217721	-0.912117	
-14.8715	0.164212	-1.25276	
-14.4472	0.230355	-1.32436	
-15.0028	1.93673	-1.24591	
-13.3384	1.26103	-1.10763	
-13.402	1.24459	-1.13088	
-13.3234	1.32491	-1.10359	
-15.3153	1.31978	-1.29531	
-15.1773	0.804788	-1.2579	
-15.2492	0.759874	-1.27286	
-13.2652	0.714139	-1.09131	
-12.8915	0.206449	-1.09042	
-10.9547	0.138218	-0.924101	
-12.5718	1.72394	-1.14532	
-12.5368	1.78328	-1.15362	
-14.5371	1.79352	-1.3036	
-12.9694	1.03613	-1.08314	
-14.9637	1.05319	-1.24693	
-13.0933	0.992616	-1.07776	
-11.162	1.10914	-0.909719	
-15.1866	0.204267	-1.25943	
-13.1769	0.22975	-1.08073	
-12.9455	0.863551	-1.08509	
-12.9274	0.938032	-1.08673	
-11.372	1.76807	-0.928525	
-15.2034	1.69808	-1.26247	
-13.2103	1.73846	-1.08375	
-13.2673	0.425321	-1.09168	
-13.2234	0.500006	-1.08524	
-13.1269	0.456585	-1.07821	
-13.1544	0.51622	-1.07931	
-12.6485	0.232607	-1.1287	
-12.8226	1.33248	-1.09898	
-12.8981	1.52656	-1.0897	
-14.7445	1.55451	-1.26698	
-14.8206	1.60907	-1.25766	
-10.7866	0.903738	-0.949221	
-14.5554	0.902651	-1.29972	
-13.1483	0	-1.07901	
-13.0771	0	-1.07788	
-13.0997	0.051764	-1.07777	
-13.0087	0	-1.0805	
-13.03	0.0537652	-1.07939	
-12.9267	1.3862	-1.0868	
-12.856	1.3946	-1.09459	
-12.9326	1.26486	-1.08625	
-11.0598	1.21166	-0.914191	
-12.8897	1.32507	-1.09062	
-12.9607	1.32038	-1.08382	
-11.4505	0.814456	-0.950225	
-12.6963	1.88165	-1.11943	
-13.1241	0.594595	-1.07813	
-11.4988	1.38879	-0.972455	
-13.3703	1.39048	-1.11782	
-14.5589	0.75837	-1.29901	
-12.5942	0.821275	-1.14024	
-13.4029	0.75743	-1.1313	
-14.6066	1.60921	-1.28956	
-12.6851	1.68446	-1.12152	
-10.7573	1.75212	-0.954697	
-14.6618	1.73879	-1.27966	
-14.5227	1.59941	-1.30673	
-12.6165	1.66432	-1.13537	
-15.1039	1.93182	-1.24925	
-13.2575	1.87756	-1.09003	
-13.4111	0.146224	-1.13548	
-11.4964	1.10891	-0.971004	
-11.4905	0.544978	-0.967736	
-14.5587	1.32361	-1.29905	
-12.6956	0.0813768	-1.11956	
-12.6582	0	-1.12675	
-11.3781	1.21454	-0.929823	
-13.2991	1.14931	-1.09785	
-13.122	1.87232	-1.07808	
-12.5988	1.24379	-1.13923	
-12.5606	1.29411	-1.14792	
-12.6648	1.24385	-1.12545	
-12.7628	1.16415	-1.10792	
-16.4766	0.398041	-1.46781	
-14.4437	1.20048	-1.32523	
-12.5118	1.11243	-1.15984	
-12.6983	0.560548	-1.11905	
-12.7631	0.523541	-1.10787	
-15.113	1.65544	-1.25002	
-13.0604	0.109422	-1.07822	
-10.9499	1.86761	-0.924669	
-12.9045	1.9304	-1.08902	
-11.2907	0.741046	-0.915837	
-13.3219	0.676971	-1.10321	
-10.7307	0.693471	-0.959931	
-12.7109	0.726744	-1.11676	
-12.7778	0.760134	-1.10554	
-8.86222	0.61385	-0.781715	
-10.5738	0.170423	-0.996049	
-11.2726	1.15632	-0.91403	
-11.2599	1.09603	-0.912965	
-13.2387	1.1197	-1.08722	
-10.7162	1.85832	-0.962884	
-12.6907	1.8111	-1.12048	
-13.3503	1.45652	-1.11116	
-13.3108	1.39372	-1.10049	
-10.7735	1.94352	-0.951626	
-12.727	2	-1.11391	
-13.1745	0.79232	-1.08056	
-11.2781	0.850283	-0.914544	
-13.1501	0.718066	-1.07909	
-12.6001	0.180772	-1.13894	
-13.1244	1.51591	-1.07814	
-15.0386	1.59438	-1.24607	
-11.2553	1.48768	-0.912612	
-13.2433	1.50665	-1.08787	
-10.5831	1.83632	-0.993654	
-14.6507	1.53312	-1.28156	
-10.7366	1.54488	-0.958736	
-12.5018	1.71558	-1.16239	
-15.2913	1.66217	-1.28582	
-12.6939	0.358669	-1.11987	
-12.6372	0.310734	-1.13101	
-11.3311	1.39867	-0.921135	
-13.2825	1.4537	-1.09446	
-13.262	1.33896	-1.09078	
-13.0564	0.46147	-1.07834	
-11.1159	0.394907	-0.910978	
-14.8997	0.433969	-1.25055	
-11.1291	1.42238	-0.910452	
-12.997	1.37641	-1.08121	
-13.309	0.606335	-1.10007	
-12.5455	0.879786	-1.15152	
-12.5568	0.752034	-1.14882	
-12.5136	0.815753	-1.15938	
-14.5062	1.38066	-1.31039	
-15.3131	1.52165	-1.29436	
-13.3169	1.51493	-1.10195	
-11.3635	1.08423	-0.926794	
-12.5139	1.59815	-1.1593	
-11.1559	2	-0.90979	
-14.6081	1.16076	-1.28928	
-10.7092	1.18618	-0.964339	
-10.9867	1.14984	-0.92058	
-12.7268	1.23168	-1.11394	
-12.5727	1.16237	-1.14512	
-12.8786	1.68406	-1.09188	
-9.35545	0.333428	-0.74632	
-12.5144	1.52552	-1.15917	
-12.5609	0.488947	-1.14787	
-10.8372	1.59304	-0.940532	
-13.3493	1.57917	-1.11084	
-12.539	1.65719	-1.1531	
-13.2538	0.559694	-1.08945	
-13.2917	0.490232	-1.09629	
-12.5778	0.956713	-1.14394	
-12.6485	0.989568	-1.12871	
-12.8527	1.75665	-1.09501	
-10.8716	1.77244	-0.93517	
-10.7105	1.72615	-0.964074	
-10.8185	0.310718	-0.943636	
-10.766	0.290342	-0.953045	
-10.777	1.29539	-0.950985	
-13.1483	2	-1.07901	
-10.9039	0.482459	-0.930549	
-11.282	1.30941	-0.914928	
-12.9866	0.109198	-1.08189	
-12.6014	1.03572	-1.13865	
-12.6624	1.07584	-1.12591	
-12.6582	2	-1.12675	
-11.4427	0.633303	-0.947494	
-13.3309	0.422033	-1.10556	
-9.44363	0.266461	-0.758982	
-12.5848	0.262786	-1.14235	
-11.201	1.66446	-0.909998	
-11.1383	1.54135	-0.910162	
-12.5427	0.371856	-1.1522	
-10.6537	0.429791	-0.97651	
-11.0324	1.56661	-0.916306	
-11.0468	1.62234	-0.915151	
-8.96402	1.2804	-0.765082	
-12.5109	0.68957	-1.16006	
-10.5744	0.753859	-0.995895	
-13.4083	0.285029	-1.13401	
-10.5785	1.26259	-0.99484	
-15.331	0	-1.30287	
-10.5864	1.39629	-0.992801	
-14.455	1.45609	-1.32244	
-12.519	0.308608	-1.15803	
-14.5057	0.682551	-1.31052	
-12.508	0.423502	-1.16081	
-13.4098	2	-1.13478	
-11.0487	0.980727	-0.915007	
-14.5169	1.51237	-1.308	
-12.619	1.11653	-1.13484	
-11.1063	0.277428	-0.91142	
-14.9136	0.33864	-1.2496	
-10.6432	1.08627	-0.978946	
-11.2032	0.0993244	-0.910053	
-13.1725	0.0548078	-1.08041	
-8.71553	1.55961	-0.812373	
-13.4097	1.72118	-1.13474	
-11.4536	1.94239	-0.951363	
-11.4454	1.87535	-0.948421	
-10.7008	0.473525	-0.966113	
-10.6643	0.331482	-0.974109	
-11.3883	1.63205	-0.932104	
-11.4861	1.59521	-0.965395	
-12.6685	1.47977	-1.12472	
-13.2083	0.160133	-1.08353	
-11.2552	0.114041	-0.912609	
-10.8059	1.45658	-0.94581	
-11.3508	0.130179	-0.924413	
-12.8767	0.972536	-1.0921	
-13.3815	0.0752793	-1.12202	
-11.0458	0.0509452	-0.915233	
-11.0008	1.00206	-0.919162	
-8.97482	0.356044	-0.763547	
-12.8366	0.0762643	-1.09709	
-10.6909	1.44431	-0.96824	
-13.2159	0	-1.08436	
-9.57593	0.460204	-0.803372	
-9.28296	0.946643	-0.741993	
-12.5229	2	-1.16731	
-12.6019	2	-1.15878	
-12.7654	2	-1.14551	
-12.8514	2	-1.14092	
-12.6824	2	-1.1515	
-14.949	2	-1.30474	
-15.1271	2	-1.31088	
-13.3778	2	-1.16371	
-13.2945	2	-1.15173	
-13.1168	2	-1.13777	
-14.8595	2	-1.30604	
-16.291	-0.0721374	-1.51278	
-10.5772	-0.0524234	-1.00891	
-10.8443	-1.94219	-1.01499	
-12.6998	-1.93265	-1.18095	
-12.7402	-2	-1.18221	
-12.5592	-0.0610541	-1.17777	
-12.7035	-0.0745946	-1.18106	
-12.8455	-0.063891	-1.18611	
-13.4486	-1.2856	-1.17661	
-13.3868	-1.32684	-1.2029	
-13.4486	-1.35721	-1.17661	
-13.4486	-0.0721374	-1.17661	
-15.3698	-0.215036	-1.34469	
-13.4486	-0.143615	-1.17661	
-13.3973	-0.177622	-1.20164	
-11.5273	-0.286611	-1.00852	
-13.3984	-0.326516	-1.20149	
-15.3698	-0.358269	-1.34469	
-13.3986	-0.255005	-1.20146	
-13.4486	-0.714404	-1.17661	
-15.3104	-0.754353	-1.37074	
-13.4486	-0.786116	-1.17661	
-12.8858	-2	-1.18777	
-14.7618	-1.91632	-1.354	
-12.8131	-2	-1.18483	
-10.6004	-2	-1.00916	
-10.5783	-1.94543	-1.00892	
-12.4486	-2	-1.17661	
-13.3996	-1.39944	-1.20131	
-13.4486	-1.42879	-1.17661	
-9.60612	-2	-0.840433	
-15.3698	-1.92786	-1.34469	
-11.4678	-2	-1.03458	
-12.5946	-2	-1.17839	
-12.5588	-1.9425	-1.17777	
-14.9206	-1.91894	-1.36071	
-12.9582	-2	-1.19088	
-11.1097	-2	-1.02583	
-13.4486	-1.21388	-1.17661	
-13.3867	-1.25457	-1.20291	
-15.3698	-1.78496	-1.34469	
-9.56227	-1.82622	-0.864323	
-13.4486	-1.85639	-1.17661	
-12.6434	-0.824164	-1.17944	
-12.5656	-0.840188	-1.17787	
-14.5417	-0.897364	-1.347	
-16.291	-1.07055	-1.51278	
-14.4353	-1.0996	-1.34525	
-16.3512	-0.999321	-1.51327	
-12.8279	-1.67801	-1.1854	
-12.899	-1.66711	-1.18833	
-14.7527	-1.60664	-1.35363	
-12.7115	-0.446895	-1.1813	
-16.5748	-0.354649	-1.51813	
-12.6576	-0.398171	-1.17979	
-14.8038	-1.83141	-1.35572	
-11.0207	-1.78071	-1.02209	
-14.8053	-1.74009	-1.35579	
-14.9657	-1.7075	-1.36254	
-12.9629	-1.71822	-1.19108	
-13.0101	-1.78279	-1.19307	
-15.0056	-1.79397	-1.3642	
-12.9098	-1.60358	-1.1888	
-12.8646	-1.5428	-1.18689	
-10.8893	-1.84473	-1.01664	
-15.1243	-1.45461	-1.36999	
-13.1208	-1.49442	-1.19782	
-13.1683	-1.53304	-1.20019	
-17.0124	-1.28582	-1.53645	
-13.1	-1.23395	-1.19683	
-16.9133	-1.30809	-1.53169	
-17.0976	-1.05755	-1.54034	
-11.4089	-1.02435	-1.03748	
-11.3603	-0.98494	-1.03692	
-13.0221	-0.659051	-1.19356	
-12.9551	-0.685531	-1.19074	
-14.9295	-0.738859	-1.36108	
-14.9049	-1.33862	-1.36005	
-14.9146	-1.25231	-1.36046	
-16.291	-1.42879	-1.51278	
-16.291	-1.49933	-1.51278	
-14.4544	-1.4654	-1.34548	
-12.536	-0.918262	-1.17743	
-12.5882	-1.01699	-1.17827	
-10.6586	-0.957788	-1.01003	
-16.5567	-0.881052	-1.51756	
-12.7222	-0.965074	-1.18163	
-12.7856	-0.954992	-1.18379	
-11.1262	-0.86716	-1.02648	
-15.035	-0.888326	-1.36557	
-13.096	-0.817828	-1.19664	
-14.5452	-0.589278	-1.34708	
-14.5623	-0.676587	-1.34747	
-14.6276	-0.618429	-1.34923	
-15.2218	-0.0745363	-1.37351	
-13.0352	-1.18703	-1.19409	
-12.9732	-1.16574	-1.19152	
-12.9686	-0.496062	-1.19132	
-14.9708	-0.503541	-1.36273	
-13.0042	-0.439924	-1.19283	
-15.0072	-0.698429	-1.36427	
-12.8532	-1.23016	-1.18642	
-14.6961	-1.19538	-1.35149	
-12.8038	-1.27217	-1.18447	
-12.8446	-1.33945	-1.18607	
-10.9512	-1.2898	-1.01913	
-15.1274	-0.976561	-1.37014	
-15.029	-0.96716	-1.36528	
-13.1617	-1.03431	-1.19986	
-16.7738	-1.00672	-1.52589	
-13.0197	-0.987297	-1.19347	
-12.9682	-0.93866	-1.1913	
-14.7467	-0.379548	-1.3534	
-14.7558	-0.470375	-1.35376	
-12.8885	-0.425581	-1.18789	
-15.2877	-1.87861	-1.37259	
-13.3525	-1.79701	-1.20513	
-13.2869	-1.84585	-1.20515	
-13.0031	-0.176311	-1.19278	
-13.0115	-0.252878	-1.19313	
-11.1417	-0.202898	-1.0271	
-14.9924	-0.126149	-1.36362	
-15.0013	-0.277581	-1.36401	
-15.0509	-0.192415	-1.36634	
-15.2362	-1.21378	-1.37366	
-13.3645	-1.14736	-1.20461	
-13.2884	-1.14008	-1.20518	
-13.1266	-0.532687	-1.19811	
-13.1277	-0.470109	-1.19816	
-13.0775	-0.361936	-1.19581	
-13.0727	-0.431933	-1.1956	
-15.0703	-0.402116	-1.36731	
-11.4029	-0.742677	-1.03751	
-15.2514	-0.813272	-1.37366	