<VTKFile type="UnstructuredGrid" version="0.1" byte_order="LittleEndian">
	<UnstructuredGrid>
		<Piece NumberOfPoints="1917" NumberOfCells="56">
			<CellData Scalars="scalars">
				<DataArray type="Float64" Name="Doublet Strengths" NumberOfComponents="1" Format="ascii">
-5.46341	
-17.1616	
-15.2164	
-12.5551	
-17.6676	
-16.8996	
-17.4421	
-17.4838	
-13.3522	
-14.8056	
-8.89795	
-17.2772	
-15.7591	
-17.5535	
-14.0782	
-15.6837	
-17.0504	
-16.9035	
-17.211	
-16.7499	
-17.021	
-17.4351	
-16.8567	
-17.3259	
-17.505	
-17.067	
-11.0972	
-15.4628	
-17.5393	
-15.2512	
-17.745	
-17.5206	
-17.3764	
-13.1661	
-8.96796	
-17.3425	
-15.8117	
-17.5068	
-16.9543	
-13.9064	
-15.7048	
-17.1812	
-17.9295	
-17.0369	
-16.7797	
-17.1919	
-17.0778	
-17.8119	
-14.7584	
-16.8716	
-17.5754	
-5.52129	
-12.7482	
-15.5216	
-17.3816	
-11.1255	
				</DataArray>
				<DataArray type="Float64" Name="Velocity Potential" NumberOfComponents="1" Format="ascii">
88.8277	
94.7022	
93.1308	
90.8647	
95.0117	
94.2395	
94.734	
94.8442	
91.6352	
92.8193	
87.0197	
94.6243	
93.5474	
94.9291	
92.2256	
93.4191	
94.4881	
94.23	
94.5883	
94.3703	
94.5033	
94.816	
94.5663	
94.7229	
94.8566	
94.4359	
89.3725	
93.3037	
94.8808	
93.1871	
95.0396	
94.7587	
94.6881	
91.5797	
87.0641	
94.6618	
93.5813	
94.8458	
94.2529	
92.1796	
93.4298	
94.6443	
95.2828	
94.4155	
94.4119	
94.7468	
94.5774	
95.1762	
92.8503	
94.5834	
95.0055	
88.9556	
91.1537	
93.3509	
94.7674	
89.444	
				</DataArray>
			</CellData>
			<Points>
				<DataArray type="Float64" Name="Position" NumberOfComponents="3" Format="ascii">
-0.567375	0	-0.131378	
-0.330628	0.0524256	-0.112445	
-0.921224	0	-0.168087	
-0.713422	2	-0.134183	
-0.744652	1.93467	-0.135052	
-0.999365	2	-0.155014	
-0.64035	0	-0.132518	
-0.604935	0.0610502	-0.1319	
-0.749172	0.0745738	-0.135186	
-0.713422	0	-0.134183	
-0.785895	0	-0.136338	
-0.858834	0	-0.138955	
-0.93152	0	-0.141902	
-0.890145	0.0639395	-0.140192	
-1.23318	1.39584	-0.136564	
-1.43228	1.3266	-0.157061	
-1.49428	1.35721	-0.130734	
-0.921224	1.92786	-0.168087	
-0.331494	1.94512	-0.112453	
-1.70775	0.0721374	-0.14941	
-1.43031	0.0533506	-0.157258	
-1.28082	0	-0.112058	
-1.70775	0.215036	-0.14941	
-1.83138	0.171582	-0.196367	
-1.28082	0.143615	-0.112058	
-1.28082	0.286611	-0.112058	
-1.70775	0.358269	-0.14941	
-1.4441	0.326064	-0.155618	
-1.44189	0.252841	-0.155925	
-1.49428	0.714404	-0.130734	
-1.49428	0.786116	-0.130734	
-1.6483	0.754574	-0.175465	
-0.93152	2	-0.141902	
-0.858834	2	-0.138955	
-1.32288	1.91204	-0.177779	
-0.946757	1.66657	-0.142548	
-1.09026	1.60722	-0.158334	
-0.757414	0.446925	-0.135434	
-0.704471	0.397747	-0.133951	
-1.20561	0.354616	-0.173455	
-0.494285	2	-0.130734	
-1.49428	1.42879	-0.130734	
-1.06735	2	-0.0933814	
-1.22128	2	-0.138121	
-1.70775	1.92786	-0.14941	
-0.64035	2	-0.132518	
-0.353906	2	-0.112701	
-0.60527	1.93956	-0.131905	
-0.758069	1.94176	-0.124933	
-1.47177	1.9167	-0.184096	
-1.00391	2	-0.145004	
-1.49428	1.21388	-0.130734	
-1.22915	1.19029	-0.13715	
-1.49428	1.14216	-0.130734	
-1.49428	1.2856	-0.130734	
-1.43258	1.25405	-0.15703	
-1.70775	1.78496	-0.14941	
-1.49428	1.85639	-0.130734	
-1.02346	1.82617	-0.117278	
-1.22186	0.114671	-0.138057	
-1.63451	1.46922	-0.176728	
-1.58899	1.38862	-0.178377	
-0.689085	0.824164	-0.13357	
-0.879647	0.897364	-0.151722	
-0.611288	0.840188	-0.132002	
-1.33693	1.46561	-0.15937	
-0.707754	1	-0.14941	
-0.981365	0.999321	-0.168581	
-0.921224	1.07055	-0.168087	
-0.955593	1.60348	-0.142925	
-0.58681	0.356544	-0.131631	
-0.437652	0.353408	-0.114054	
-0.631215	0.427857	-0.132347	
-1.14026	1.82506	-0.160379	
-1.14395	1.7382	-0.160534	
-0.774145	1.77788	-0.125626	
-1.00905	1.71777	-0.145225	
-1.05695	1.78088	-0.147247	
-1.3038	1.70728	-0.16726	
-1.34385	1.79378	-0.16893	
-0.910251	1.54291	-0.141013	
-0.84801	1.8351	-0.138542	
-1.46209	1.45384	-0.174702	
-1.21409	1.53294	-0.154322	
-1.16661	1.49429	-0.151955	
-1.42053	1.28284	-0.172645	
-1.54231	1.30815	-0.18695	
-1.14438	1.23305	-0.150894	
-1.72891	1.05577	-0.195684	
-1.34045	0.974397	-0.159443	
-1.16726	1.02275	-0.140973	
-1.06784	0.65903	-0.147692	
-1.26743	0.738857	-0.1658	
-1.0008	0.685529	-0.14487	
-1.24273	1.33866	-0.164764	
-1.25241	1.25226	-0.165173	
-0.921224	1.42879	-0.168087	
-0.792852	1.46516	-0.150206	
-0.921224	1.49933	-0.168087	
-0.581754	0.918262	-0.131562	
-1.18689	0.881052	-0.172864	
-0.844882	0.891355	-0.138424	
-0.831354	0.954992	-0.137922	
-0.879637	0.867158	-0.130015	
-1.14167	0.817822	-0.150768	
-1.37288	0.888323	-0.170283	
-0.883216	0.589259	-0.151801	
-0.965539	0.618435	-0.153949	
-0.90025	0.676586	-0.152191	
-1.29275	0	-0.157981	
-1.36405	0	-0.159721	
-1.56836	0.0790961	-0.178336	
-0.974242	1.27156	-0.143726	
-0.963819	1.20368	-0.143278	
-1.01451	0.496767	-0.145458	
-1.05121	0.442032	-0.147009	
-1.30942	0.502871	-0.167478	
-1.34512	0.698424	-0.168988	
-0.898916	1.23016	-0.140548	
-0.849558	1.27217	-0.138601	
-1.0341	1.19537	-0.15621	
-0.704687	1.2898	-0.122665	
-0.915746	1.02577	-0.131526	
-1.36714	0.967174	-0.170008	
-1.20763	1.0342	-0.153997	
-1.40404	1.00672	-0.181201	
-1.01389	0.93866	-0.145432	
-1.06546	0.987296	-0.147595	
-1.08574	0.378981	-0.158155	
-0.933112	0.426844	-0.141969	
-1.09368	0.470462	-0.158469	
-1.62562	1.87857	-0.177307	
-1.61139	1.79633	-0.17794	
-1.33263	1.84585	-0.159273	
-1.12235	0.270573	-0.149899	
-0.894178	0.200611	-0.130597	
-1.38837	0.193571	-0.171038	
-1.32666	0.123897	-0.168181	
-1.0568	0.249496	-0.14724	
-1.04769	0.173576	-0.146863	
-1.579	1.20923	-0.178401	
-1.33542	1.13932	-0.159337	
-1.42004	1.13751	-0.158125	
-1.17262	0.531427	-0.152249	
-1.17352	0.463982	-0.152293	
-1.11669	0.427199	-0.149654	
-1.1834	0.382421	-0.152783	
-1.15642	0.742778	-0.141049	
-1.58915	0.813881	-0.178375	
-1.31184	0.580015	-0.167574	
-1.1774	1.7199	-0.152485	
-1.40411	0.757182	-0.17182	
-0.991591	0.698895	-0.135192	
-1.26421	0.732194	-0.156757	
-1.24453	0.893597	-0.155829	
-1.21156	0.830458	-0.154195	
-1.50779	0.834567	-0.176719	
-1.36175	1.53139	-0.159712	
-1.30918	1.59044	-0.158587	
-1.28483	1.5207	-0.15766	
-1.05371	1.10613	-0.156927	
-0.770205	1.13654	-0.135831	
-1.54926	0.567577	-0.178022	
-1.61639	0.624293	-0.177754	
-1.32998	0.641057	-0.159208	
-1.26164	0.667946	-0.156639	
-1.26153	0.607392	-0.156634	
-1.46693	0.97644	-0.174933	
-1.43475	0	-0.156798	
-0.927293	1.40806	-0.141724	
-0.959971	1.34451	-0.143112	
-0.993548	1.41675	-0.144558	
-0.954466	1.48085	-0.142877	
-1.27317	1.43176	-0.166036	
-1.01914	1.49613	-0.145657	
-1.08513	0.925911	-0.148381	
-1.25217	1.74077	-0.156195	
-1.67986	1.66215	-0.193584	
-1.10374	1.70694	-0.140172	
-0.921224	1.71339	-0.168087	
-0.991677	1.77904	-0.168699	
-0.921224	1.78496	-0.168087	
-1.29275	2	-0.157981	
-1.54881	1.92525	-0.178012	
-1.36405	2	-0.159721	
-1.12517	0.350099	-0.150022	
-1.06145	0.315549	-0.147432	
-0.821264	1.02327	-0.137557	
-1.10431	1.02942	-0.158896	
-0.816319	0.0746863	-0.13738	
-0.851026	0.130322	-0.138657	
-0.990301	0.159825	-0.154719	
-1.00268	0.255296	-0.155124	
-0.618853	0.198868	-0.119282	
-0.894398	0.185075	-0.140364	
-0.955458	0.53229	-0.153651	
-1.34816	0.358269	-0.205439	
-0.707754	0.286611	-0.14941	
-0.556473	0.283499	-0.131251	
-0.921224	0.143615	-0.168087	
-0.785531	0.19815	-0.150112	
-0.921224	0.215036	-0.168087	
-1.06599	0.268711	-0.169845	
-1.21738	0	-0.16368	
-0.86322	0	-0.129371	
-1.08352	0.0522709	-0.148318	
-0.95966	0.233077	-0.122205	
-1.58614	0.293965	-0.178393	
-1.2998	1.52249	-0.167105	
-1.08483	1.6164	-0.148369	
-1.02521	1.57352	-0.145915	
-1.02074	1.65009	-0.145725	
-1.38237	1.59898	-0.159628	
-1.22124	0	-0.15468	
-1.16665	0.0589648	-0.151957	
-1.14861	0	-0.151092	
-0.666693	1.47391	-0.133057	
-0.962888	1.46129	-0.153869	
-0.940408	1.53681	-0.153224	
-1.40145	0.286849	-0.171687	
-0.807726	0.724627	-0.137078	
-0.604434	0.784216	-0.11876	
-0.969954	0.788387	-0.154082	
-1.53598	0.223399	-0.177683	
-1.09497	1.34531	-0.139885	
-1.09023	1.40661	-0.139718	
-1.45512	1.36487	-0.174366	
-1.27648	1.29047	-0.157305	
-1.07655	0.414541	-0.139196	
-1.23729	0.434011	-0.155476	
-1.45999	0.349215	-0.174601	
-1.35288	0.422964	-0.159638	
-1.51674	0.489015	-0.177055	
-1.37519	0.488653	-0.159703	
-0.66786	1.24582	-0.111404	
-1.08075	1.18695	-0.148209	
-1.03644	1.58611	-0.137411	
-0.607973	0.42229	-0.118887	
-0.630154	0.312816	-0.119701	
-1.13755	0.310713	-0.160265	
-0.87348	0.255176	-0.139527	
-0.939329	0.23291	-0.142232	
-1.69723	1.20734	-0.194385	
-1.13979	1.1572	-0.150681	
-1.20903	1.15129	-0.154068	
-0.984307	1.2101	-0.134826	
-1.36252	1.08885	-0.169789	
-0.752431	1.61914	-0.135283	
-0.771274	1.69424	-0.135865	
-0.906143	1.67616	-0.152333	
-0.820157	1.64844	-0.137517	
-0.848562	1.72086	-0.138563	
-1.1936	0.644913	-0.153292	
-1.04849	1.94629	-0.137978	
-1.40344	1.93331	-0.171787	
-1.26339	1.88539	-0.15672	
-0.888491	0.0804625	-0.151919	
-0.401919	0.127785	-0.113393	
-0.413159	1.88257	-0.113587	
-0.891561	1.92762	-0.151988	
-0.713916	0.21589	-0.134196	
-1.04112	0.273142	-0.137634	
-1.2477	0.209198	-0.155982	
-1.02975	0.143339	-0.137089	
-1.31386	0.145092	-0.158742	
-0.977284	0.115792	-0.134473	
-1.19052	1.85807	-0.153138	
-1.12478	1.88373	-0.150005	
-0.90156	1.94611	-0.130907	
-0.86322	2	-0.129371	
-1.14861	2	-0.151092	
-1.23149	0.682902	-0.136818	
-1.70775	0.64279	-0.14941	
-0.758058	1.88295	-0.124933	
-0.849429	1.53147	-0.138596	
-0.827	1.46174	-0.137764	
-0.891473	1.47178	-0.140245	
-1.39388	1.08229	-0.159388	
-0.489198	0.329519	-0.115229	
-0.770293	0.43708	-0.149931	
-0.707754	0.429861	-0.14941	
-0.670927	1.67699	-0.121284	
-0.802092	1.57544	-0.136884	
-0.984339	1.60691	-0.134827	
-1.15608	1.65508	-0.151447	
-1.25716	1.81461	-0.156431	
-0.982906	1.78507	-0.134755	
-0.48801	0.749751	-0.115199	
-0.751328	0.701087	-0.13525	
-0.844762	0.758919	-0.151024	
-1.49428	0.429861	-0.130734	
-1.64162	0.409639	-0.176138	
-1.32531	1.77163	-0.159085	
-1.60839	1.71936	-0.178034	
-0.901495	1.1716	-0.152221	
-0.720825	1.09553	-0.134381	
-1.00704	1.76477	-0.15527	
-0.6573	1.7791	-0.120744	
-0.994282	0.277236	-0.144589	
-1.18297	0.151691	-0.162198	
-0.862536	1.84554	-0.129344	
-1.0098	1.83711	-0.145257	
-0.890313	1.33945	-0.140198	
-0.86134	1.40104	-0.139052	
-1.0901	0.297567	-0.139714	
-1.32296	0.357474	-0.15902	
-0.906293	0.760525	-0.13111	
-1.07007	0.810302	-0.147782	
-0.978102	0.749841	-0.143892	
-0.913084	0.751361	-0.141131	
-0.935363	0.686344	-0.142064	
-1.00476	0.810027	-0.14504	
-0.939441	0.81571	-0.142237	
-1.13469	1.64173	-0.186763	
-0.55994	1.65788	-0.13129	
-1.70775	1	-0.14941	
-1.70775	1.07055	-0.14941	
-1.23218	1.0308	-0.136715	
-0.345579	1.5272	-0.112604	
-0.921224	1.57014	-0.168087	
-0.701229	0.121062	-0.122521	
-0.961311	0.068568	-0.14317	
-1.0288	0.0968802	-0.146068	
-0.921224	1.85639	-0.168087	
-0.77446	1.8723	-0.149979	
-0.921224	0.0721374	-0.168087	
-0.554515	0.116381	-0.13123	
-1.06053	0.378957	-0.147394	
-0.921224	1.2856	-0.168087	
-0.560048	1.33655	-0.131291	
-0.921224	1.35721	-0.168087	
-0.735738	1.07097	-0.123976	
-0.955696	1.13809	-0.142929	
-0.688357	1.10545	-0.12199	
-1.00879	1.08867	-0.145213	
-0.970054	0.876824	-0.143546	
-0.908388	0.882801	-0.140936	
-1.08809	0.819303	-0.158248	
-1.12803	1.38959	-0.150149	
-0.908118	1.45442	-0.131189	
-1.1868	1.41914	-0.152952	
-0.784595	0.213959	-0.126076	
-0.95604	0.621411	-0.142944	
-0.918214	0.549577	-0.141344	
-0.979618	0.556476	-0.143957	
-0.947346	0.491713	-0.142573	
-1.47366	0.0712931	-0.175248	
-0.888041	1.1672	-0.140107	
-1.14349	1.57159	-0.150853	
-0.687865	0.47164	-0.133541	
-1.22813	0.476615	-0.137288	
-1.63024	0.546631	-0.177026	
-0.707754	0.500665	-0.14941	
-0.554262	0.802839	-0.131227	
-0.416041	0.646217	-0.113639	
-0.393856	0.69766	-0.113261	
-0.607421	1.17495	-0.131939	
-0.773233	1.0996	-0.149965	
-0.857654	1.1007	-0.151268	
-0.965816	1.32398	-0.153957	
-0.470315	1.29855	-0.114768	
-0.713597	1.24767	-0.134187	
-0.89622	0.61668	-0.140438	
-0.859079	0.546139	-0.138965	
-0.58693	0.561624	-0.118149	
-0.812277	0.491616	-0.137237	
-0.476677	1.0418	-0.114919	
-0.750786	1.02609	-0.135234	
-0.905209	0.976287	-0.15231	
-0.767876	0.965074	-0.135758	
-0.900365	0.954567	-0.140607	
-0.627875	1.62515	-0.132286	
-0.475754	1.59965	-0.114897	
-1.17396	0.360303	-0.140866	
-0.56446	1.5889	-0.131343	
-0.822013	1.33334	-0.137584	
-0.795676	1.39903	-0.136665	
-0.783261	1.2624	-0.136252	
-1.08423	0.683934	-0.158096	
-1.42607	0.967445	-0.157647	
-1.83478	0.89983	-0.19621	
-1.31259	0.914042	-0.158701	
-1.06243	1.0505	-0.147472	
-1.05901	1.13415	-0.138454	
-1.01541	1.09375	-0.136385	
-0.757039	1.5431	-0.124889	
-1.3205	0.770923	-0.158948	
-1.04117	0.785107	-0.137636	
-0.963829	1.34839	-0.133803	
-1.57468	1.29694	-0.178385	
-1.34405	1.65281	-0.159509	
-0.779323	1.25411	-0.150036	
-0.624074	1.32162	-0.132218	
-0.917033	0.633745	-0.131583	
-1.18462	0.587288	-0.152843	
-1.3853	0.6882	-0.159582	
-1.03121	0.873522	-0.14617	
-0.654483	1.36753	-0.110883	
-1.22124	2	-0.15468	
-0.539346	1.1987	-0.116618	
-0.997617	0.394274	-0.144733	
-0.996954	0.336713	-0.144704	
-1.31901	0.702848	-0.158903	
-1.49428	0.929454	-0.130734	
-1.49428	0.857842	-0.130734	
-1.19615	1.94387	-0.140092	
-1.01891	1.16572	-0.145647	
-1.07565	1.11814	-0.148006	
-0.925685	1.79696	-0.152827	
-0.506994	1.73661	-0.115695	
-0.728141	0.370041	-0.123652	
-0.776431	0.446178	-0.125724	
-0.740609	0.936014	-0.124184	
-0.168982	1.0523	-0.0944096	
-0.633897	1.01699	-0.132396	
-1.49428	1.49933	-0.130734	
-0.790946	0.586375	-0.150181	
-0.827463	0.509874	-0.150723	
-1.43271	1.54624	-0.157016	
-0.594564	0.664255	-0.118413	
-0.645706	0.750955	-0.120292	
-0.597748	0.837223	-0.118524	
-0.921224	1.21388	-0.168087	
-0.332106	1.17543	-0.112459	
-0.921224	0.929454	-0.168087	
-0.332964	0.873321	-0.112468	
-1.13469	0.857842	-0.186763	
-0.550824	0.725606	-0.13119	
-0.921224	0.786116	-0.168087	
-0.921224	0.714404	-0.168087	
-0.566837	0.653203	-0.131371	
-0.921224	0.64279	-0.168087	
-1.13469	0.571209	-0.186763	
-0.921224	1.14216	-0.168087	
-0.412089	0.957788	-0.113568	
-0.294139	0.930031	-0.0970349	
-0.835095	0.613315	-0.13806	
-1.23682	1.6049	-0.135974	
-0.826474	0.552048	-0.127862	
-1.01951	0.616488	-0.145672	
-0.849821	1.54065	-0.151118	
-0.653337	0.177963	-0.132775	
-0.640036	1.24487	-0.132512	
-0.839543	1.39957	-0.15093	
-0.501622	0.139289	-0.115551	
-0.617285	1.69928	-0.132101	
-0.650307	1.75272	-0.132714	
-0.688774	1.35868	-0.133563	
-0.528069	1.39206	-0.116285	
-0.481581	1.42097	-0.115039	
-0.627826	1.81911	-0.132285	
-1.42766	1.6612	-0.157507	
-1.49428	1.71339	-0.130734	
-1.02068	0.496577	-0.136646	
-1.25794	0.549039	-0.156467	
-0.463891	1.85508	-0.114619	
-0.33465	0.520218	-0.112485	
-0.25044	0.528047	-0.0959433	
-1.49428	1.57014	-0.130734	
-1.70775	0.500665	-0.14941	
-0.774983	0.932053	-0.116358	
-0.573113	1.07414	-0.117685	
-0.57656	1.51028	-0.117799	
-1.70775	1.64173	-0.14941	
-0.512828	0.282674	-0.115854	
-1.49428	0.571209	-0.130734	
-1.02276	0.59575	-0.117397	
-0.132866	1.71321	-0.0939361	
-1.02159	1.88726	-0.155768	
-1.22461	0.827624	-0.137736	
-0.563304	1.82622	-0.117365	
-0.343802	1.40032	-0.112584	
-0.7323	1.87065	-0.134697	
-0.920195	0.866054	-0.122207	
-0.887368	1.24863	-0.121404	
-0.621973	1.94589	-0.119396	
-1.0203	1.75284	-0.117795	
-0.366689	1.94185	-0.0992432	
-1.45801	0.611259	-0.0902341	
-1.65141	0.691022	-0.0992357	
-1.24153	0.951279	-0.0699593	
-1.65758	0.885946	-0.101988	
-0.982797	0	-0.039963	
-0.914452	0	-0.0471642	
-1.16714	0.0792566	-0.0614672	
-0.991263	0	-0.149601	
-0.388619	0.0639973	-0.0843786	
-0.633778	0	-0.095748	
-0.547431	0.0936441	-0.116535	
-0.843307	0	-0.056679	
-0.772744	0	-0.0680334	
-0.815842	0.0798839	-0.0608763	
-1.25251	0.821071	-0.0761241	
-1.45683	1.45488	-0.0896012	
-1.45989	1.89867	-0.0912634	
-0.769327	2	-0.0212867	
-1.05442	2	-0.0346293	
-1.24571	1.91895	-0.0547019	
-0.392058	1.93754	-0.0835678	
-0.552535	1.90585	-0.115228	
-0.564324	2	-0.112249	
-0.633778	2	-0.095748	
-0.914452	2	-0.0471642	
-0.878758	1.92228	-0.0516889	
-0.843307	2	-0.056679	
-1.09102	1.85759	-0.0328561	
-1.23002	1.82278	-0.0558304	
-1.02491	0.600657	-0.0802513	
-0.756356	0.663037	-0.0709352	
-1.03719	0.68441	-0.0783196	
-0.549088	0.939959	-0.11611	
-0.558155	1.33496	-0.113801	
-1.2155	1.68417	-0.0569761	
-0.818572	1.74973	-0.0173629	
-1.52538	1.71007	-0.0699377	
-0.808877	1.02684	-0.0619861	
-1.03279	0.943151	-0.079005	
-0.753692	0.965528	-0.0714163	
-0.584596	0.553448	-0.107247	
-0.541654	0.495631	-0.118025	
-1.24405	1.36962	-0.0366611	
-1.6027	1.42353	-0.069779	
-1.25461	1.43872	-0.0377214	
-1.57374	1.02505	-0.0741947	
-1.29414	0.965827	-0.042757	
-1.48077	1.04082	-0.057826	
-1.41963	1.21008	-0.0524474	
-1.72187	1.26463	-0.0802278	
-1.28892	1.19252	-0.0419908	
-0.797696	1.8275	-0.0638055	
-1.02347	1.91186	-0.0804817	
-1.07858	1.83465	-0.0722279	
-1.14224	1.04863	-0.0641703	
-0.868224	1.0111	-0.0531208	
-1.06515	1.09426	-0.0741321	
-0.707196	1.10778	-0.0277526	
-1.21503	1.09436	-0.0570147	
-1.03749	0.92332	-0.0356741	
-1.07569	0.983948	-0.0335166	
-1.54556	0.912712	-0.0694227	
-0.849009	1.65028	-0.015505	
-0.902813	1.64109	-0.0134368	
-1.28205	1.58611	-0.0525396	
-0.564507	0.621253	-0.112203	
-0.417511	0.607584	-0.0777019	
-0.884183	0.544593	-0.106372	
-0.904854	0.626188	-0.102082	
-1.14012	0.883867	-0.0644124	
-0.885594	0.814004	-0.0507831	
-0.861269	0.883506	-0.0540898	
-0.66638	0.94284	-0.0328668	
-0.613291	0.823889	-0.0404972	
-0.792123	0.86549	-0.0647297	
-1.23753	0.577518	-0.0360637	
-1.4485	0.659851	-0.0545221	
-1.29925	0.634606	-0.0435375	
-0.879593	0.0913029	-0.107346	
-0.594905	0.141129	-0.104763	
-1.02104	1.15841	-0.0368198	
-1.53478	1.18235	-0.0696574	
-0.858026	1.11752	-0.0150418	
-1.59242	0.938839	-0.0789973	
-1.21535	0.99711	-0.058097	
-1.05423	0.516229	-0.0346404	
-1.29603	0.597248	-0.0518821	
-1.12861	0.53029	-0.0319362	
-1.11785	1.25683	-0.0670651	
-1.09781	1.17353	-0.0696236	
-0.835863	1.22905	-0.0577883	
-1.61344	1.10599	-0.085199	
-1.44387	1.05145	-0.083201	
-1.40068	1.1866	-0.0667477	
-1.45373	1.17077	-0.0879765	
-1.24801	1.39834	-0.0974079	
-0.611994	1.4857	-0.0406971	
-0.885658	1.4682	-0.0507747	
-1.43195	0.907417	-0.053235	
-1.16552	0.841878	-0.0321586	
-1.84209	0.492781	-0.108979	
-1.14505	0.543817	-0.0364221	
-1.40743	0.570722	-0.0689579	
-1.18552	1.72433	-0.0327672	
-1.14144	1.78876	-0.0318841	
-1.05578	0.853718	-0.0345516	
-0.968735	0.389993	-0.0412823	
-0.762701	0.316743	-0.0218977	
-0.914549	0.343184	-0.0471525	
-1.08916	0.780432	-0.0329301	
-0.894651	0.84375	-0.0136214	
-1.15922	0.770799	-0.0320392	
-1.00436	0.577671	-0.038109	
-0.782363	1.02428	-0.129784	
-0.98439	0.237428	-0.0870277	
-0.786763	0.153222	-0.0656295	
-0.719156	0.163431	-0.0778873	
-1.07545	0.159631	-0.0726656	
-1.20866	1.80219	-0.033919	
-1.02511	1.86234	-0.0174809	
-1.28755	1.80354	-0.0417944	
-1.11671	0.329138	-0.0321049	
-1.40486	0.30982	-0.0516898	
-1.35275	0.244444	-0.0505596	
-1.14883	0.391669	-0.0319162	
-0.534873	1.03303	-0.0537139	
-1.11712	0.717798	-0.0320973	
-1.03549	0.718603	-0.0358065	
-0.859942	0.665477	-0.0149486	
-1.14851	0.658642	-0.0319139	
-0.761141	1.87015	-0.0220443	
-0.938954	1.80864	-0.0443567	
-0.866175	1.78424	-0.0146584	
-0.966528	1.74797	-0.0414972	
-1.21401	0.386445	-0.034256	
-1.24405	0.441074	-0.0366614	
-1.28338	0.365688	-0.0412126	
-1.05529	1.25637	-0.0345797	
-1.13013	1.24657	-0.0319229	
-1.07814	1.3122	-0.0334031	
-0.930191	1.30199	-0.0132127	
-1.20365	1.27096	-0.033628	
-0.929222	0.276367	-0.0454423	
-1.27492	0.292881	-0.0933465	
-0.669871	0.234809	-0.0324034	
-0.613952	0.216682	-0.0403956	
-1.30587	0.891352	-0.0445967	
-1.10522	1.48059	-0.032376	
-1.02937	1.4429	-0.0362235	
-1.24114	1.51083	-0.0550186	
-0.957983	1.45569	-0.0423488	
-1.11773	1.36546	-0.0320859	
-1.1882	1.34038	-0.0328756	
-0.853754	1.70558	-0.0551579	
-0.868734	1.63351	-0.0530504	
-0.796778	1.65739	-0.0639569	
-0.717596	0.837679	-0.07819	
-0.761883	0.792044	-0.0699455	
-0.774133	1.09876	-0.0677919	
-1.01742	1.30603	-0.0814576	
-0.543807	1.35315	-0.0520934	
-1.3836	0.166399	-0.0509443	
-1.08833	0.169498	-0.0329635	
-0.935471	1.40455	-0.0960139	
-1.10096	0.41495	-0.0692116	
-1.15352	0.474418	-0.062913	
-1.38857	1.05334	-0.0510827	
-1.21601	0.984567	-0.0343891	
-1.17944	1.13834	-0.032545	
-0.814211	0.452043	-0.0611345	
-1.02484	0.374434	-0.0802629	
-0.541976	0.42015	-0.0524231	
-0.947928	0.484457	-0.0936425	
-1.33204	0	-0.0493301	
-1.34868	0.0667918	-0.05283	
-1.39643	0	-0.06541	
-1.33204	2	-0.0493301	
-1.08704	1.94291	-0.0250586	
-1.04811	2	-0.0198091	
-1.36962	0.853126	-0.0578456	
-1.39643	2	-0.06541	
-1.57652	1.92333	-0.0748705	
-0.778347	0.506745	-0.020486	
-0.938788	0.56183	-0.044375	
-0.946552	0.636864	-0.0435368	
-0.877465	0.546278	-0.0518624	
-0.878187	0.617676	-0.0517655	
-1.49294	0.078087	-0.0593611	
-1.45303	1.56345	-0.0549212	
-1.07814	1.62497	-0.0237054	
-1.32371	1.57191	-0.0477258	
-1.59512	0.153301	-0.0797422	
-1.59936	0.252546	-0.0809426	
-1.22364	0.211952	-0.0615246	
-1.0099	0.650538	-0.0376667	
-1.17269	0.718414	-0.0608994	
-0.948482	0.798942	-0.0433323	
-1.01553	0.786413	-0.0372311	
-0.680512	0.678765	-0.0310207	
-0.88823	0.741319	-0.0504387	
-1.65794	1.80752	-0.102152	
-1.39572	1.74768	-0.0651925	
-1.58021	1.83308	-0.0757875	
-0.956062	1.20637	-0.0425446	
-0.884791	1.92648	-0.106243	
-0.829109	1.86025	-0.118561	
-1.4154	0.344499	-0.0717169	
-1.44132	0.410465	-0.0820436	
-1.48988	0.282592	-0.0589592	
-1.5597	0.338159	-0.0709673	
-1.21656	0.251286	-0.0568892	
-0.84624	0.217721	-0.0156554	
-1.20948	0.164212	-0.0574785	
-0.785207	0.230355	-0.129078	
-1.34076	1.93673	-0.0506256	
-1.38412	1.26103	-0.0617611	
-1.44772	1.24459	-0.0850065	
-1.36913	1.32491	-0.0577189	
-1.65322	1.31978	-0.100027	
-1.51531	0.804788	-0.0626224	
-1.58713	0.759874	-0.0775737	
-1.31088	0.714139	-0.0454339	
-0.937208	0.206449	-0.0445486	
-0.708166	0.138218	-0.0276393	
-0.617538	1.72394	-0.0994465	
-0.582539	1.78328	-0.107748	
-0.875054	1.79352	-0.108316	
-1.01511	1.03613	-0.0372637	
-1.30171	1.05319	-0.0516432	
-1.13899	0.992616	-0.0318835	
-0.915453	1.10914	-0.013257	
-1.52457	0.204267	-0.0641488	
-1.2226	0.22975	-0.0348543	
-0.991175	0.863551	-0.0392181	
-0.973116	0.938032	-0.0408621	
-1.1255	1.76807	-0.0320636	
-1.54133	1.69808	-0.0671906	
-1.25606	1.73846	-0.0378762	
-1.31303	0.425321	-0.0458037	
-1.26908	0.500006	-0.0393646	
-1.17261	0.456585	-0.0323342	
-1.20012	0.51622	-0.0334372	
-0.694248	0.232607	-0.082824	
-0.86829	1.33248	-0.0531117	
-0.943834	1.52656	-0.0438274	
-1.08243	1.55451	-0.071696	
-1.15852	1.60907	-0.0623734	
-0.540115	0.903738	-0.0527595	
-0.893412	0.902651	-0.104438	
-1.19402	0	-0.0331334	
-1.12281	0	-0.0320041	
-1.1454	0.051764	-0.0318956	
-1.05442	0	-0.0346293	
-1.07568	0.0537652	-0.0335169	
-0.972443	1.3862	-0.0409261	
-0.901726	1.3946	-0.0487189	
-0.978301	1.26486	-0.0403754	
-0.8133	1.21166	-0.0177298	
-0.93543	1.32507	-0.0447453	
-1.0064	1.32038	-0.0379443	
-1.20394	0.814456	-0.0537635	
-0.742018	1.88165	-0.0735548	
-1.16983	0.594595	-0.0322602	
-1.25229	1.38879	-0.0759931	
-1.41605	1.39048	-0.0719465	
-0.896818	0.75837	-0.103731	
-0.639939	0.821275	-0.0943703	
-1.4486	0.75743	-0.0854297	
-0.944583	1.60921	-0.0942738	
-0.730865	1.68446	-0.0756447	
-0.51075	1.75212	-0.0582351	
-0.999785	1.73879	-0.0843814	
-0.860637	1.59941	-0.111448	
-0.662223	1.66432	-0.0895027	
-1.44183	1.93182	-0.0539708	
-1.30318	1.87756	-0.0441599	
-1.45684	0.146224	-0.0896065	
-1.24985	1.10891	-0.0745426	
-1.24402	0.544978	-0.0712741	
-0.896649	1.32361	-0.103766	
-0.741313	0.0813768	-0.0736856	
-0.70391	0	-0.0808822	
-1.1316	1.21454	-0.0333611	
-1.34478	1.14931	-0.0519751	
-1.16767	1.87232	-0.0322074	
-0.644496	1.24379	-0.0933601	
-0.606342	1.29411	-0.102053	
-0.710519	1.24385	-0.0795736	
-0.808512	1.16415	-0.0620448	
-1.10685	0.398041	-0.123121	
-0.781693	1.20048	-0.129951	
-0.5575	1.11243	-0.113967	
-0.744029	0.560548	-0.073183	
-0.808788	0.523541	-0.0620003	
-1.45093	1.65544	-0.0547342	
-1.10612	0.109422	-0.0323511	
-0.703337	1.86761	-0.0282075	
-0.950223	1.9304	-0.0431492	
-1.04421	0.741046	-0.0193752	
-1.36765	0.676971	-0.0573413	
-0.484133	0.693471	-0.0634697	
-0.756595	0.726744	-0.0708921	
-0.823567	0.760134	-0.0596669	
-0.323454	0.61385	-0.0346631	
-0.327265	0.170423	-0.0995877	
-1.02609	1.15632	-0.0175685	
-1.01342	1.09603	-0.0165029	
-1.28437	1.1197	-0.0413494	
-0.469669	1.85832	-0.0664224	
-0.736375	1.8111	-0.0746064	
-1.39604	1.45652	-0.065292	
-1.35651	1.39372	-0.0546227	
-0.527011	1.94352	-0.0551641	
-0.772744	2	-0.0680334	
-1.22026	0.79232	-0.0346844	
-1.0316	0.850283	-0.0180825	
-1.19582	0.718066	-0.0332197	
-0.645824	0.180772	-0.0930672	
-1.17017	1.51591	-0.0322688	
-1.37657	1.59438	-0.050785	
-1.00875	1.48768	-0.0161499	
-1.289	1.50665	-0.0420028	
-0.33656	1.83632	-0.0971922	
-0.988683	1.53312	-0.0862808	
-0.490096	1.54488	-0.0622747	
-0.547491	1.71558	-0.116519	
-1.62927	1.66217	-0.0905339	
-0.739611	0.358669	-0.0740021	
-0.682965	0.310734	-0.0851344	
-1.08457	1.39867	-0.0246732	
-1.32824	1.4537	-0.0485869	
-1.30775	1.33896	-0.0449073	
-1.10209	0.46147	-0.0324683	
-0.869396	0.394907	-0.0145162	
-1.23767	0.433969	-0.0552655	
-0.88261	1.42238	-0.0139904	
-1.04269	1.37641	-0.0353386	
-1.35469	0.606335	-0.0541975	
-0.591203	0.879786	-0.10565	
-0.602557	0.752034	-0.102944	
-0.55932	0.815753	-0.113507	
-0.844195	1.38066	-0.115112	
-1.65105	1.52165	-0.0990781	
-1.36257	1.51493	-0.0560769	
-1.11694	1.08423	-0.0303319	
-0.559638	1.59815	-0.113427	
-0.909341	2	-0.0133278	
-0.946032	1.16076	-0.0939998	
-0.462675	1.18618	-0.0678773	
-0.740166	1.14984	-0.0241179	
-0.772526	1.23168	-0.0680712	
-0.618413	1.16237	-0.0992446	
-0.924309	1.68406	-0.0460051	
-0.816681	0.333428	0.000731923	
-0.560146	1.52552	-0.113299	
-0.606582	0.488947	-0.101996	
-0.590701	1.59304	-0.0440699	
-1.39498	1.57917	-0.0649648	
-0.584673	1.65719	-0.107229	
-1.29953	0.559694	-0.0435815	
-1.3374	0.490232	-0.0504132	
-0.623538	0.956713	-0.0980687	
-0.694189	0.989568	-0.082836	
-0.898392	1.75665	-0.049137	
-0.625089	1.77244	-0.0387079	
-0.463941	1.72615	-0.0676127	
-0.571986	0.310718	-0.0471743	
-0.519433	0.290342	-0.0565832	
-0.530471	1.29539	-0.054523	
-1.19402	2	-0.0331334	
-0.657352	0.482459	-0.0340875	
-1.03551	1.30941	-0.0184658	
-1.03235	0.109198	-0.0360184	
-0.647126	1.03572	-0.0927805	
-0.708158	1.07584	-0.0800392	
-0.70391	2	-0.0808822	
-1.19618	0.633303	-0.0510321	
-1.37661	0.422033	-0.0596846	
-0.904862	0.266461	-0.0119304	
-0.630531	0.262786	-0.0964797	
-0.954436	1.66446	-0.0135366	
-0.89173	1.54135	-0.0137004	
-0.588376	0.371856	-0.106332	
-0.407206	0.429791	-0.0800481	
-0.785888	1.56661	-0.0198445	
-0.800305	1.62234	-0.0186893	
-0.425252	1.2804	-0.0180304	
-0.556638	0.68957	-0.114185	
-0.327859	0.753859	-0.0994336	
-1.45405	0.285029	-0.088143	
-0.331943	1.26259	-0.0983779	
-1.669	0	-0.107588	
-0.339902	1.39629	-0.096339	
-0.79301	1.45609	-0.127156	
-0.564681	0.308608	-0.112159	
-0.843642	0.682551	-0.115237	
-0.553691	0.423502	-0.114934	
-1.45553	2	-0.0889116	
-0.802187	0.980727	-0.0185455	
-0.854903	1.51237	-0.112714	
-0.664732	1.11653	-0.088966	
-0.859747	0.277428	-0.014958	
-1.25152	0.33864	-0.0543133	
-0.396684	1.08627	-0.0824839	
-0.956632	0.0993244	-0.0135908	
-1.2182	0.0548078	-0.0345389	
-0.176761	1.55961	-0.0653219	
-1.45544	1.72118	-0.0888666	
-1.20704	1.94239	-0.0549012	
-1.19887	1.87535	-0.0519598	
-0.45426	0.473525	-0.0696516	
-0.417753	0.331482	-0.0776473	
-1.14174	1.63205	-0.035642	
-1.23954	1.59521	-0.0689329	
-0.714211	1.47977	-0.0788494	
-1.25405	0.160133	-0.0376628	
-1.00872	0.114041	-0.0161476	
-0.559327	1.45658	-0.0493479	
-1.10424	0.130179	-0.0279515	
-0.922425	0.972536	-0.0462236	
-1.42723	0.0752793	-0.076145	
-0.799244	0.0509452	-0.018771	
-0.754291	1.00206	-0.0227007	
-0.436049	0.356044	-0.016496	
-0.882314	0.0762643	-0.0512155	
-0.444329	1.44431	-0.0717785	
-1.26158	0	-0.0384854	
-1.03716	0.460204	-0.0563203	
-0.744193	0.946643	0.00505857	
-0.56861	2	-0.121438	
-0.647596	2	-0.112904	
-0.81116	2	-0.0996407	
-0.897163	2	-0.0950515	
-0.72816	2	-0.105628	
-1.28694	2	-0.109458	
-1.4651	2	-0.115599	
-1.42354	2	-0.117837	
-1.34021	2	-0.105854	
-1.16248	2	-0.0918966	
-1.19745	2	-0.110762	
-0.921224	-0.0721374	-0.168087	
-0.330627	-0.0524234	-0.112445	
-0.597752	-1.94219	-0.118524	
-0.745526	-1.93265	-0.135078	
-0.785895	-2	-0.136338	
-0.604935	-0.0610541	-0.1319	
-0.749183	-0.0745946	-0.135186	
-0.891183	-0.063891	-0.140234	
-1.49428	-1.2856	-0.130734	
-1.43256	-1.32684	-0.157032	
-1.49428	-1.35721	-0.130734	
-1.49428	-0.0721374	-0.130734	
-1.70775	-0.215036	-0.14941	
-1.49428	-0.143615	-0.130734	
-1.44305	-0.177622	-0.155766	
-1.28082	-0.286611	-0.112058	
-1.44413	-0.326516	-0.155614	
-1.70775	-0.358269	-0.14941	
-1.44432	-0.255005	-0.155587	
-1.49428	-0.714404	-0.130734	
-1.64833	-0.754353	-0.175462	
-1.49428	-0.786116	-0.130734	
-0.93152	-2	-0.141902	
-1.09981	-1.91632	-0.158715	
-0.858834	-2	-0.138955	
-0.353906	-2	-0.112701	
-0.331732	-1.94543	-0.112456	
-0.494285	-2	-0.130734	
-1.44535	-1.39944	-0.155436	
-1.49428	-1.42879	-0.130734	
-1.06735	-2	-0.0933814	
-1.70775	-1.92786	-0.14941	
-1.22128	-2	-0.138121	
-0.64035	-2	-0.132518	
-0.604499	-1.9425	-0.131893	
-1.25854	-1.91894	-0.16543	
-1.00391	-2	-0.145004	
-0.86322	-2	-0.129371	
-1.49428	-1.21388	-0.130734	
-1.43246	-1.25457	-0.157042	
-1.70775	-1.78496	-0.14941	
-1.0235	-1.82622	-0.117272	
-1.49428	-1.85639	-0.130734	
-0.689085	-0.824164	-0.13357	
-0.611288	-0.840188	-0.132002	
-0.879647	-0.897364	-0.151722	
-0.921224	-1.07055	-0.168087	
-0.773232	-1.0996	-0.149965	
-0.981365	-0.999321	-0.168581	
-0.873598	-1.67801	-0.139531	
-0.944674	-1.66711	-0.142459	
-1.09069	-1.60664	-0.158351	
-0.757179	-0.446895	-0.135427	
-1.20503	-0.354649	-0.173436	
-0.703359	-0.398171	-0.133922	
-1.14174	-1.83141	-0.160441	
-0.774154	-1.78071	-0.125626	
-1.1433	-1.74009	-0.160507	
-1.30364	-1.7075	-0.167254	
-1.00867	-1.71822	-0.145208	
-1.05577	-1.78279	-0.147198	
-1.34358	-1.79397	-0.168918	
-0.95557	-1.60358	-0.142924	
-0.910329	-1.5428	-0.141017	
-0.642773	-1.84473	-0.12018	
-1.46227	-1.45461	-0.174711	
-1.16657	-1.49442	-0.151953	
-1.21404	-1.53304	-0.15432	
-1.64264	-1.28582	-0.191756	
-1.14571	-1.23395	-0.150956	
-1.54348	-1.30809	-0.187	
-1.72782	-1.05755	-0.195644	
-1.16236	-1.02435	-0.141022	
-1.11377	-0.98494	-0.140461	