<VTKFile type="UnstructuredGrid" version="0.1" byte_order="LittleEndian">
	<UnstructuredGrid>
		<Piece NumberOfPoints="1917" NumberOfCells="56">
			<CellData Scalars="scalars">
				<DataArray type="Float64" Name="Doublet Strengths" NumberOfComponents="1" Format="ascii">
-1.06791	
-4.11694	
-3.11389	
-3.16862	
-3.94989	
-4.08992	
-4.20931	
-4.03	
-3.04737	
-2.91394	
-1.75806	
-4.5824	
-3.14679	
-4.41231	
-2.89268	
-3.22182	
-4.1	
-3.79484	
-3.77221	
-3.62829	
-4.05743	
-4.06837	
-3.54392	
-4.0482	
-6.08619	
-3.7326	
-2.5774	
-3.00974	
-6.0869	
-3.20804	
-3.74065	
-4.09075	
-3.57454	
-2.98148	
-1.61559	
-4.54222	
-3.15766	
-3.60642	
-4.00162	
-2.91034	
-3.20613	
-3.87298	
-3.95684	
-3.55944	
-3.56454	
-4.01168	
-3.88455	
-3.58702	
-3.04971	
-3.50684	
-3.74175	
-1.02782	
-2.63873	
-3.05606	
-3.72689	
-2.03184	
				</DataArray>
				<DataArray type="Float64" Name="Velocity Potential" NumberOfComponents="1" Format="ascii">
-103.165	
-147.839	
-149.169	
-149.108	
-148.397	
-147.803	
-148.037	
-148.255	
-149.154	
-149.337	
-150.658	
-146.725	
-149.066	
-147.818	
-149.318	
-148.893	
-147.823	
-148.444	
-148.581	
-148.423	
-147.832	
-148.203	
-148.479	
-148.012	
-144.936	
-148.625	
-149.802	
-149.268	
-145.234	
-148.84	
-148.819	
-148.42	
-149.018	
-149.186	
-151.019	
-147.392	
-148.98	
-148.975	
-148.379	
-149.091	
-148.855	
-148.122	
-148.29	
-148.863	
-148.282	
-147.816	
-147.991	
-148.936	
-148.927	
-148.415	
-148.358	
-103.351	
-149.781	
-149.072	
-148.597	
-150.568	
				</DataArray>
			</CellData>
			<Points>
				<DataArray type="Float64" Name="Position" NumberOfComponents="3" Format="ascii">
-4.55213	0	-0.480002	
-3.74614	0.0524256	-0.411265	
-6.04449	0	-0.616317	
-4.69818	2	-0.482807	
-4.72941	1.93467	-0.483676	
-5.55338	2	-0.553442	
-4.62511	0	-0.481142	
-4.5897	0.0610502	-0.480524	
-4.73393	0.0745738	-0.48381	
-4.69818	0	-0.482807	
-4.77066	0	-0.484962	
-4.84359	0	-0.487579	
-4.91628	0	-0.490526	
-4.87491	0.0639395	-0.488816	
-4.64868	1.39584	-0.435385	
-5.41704	1.3266	-0.505685	
-5.47904	1.35721	-0.479358	
-6.04449	1.92786	-0.616317	
-3.747	1.94512	-0.411274	
-6.26177	0.0721374	-0.547838	
-5.41507	0.0533506	-0.505882	
-4.69632	0	-0.410878	
-6.26177	0.215036	-0.547838	
-6.95464	0.171582	-0.644598	
-4.69632	0.143615	-0.410878	
-4.69632	0.286611	-0.410878	
-6.26177	0.358269	-0.547838	
-5.42886	0.326064	-0.504242	
-5.42665	0.252841	-0.504549	
-5.47904	0.714404	-0.479358	
-5.47904	0.786116	-0.479358	
-6.20231	0.754574	-0.573892	
-4.91628	2	-0.490526	
-4.84359	2	-0.487579	
-6.44614	1.91204	-0.62601	
-4.93152	1.66657	-0.491172	
-5.64427	1.60722	-0.556761	
-4.74217	0.446925	-0.484058	
-4.68923	0.397747	-0.482575	
-6.32887	0.354616	-0.621685	
-4.47904	2	-0.479358	
-5.47904	1.42879	-0.479358	
-3.9136	2	-0.342399	
-4.63679	2	-0.436942	
-6.26177	1.92786	-0.547838	
-4.62511	2	-0.481142	
-3.76941	2	-0.411522	
-4.59003	1.93956	-0.480529	
-4.17358	1.94176	-0.423754	
-6.59503	1.9167	-0.632327	
-4.98867	2	-0.493628	
-5.47904	1.21388	-0.479358	
-4.64466	1.19029	-0.43597	
-5.47904	1.14216	-0.479358	
-5.47904	1.2856	-0.479358	
-5.41734	1.25405	-0.505654	
-6.26177	1.78496	-0.547838	
-5.47904	1.85639	-0.479358	
-3.86972	1.82617	-0.366295	
-4.63736	0.114671	-0.436878	
-6.18852	1.46922	-0.575155	
-6.143	1.38862	-0.576804	
-4.67384	0.824164	-0.482194	
-5.43366	0.897364	-0.55015	
-4.59605	0.840188	-0.480626	
-5.32169	1.46561	-0.507994	
-5.26177	1	-0.547838	
-6.10463	0.999321	-0.616812	
-6.04449	1.07055	-0.616317	
-4.94035	1.60348	-0.491549	
-4.57157	0.356544	-0.480255	
-3.85316	0.353408	-0.412874	
-4.61598	0.427857	-0.480971	
-5.69427	1.82506	-0.558807	
-5.69796	1.7382	-0.558962	
-4.18965	1.77788	-0.424446	
-4.99381	1.71777	-0.493849	
-5.04171	1.78088	-0.495871	
-5.85781	1.70728	-0.565688	
-5.89786	1.79378	-0.567358	
-4.89501	1.54291	-0.489637	
-4.83277	1.8351	-0.487166	
-6.0161	1.45384	-0.57313	
-5.19885	1.53294	-0.502946	
-5.15137	1.49429	-0.500579	
-5.97455	1.28284	-0.571073	
-6.66557	1.30815	-0.635181	
-5.12914	1.23305	-0.499518	
-6.85217	1.05577	-0.643915	
-5.32521	0.974397	-0.508067	
-4.58277	1.02275	-0.439794	
-5.0526	0.65903	-0.496316	
-5.82144	0.738857	-0.564227	
-4.98556	0.685529	-0.493494	
-5.79674	1.33866	-0.563191	
-5.80642	1.25226	-0.5636	
-6.04449	1.42879	-0.616317	
-5.34686	1.46516	-0.548634	
-6.04449	1.49933	-0.616317	
-4.56651	0.918262	-0.480186	
-6.31015	0.881052	-0.621095	
-4.82964	0.891355	-0.487048	
-4.81611	0.954992	-0.486546	
-4.29515	0.867158	-0.428835	
-5.12643	0.817822	-0.499392	
-5.9269	0.888323	-0.56871	
-5.43723	0.589259	-0.550228	
-5.51955	0.618435	-0.552376	
-5.45426	0.676586	-0.550619	
-5.27751	0	-0.506605	
-5.34881	0	-0.508345	
-6.12238	0.0790961	-0.576763	
-4.959	1.27156	-0.49235	
-4.94858	1.20368	-0.491902	
-4.99927	0.496767	-0.494082	
-5.03597	0.442032	-0.495633	
-5.86344	0.502871	-0.565906	
-5.89913	0.698424	-0.567415	
-4.88368	1.23016	-0.489172	
-4.83432	1.27217	-0.487225	
-5.58811	1.19537	-0.554638	
-4.1202	1.2898	-0.421486	
-4.33125	1.02577	-0.430346	
-5.92115	0.967174	-0.568435	
-5.19239	1.0342	-0.502621	
-6.5273	1.00672	-0.629432	
-4.99865	0.93866	-0.494056	
-5.05022	0.987296	-0.496219	
-5.63975	0.378981	-0.556583	
-4.91787	0.426844	-0.490593	
-5.64769	0.470462	-0.556897	
-6.17963	1.87857	-0.575735	
-6.1654	1.79633	-0.576368	
-5.31739	1.84585	-0.507897	
-5.10711	0.270573	-0.498523	
-4.30969	0.200611	-0.429418	
-5.94238	0.193571	-0.569465	
-5.88067	0.123897	-0.566609	
-5.04156	0.249496	-0.495864	
-5.03245	0.173576	-0.495487	
-6.13301	1.20923	-0.576829	
-5.32018	1.13932	-0.507961	
-5.4048	1.13751	-0.506749	
-5.15738	0.531427	-0.500873	
-5.15828	0.463982	-0.500917	
-5.10145	0.427199	-0.498278	
-5.16816	0.382421	-0.501407	
-4.57193	0.742778	-0.43987	
-6.14316	0.813881	-0.576803	
-5.86585	0.580015	-0.566001	
-5.16216	1.7199	-0.501109	
-5.95812	0.757182	-0.570248	
-4.4071	0.698895	-0.434012	
-5.24897	0.732194	-0.505381	
-5.22929	0.893597	-0.504453	
-5.19632	0.830458	-0.502819	
-6.0618	0.834567	-0.575146	
-5.34651	1.53139	-0.508336	
-5.29394	1.59044	-0.507211	
-5.26959	1.5207	-0.506284	
-5.60772	1.10613	-0.555355	
-4.75496	1.13654	-0.484455	
-6.10327	0.567577	-0.576449	
-6.1704	0.624293	-0.576182	
-5.31474	0.641057	-0.507832	
-5.2464	0.667946	-0.505263	
-5.24629	0.607392	-0.505258	
-6.02094	0.97644	-0.573361	
-5.41951	0	-0.505422	
-4.91205	1.40806	-0.490348	
-4.94473	1.34451	-0.491736	
-4.97831	1.41675	-0.493182	
-4.93923	1.48085	-0.491501	
-5.82718	1.43176	-0.564464	
-5.0039	1.49613	-0.494281	
-5.06989	0.925911	-0.497005	
-5.23693	1.74077	-0.504819	
-6.80312	1.66215	-0.641815	
-4.51925	1.70694	-0.438993	
-6.04449	1.71339	-0.616317	
-6.11494	1.77904	-0.61693	
-6.04449	1.78496	-0.616317	
-5.27751	2	-0.506605	
-6.10282	1.92525	-0.576439	
-5.34881	2	-0.508345	
-5.10993	0.350099	-0.498646	
-5.04621	0.315549	-0.496056	
-4.80602	1.02327	-0.486181	
-5.65832	1.02942	-0.557324	
-4.80108	0.0746863	-0.486004	
-4.83579	0.130322	-0.487281	
-5.54431	0.159825	-0.553146	
-5.55669	0.255296	-0.553552	
-4.03436	0.198868	-0.418102	
-4.87916	0.185075	-0.488988	
-5.50947	0.53229	-0.552078	
-7.60993	0.358269	-0.753277	
-5.26177	0.286611	-0.547838	
-4.54123	0.283499	-0.479875	
-6.04449	0.143615	-0.616317	
-5.33954	0.19815	-0.548539	
-6.04449	0.215036	-0.616317	
-6.18925	0.268711	-0.618076	
-5.77139	0	-0.562107	
-4.27873	0	-0.428192	
-5.06828	0.0522709	-0.496942	
-3.80592	0.233077	-0.371223	
-6.14015	0.293965	-0.57682	
-5.85381	1.52249	-0.565532	
-5.06959	1.6164	-0.496993	
-5.00997	1.57352	-0.494539	
-5.0055	1.65009	-0.494349	
-5.36713	1.59898	-0.508252	
-5.206	0	-0.503304	
-5.15141	0.0589648	-0.500581	
-5.13337	0	-0.499716	
-4.65145	1.47391	-0.481681	
-5.5169	1.46129	-0.552297	
-5.49442	1.53681	-0.551652	
-5.95546	0.286849	-0.570115	
-4.79249	0.724627	-0.485702	
-4.01994	0.784216	-0.417581	
-5.52397	0.788387	-0.552509	
-6.08999	0.223399	-0.57611	
-4.51048	1.34531	-0.438706	
-4.50573	1.40661	-0.438539	
-6.00913	1.36487	-0.572793	
-5.26124	1.29047	-0.505929	
-4.49206	0.414541	-0.438017	
-5.22205	0.434011	-0.5041	
-6.014	0.349215	-0.573029	
-5.33764	0.422964	-0.508262	
-6.07075	0.489015	-0.575483	
-5.35995	0.488653	-0.508327	
-3.51412	1.24582	-0.360421	
-5.06551	1.18695	-0.496833	
-4.45195	1.58611	-0.436232	
-4.02348	0.42229	-0.417707	
-4.04566	0.312816	-0.418521	
-5.69156	0.310713	-0.558693	
-4.85824	0.255176	-0.488151	
-4.92409	0.23291	-0.490856	
-6.8205	1.20734	-0.642616	
-5.12455	1.1572	-0.499305	
-5.19379	1.15129	-0.502692	
-4.39982	1.2101	-0.433646	
-5.91653	1.08885	-0.568216	
-4.73719	1.61914	-0.483907	
-4.75603	1.69424	-0.484489	
-5.46015	1.67616	-0.55076	
-4.80492	1.64844	-0.486141	
-4.83332	1.72086	-0.487187	
-5.17836	0.644913	-0.501916	
-4.464	1.94629	-0.436799	
-5.95745	1.93331	-0.570214	
-5.24815	1.88539	-0.505344	
-5.4425	0.0804625	-0.550346	
-3.81743	0.127785	-0.412214	
-3.82867	1.88257	-0.412408	
-5.44557	1.92762	-0.550416	
-4.69868	0.21589	-0.48282	
-4.45663	0.273142	-0.436455	
-5.23246	0.209198	-0.504606	
-4.44526	0.143339	-0.43591	
-5.29862	0.145092	-0.507366	
-4.39279	0.115792	-0.433294	
-5.17528	1.85807	-0.501762	
-5.10954	1.88373	-0.498629	
-4.31707	1.94611	-0.429727	
-4.27873	2	-0.428192	
-5.13337	2	-0.499716	
-4.647	0.682902	-0.435638	
-6.26177	0.64279	-0.547838	
-4.17357	1.88295	-0.423753	
-4.83419	1.53147	-0.48722	
-4.81176	1.46174	-0.486388	
-4.87623	1.47178	-0.488869	
-5.37864	1.08229	-0.508012	
-3.90471	0.329519	-0.414049	
-5.3243	0.43708	-0.548359	
-5.26177	0.429861	-0.547838	
-4.08644	1.67699	-0.420105	
-4.78685	1.57544	-0.485508	
-4.39985	1.60691	-0.433648	
-5.14084	1.65508	-0.500071	
-5.24192	1.81461	-0.505055	
-4.39841	1.78507	-0.433576	
-3.90352	0.749751	-0.414019	
-4.73609	0.701087	-0.483874	
-5.39877	0.758919	-0.549452	
-5.47904	0.429861	-0.479358	
-6.19564	0.409639	-0.574566	
-5.31007	1.77163	-0.507709	
-6.1624	1.71936	-0.576462	
-5.45551	1.1716	-0.550648	
-4.70558	1.09553	-0.483005	
-5.56105	1.76477	-0.553698	
-4.07281	1.7791	-0.419564	
-4.97904	0.277236	-0.493213	
-5.73698	0.151691	-0.560625	
-4.27804	1.84554	-0.428165	
-4.99456	1.83711	-0.493881	
-4.87507	1.33945	-0.488822	
-4.8461	1.40104	-0.487676	
-4.50561	0.297567	-0.438534	
-5.30772	0.357474	-0.507644	
-4.3218	0.760525	-0.429931	
-5.05483	0.810302	-0.496406	
-4.96286	0.749841	-0.492516	
-4.89784	0.751361	-0.489755	
-4.92012	0.686344	-0.490688	
-4.98952	0.810027	-0.493664	
-4.9242	0.81571	-0.490861	
-6.82721	1.64173	-0.684797	
-4.5447	1.65788	-0.479914	
-6.26177	1	-0.547838	
-6.26177	1.07055	-0.547838	
-4.64769	1.0308	-0.435536	
-3.76109	1.5272	-0.411424	
-6.04449	1.57014	-0.616317	
-4.11674	0.121062	-0.421342	
-4.94607	0.068568	-0.491794	
-5.01356	0.0968802	-0.494692	
-6.04449	1.85639	-0.616317	
-5.32847	1.8723	-0.548406	
-6.04449	0.0721374	-0.616317	
-4.53928	0.116381	-0.479854	
-5.04529	0.378957	-0.496018	
-6.04449	1.2856	-0.616317	
-4.54481	1.33655	-0.479915	
-6.04449	1.35721	-0.616317	
-4.15125	1.07097	-0.422796	
-4.94046	1.13809	-0.491553	
-4.10387	1.10545	-0.420811	
-4.99355	1.08867	-0.493837	
-4.95481	0.876824	-0.49217	
-4.89315	0.882801	-0.48956	
-5.6421	0.819303	-0.556675	
-5.11279	1.38959	-0.498773	
-4.32363	1.45442	-0.43001	
-5.17156	1.41914	-0.501576	
-4.2001	0.213959	-0.424896	
-4.9408	0.621411	-0.491568	
-4.90297	0.549577	-0.489968	
-4.96438	0.556476	-0.492581	
-4.93211	0.491713	-0.491197	
-6.02767	0.0712931	-0.573676	
-4.8728	1.1672	-0.488731	
-5.12825	1.57159	-0.499477	
-4.67262	0.47164	-0.482165	
-4.64364	0.476615	-0.436109	
-6.18425	0.546631	-0.575453	
-5.26177	0.500665	-0.547838	
-4.53902	0.802839	-0.479851	
-3.83155	0.646217	-0.41246	
-3.80936	0.69766	-0.412082	
-4.59218	1.17495	-0.480563	
-5.32724	1.0996	-0.548392	
-5.41167	1.1007	-0.549696	
-5.51983	1.32398	-0.552384	
-3.88582	1.29855	-0.413589	
-4.69836	1.24767	-0.482811	
-4.88098	0.61668	-0.489062	
-4.84384	0.546139	-0.487589	
-4.00244	0.561624	-0.41697	
-4.79704	0.491616	-0.485861	
-3.89219	1.0418	-0.41374	
-4.73555	1.02609	-0.483858	
-5.45922	0.976287	-0.550738	
-4.75264	0.965074	-0.484382	
-4.88512	0.954567	-0.489231	
-4.61263	1.62515	-0.48091	
-3.89126	1.59965	-0.413718	
-4.58947	0.360303	-0.439686	
-4.54922	1.5889	-0.479967	
-4.80677	1.33334	-0.486208	
-4.78044	1.39903	-0.485289	
-4.76802	1.2624	-0.484876	
-5.63824	0.683934	-0.556523	
-5.41083	0.967445	-0.506271	
-6.95804	0.89983	-0.644441	
-5.29735	0.914042	-0.507325	
-5.04719	1.0505	-0.496096	
-4.47452	1.13415	-0.437274	
-4.43092	1.09375	-0.435205	
-4.17255	1.5431	-0.423709	
-5.30526	0.770923	-0.507572	
-4.45667	0.785107	-0.436457	
-4.37934	1.34839	-0.432624	
-6.12869	1.29694	-0.576813	
-5.32881	1.65281	-0.508133	
-5.33333	1.25411	-0.548463	
-4.60883	1.32162	-0.480842	
-4.33254	0.633745	-0.430404	
-5.16938	0.587288	-0.501467	
-5.37006	0.6882	-0.508206	
-5.01597	0.873522	-0.494794	
-3.50074	1.36753	-0.3599	
-5.206	2	-0.503304	
-3.95485	1.1987	-0.415439	
-4.98238	0.394274	-0.493357	
-4.98171	0.336713	-0.493328	
-5.30377	0.702848	-0.507527	
-5.47904	0.929454	-0.479358	
-5.47904	0.857842	-0.479358	
-4.61166	1.94387	-0.438912	
-5.00367	1.16572	-0.494271	
-5.06041	1.11814	-0.49663	
-5.4797	1.79696	-0.551255	
-3.9225	1.73661	-0.414515	
-4.14365	0.370041	-0.422473	
-4.19194	0.446178	-0.424545	
-4.15612	0.936014	-0.423004	
-3.01524	1.0523	-0.343427	
-4.61866	1.01699	-0.48102	
-5.47904	1.49933	-0.479358	
-5.34496	0.586375	-0.548609	
-5.38147	0.509874	-0.54915	
-5.41747	1.54624	-0.50564	
-4.01007	0.664255	-0.417233	
-4.06121	0.750955	-0.419113	
-4.01326	0.837223	-0.417345	
-6.04449	1.21388	-0.616317	
-3.74761	1.17543	-0.41128	
-6.04449	0.929454	-0.616317	
-3.74847	0.873321	-0.411289	
-6.82721	0.857842	-0.684797	
-4.53558	0.725606	-0.479814	
-6.04449	0.786116	-0.616317	
-6.04449	0.714404	-0.616317	
-4.5516	0.653203	-0.479995	
-6.04449	0.64279	-0.616317	
-6.82721	0.571209	-0.684797	
-6.04449	1.14216	-0.616317	
-3.8276	0.957788	-0.412389	
-3.1404	0.930031	-0.346052	
-4.81986	0.613315	-0.486684	
-4.65233	1.6049	-0.434794	
-4.24198	0.552048	-0.426683	
-5.00427	0.616488	-0.494296	
-5.40383	1.54065	-0.549545	
-4.6381	0.177963	-0.481399	
-4.6248	1.24487	-0.481136	
-5.39355	1.39957	-0.549358	
-3.91713	0.139289	-0.414371	
-4.60204	1.69928	-0.480725	
-4.63507	1.75272	-0.481338	
-4.67353	1.35868	-0.482187	
-3.94358	1.39206	-0.415106	
-3.89709	1.42097	-0.413859	
-4.61259	1.81911	-0.480909	
-5.41242	1.6612	-0.506131	
-5.47904	1.71339	-0.479358	
-4.43619	0.496577	-0.435466	
-5.2427	0.549039	-0.505091	
-3.8794	1.85508	-0.41344	
-3.75016	0.520218	-0.411306	
-3.0967	0.528047	-0.34496	
-5.47904	1.57014	-0.479358	
-6.26177	0.500665	-0.547838	
-3.62124	0.932053	-0.365375	
-3.98862	1.07414	-0.416505	
-3.99207	1.51028	-0.41662	
-6.26177	1.64173	-0.547838	
-3.92834	0.282674	-0.414674	
-5.47904	0.571209	-0.479358	
-3.86902	0.59575	-0.366414	
-2.97912	1.71321	-0.342953	
-5.5756	1.88726	-0.554196	
-4.64012	0.827624	-0.436556	
-3.97881	1.82622	-0.416185	
-3.75931	1.40032	-0.411404	
-4.71706	1.87065	-0.483321	
-3.76645	0.866054	-0.371224	
-3.73363	1.24863	-0.370421	
-4.03748	1.94589	-0.418217	
-3.86656	1.75284	-0.366813	
-3.21295	1.94185	-0.34826	
-5.44277	0.611259	-0.438858	
-6.20542	0.691022	-0.497663	
-4.65704	0.951279	-0.36878	
-6.21159	0.885946	-0.500416	
-4.96756	0	-0.388587	
-4.89921	0	-0.395788	
-5.72115	0.0792566	-0.459895	
-6.11453	0	-0.597832	
-3.80413	0.0639973	-0.383199	
-4.61854	0	-0.444372	
-4.53219	0.0936441	-0.465159	
-4.82807	0	-0.405303	
-4.7575	0	-0.416657	
-4.8006	0.0798839	-0.4095	
-4.66802	0.821071	-0.374945	
-5.44159	1.45488	-0.438225	
-5.44465	1.89867	-0.439887	
-4.18484	2	-0.320107	
-5.03918	2	-0.383253	
-5.79972	1.91895	-0.453129	
-3.80757	1.93754	-0.382388	
-4.53729	1.90585	-0.463852	
-4.54908	2	-0.460873	
-4.61854	2	-0.444372	
-4.89921	2	-0.395788	
-4.86352	1.92228	-0.400313	
-4.82807	2	-0.405303	
-5.07578	1.85759	-0.38148	
-5.78403	1.82278	-0.454258	
-5.57892	0.600657	-0.478679	
-4.74112	0.663037	-0.419559	
-5.5912	0.68441	-0.476747	
-4.53385	0.939959	-0.464734	
-4.54291	1.33496	-0.462425	
-5.76951	1.68417	-0.455404	
-4.23408	1.74973	-0.316183	
-6.64865	1.71007	-0.518169	
-4.79364	1.02684	-0.41061	
-5.5868	0.943151	-0.477432	
-4.73845	0.965528	-0.42004	
-4.56936	0.553448	-0.455871	
-4.52641	0.495631	-0.466649	
-5.22881	1.36962	-0.385285	
-6.72597	1.42353	-0.51801	
-5.23937	1.43872	-0.386345	
-6.12776	1.02505	-0.472622	
-5.2789	0.965827	-0.391381	
-6.03478	1.04082	-0.456253	
-5.97364	1.21008	-0.450875	
-6.84513	1.26463	-0.528459	
-5.27368	1.19252	-0.390615	
-4.78246	1.8275	-0.412429	
-5.57748	1.91186	-0.478909	
-5.6326	1.83465	-0.470655	
-5.69625	1.04863	-0.462598	
-4.85298	1.0111	-0.401745	
-5.61917	1.09426	-0.47256	
-4.1227	1.10778	-0.326573	
-5.76904	1.09436	-0.455442	
-5.02225	0.92332	-0.384298	
-5.06045	0.983948	-0.382141	
-6.66882	0.912712	-0.517654	
-4.26452	1.65028	-0.314326	
-4.31832	1.64109	-0.312257	
-5.83606	1.58611	-0.450967	
-4.54927	0.621253	-0.460827	
-3.83302	0.607584	-0.376522	
-5.43819	0.544593	-0.504799	
-5.45887	0.626188	-0.50051	
-5.69413	0.883867	-0.46284	
-4.87035	0.814004	-0.399407	
-4.84603	0.883506	-0.402714	
-4.08189	0.94284	-0.331687	
-4.0288	0.823889	-0.339318	
-4.77688	0.86549	-0.413354	
-5.22229	0.577518	-0.384688	
-6.00251	0.659851	-0.45295	
-5.28401	0.634606	-0.392161	
-5.4336	0.0913029	-0.505773	
-4.57967	0.141129	-0.453387	
-5.0058	1.15841	-0.385444	
-6.65805	1.18235	-0.517888	
-4.27353	1.11752	-0.313862	
-6.14644	0.938839	-0.477425	
-4.63086	0.99711	-0.356918	
-5.03899	0.516229	-0.383264	
-5.85004	0.597248	-0.45031	
-5.11337	0.53029	-0.38056	
-5.67186	1.25683	-0.465493	
-5.65183	1.17353	-0.468051	
-4.82062	1.22905	-0.406412	
-6.16745	1.10599	-0.483626	
-5.42863	1.05145	-0.431825	
-5.38544	1.1866	-0.415372	
-5.43849	1.17077	-0.4366	
-6.37127	1.39834	-0.545639	
-4.0275	1.4857	-0.339518	
-4.87042	1.4682	-0.399399	
-5.98596	0.907417	-0.451662	
-5.15028	0.841878	-0.380783	
-6.96535	0.492781	-0.55721	
-4.56056	0.543817	-0.335243	
-5.39219	0.570722	-0.417582	
-5.17028	1.72433	-0.381391	
-5.1262	1.78876	-0.380508	
-5.04054	0.853718	-0.383176	
-4.9535	0.389993	-0.389906	
-4.17821	0.316743	-0.320718	
-4.89931	0.343184	-0.395777	
-5.07392	0.780432	-0.381554	
-4.31016	0.84375	-0.312442	
-5.14398	0.770799	-0.380663	
-4.98912	0.577671	-0.386733	
-5.33637	1.02428	-0.528212	
-5.5384	0.237428	-0.485455	
-4.77152	0.153222	-0.414254	
-4.70392	0.163431	-0.426511	
-5.62946	0.159631	-0.471093	
-5.19342	1.80219	-0.382543	
-4.44062	1.86234	-0.316301	
-5.27231	1.80354	-0.390418	
-5.10147	0.329138	-0.380729	
-5.95888	0.30982	-0.450117	
-5.90676	0.244444	-0.448987	
-5.13359	0.391669	-0.38054	
-3.95038	1.03303	-0.352534	
-5.10188	0.717798	-0.380721	
-5.02025	0.718603	-0.38443	
-4.27545	0.665477	-0.313769	
-5.13327	0.658642	-0.380538	
-4.17665	1.87015	-0.320865	
-4.92371	1.80864	-0.392981	
-4.28168	1.78424	-0.313479	
-4.95129	1.74797	-0.390121	
-5.19877	0.386445	-0.38288	
-5.22881	0.441074	-0.385285	
-5.26814	0.365688	-0.389837	
-5.04005	1.25637	-0.383204	
-5.11489	1.24657	-0.380547	
-5.0629	1.3122	-0.382027	
-4.3457	1.30199	-0.312033	
-5.18841	1.27096	-0.382252	
-4.91398	0.276367	-0.394066	
-6.39818	0.292881	-0.541577	
-4.08538	0.234809	-0.331224	
-4.02946	0.216682	-0.339216	
-5.29063	0.891352	-0.393221	
-5.08998	1.48059	-0.381	
-5.01413	1.4429	-0.384848	
-5.79515	1.51083	-0.453446	
-4.94274	1.45569	-0.390973	
-5.10249	1.36546	-0.38071	
-5.17296	1.34038	-0.3815	
-4.83851	1.70558	-0.403782	
-4.85349	1.63351	-0.401674	
-4.78154	1.65739	-0.412581	
-4.70236	0.837679	-0.426814	
-4.74664	0.792044	-0.41857	
-4.75889	1.09876	-0.416416	
-5.57143	1.30603	-0.479885	
-3.95932	1.35315	-0.350914	
-5.93762	0.166399	-0.449372	
-5.07309	0.169498	-0.381588	
-5.48948	1.40455	-0.494441	
-5.65497	0.41495	-0.467639	
-5.70753	0.474418	-0.46134	
-5.94259	1.05334	-0.44951	
-5.20077	0.984567	-0.383013	
-5.1642	1.13834	-0.381169	
-4.79897	0.452043	-0.409758	
-5.57885	0.374434	-0.47869	
-3.95748	0.42015	-0.351244	
-5.50194	0.484457	-0.49207	
-5.3168	0	-0.397954	
-5.33344	0.0667918	-0.401454	
-5.38119	0	-0.414034	
-5.3168	2	-0.397954	
-4.50255	1.94291	-0.323879	
-4.46362	2	-0.31863	
-5.35438	0.853126	-0.40647	
-5.38119	2	-0.414034	
-6.13053	1.92333	-0.473298	
-4.19386	0.506745	-0.319307	
-4.92355	0.56183	-0.392999	
-4.93131	0.636864	-0.392161	
-4.86222	0.546278	-0.400486	
-4.86295	0.617676	-0.400389	
-6.04695	0.078087	-0.457789	
-6.00704	1.56345	-0.453349	
-4.49365	1.62497	-0.322526	
-5.30847	1.57191	-0.39635	
-6.14913	0.153301	-0.47817	
-6.15337	0.252546	-0.47937	
-4.63915	0.211952	-0.360345	
-4.99466	0.650538	-0.386291	
-5.72671	0.718414	-0.459327	
-4.93324	0.798942	-0.391956	
-5.00029	0.786413	-0.385855	
-4.09602	0.678765	-0.329841	
-4.87299	0.741319	-0.399063	
-6.21195	1.80752	-0.50058	
-5.38048	1.74768	-0.413816	
-6.13422	1.83308	-0.474215	
-4.94082	1.20637	-0.391169	
-5.4388	1.92648	-0.504671	
-5.38312	1.86025	-0.516989	
-5.40016	0.344499	-0.420341	
-5.42608	0.410465	-0.430668	
-6.04389	0.282592	-0.457387	
-6.11372	0.338159	-0.469395	
-5.77057	0.251286	-0.455317	
-4.26175	0.217721	-0.314476	
-5.76349	0.164212	-0.455906	
-5.33922	0.230355	-0.527505	
-5.89477	1.93673	-0.449053	
-5.36888	1.26103	-0.410385	
-5.43248	1.24459	-0.433631	
-5.35389	1.32491	-0.406343	
-6.20724	1.31978	-0.498454	
-6.06932	0.804788	-0.46105	
-6.14114	0.759874	-0.476001	
-5.29564	0.714139	-0.394058	
-4.92197	0.206449	-0.393173	
-4.12367	0.138218	-0.32646	
-4.6023	1.72394	-0.44807	
-4.5673	1.78328	-0.456372	
-5.42907	1.79352	-0.506743	
-4.99987	1.03613	-0.385888	
-5.85572	1.05319	-0.450071	
-5.12375	0.992616	-0.380508	
-4.33096	1.10914	-0.312078	
-6.07859	0.204267	-0.462576	
-5.20736	0.22975	-0.383478	
-4.97593	0.863551	-0.387842	
-4.95788	0.938032	-0.389486	
-4.54101	1.76807	-0.330884	
-6.09535	1.69808	-0.465618	
-5.24082	1.73846	-0.3865	
-5.29779	0.425321	-0.394428	
-5.25384	0.500006	-0.387989	
-5.15737	0.456585	-0.380958	
-5.18488	0.51622	-0.382061	
-4.67901	0.232607	-0.431448	
-4.85305	1.33248	-0.401736	
-4.92859	1.52656	-0.392451	
-5.63644	1.55451	-0.470123	
-5.71253	1.60907	-0.460801	
-3.95562	0.903738	-0.35158	
-5.44742	0.902651	-0.502865	
-5.17878	0	-0.381757	
-5.10757	0	-0.380628	
-5.13016	0.051764	-0.38052	
-5.03918	0	-0.383253	
-5.06044	0.0537652	-0.382141	
-4.9572	1.3862	-0.38955	
-4.88649	1.3946	-0.397343	
-4.96306	1.26486	-0.388999	
-4.22881	1.21166	-0.31655	
-4.92019	1.32507	-0.393369	
-4.99116	1.32038	-0.386568	
-4.61945	0.814456	-0.352584	
-4.72678	1.88165	-0.422179	
-5.15459	0.594595	-0.380884	
-4.6678	1.38879	-0.374814	
-5.40081	1.39048	-0.420571	
-5.45083	0.75837	-0.502159	
-4.6247	0.821275	-0.442994	
-5.43336	0.75743	-0.434054	
-5.49859	1.60921	-0.492701	
-4.71562	1.68446	-0.424269	
-3.92626	1.75212	-0.357056	
-5.5538	1.73879	-0.482809	
-5.41465	1.59941	-0.509875	
-4.64698	1.66432	-0.438127	
-5.99584	1.93182	-0.452398	
-5.28794	1.87756	-0.392784	
-5.4416	0.146224	-0.43823	
-4.66536	1.10891	-0.373363	
-4.65953	0.544978	-0.370095	
-5.45066	1.32361	-0.502194	
-4.72607	0.0813768	-0.42231	
-4.68867	0	-0.429506	
-4.54711	1.21454	-0.332182	
-5.32954	1.14931	-0.400599	
-5.15243	1.87232	-0.380831	
-4.62926	1.24379	-0.441984	
-4.5911	1.29411	-0.450677	
-4.69528	1.24385	-0.428198	
-4.79327	1.16415	-0.410669	
-6.23011	0.398041	-0.571352	
-5.3357	1.20048	-0.528378	
-4.54226	1.11243	-0.462591	
-4.72879	0.560548	-0.421807	
-4.79355	0.523541	-0.410624	
-6.00495	1.65544	-0.453162	
-5.09088	0.109422	-0.380975	
-4.11885	1.86761	-0.327028	
-4.93498	1.9304	-0.391773	
-4.45972	0.741046	-0.318196	
-5.35241	0.676971	-0.405965	
-3.89964	0.693471	-0.36229	
-4.74136	0.726744	-0.419516	
-4.80833	0.760134	-0.408291	
-3.16971	0.61385	-0.28368	
-3.74277	0.170423	-0.398408	
-4.4416	1.15632	-0.316389	
-4.42893	1.09603	-0.315323	
-5.26913	1.1197	-0.389973	
-3.88518	1.85832	-0.365243	
-4.72114	1.8111	-0.42323	
-5.3808	1.45652	-0.413916	
-5.34127	1.39372	-0.403247	
-3.94252	1.94352	-0.353985	
-4.7575	2	-0.416657	
-5.20502	0.79232	-0.383308	
-4.44711	0.850283	-0.316903	
-5.18058	0.718066	-0.381844	
-4.63058	0.180772	-0.441691	
-5.15493	1.51591	-0.380893	
-5.93058	1.59438	-0.449212	
-4.42426	1.48768	-0.314971	
-5.27376	1.50665	-0.390627	
-3.75207	1.83632	-0.396013	
-5.54269	1.53312	-0.484708	
-3.9056	1.54488	-0.361095	
-4.53225	1.71558	-0.465143	
-6.18328	1.66217	-0.488961	
-4.72437	0.358669	-0.422626	
-4.66773	0.310734	-0.433758	
-4.50008	1.39867	-0.323494	
-5.313	1.4537	-0.397211	
-5.29251	1.33896	-0.393531	
-5.08685	0.46147	-0.381092	
-4.2849	0.394907	-0.313337	
-5.79168	0.433969	-0.453693	
-4.29812	1.42238	-0.312811	
-5.02745	1.37641	-0.383963	
-5.33945	0.606335	-0.402821	
-4.57596	0.879786	-0.454274	
-4.58732	0.752034	-0.451568	
-4.54408	0.815753	-0.462131	
-5.39821	1.38066	-0.513539	
-6.20506	1.52165	-0.497506	
-5.34733	1.51493	-0.404701	
-4.53245	1.08423	-0.329152	
-4.5444	1.59815	-0.462051	
-4.32485	2	-0.312148	
-5.50004	1.16076	-0.492427	
-3.87818	1.18618	-0.366698	
-4.15567	1.14984	-0.322938	
-4.75729	1.23168	-0.416695	
-4.60317	1.16237	-0.447869	
-4.90907	1.68406	-0.394629	
-3.66294	0.333428	-0.248285	
-4.54491	1.52552	-0.461923	
-4.59134	0.488947	-0.45062	
-4.00621	1.59304	-0.34289	
-5.37974	1.57917	-0.413589	
-4.56943	1.65719	-0.455853	
-5.28429	0.559694	-0.392205	
-5.32216	0.490232	-0.399037	
-4.6083	0.956713	-0.446693	
-4.67895	0.989568	-0.43146	
-4.88315	1.75665	-0.397761	
-4.0406	1.77244	-0.337529	
-3.87945	1.72615	-0.366433	
-3.9875	0.310718	-0.345995	
-3.93494	0.290342	-0.355404	
-3.94598	1.29539	-0.353344	
-5.17878	2	-0.381757	
-4.07286	0.482459	-0.332908	
-4.45102	1.30941	-0.317286	
-5.01711	0.109198	-0.384642	
-4.63189	1.03572	-0.441405	
-4.69292	1.07584	-0.428663	
-4.68867	2	-0.429506	
-4.61169	0.633303	-0.349853	
-5.36137	0.422033	-0.408309	
-3.75112	0.266461	-0.260948	
-4.61529	0.262786	-0.445104	
-4.36994	1.66446	-0.312357	
-4.30724	1.54135	-0.312521	
-4.57314	0.371856	-0.454956	
-3.82271	0.429791	-0.378869	
-4.2014	1.56661	-0.318665	
-4.21581	1.62234	-0.31751	
-3.27151	1.2804	-0.267048	
-4.5414	0.68957	-0.462809	
-3.74337	0.753859	-0.398254	
-5.43881	0.285029	-0.436767	
-3.74745	1.26259	-0.397199	
-6.22301	0	-0.506015	
-3.75541	1.39629	-0.39516	
-5.34702	1.45609	-0.525584	
-4.54944	0.308608	-0.460783	
-5.39765	0.682551	-0.513664	
-4.53845	0.423502	-0.463558	
-5.44029	2	-0.437536	
-4.2177	0.980727	-0.317366	
-5.40891	1.51237	-0.511142	
-4.64949	1.11653	-0.43759	
-4.27526	0.277428	-0.313779	
-5.80553	0.33864	-0.452741	
-3.81219	1.08627	-0.381304	
-4.37214	0.0993244	-0.312411	
-5.20296	0.0548078	-0.383163	
-3.02302	1.55961	-0.314339	
-5.4402	1.72118	-0.437491	
-4.62255	1.94239	-0.353722	
-4.61438	1.87535	-0.35078	
-3.86977	0.473525	-0.368472	
-3.83326	0.331482	-0.376468	
-4.55725	1.63205	-0.334463	
-4.65504	1.59521	-0.367753	
-4.69897	1.47977	-0.427473	
-5.23881	0.160133	-0.386287	
-4.42423	0.114041	-0.314968	
-3.97484	1.45658	-0.348168	
-4.51975	0.130179	-0.326772	
-4.90718	0.972536	-0.394848	
-5.41199	0.0752793	-0.424769	
-4.21475	0.0509452	-0.317592	
-4.1698	1.00206	-0.321521	
-3.28231	0.356044	-0.265513	
-4.86707	0.0762643	-0.399839	
-3.85984	1.44431	-0.370599	
-5.24634	0	-0.387109	
-3.88342	0.460204	-0.305337	
-3.59045	0.946643	-0.243959	
-4.55337	2	-0.470062	
-4.63236	2	-0.461528	
-4.79592	2	-0.448265	
-4.88192	2	-0.443675	
-4.71292	2	-0.454252	
-5.84095	2	-0.507886	
-6.01911	2	-0.514027	
-5.4083	2	-0.466461	
-5.32497	2	-0.454478	
-5.14724	2	-0.440521	
-5.75146	2	-0.50919	
-6.04449	-0.0721374	-0.616317	
-3.74614	-0.0524234	-0.411265	
-4.01326	-1.94219	-0.417345	
-4.73029	-1.93265	-0.483702	
-4.77066	-2	-0.484962	
-4.58969	-0.0610541	-0.480524	
-4.73394	-0.0745946	-0.48381	
-4.87594	-0.063891	-0.488858	
-5.47904	-1.2856	-0.479358	
-5.41732	-1.32684	-0.505656	
-5.47904	-1.35721	-0.479358	
-5.47904	-0.0721374	-0.479358	
-6.26177	-0.215036	-0.547838	
-5.47904	-0.143615	-0.479358	
-5.42781	-0.177622	-0.50439	
-4.69632	-0.286611	-0.410878	
-5.42889	-0.326516	-0.504238	
-6.26177	-0.358269	-0.547838	
-5.42908	-0.255005	-0.504211	
-5.47904	-0.714404	-0.479358	
-6.20234	-0.754353	-0.573889	
-5.47904	-0.786116	-0.479358	
-4.91628	-2	-0.490526	
-5.65383	-1.91632	-0.557142	
-4.84359	-2	-0.487579	
-3.76941	-2	-0.411522	
-3.74724	-1.94543	-0.411276	
-4.47904	-2	-0.479358	
-5.43011	-1.39944	-0.50406	
-5.47904	-1.42879	-0.479358	
-3.9136	-2	-0.342399	
-6.26177	-1.92786	-0.547838	
-4.63679	-2	-0.436942	
-4.62511	-2	-0.481142	
-4.58926	-1.9425	-0.480517	
-5.81255	-1.91894	-0.563857	
-4.98867	-2	-0.493628	
-4.27873	-2	-0.428192	
-5.47904	-1.21388	-0.479358	
-5.41722	-1.25457	-0.505666	
-6.26177	-1.78496	-0.547838	
-3.86976	-1.82622	-0.366289	
-5.47904	-1.85639	-0.479358	
-4.67384	-0.824164	-0.482194	
-4.59605	-0.840188	-0.480626	
-5.43366	-0.897364	-0.55015	
-6.04449	-1.07055	-0.616317	
-5.32724	-1.0996	-0.548392	
-6.10463	-0.999321	-0.616812	
-4.85836	-1.67801	-0.488155	
-4.92943	-1.66711	-0.491083	
-5.6447	-1.60664	-0.556778	
-4.74194	-0.446895	-0.484051	
-6.3283	-0.354649	-0.621667	
-4.68812	-0.398171	-0.482546	
-5.69575	-1.83141	-0.558869	
-4.18966	-1.78071	-0.424447	
-5.69731	-1.74009	-0.558934	
-5.85766	-1.7075	-0.565682	
-4.99343	-1.71822	-0.493832	
-5.04053	-1.78279	-0.495822	
-5.89759	-1.79397	-0.567346	
-4.94033	-1.60358	-0.491548	
-4.89509	-1.5428	-0.489641	
-4.05828	-1.84473	-0.419	
-6.01628	-1.45461	-0.573138	
-5.15133	-1.49442	-0.500577	
-5.1988	-1.53304	-0.502944	
-6.7659	-1.28582	-0.639986	
-5.13047	-1.23395	-0.49958	
-6.66675	-1.30809	-0.635231	
-6.85108	-1.05755	-0.643875	
-4.57787	-1.02435	-0.439842	
-4.52928	-0.98494	-0.439281	
-5.05259	-0.659051	-0.496315	
-4.98556	-0.685531	-0.493494	
-5.82144	-0.738859	-0.564227	
-5.79685	-1.33862	-0.563196	
-5.80653	-1.25231	-0.563605	
-6.04449	-1.42879	-0.616317	
-6.04449	-1.49933	-0.616317	
-5.34633	-1.4654	-0.548627	
-4.56651	-0.918262	-0.480186	
-4.61866	-1.01699	-0.48102	
-3.8276	-0.957788	-0.412389	
-6.31015	-0.881052	-0.621095	
-4.75264	-0.965074	-0.484382	
-4.81611	-0.954992	-0.486546	
-4.29515	-0.86716	-0.428836	
-5.927	-0.888326	-0.568715	
-5.12645	-0.817828	-0.499393	
-5.43723	-0.589278	-0.550228	
-5.45426	-0.676587	-0.550619	
-5.51955	-0.618429	-0.552376	
-6.1138	-0.0745363	-0.576651	
-5.06566	-1.18703	-0.496839	
-5.00369	-1.16574	-0.494272	
-4.99903	-0.496062	-0.494072	
-5.86275	-0.503541	-0.565878	
-5.03467	-0.439924	-0.49558	
-5.89913	-0.698429	-0.567415	
-4.88368	-1.23016	-0.489172	