<VTKFile type="UnstructuredGrid" version="0.1" byte_order="LittleEndian">
	<UnstructuredGrid>
		<Piece NumberOfPoints="1917" NumberOfCells="56">
			<CellData Scalars="scalars">
				<DataArray type="Float64" Name="Doublet Strengths" NumberOfComponents="1" Format="ascii">
-0.5955	
-2.33278	
-1.78009	
-2.26701	
-2.52656	
-2.70164	
-2.67583	
-2.623	
-2.06115	
-1.73986	
-1.08861	
-3.22429	
-1.79082	
-3.01188	
-1.82128	
-1.82368	
-2.54285	
-2.41106	
-2.39433	
-2.07003	
-2.43292	
-2.67222	
-1.98245	
-2.58269	
-4.78319	
-2.35057	
-1.79246	
-1.73842	
-4.78102	
-1.71919	
-2.2726	
-2.53037	
-2.12106	
-1.55803	
-0.867455	
-3.1727	
-1.68735	
-2.10782	
-2.59594	
-1.61313	
-1.71271	
-2.19859	
-2.18146	
-2.06743	
-1.9253	
-2.14503	
-2.16091	
-2.08261	
-1.70884	
-1.85863	
-2.10463	
-0.520749	
-1.4055	
-1.65099	
-2.1188	
-1.11035	
				</DataArray>
				<DataArray type="Float64" Name="Velocity Potential" NumberOfComponents="1" Format="ascii">
-428.569	
-549.71	
-550.816	
-549.867	
-550.521	
-548.541	
-550.105	
-550.006	
-550.076	
-550.686	
-551.225	
-545.624	
-550.87	
-549.256	
-550.463	
-550.76	
-549.43	
-550.056	
-549.952	
-550.227	
-549.615	
-549.559	
-550.508	
-549.549	
-542.775	
-549.984	
-550.441	
-550.95	
-543.761	
-550.274	
-550.634	
-550.339	
-550.754	
-550.584	
-551.796	
-547.507	
-550.53	
-550.674	
-549.65	
-550.282	
-550.461	
-549.814	
-550.243	
-550.35	
-549.86	
-549.458	
-549.377	
-550.522	
-550.148	
-550.155	
-550.103	
-428.915	
-551.063	
-550.444	
-550.135	
-551.521	
				</DataArray>
			</CellData>
			<Points>
				<DataArray type="Float64" Name="Position" NumberOfComponents="3" Format="ascii">
-11.5255	0	-1.09009	
-9.72328	0.0524256	-0.934201	
-15.0102	0	-1.40072	
-11.6715	2	-1.0929	
-11.7027	1.93467	-1.09377	
-13.5229	2	-1.25069	
-11.5984	0	-1.09123	
-11.563	0.0610502	-1.09062	
-11.7073	0.0745738	-1.0939	
-11.6715	0	-1.0929	
-11.744	0	-1.09505	
-11.8169	0	-1.09767	
-11.8896	0	-1.10062	
-11.8482	0.0639395	-1.09891	
-10.6258	1.39584	-0.958321	
-12.3904	1.3266	-1.11578	
-12.4524	1.35721	-1.08945	
-15.0102	1.92786	-1.40072	
-9.72414	1.94512	-0.93421	
-14.2313	0.0721374	-1.24509	
-12.3884	0.0533506	-1.11597	
-10.6735	0	-0.933814	
-14.2313	0.215036	-1.24509	
-15.9204	0.171582	-1.429	
-10.6735	0.143615	-0.933814	
-10.6735	0.286611	-0.933814	
-14.2313	0.358269	-1.24509	
-12.4022	0.326064	-1.11433	
-12.4	0.252841	-1.11464	
-12.4524	0.714404	-1.08945	
-12.4524	0.786116	-1.08945	
-14.1718	0.754574	-1.27114	
-11.8896	2	-1.10062	
-11.8169	2	-1.09767	
-15.4119	1.91204	-1.41041	
-11.9048	1.66657	-1.10126	
-13.6138	1.60722	-1.25401	
-11.7155	0.446925	-1.09415	
-11.6626	0.397747	-1.09267	
-15.2946	0.354616	-1.40609	
-11.4524	2	-1.08945	
-12.4524	1.42879	-1.08945	
-8.89455	2	-0.778179	
-10.6139	2	-0.959878	
-14.2313	1.92786	-1.24509	
-11.5984	2	-1.09123	
-9.74655	2	-0.934458	
-11.5634	1.93956	-1.09062	
-10.1507	1.94176	-0.94669	
-15.5607	1.9167	-1.41673	
-11.962	2	-1.10372	
-12.4524	1.21388	-1.08945	
-10.6218	1.19029	-0.958906	
-12.4524	1.14216	-1.08945	
-12.4524	1.2856	-1.08945	
-12.3907	1.25405	-1.11575	
-14.2313	1.78496	-1.24509	
-12.4524	1.85639	-1.08945	
-8.85067	1.82617	-0.802075	
-10.6145	0.114671	-0.959814	
-14.158	1.46922	-1.2724	
-14.1125	1.38862	-1.27405	
-11.6472	0.824164	-1.09229	
-13.4032	0.897364	-1.2474	
-11.5694	0.840188	-1.09072	
-12.295	1.46561	-1.11809	
-13.2313	1	-1.24509	
-15.0703	0.999321	-1.40122	
-15.0102	1.07055	-1.40072	
-11.9137	1.60348	-1.10164	
-11.5449	0.356544	-1.09035	
-9.8303	0.353408	-0.93581	
-11.5893	0.427857	-1.09106	
-13.6638	1.82506	-1.25605	
-13.6675	1.7382	-1.25621	
-10.1668	1.77788	-0.947382	
-11.9671	1.71777	-1.10394	
-12.015	1.78088	-1.10596	
-13.8273	1.70728	-1.26294	
-13.8674	1.79378	-1.26461	
-11.8683	1.54291	-1.09973	
-11.8061	1.8351	-1.09726	
-13.9856	1.45384	-1.27038	
-12.1722	1.53294	-1.11304	
-12.1247	1.49429	-1.11067	
-13.9441	1.28284	-1.26832	
-15.6313	1.30815	-1.41959	
-12.1025	1.23305	-1.10961	
-15.8179	1.05577	-1.42832	
-12.2985	0.974397	-1.11816	
-10.5599	1.02275	-0.96273	
-12.0259	0.65903	-1.10641	
-13.791	0.738857	-1.26148	
-11.9589	0.685529	-1.10359	
-13.7663	1.33866	-1.26044	
-13.7759	1.25226	-1.26085	
-15.0102	1.42879	-1.40072	
-13.3164	1.46516	-1.24588	
-15.0102	1.49933	-1.40072	
-11.5398	0.918262	-1.09028	
-15.2759	0.881052	-1.4055	
-11.803	0.891355	-1.09714	
-11.7894	0.954992	-1.09664	
-10.2723	0.867158	-0.951771	
-12.0998	0.817822	-1.10948	
-13.8964	0.888323	-1.26596	
-13.4067	0.589259	-1.24748	
-13.4891	0.618435	-1.24962	
-13.4238	0.676586	-1.24787	
-12.2508	0	-1.1167	
-12.3221	0	-1.11844	
-14.0919	0.0790961	-1.27401	
-11.9323	1.27156	-1.10244	
-11.9219	1.20368	-1.10199	
-11.9726	0.496767	-1.10417	
-12.0093	0.442032	-1.10573	
-13.833	0.502871	-1.26315	
-13.8687	0.698424	-1.26466	
-11.857	1.23016	-1.09926	
-11.8076	1.27217	-1.09732	
-13.5576	1.19537	-1.25189	
-10.0973	1.2898	-0.944422	
-10.3084	1.02577	-0.953282	
-13.8907	0.967174	-1.26568	
-12.1657	1.0342	-1.11271	
-15.493	1.00672	-1.41384	
-11.972	0.93866	-1.10415	
-12.0235	0.987296	-1.10631	
-13.6093	0.378981	-1.25383	
-11.8912	0.426844	-1.10068	
-13.6172	0.470462	-1.25414	
-14.1492	1.87857	-1.27298	
-14.1349	1.79633	-1.27362	
-12.2907	1.84585	-1.11799	
-12.0804	0.270573	-1.10861	
-10.2868	0.200611	-0.952354	
-13.9119	0.193571	-1.26671	
-13.8502	0.123897	-1.26386	
-12.0149	0.249496	-1.10596	
-12.0058	0.173576	-1.10558	
-14.1025	1.20923	-1.27408	
-12.2935	1.13932	-1.11805	
-12.3781	1.13751	-1.11684	
-12.1307	0.531427	-1.11097	
-12.1316	0.463982	-1.11101	
-12.0748	0.427199	-1.10837	
-12.1415	0.382421	-1.1115	
-10.5491	0.742778	-0.962806	
-14.1127	0.813881	-1.27405	
-13.8354	0.580015	-1.26325	
-12.1355	1.7199	-1.1112	
-13.9276	0.757182	-1.2675	
-10.3842	0.698895	-0.956948	
-12.2223	0.732194	-1.11547	
-12.2026	0.893597	-1.11455	
-12.1697	0.830458	-1.11291	
-14.0313	0.834567	-1.27239	
-12.3198	1.53139	-1.11843	
-12.2673	1.59044	-1.1173	
-12.2429	1.5207	-1.11638	
-13.5772	1.10613	-1.2526	
-11.7283	1.13654	-1.09455	
-14.0728	0.567577	-1.2737	
-14.1399	0.624293	-1.27343	
-12.2881	0.641057	-1.11792	
-12.2197	0.667946	-1.11536	
-12.2196	0.607392	-1.11535	
-13.9905	0.97644	-1.27061	
-12.3928	0	-1.11551	
-11.8854	1.40806	-1.10044	
-11.9181	1.34451	-1.10183	
-11.9516	1.41675	-1.10327	
-11.9126	1.48085	-1.10159	
-13.7967	1.43176	-1.26171	
-11.9772	1.49613	-1.10437	
-12.0432	0.925911	-1.1071	
-12.2103	1.74077	-1.11491	
-15.7688	1.66215	-1.42622	
-10.4964	1.70694	-0.961929	
-15.0102	1.71339	-1.40072	
-15.0806	1.77904	-1.40133	
-15.0102	1.78496	-1.40072	
-12.2508	2	-1.1167	
-14.0723	1.92525	-1.27369	
-12.3221	2	-1.11844	
-12.0833	0.350099	-1.10874	
-12.0195	0.315549	-1.10615	
-11.7794	1.02327	-1.09627	
-13.6278	1.02942	-1.25457	
-11.7744	0.0746863	-1.0961	
-11.8091	0.130322	-1.09737	
-13.5138	0.159825	-1.25039	
-13.5262	0.255296	-1.2508	
-10.0115	0.198868	-0.941038	
-11.8525	0.185075	-1.09908	
-13.479	0.53229	-1.24933	
-18.568	0.358269	-1.71199	
-13.2313	0.286611	-1.24509	
-11.5146	0.283499	-1.08997	
-15.0102	0.143615	-1.40072	
-13.3091	0.19815	-1.24579	
-15.0102	0.215036	-1.40072	
-15.155	0.268711	-1.40248	
-13.7409	0	-1.25936	
-10.2559	0	-0.951128	
-12.0416	0.0522709	-1.10703	
-8.78687	0.233077	-0.807003	
-14.1097	0.293965	-1.27407	
-13.8233	1.52249	-1.26278	
-12.0429	1.6164	-1.10709	
-11.9833	1.57352	-1.10463	
-11.9788	1.65009	-1.10444	
-12.3405	1.59898	-1.11834	
-12.1793	0	-1.1134	
-12.1247	0.0589648	-1.11067	
-12.1067	0	-1.10981	
-11.6248	1.47391	-1.09177	
-13.4864	1.46129	-1.24954	
-13.4639	1.53681	-1.2489	
-13.925	0.286849	-1.26736	
-11.7658	0.724627	-1.09579	
-9.99708	0.784216	-0.940517	
-13.4935	0.788387	-1.24976	
-14.0595	0.223399	-1.27336	
-10.4876	1.34531	-0.961642	
-10.4829	1.40661	-0.961475	
-13.9786	1.36487	-1.27004	
-12.2346	1.29047	-1.11602	
-10.4692	0.414541	-0.960953	
-12.1954	0.434011	-1.11419	
-13.9835	0.349215	-1.27028	
-12.311	0.422964	-1.11835	
-14.0403	0.489015	-1.27273	
-12.3333	0.488653	-1.11842	
-8.49507	1.24582	-0.796201	
-12.0388	1.18695	-1.10692	
-10.4291	1.58611	-0.959168	
-10.0006	0.42229	-0.940643	
-10.0228	0.312816	-0.941457	
-13.6611	0.310713	-1.25594	
-11.8316	0.255176	-1.09824	
-11.8974	0.23291	-1.10095	
-15.7862	1.20734	-1.42702	
-12.0979	1.1572	-1.1094	
-12.1671	1.15129	-1.11278	
-10.377	1.2101	-0.956582	
-13.886	1.08885	-1.26546	
-11.7105	1.61914	-1.094	
-11.7294	1.69424	-1.09458	
-13.4297	1.67616	-1.24801	
-11.7782	1.64844	-1.09623	
-11.8067	1.72086	-1.09728	
-12.1517	0.644913	-1.11201	
-10.4411	1.94629	-0.959735	
-13.927	1.93331	-1.26746	
-12.2215	1.88539	-1.11544	
-13.412	0.0804625	-1.24759	
-9.79457	0.127785	-0.93515	
-9.80581	1.88257	-0.935344	
-13.4151	1.92762	-1.24766	
-11.672	0.21589	-1.09291	
-10.4338	0.273142	-0.959391	
-12.2058	0.209198	-1.1147	
-10.4224	0.143339	-0.958846	
-12.2719	0.145092	-1.11746	
-10.3699	0.115792	-0.95623	
-12.1486	1.85807	-1.11185	
-12.0829	1.88373	-1.10872	
-10.2942	1.94611	-0.952663	
-10.2559	2	-0.951128	
-12.1067	2	-1.10981	
-10.6241	0.682902	-0.958574	
-14.2313	0.64279	-1.24509	
-10.1507	1.88295	-0.946689	
-11.8075	1.53147	-1.09731	
-11.7851	1.46174	-1.09648	
-11.8496	1.47178	-1.09896	
-12.352	1.08229	-1.1181	
-9.88185	0.329519	-0.936985	
-13.2938	0.43708	-1.24561	
-13.2313	0.429861	-1.24509	
-10.0636	1.67699	-0.943041	
-11.7602	1.57544	-1.0956	
-10.377	1.60691	-0.956584	
-12.1142	1.65508	-1.11016	
-12.2153	1.81461	-1.11515	
-10.3756	1.78507	-0.956512	
-9.88066	0.749751	-0.936955	
-11.7094	0.701087	-1.09397	
-13.3683	0.758919	-1.2467	
-12.4524	0.429861	-1.08945	
-14.1652	0.409639	-1.27181	
-12.2834	1.77163	-1.1178	
-14.1319	1.71936	-1.27371	
-13.425	1.1716	-1.2479	
-11.6789	1.09553	-1.0931	
-13.5306	1.76477	-1.25095	
-10.0499	1.7791	-0.9425	
-11.9524	0.277236	-1.10331	
-13.7065	0.151691	-1.25787	
-10.2552	1.84554	-0.951101	
-11.9679	1.83711	-1.10397	
-11.8484	1.33945	-1.09891	
-11.8194	1.40104	-1.09777	
-10.4827	0.297567	-0.96147	
-12.2811	0.357474	-1.11774	
-10.2989	0.760525	-0.952867	
-12.0282	0.810302	-1.1065	
-11.9362	0.749841	-1.10261	
-11.8712	0.751361	-1.09985	
-11.8935	0.686344	-1.10078	
-11.9628	0.810027	-1.10376	
-11.8975	0.81571	-1.10095	
-16.7891	1.64173	-1.55636	
-11.518	1.65788	-1.09001	
-14.2313	1	-1.24509	
-14.2313	1.07055	-1.24509	
-10.6248	1.0308	-0.958472	
-9.73823	1.5272	-0.93436	
-15.0102	1.57014	-1.40072	
-10.0939	0.121062	-0.944278	
-11.9194	0.068568	-1.10189	
-11.9869	0.0968802	-1.10478	
-15.0102	1.85639	-1.40072	
-13.298	1.8723	-1.24565	
-15.0102	0.0721374	-1.40072	
-11.5126	0.116381	-1.08995	
-12.0186	0.378957	-1.10611	
-15.0102	1.2856	-1.40072	
-11.5181	1.33655	-1.09001	
-15.0102	1.35721	-1.40072	
-10.1284	1.07097	-0.945732	
-11.9138	1.13809	-1.10165	
-10.081	1.10545	-0.943747	
-11.9669	1.08867	-1.10393	
-11.9281	0.876824	-1.10226	
-11.8665	0.882801	-1.09965	
-13.6116	0.819303	-1.25392	
-12.0861	1.38959	-1.10887	
-10.3008	1.45442	-0.952946	
-12.1449	1.41914	-1.11167	
-10.1772	0.213959	-0.947832	
-11.9141	0.621411	-1.10166	
-11.8763	0.549577	-1.10006	
-11.9377	0.556476	-1.10267	
-11.9054	0.491713	-1.10129	
-13.9972	0.0712931	-1.27092	
-11.8461	1.1672	-1.09882	
-12.1016	1.57159	-1.10957	
-11.646	0.47164	-1.09226	
-10.6208	0.476615	-0.959045	
-14.1538	0.546631	-1.2727	
-13.2313	0.500665	-1.24509	
-11.5124	0.802839	-1.08994	
-9.80869	0.646217	-0.935396	
-9.7865	0.69766	-0.935018	
-11.5655	1.17495	-1.09066	
-13.2968	1.0996	-1.24564	
-13.3812	1.1007	-1.24694	
-13.4893	1.32398	-1.24963	
-9.86296	1.29855	-0.936525	
-11.6717	1.24767	-1.0929	
-11.8543	0.61668	-1.09915	
-11.8172	0.546139	-1.09768	
-9.97958	0.561624	-0.939906	
-11.7704	0.491616	-1.09595	
-9.86933	1.0418	-0.936676	
-11.7089	1.02609	-1.09395	
-13.4287	0.976287	-1.24799	
-11.726	0.965074	-1.09447	
-11.8585	0.954567	-1.09932	
-11.586	1.62515	-1.091	
-9.8684	1.59965	-0.936654	
-10.5666	0.360303	-0.962622	
-11.5226	1.5889	-1.09006	
-11.7801	1.33334	-1.0963	
-11.7538	1.39903	-1.09538	
-11.7414	1.2624	-1.09497	
-13.6078	0.683934	-1.25377	
-12.3842	0.967445	-1.11636	
-15.9237	0.89983	-1.42885	
-12.2707	0.914042	-1.11742	
-12.0205	1.0505	-1.10619	
-10.4517	1.13415	-0.96021	
-10.4081	1.09375	-0.958141	
-10.1497	1.5431	-0.946645	
-12.2786	0.770923	-1.11766	
-10.4338	0.785107	-0.959393	
-10.3565	1.34839	-0.95556	
-14.0982	1.29694	-1.27406	
-12.3021	1.65281	-1.11822	
-13.3029	1.25411	-1.24571	
-11.5822	1.32162	-1.09093	
-10.3097	0.633745	-0.95334	
-12.1427	0.587288	-1.11156	
-12.3434	0.6882	-1.1183	
-11.9893	0.873522	-1.10489	
-8.48169	1.36753	-0.79568	
-12.1793	2	-1.1134	
-9.93199	1.1987	-0.938375	
-11.9557	0.394274	-1.10345	
-11.955	0.336713	-1.10342	
-12.2771	0.702848	-1.11762	
-12.4524	0.929454	-1.08945	
-12.4524	0.857842	-1.08945	
-10.5888	1.94387	-0.961848	
-11.977	1.16572	-1.10436	
-12.0337	1.11814	-1.10672	
-13.4492	1.79696	-1.2485	
-9.89964	1.73661	-0.937451	
-10.1208	0.370041	-0.945409	
-10.1691	0.446178	-0.947481	
-10.1333	0.936014	-0.94594	
-7.99619	1.0523	-0.779207	
-11.592	1.01699	-1.09111	
-12.4524	1.49933	-1.08945	
-13.3145	0.586375	-1.24586	
-13.351	0.509874	-1.2464	
-12.3908	1.54624	-1.11573	
-9.98721	0.664255	-0.940169	
-10.0384	0.750955	-0.942049	
-9.9904	0.837223	-0.940281	
-15.0102	1.21388	-1.40072	
-9.72475	1.17543	-0.934216	
-15.0102	0.929454	-1.40072	
-9.72561	0.873321	-0.934225	
-16.7891	0.857842	-1.55636	
-11.5089	0.725606	-1.08991	
-15.0102	0.786116	-1.40072	
-15.0102	0.714404	-1.40072	
-11.5249	0.653203	-1.09009	
-15.0102	0.64279	-1.40072	
-16.7891	0.571209	-1.55636	
-15.0102	1.14216	-1.40072	
-9.80474	0.957788	-0.935325	
-8.12135	0.930031	-0.781832	
-11.7932	0.613315	-1.09678	
-10.6295	1.6049	-0.95773	
-10.2191	0.552048	-0.949619	
-11.9776	0.616488	-1.10439	
-13.3734	1.54065	-1.24679	
-11.6114	0.177963	-1.09149	
-11.5981	1.24487	-1.09123	
-13.3631	1.39957	-1.24661	
-9.89427	0.139289	-0.937307	
-11.5754	1.69928	-1.09082	
-11.6084	1.75272	-1.09143	
-11.6469	1.35868	-1.09228	
-9.92072	1.39206	-0.938042	
-9.87423	1.42097	-0.936795	
-11.5859	1.81911	-1.091	
-12.3857	1.6612	-1.11622	
-12.4524	1.71339	-1.08945	
-10.4133	0.496577	-0.958402	
-12.216	0.549039	-1.11518	
-9.85654	1.85508	-0.936376	
-9.7273	0.520218	-0.934242	
-8.07765	0.528047	-0.78074	
-12.4524	1.57014	-1.08945	
-14.2313	0.500665	-1.24509	
-8.60219	0.932053	-0.801155	
-9.96576	1.07414	-0.939441	
-9.96921	1.51028	-0.939556	
-14.2313	1.64173	-1.24509	
-9.90548	0.282674	-0.93761	
-12.4524	0.571209	-1.08945	
-8.84997	0.59575	-0.802194	
-7.96007	1.71321	-0.778733	
-13.5451	1.88726	-1.25144	
-10.6173	0.827624	-0.959492	
-9.95595	1.82622	-0.939121	
-9.73645	1.40032	-0.93434	
-11.6904	1.87065	-1.09341	
-8.7474	0.866054	-0.807004	
-8.71458	1.24863	-0.806201	
-10.0146	1.94589	-0.941153	
-8.84751	1.75284	-0.802593	
-8.1939	1.94185	-0.78404	
-12.4161	0.611259	-1.04895	
-14.1749	0.691022	-1.19491	
-10.6342	0.951279	-0.891716	
-14.1811	0.885946	-1.19766	
-11.9409	0	-0.998679	
-11.8725	0	-1.00588	
-13.6907	0.0792566	-1.15714	
-15.0802	0	-1.38224	
-9.78127	0.0639973	-0.906135	
-11.5919	0	-1.05446	
-11.5055	0.0936441	-1.07525	
-11.8014	0	-1.01539	
-11.7308	0	-1.02675	
-11.7739	0.0798839	-1.01959	
-10.6452	0.821071	-0.897881	
-12.4149	1.45488	-1.04832	
-12.418	1.89867	-1.04998	
-10.162	2	-0.843043	
-12.0125	2	-0.993345	
-13.7692	1.91895	-1.15038	
-9.78471	1.93754	-0.905324	
-11.5106	1.90585	-1.07394	
-11.5224	2	-1.07096	
-11.5919	2	-1.05446	
-11.8725	2	-1.00588	
-11.8368	1.92228	-1.0104	
-11.8014	2	-1.01539	
-12.0491	1.85759	-0.991572	
-13.7536	1.82278	-1.15151	
-13.5484	0.600657	-1.17593	
-11.7144	0.663037	-1.02965	
-13.5607	0.68441	-1.17399	
-11.5072	0.939959	-1.07483	
-11.5162	1.33496	-1.07252	
-13.739	1.68417	-1.15265	
-10.2112	1.74973	-0.839119	
-15.6144	1.71007	-1.30257	
-11.767	1.02684	-1.0207	
-13.5563	0.943151	-1.17468	
-11.7118	0.965528	-1.03013	
-11.5427	0.553448	-1.06596	
-11.4997	0.495631	-1.07674	
-12.2021	1.36962	-0.995377	
-15.6917	1.42353	-1.30241	
-12.2127	1.43872	-0.996437	
-14.0973	1.02505	-1.16987	
-12.2522	0.965827	-1.00147	
-14.0043	1.04082	-1.1535	
-13.9432	1.21008	-1.14812	
-15.8108	1.26463	-1.31286	
-12.247	1.19252	-1.00071	
-11.7558	1.8275	-1.02252	
-13.547	1.91186	-1.17616	
-13.6021	1.83465	-1.1679	
-13.6658	1.04863	-1.15985	
-11.8263	1.0111	-1.01184	
-13.5887	1.09426	-1.16981	
-10.0998	1.10778	-0.849509	
-13.7386	1.09436	-1.15269	
-11.9956	0.92332	-0.99439	
-12.0338	0.983948	-0.992233	
-15.6345	0.912712	-1.30206	
-10.2417	1.65028	-0.837262	
-10.2955	1.64109	-0.835193	
-13.8056	1.58611	-1.14821	
-11.5226	0.621253	-1.07092	
-9.81016	0.607584	-0.899458	
-13.4077	0.544593	-1.20205	
-13.4284	0.626188	-1.19776	
-13.6636	0.883867	-1.16009	
-11.8437	0.814004	-1.0095	
-11.8194	0.883506	-1.01281	
-10.059	0.94284	-0.854623	
-10.0059	0.823889	-0.862254	
-11.7502	0.86549	-1.02345	
-12.1956	0.577518	-0.99478	
-13.972	0.659851	-1.1502	
-12.2573	0.634606	-1.00225	
-13.4031	0.0913029	-1.20302	
-11.553	0.141129	-1.06348	
-11.9791	1.15841	-0.995536	
-15.6238	1.18235	-1.30229	
-10.2507	1.11752	-0.836798	
-14.116	0.938839	-1.17467	
-10.608	0.99711	-0.879854	
-12.0123	0.516229	-0.993356	
-13.8196	0.597248	-1.14756	
-12.0867	0.53029	-0.990652	
-13.6414	1.25683	-1.16274	
-13.6213	1.17353	-1.1653	
-11.794	1.22905	-1.0165	
-14.137	1.10599	-1.18087	
-12.402	1.05145	-1.04192	
-12.3588	1.1866	-1.02546	
-12.4118	1.17077	-1.04669	
-15.337	1.39834	-1.33004	
-10.0046	1.4857	-0.862454	
-11.8437	1.4682	-1.00949	
-13.9555	0.907417	-1.14891	
-12.1236	0.841878	-0.990875	
-15.9311	0.492781	-1.34161	
-10.5377	0.543817	-0.858179	
-12.3655	0.570722	-1.02767	
-12.1436	1.72433	-0.991483	
-12.0995	1.78876	-0.9906	
-12.0139	0.853718	-0.993268	
-11.9268	0.389993	-0.999998	
-10.1553	0.316743	-0.843654	
-11.8726	0.343184	-1.00587	
-12.0472	0.780432	-0.991646	
-10.2873	0.84375	-0.835378	
-12.1173	0.770799	-0.990755	
-11.9625	0.577671	-0.996825	
-13.3059	1.02428	-1.22546	
-13.5079	0.237428	-1.1827	
-11.7449	0.153222	-1.02435	
-11.6772	0.163431	-1.0366	
-13.599	0.159631	-1.16834	
-12.1667	1.80219	-0.992635	
-10.4178	1.86234	-0.839237	
-12.2456	1.80354	-1.00051	
-12.0748	0.329138	-0.990821	
-13.9284	0.30982	-1.14737	
-13.8763	0.244444	-1.14624	
-12.1069	0.391669	-0.990632	
-9.92752	1.03303	-0.87547	
-12.0752	0.717798	-0.990813	
-11.9936	0.718603	-0.994522	
-10.2526	0.665477	-0.836705	
-12.1066	0.658642	-0.99063	
-10.1538	1.87015	-0.843801	
-11.897	1.80864	-1.00307	
-10.2588	1.78424	-0.836415	
-11.9246	1.74797	-1.00021	
-12.1721	0.386445	-0.992972	
-12.2021	0.441074	-0.995377	
-12.2415	0.365688	-0.999929	
-12.0134	1.25637	-0.993296	
-12.0882	1.24657	-0.990639	
-12.0362	1.3122	-0.992119	
-10.3228	1.30199	-0.834969	
-12.1617	1.27096	-0.992344	
-11.8873	0.276367	-1.00416	
-15.3639	0.292881	-1.32598	
-10.0625	0.234809	-0.85416	
-10.0066	0.216682	-0.862152	
-12.264	0.891352	-1.00331	
-12.0633	1.48059	-0.991092	
-11.9875	1.4429	-0.99494	
-13.7647	1.51083	-1.15069	
-11.9161	1.45569	-1.00106	
-12.0758	1.36546	-0.990802	
-12.1463	1.34038	-0.991592	
-11.8118	1.70558	-1.01387	
-11.8268	1.63351	-1.01177	
-11.7549	1.65739	-1.02267	
-11.6757	0.837679	-1.03691	
-11.72	0.792044	-1.02866	
-11.7322	1.09876	-1.02651	
-13.541	1.30603	-1.17713	
-9.93646	1.35315	-0.87385	
-13.9071	0.166399	-1.14662	
-12.0464	0.169498	-0.99168	
-13.459	1.40455	-1.19169	
-13.6245	0.41495	-1.16489	
-13.6771	0.474418	-1.15859	
-13.9121	1.05334	-1.14676	
-12.1741	0.984567	-0.993105	
-12.1375	1.13834	-0.991261	
-11.7723	0.452043	-1.01985	
-13.5484	0.374434	-1.17594	
-9.93462	0.42015	-0.87418	
-13.4715	0.484457	-1.18932	
-12.2901	0	-1.00805	
-12.3068	0.0667918	-1.01155	
-12.3545	0	-1.02413	
-12.2901	2	-1.00805	
-10.4797	1.94291	-0.846815	
-10.4408	2	-0.841566	
-12.3277	0.853126	-1.01656	
-12.3545	2	-1.02413	
-14.1001	1.92333	-1.17055	
-10.171	0.506745	-0.842243	
-11.8969	0.56183	-1.00309	
-11.9046	0.636864	-1.00225	
-11.8356	0.546278	-1.01058	
-11.8363	0.617676	-1.01048	
-14.0165	0.078087	-1.15504	
-13.9766	1.56345	-1.1506	
-10.4708	1.62497	-0.845462	
-12.2818	1.57191	-1.00644	
-14.1186	0.153301	-1.17542	
-14.1229	0.252546	-1.17662	
-10.6163	0.211952	-0.883281	
-11.968	0.650538	-0.996383	
-13.6962	0.718414	-1.15657	
-11.9066	0.798942	-1.00205	
-11.9736	0.786413	-0.995947	
-10.0732	0.678765	-0.852777	
-11.8463	0.741319	-1.00915	
-14.1815	1.80752	-1.19783	
-12.3538	1.74768	-1.02391	
-14.1037	1.83308	-1.17146	
-11.9142	1.20637	-1.00126	
-13.4083	1.92648	-1.20192	
-13.3526	1.86025	-1.21424	
-12.3735	0.344499	-1.03043	
-12.3994	0.410465	-1.04076	
-14.0134	0.282592	-1.15463	
-14.0832	0.338159	-1.16664	
-13.7401	0.251286	-1.15256	
-10.2389	0.217721	-0.837412	
-13.733	0.164212	-1.15315	
-13.3087	0.230355	-1.22475	
-13.8643	1.93673	-1.1463	
-12.3422	1.26103	-1.02048	
-12.4058	1.24459	-1.04372	
-12.3272	1.32491	-1.01643	
-14.1768	1.31978	-1.1957	
-14.0388	0.804788	-1.1583	
-14.1107	0.759874	-1.17325	
-12.269	0.714139	-1.00415	
-11.8953	0.206449	-1.00326	
-10.1008	0.138218	-0.849396	
-11.5756	1.72394	-1.05816	
-11.5406	1.78328	-1.06646	
-13.3986	1.79352	-1.20399	
-11.9732	1.03613	-0.99598	
-13.8252	1.05319	-1.14732	
-12.0971	0.992616	-0.9906	
-10.3081	1.10914	-0.835014	
-14.0481	0.204267	-1.15982	
-12.1807	0.22975	-0.99357	
-11.9493	0.863551	-0.997934	
-11.9312	0.938032	-0.999578	
-10.5182	1.76807	-0.85382	
-14.0649	1.69808	-1.16287	
-12.2142	1.73846	-0.996592	
-12.2711	0.425321	-1.00452	
-12.2272	0.500006	-0.998081	
-12.1307	0.456585	-0.99105	
-12.1582	0.51622	-0.992153	
-11.6523	0.232607	-1.04154	
-11.8264	1.33248	-1.01183	
-11.9019	1.52656	-1.00254	
-13.606	1.55451	-1.16737	
-13.682	1.60907	-1.15805	
-9.93276	0.903738	-0.874516	
-13.4169	0.902651	-1.20011	
-12.1521	0	-0.991849	
-12.0809	0	-0.99072	
-12.1035	0.051764	-0.990612	
-12.0125	0	-0.993345	
-12.0338	0.0537652	-0.992233	
-11.9305	1.3862	-0.999642	
-11.8598	1.3946	-1.00743	
-11.9364	1.26486	-0.999091	
-10.2059	1.21166	-0.839486	
-11.8935	1.32507	-1.00346	
-11.9645	1.32038	-0.99666	
-10.5966	0.814456	-0.87552	
-11.7001	1.88165	-1.03227	
-12.1279	0.594595	-0.990976	
-10.6449	1.38879	-0.89775	
-12.3741	1.39048	-1.03066	
-13.4203	0.75837	-1.19941	
-11.598	0.821275	-1.05309	
-12.4067	0.75743	-1.04415	
-13.4681	1.60921	-1.18995	
-11.689	1.68446	-1.03436	
-9.9034	1.75212	-0.879992	
-13.5233	1.73879	-1.18006	
-13.3842	1.59941	-1.20712	
-11.6203	1.66432	-1.04822	
-13.9654	1.93182	-1.14965	
-12.2613	1.87756	-1.00288	
-12.4149	0.146224	-1.04832	
-10.6425	1.10891	-0.896299	
-10.6367	0.544978	-0.893031	
-13.4202	1.32361	-1.19944	
-11.6994	0.0813768	-1.0324	
-11.662	0	-1.0396	
-10.5243	1.21454	-0.855118	
-12.3029	1.14931	-1.01069	
-12.1258	1.87232	-0.990923	
-11.6026	1.24379	-1.05208	
-11.5644	1.29411	-1.06077	
-11.6686	1.24385	-1.03829	
-11.7666	1.16415	-1.02076	
-15.1958	0.398041	-1.35576	
-13.3052	1.20048	-1.22563	
-11.5156	1.11243	-1.07268	
-11.7021	0.560548	-1.0319	
-11.7669	0.523541	-1.02072	
-13.9745	1.65544	-1.15041	
-12.0642	0.109422	-0.991067	
-10.096	1.86761	-0.849964	
-11.9083	1.9304	-1.00187	
-10.4369	0.741046	-0.841132	
-12.3257	0.676971	-1.01606	
-9.87678	0.693471	-0.885226	
-11.7147	0.726744	-1.02961	
-11.7817	0.760134	-1.01838	
-8.15066	0.61385	-0.71946	
-9.71991	0.170423	-0.921344	
-10.4187	1.15632	-0.839325	
-10.4061	1.09603	-0.838259	
-12.2425	1.1197	-1.00007	
-9.86232	1.85832	-0.888179	
-11.6945	1.8111	-1.03332	
-12.3541	1.45652	-1.02401	
-12.3146	1.39372	-1.01334	
-9.91966	1.94352	-0.876921	
-11.7308	2	-1.02675	
-12.1784	0.79232	-0.9934	
-10.4242	0.850283	-0.839839	
-12.1539	0.718066	-0.991936	
-11.6039	0.180772	-1.05178	
-12.1283	1.51591	-0.990985	
-13.9001	1.59438	-1.14646	
-10.4014	1.48768	-0.837907	
-12.2471	1.50665	-1.00072	
-9.72921	1.83632	-0.918949	
-13.5122	1.53312	-1.18196	
-9.88274	1.54488	-0.884031	
-11.5056	1.71558	-1.07524	
-14.1528	1.66217	-1.18621	
-11.6977	0.358669	-1.03272	
-11.6411	0.310734	-1.04385	
-10.4772	1.39867	-0.84643	
-12.2863	1.4537	-1.0073	
-12.2658	1.33896	-1.00362	
-12.0602	0.46147	-0.991184	
-10.262	0.394907	-0.836273	
-13.7612	0.433969	-1.15094	
-10.2753	1.42238	-0.835747	
-12.0008	1.37641	-0.994055	
-12.3128	0.606335	-1.01291	
-11.5493	0.879786	-1.06437	
-11.5606	0.752034	-1.06166	
-11.5174	0.815753	-1.07222	
-13.3677	1.38066	-1.21079	
-14.1746	1.52165	-1.19475	
-12.3207	1.51493	-1.01479	
-10.5096	1.08423	-0.852088	
-11.5177	1.59815	-1.07214	
-10.302	2	-0.835084	
-13.4696	1.16076	-1.18968	
-9.85532	1.18618	-0.889634	
-10.1328	1.14984	-0.845874	
-11.7306	1.23168	-1.02679	
-11.5765	1.16237	-1.05796	
-11.8824	1.68406	-1.00472	
-8.64389	0.333428	-0.684065	
-11.5182	1.52552	-1.07201	
-11.5647	0.488947	-1.06071	
-9.98335	1.59304	-0.865826	
-12.3531	1.57917	-1.02368	
-11.5428	1.65719	-1.06594	
-12.2576	0.559694	-1.0023	
-12.2955	0.490232	-1.00913	
-11.5816	0.956713	-1.05678	
-11.6523	0.989568	-1.04155	
-11.8565	1.75665	-1.00785	
-10.0177	1.77244	-0.860465	
-9.85659	1.72615	-0.889369	
-9.96464	0.310718	-0.868931	
-9.91208	0.290342	-0.87834	
-9.92312	1.29539	-0.87628	
-12.1521	2	-0.991849	
-10.05	0.482459	-0.855844	
-10.4282	1.30941	-0.840222	
-11.9904	0.109198	-0.994734	
-11.6052	1.03572	-1.0515	
-11.6662	1.07584	-1.03876	
-11.662	2	-1.0396	
-10.5888	0.633303	-0.872789	
-12.3347	0.422033	-1.0184	
-8.73207	0.266461	-0.696728	
-11.5886	0.262786	-1.0552	
-10.3471	1.66446	-0.835293	
-10.2844	1.54135	-0.835457	
-11.5465	0.371856	-1.06505	
-9.79985	0.429791	-0.901805	
-10.1785	1.56661	-0.841601	
-10.193	1.62234	-0.840446	
-8.25246	1.2804	-0.702828	
-11.5147	0.68957	-1.0729	
-9.72051	0.753859	-0.92119	
-12.4121	0.285029	-1.04686	
-9.72459	1.26259	-0.920135	
-14.1925	0	-1.20326	
-9.73255	1.39629	-0.918096	
-13.3165	1.45609	-1.22283	
-11.5228	0.308608	-1.07088	
-13.3672	0.682551	-1.21091	
-11.5118	0.423502	-1.07365	
-12.4136	2	-1.04763	
-10.1948	0.980727	-0.840302	
-13.3784	1.51237	-1.20839	
-11.6228	1.11653	-1.04768	
-10.2524	0.277428	-0.836715	
-13.7751	0.33864	-1.14999	
-9.78933	1.08627	-0.90424	
-10.3493	0.0993244	-0.835347	
-12.1763	0.0548078	-0.993255	
-8.00397	1.55961	-0.750119	
-12.4135	1.72118	-1.04758	
-10.5997	1.94239	-0.876658	
-10.5915	1.87535	-0.873716	
-9.84691	0.473525	-0.891408	
-9.8104	0.331482	-0.899404	
-10.5344	1.63205	-0.857399	
-10.6322	1.59521	-0.890689	
-11.6723	1.47977	-1.03757	
-12.2121	0.160133	-0.996379	
-10.4014	0.114041	-0.837904	
-9.95198	1.45658	-0.871104	
-10.4969	0.130179	-0.849708	
-11.8805	0.972536	-1.00494	
-12.3853	0.0752793	-1.03486	
-10.1919	0.0509452	-0.840528	
-10.1469	1.00206	-0.844457	
-8.26326	0.356044	-0.701293	
-11.8404	0.0762643	-1.00993	
-9.83698	1.44431	-0.893535	
-12.2197	0	-0.997201	
-8.86437	0.460204	-0.741117	
-8.5714	0.946643	-0.679739	
-11.5267	2	-1.08015	
-11.6057	2	-1.07162	
-11.7692	2	-1.05836	
-11.8553	2	-1.05377	
-11.6862	2	-1.06434	
-13.8105	2	-1.20513	
-13.9886	2	-1.21127	
-12.3816	2	-1.07655	
-12.2983	2	-1.06457	
-12.1206	2	-1.05061	
-13.721	2	-1.20644	
-15.0102	-0.0721374	-1.40072	
-9.72328	-0.0524234	-0.934201	
-9.9904	-1.94219	-0.940281	
-11.7036	-1.93265	-1.09379	
-11.744	-2	-1.09505	
-11.563	-0.0610541	-1.09062	
-11.7073	-0.0745946	-1.0939	
-11.8493	-0.063891	-1.09895	
-12.4524	-1.2856	-1.08945	
-12.3906	-1.32684	-1.11575	
-12.4524	-1.35721	-1.08945	
-12.4524	-0.0721374	-1.08945	
-14.2313	-0.215036	-1.24509	
-12.4524	-0.143615	-1.08945	
-12.4011	-0.177622	-1.11448	
-10.6735	-0.286611	-0.933814	
-12.4022	-0.326516	-1.11433	
-14.2313	-0.358269	-1.24509	
-12.4024	-0.255005	-1.1143	
-12.4524	-0.714404	-1.08945	
-14.1719	-0.754353	-1.27114	
-12.4524	-0.786116	-1.08945	
-11.8896	-2	-1.10062	
-13.6233	-1.91632	-1.25439	
-11.8169	-2	-1.09767	
-9.74655	-2	-0.934458	
-9.72438	-1.94543	-0.934212	
-11.4524	-2	-1.08945	
-12.4034	-1.39944	-1.11415	
-12.4524	-1.42879	-1.08945	
-8.89455	-2	-0.778179	
-14.2313	-1.92786	-1.24509	
-10.6139	-2	-0.959878	
-11.5984	-2	-1.09123	
-11.5626	-1.9425	-1.09061	
-13.7821	-1.91894	-1.26111	
-11.962	-2	-1.10372	
-10.2559	-2	-0.951128	
-12.4524	-1.21388	-1.08945	
-12.3906	-1.25457	-1.11576	
-14.2313	-1.78496	-1.24509	
-8.85071	-1.82622	-0.802069	
-12.4524	-1.85639	-1.08945	
-11.6472	-0.824164	-1.09229	
-11.5694	-0.840188	-1.09072	
-13.4032	-0.897364	-1.2474	
-15.0102	-1.07055	-1.40072	
-13.2968	-1.0996	-1.24564	
-15.0703	-0.999321	-1.40122	
-11.8317	-1.67801	-1.09825	
-11.9028	-1.66711	-1.10117	
-13.6142	-1.60664	-1.25403	
-11.7153	-0.446895	-1.09414	
-15.294	-0.354649	-1.40607	
-11.6614	-0.398171	-1.09264	
-13.6653	-1.83141	-1.25612	
-10.1668	-1.78071	-0.947383	
-13.6668	-1.74009	-1.25618	
-13.8272	-1.7075	-1.26293	
-11.9668	-1.71822	-1.10392	
-12.0139	-1.78279	-1.10591	
-13.8671	-1.79397	-1.26459	
-11.9137	-1.60358	-1.10164	
-11.8684	-1.5428	-1.09973	
-10.0354	-1.84473	-0.941936	
-13.9858	-1.45461	-1.27039	
-12.1247	-1.49442	-1.11067	
-12.1721	-1.53304	-1.11304	
-15.7316	-1.28582	-1.42439	
-12.1038	-1.23395	-1.10967	
-15.6325	-1.30809	-1.41964	
-15.8168	-1.05755	-1.42828	
-10.555	-1.02435	-0.962778	
-10.5064	-0.98494	-0.962217	
-12.0259	-0.659051	-1.10641	
-11.9589	-0.685531	-1.10359	
-13.791	-0.738859	-1.26148	
-13.7664	-1.33862	-1.26044	
-13.7761	-1.25231	-1.26085	
-15.0102	-1.42879	-1.40072	
-15.0102	-1.49933	-1.40072	
-13.3159	-1.4654	-1.24587	
-11.5398	-0.918262	-1.09028	
-11.592	-1.01699	-1.09111	
-9.80474	-0.957788	-0.935325	
-15.2759	-0.881052	-1.4055	
-11.726	-0.965074	-1.09447	
-11.7894	-0.954992	-1.09664	
-10.2723	-0.86716	-0.951772	
-13.8965	-0.888326	-1.26596	
-12.0998	-0.817828	-1.10949	
-13.4067	-0.589278	-1.24748	
-13.4238	-0.676587	-1.24787	
-13.4891	-0.618429	-1.24962	
-14.0833	-0.0745363	-1.2739	
-12.039	-1.18703	-1.10693	
-11.977	-1.16574	-1.10436	
-11.9724	-0.496062	-1.10416	
-13.8323	-0.503541	-1.26313	
-12.008	-0.439924	-1.10567	
-13.8687	-0.698429	-1.26466	
-11.857	-1.23016	-1.09926	
-13.5576	-1.19538	-1.25189	
-11.8076	-1.27217	-1.09732	
-11.8484	-1.33945	-1.09891	
-10.0973	-1.2898	-0.944422	
-13.9889	-0.976561	-1.27054	
-13.8905	-0.96716	-1.26568	
-12.1655	-1.03431	-1.1127	
-15.493	-1.00672	-1.41384	
-12.0235	-0.987297	-1.10631	
-11.972	-0.93866	-1.10415	
-13.6082	-0.379548	-1.25379	
-13.6173	-0.470375	-1.25415	
-11.8923	-0.425581	-1.10073	
-14.1492	-1.87861	-1.27298	
-12.3563	-1.79701	-1.11797	
-12.2907	-1.84585	-1.11799	
-12.0069	-0.176311	-1.10563	
-12.0153	-0.252878	-1.10597	
-10.2878	-0.202898	-0.952395	
-13.8539	-0.126149	-1.26402	
-13.8628	-0.277581	-1.2644	
-13.9124	-0.192415	-1.26674	
-14.0977	-1.21378	-1.27406	
-12.3683	-1.14736	-1.11745	
-12.2922	-1.14008	-1.11802	