<VTKFile type="UnstructuredGrid" version="0.1" byte_order="LittleEndian">
	<UnstructuredGrid>
		<Piece NumberOfPoints="1917" NumberOfCells="56">
			<CellData Scalars="scalars">
				<DataArray type="Float64" Name="Doublet Strengths" NumberOfComponents="1" Format="ascii">
-0.918878	
-3.53475	
-2.6825	
-2.87953	
-3.49295	
-3.64495	
-3.71509	
-3.57694	
-2.73318	
-2.53674	
-1.5458	
-4.14892	
-2.70628	
-3.95929	
-2.55037	
-2.76666	
-3.59414	
-3.34769	
-3.32863	
-3.12353	
-3.52835	
-3.61757	
-3.03732	
-3.57367	
-5.66853	
-3.28768	
-2.32543	
-2.59788	
-5.66825	
-2.72303	
-3.26887	
-3.58747	
-3.10509	
-2.5244	
-1.37784	
-4.10479	
-2.6766	
-3.12238	
-3.55078	
-2.49298	
-2.71767	
-3.32836	
-3.38091	
-3.07793	
-3.03149	
-3.40106	
-3.32243	
-3.1024	
-2.61487	
-2.97008	
-3.21086	
-0.867284	
-2.24386	
-2.59761	
-3.207	
-1.73788	
				</DataArray>
				<DataArray type="Float64" Name="Velocity Potential" NumberOfComponents="1" Format="ascii">
-149.821	
-205.546	
-206.784	
-206.49	
-205.94	
-205.175	
-205.648	
-205.768	
-206.573	
-206.875	
-207.979	
-203.911	
-206.711	
-205.304	
-206.797	
-206.566	
-205.431	
-205.913	
-206.053	
-206.011	
-205.493	
-205.681	
-206.198	
-205.582	
-202.017	
-206.098	
-207.156	
-206.877	
-202.395	
-206.461	
-206.365	
-206.027	
-206.575	
-206.753	
-208.38	
-204.733	
-206.622	
-206.534	
-205.853	
-206.631	
-206.51	
-205.738	
-205.888	
-206.379	
-205.895	
-205.433	
-205.629	
-206.468	
-206.491	
-206.115	
-206.032	
-150.123	
-207.281	
-206.68	
-206.143	
-207.982	
				</DataArray>
			</CellData>
			<Points>
				<DataArray type="Float64" Name="Position" NumberOfComponents="3" Format="ascii">
-5.54832	0	-0.567158	
-4.60001	0.0524256	-0.48597	
-7.3253	0	-0.728375	
-5.69437	2	-0.569963	
-5.7256	1.93467	-0.570832	
-6.69188	2	-0.653049	
-5.6213	0	-0.568298	
-5.58589	0.0610502	-0.56768	
-5.73012	0.0745738	-0.570966	
-5.69437	0	-0.569963	
-5.76685	0	-0.572118	
-5.83978	0	-0.574735	
-5.91247	0	-0.577682	
-5.8711	0.0639395	-0.575972	
-5.50256	1.39584	-0.51009	
-6.41323	1.3266	-0.592841	
-6.47523	1.35721	-0.566514	
-7.3253	1.92786	-0.728375	
-4.60088	1.94512	-0.485979	
-7.40027	0.0721374	-0.647445	
-6.41126	0.0533506	-0.593038	
-5.5502	0	-0.485583	
-7.40027	0.215036	-0.647445	
-8.23546	0.171582	-0.756655	
-5.5502	0.143615	-0.485583	
-5.5502	0.286611	-0.485583	
-7.40027	0.358269	-0.647445	
-6.42505	0.326064	-0.591398	
-6.42284	0.252841	-0.591705	
-6.47523	0.714404	-0.566514	
-6.47523	0.786116	-0.566514	
-7.34081	0.754574	-0.673499	
-5.91247	2	-0.577682	
-5.83978	2	-0.574735	
-7.72696	1.91204	-0.738068	
-5.92771	1.66657	-0.578328	
-6.78277	1.60722	-0.656368	
-5.73836	0.446925	-0.571214	
-5.68542	0.397747	-0.569731	
-7.60968	0.354616	-0.733743	
-5.47523	2	-0.566514	
-6.47523	1.42879	-0.566514	
-4.62517	2	-0.404653	
-5.49066	2	-0.511647	
-7.40027	1.92786	-0.647445	
-5.6213	2	-0.568298	
-4.62329	2	-0.486227	
-5.58622	1.93956	-0.567685	
-5.02745	1.94176	-0.498459	
-7.87585	1.9167	-0.744385	
-5.98486	2	-0.580784	
-6.47523	1.21388	-0.566514	
-5.49854	1.19029	-0.510676	
-6.47523	1.14216	-0.566514	
-6.47523	1.2856	-0.566514	
-6.41353	1.25405	-0.59281	
-7.40027	1.78496	-0.647445	
-6.47523	1.85639	-0.566514	
-4.58128	1.82617	-0.42855	
-5.49124	0.114671	-0.511583	
-7.32702	1.46922	-0.674762	
-7.2815	1.38862	-0.676411	
-5.67003	0.824164	-0.56935	
-6.57216	0.897364	-0.649757	
-5.59224	0.840188	-0.567782	
-6.31788	1.46561	-0.59515	
-6.40027	1	-0.647445	
-7.38544	0.999321	-0.72887	
-7.3253	1.07055	-0.728375	
-5.93654	1.60348	-0.578705	
-5.56776	0.356544	-0.567411	
-4.70704	0.353408	-0.48758	
-5.61217	0.427857	-0.568127	
-6.83278	1.82506	-0.658413	
-6.83646	1.7382	-0.658569	
-5.04353	1.77788	-0.499151	
-5.99	1.71777	-0.581005	
-6.0379	1.78088	-0.583027	
-6.99632	1.70728	-0.665295	
-7.03636	1.79378	-0.666965	
-5.8912	1.54291	-0.576793	
-5.82896	1.8351	-0.574322	
-7.1546	1.45384	-0.672737	
-6.19504	1.53294	-0.590102	
-6.14756	1.49429	-0.587735	
-7.11305	1.28284	-0.67068	
-7.94639	1.30815	-0.747239	
-6.12533	1.23305	-0.586674	
-8.13299	1.05577	-0.755973	
-6.3214	0.974397	-0.595223	
-5.43665	1.02275	-0.514499	
-6.04879	0.65903	-0.583472	
-6.95994	0.738857	-0.663834	
-5.98175	0.685529	-0.58065	
-6.93525	1.33866	-0.662798	
-6.94492	1.25226	-0.663207	
-7.3253	1.42879	-0.728375	
-6.48537	1.46516	-0.648241	
-7.3253	1.49933	-0.728375	
-5.5627	0.918262	-0.567342	
-7.59097	0.881052	-0.733153	
-5.82583	0.891355	-0.574204	
-5.8123	0.954992	-0.573702	
-5.14902	0.867158	-0.503541	
-6.12262	0.817822	-0.586548	
-7.0654	0.888323	-0.668317	
-6.57573	0.589259	-0.649835	
-6.65805	0.618435	-0.651983	
-6.59276	0.676586	-0.650226	
-6.2737	0	-0.593761	
-6.345	0	-0.595501	
-7.26088	0.0790961	-0.67637	
-5.95519	1.27156	-0.579506	
-5.94477	1.20368	-0.579058	
-5.99546	0.496767	-0.581238	
-6.03216	0.442032	-0.582789	
-7.00194	0.502871	-0.665512	
-7.03764	0.698424	-0.667022	
-5.87987	1.23016	-0.576328	
-5.83051	1.27217	-0.574381	
-6.72662	1.19537	-0.654245	
-4.97407	1.2898	-0.496191	
-5.18513	1.02577	-0.505051	
-7.05965	0.967174	-0.668042	
-6.18858	1.0342	-0.589777	
-7.80812	1.00672	-0.74149	
-5.99484	0.93866	-0.581212	
-6.04641	0.987296	-0.583375	
-6.77825	0.378981	-0.656189	
-5.91406	0.426844	-0.577749	
-6.78619	0.470462	-0.656504	
-7.31813	1.87857	-0.675342	
-7.3039	1.79633	-0.675975	
-6.31358	1.84585	-0.595053	
-6.1033	0.270573	-0.585679	
-5.16356	0.200611	-0.504123	
-7.08089	0.193571	-0.669072	
-7.01917	0.123897	-0.666216	
-6.03775	0.249496	-0.58302	
-6.02864	0.173576	-0.582643	
-7.27151	1.20923	-0.676436	
-6.31637	1.13932	-0.595117	
-6.40099	1.13751	-0.593905	
-6.15357	0.531427	-0.588029	
-6.15447	0.463982	-0.588073	
-6.09764	0.427199	-0.585434	
-6.16435	0.382421	-0.588563	
-5.4258	0.742778	-0.514575	
-7.28166	0.813881	-0.67641	
-7.00436	0.580015	-0.665608	
-6.15835	1.7199	-0.588265	
-7.09662	0.757182	-0.669854	
-5.26098	0.698895	-0.508718	
-6.24516	0.732194	-0.592537	
-6.22548	0.893597	-0.591609	
-6.19251	0.830458	-0.589975	
-7.2003	0.834567	-0.674753	
-6.3427	1.53139	-0.595492	
-6.29013	1.59044	-0.594367	
-6.26578	1.5207	-0.59344	
-6.74623	1.10613	-0.654961	
-5.75115	1.13654	-0.571611	
-7.24178	0.567577	-0.676056	
-7.3089	0.624293	-0.675789	
-6.31093	0.641057	-0.594988	
-6.24259	0.667946	-0.592419	
-6.24248	0.607392	-0.592414	
-7.15944	0.97644	-0.672967	
-6.4157	0	-0.592578	
-5.90824	1.40806	-0.577504	
-5.94092	1.34451	-0.578892	
-5.9745	1.41675	-0.580338	
-5.93542	1.48085	-0.578657	
-6.96568	1.43176	-0.66407	
-6.00009	1.49613	-0.581437	
-6.06608	0.925911	-0.584161	
-6.23312	1.74077	-0.591975	
-8.08394	1.66215	-0.753872	
-5.37312	1.70694	-0.513698	
-7.3253	1.71339	-0.728375	
-7.39576	1.77904	-0.728987	
-7.3253	1.78496	-0.728375	
-6.2737	2	-0.593761	
-7.24132	1.92525	-0.676046	
-6.345	2	-0.595501	
-6.10612	0.350099	-0.585802	
-6.0424	0.315549	-0.583212	
-5.80221	1.02327	-0.573337	
-6.79682	1.02942	-0.65693	
-5.79727	0.0746863	-0.57316	
-5.83198	0.130322	-0.574437	
-6.68282	0.159825	-0.652753	
-6.6952	0.255296	-0.653159	
-4.88824	0.198868	-0.492807	
-5.87535	0.185075	-0.576144	
-6.64797	0.53229	-0.651685	
-9.17537	0.358269	-0.890236	
-6.40027	0.286611	-0.647445	
-5.53742	0.283499	-0.567031	
-7.3253	0.143615	-0.728375	
-6.47805	0.19815	-0.648146	
-7.3253	0.215036	-0.728375	
-7.47007	0.268711	-0.730134	
-6.90989	0	-0.661714	
-5.13261	0	-0.502897	
-6.06447	0.0522709	-0.584098	
-4.51748	0.233077	-0.433477	
-7.27865	0.293965	-0.676427	
-6.99231	1.52249	-0.665139	
-6.06578	1.6164	-0.584149	
-6.00616	1.57352	-0.581695	
-6.00169	1.65009	-0.581505	
-6.36332	1.59898	-0.595408	
-6.20219	0	-0.59046	
-6.1476	0.0589648	-0.587737	
-6.12956	0	-0.586872	
-5.64764	1.47391	-0.568837	
-6.6554	1.46129	-0.651904	
-6.63292	1.53681	-0.651258	
-7.09397	0.286849	-0.669722	
-5.78868	0.724627	-0.572858	
-4.87382	0.784216	-0.492286	
-6.66247	0.788387	-0.652116	
-7.2285	0.223399	-0.675717	
-5.36436	1.34531	-0.513411	
-5.35961	1.40661	-0.513244	
-7.14763	1.36487	-0.6724	
-6.25743	1.29047	-0.593085	
-5.34594	0.414541	-0.512722	
-6.21824	0.434011	-0.591256	
-7.1525	0.349215	-0.672636	
-6.33383	0.422964	-0.595418	
-7.20925	0.489015	-0.67509	
-6.35614	0.488653	-0.595483	
-4.22568	1.24582	-0.422675	
-6.0617	1.18695	-0.583989	
-5.30582	1.58611	-0.510937	
-4.87736	0.42229	-0.492413	
-4.89954	0.312816	-0.493227	
-6.83006	0.310713	-0.6583	
-5.85443	0.255176	-0.575307	
-5.92028	0.23291	-0.578012	
-8.10131	1.20734	-0.754674	
-6.12074	1.1572	-0.586461	
-6.18998	1.15129	-0.589848	
-5.25369	1.2101	-0.508351	
-7.05503	1.08885	-0.667823	
-5.73338	1.61914	-0.571063	
-5.75222	1.69424	-0.571645	
-6.59866	1.67616	-0.650367	
-5.80111	1.64844	-0.573297	
-5.82951	1.72086	-0.574343	
-6.17455	0.644913	-0.589072	
-5.31788	1.94629	-0.511504	
-7.09595	1.93331	-0.669821	
-6.24434	1.88539	-0.5925	
-6.58101	0.0804625	-0.649953	
-4.6713	0.127785	-0.486919	
-4.68254	1.88257	-0.487113	
-6.58407	1.92762	-0.650023	
-5.69487	0.21589	-0.569976	
-5.31051	0.273142	-0.51116	
-6.22865	0.209198	-0.591762	
-5.29914	0.143339	-0.510615	
-6.29481	0.145092	-0.594522	
-5.24667	0.115792	-0.507999	
-6.17147	1.85807	-0.588918	
-6.10573	1.88373	-0.585785	
-5.17095	1.94611	-0.504433	
-5.13261	2	-0.502897	
-6.12956	2	-0.586872	
-5.50088	0.682902	-0.510343	
-7.40027	0.64279	-0.647445	
-5.02744	1.88295	-0.498458	
-5.83038	1.53147	-0.574376	
-5.80795	1.46174	-0.573544	
-5.87242	1.47178	-0.576025	
-6.37483	1.08229	-0.595168	
-4.75858	0.329519	-0.488754	
-6.46281	0.43708	-0.647966	
-6.40027	0.429861	-0.647445	
-4.94031	1.67699	-0.49481	
-5.78304	1.57544	-0.572664	
-5.25372	1.60691	-0.508353	
-6.13703	1.65508	-0.587227	
-6.23811	1.81461	-0.592211	
-5.25229	1.78507	-0.508281	
-4.7574	0.749751	-0.488724	
-5.73228	0.701087	-0.57103	
-6.53728	0.758919	-0.649059	
-6.47523	0.429861	-0.566514	
-7.33414	0.409639	-0.674172	
-6.30626	1.77163	-0.594865	
-7.30091	1.71936	-0.676069	
-6.59401	1.1716	-0.650255	
-5.70177	1.09553	-0.570161	
-6.69956	1.76477	-0.653305	
-4.92669	1.7791	-0.494269	
-5.97523	0.277236	-0.580369	
-6.87548	0.151691	-0.660232	
-5.13192	1.84554	-0.50287	
-5.99075	1.83711	-0.581037	
-5.87126	1.33945	-0.575978	
-5.84229	1.40104	-0.574832	
-5.35948	0.297567	-0.513239	
-6.30391	0.357474	-0.5948	
-5.17568	0.760525	-0.504636	
-6.05102	0.810302	-0.583562	
-5.95905	0.749841	-0.579672	
-5.89403	0.751361	-0.576911	
-5.91631	0.686344	-0.577844	
-5.98571	0.810027	-0.58082	
-5.92039	0.81571	-0.578017	
-8.25034	1.64173	-0.809306	
-5.54089	1.65788	-0.56707	
-7.40027	1	-0.647445	
-7.40027	1.07055	-0.647445	
-5.50157	1.0308	-0.510241	
-4.61496	1.5272	-0.48613	
-7.3253	1.57014	-0.728375	
-4.97062	0.121062	-0.496047	
-5.94226	0.068568	-0.57895	
-6.00975	0.0968802	-0.581848	
-7.3253	1.85639	-0.728375	
-6.46697	1.8723	-0.648013	
-7.3253	0.0721374	-0.728375	
-5.53547	0.116381	-0.56701	
-6.04148	0.378957	-0.583174	
-7.3253	1.2856	-0.728375	
-5.541	1.33655	-0.567071	
-7.3253	1.35721	-0.728375	
-5.00512	1.07097	-0.497502	
-5.93665	1.13809	-0.578709	
-4.95774	1.10545	-0.495516	
-5.98974	1.08867	-0.580993	
-5.951	0.876824	-0.579326	
-5.88934	0.882801	-0.576716	
-6.78061	0.819303	-0.656282	
-6.10898	1.38959	-0.585929	
-5.1775	1.45442	-0.504715	
-6.16775	1.41914	-0.588732	
-5.05398	0.213959	-0.499602	
-5.93699	0.621411	-0.578724	
-5.89916	0.549577	-0.577124	
-5.96057	0.556476	-0.579737	
-5.9283	0.491713	-0.578353	
-7.16617	0.0712931	-0.673283	
-5.86899	1.1672	-0.575887	
-6.12444	1.57159	-0.586633	
-5.66881	0.47164	-0.569321	
-5.49752	0.476615	-0.510814	
-7.32275	0.546631	-0.67506	
-6.40027	0.500665	-0.647445	
-5.53521	0.802839	-0.567007	
-4.68543	0.646217	-0.487165	
-4.66324	0.69766	-0.486787	
-5.58837	1.17495	-0.567719	
-6.46575	1.0996	-0.647999	
-6.55017	1.1007	-0.649303	
-6.65833	1.32398	-0.651991	
-4.7397	1.29855	-0.488294	
-5.69455	1.24767	-0.569967	
-5.87717	0.61668	-0.576218	
-5.84003	0.546139	-0.574745	
-4.85632	0.561624	-0.491675	
-5.79323	0.491616	-0.573017	
-4.74606	1.0418	-0.488445	
-5.73174	1.02609	-0.571014	
-6.59772	0.976287	-0.650345	
-5.74883	0.965074	-0.571538	
-5.88131	0.954567	-0.576387	
-5.60882	1.62515	-0.568066	
-4.74514	1.59965	-0.488423	
-5.44335	0.360303	-0.514391	
-5.54541	1.5889	-0.567123	
-5.80296	1.33334	-0.573364	
-5.77663	1.39903	-0.572445	
-5.76421	1.2624	-0.572032	
-6.77674	0.683934	-0.65613	
-6.40702	0.967445	-0.593427	
-8.23885	0.89983	-0.756499	
-6.29354	0.914042	-0.594481	
-6.04338	1.0505	-0.583252	
-5.32839	1.13415	-0.511979	
-5.2848	1.09375	-0.50991	
-5.02643	1.5431	-0.498414	
-6.30145	0.770923	-0.594728	
-5.31055	0.785107	-0.511162	
-5.23321	1.34839	-0.507329	
-7.26719	1.29694	-0.67642	
-6.325	1.65281	-0.595289	
-6.47184	1.25411	-0.64807	
-5.60502	1.32162	-0.567998	
-5.18642	0.633745	-0.505109	
-6.16557	0.587288	-0.588623	
-6.36625	0.6882	-0.595362	
-6.01216	0.873522	-0.58195	
-4.2123	1.36753	-0.422154	
-6.20219	2	-0.59046	
-4.80873	1.1987	-0.490144	
-5.97857	0.394274	-0.580513	
-5.9779	0.336713	-0.580484	
-6.29996	0.702848	-0.594683	
-6.47523	0.929454	-0.566514	
-6.47523	0.857842	-0.566514	
-5.46554	1.94387	-0.513617	
-5.99986	1.16572	-0.581427	
-6.0566	1.11814	-0.583786	
-6.6182	1.79696	-0.650862	
-4.77638	1.73661	-0.48922	
-4.99753	0.370041	-0.497178	
-5.04582	0.446178	-0.49925	
-5.00999	0.936014	-0.49771	
-3.7268	1.0523	-0.405681	
-5.61485	1.01699	-0.568176	
-6.47523	1.49933	-0.566514	
-6.48346	0.586375	-0.648215	
-6.51998	0.509874	-0.648757	
-6.41366	1.54624	-0.592796	
-4.86395	0.664255	-0.491938	
-4.91509	0.750955	-0.493818	
-4.86713	0.837223	-0.49205	
-7.3253	1.21388	-0.728375	
-4.60149	1.17543	-0.485985	
-7.3253	0.929454	-0.728375	
-4.60235	0.873321	-0.485994	
-8.25034	0.857842	-0.809306	
-5.53177	0.725606	-0.56697	
-7.3253	0.786116	-0.728375	
-7.3253	0.714404	-0.728375	
-5.54779	0.653203	-0.567151	
-7.3253	0.64279	-0.728375	
-8.25034	0.571209	-0.809306	
-7.3253	1.14216	-0.728375	
-4.68147	0.957788	-0.487094	
-3.85196	0.930031	-0.408306	
-5.81605	0.613315	-0.57384	
-5.5062	1.6049	-0.509499	
-5.09586	0.552048	-0.501388	
-6.00046	0.616488	-0.581452	
-6.54234	1.54065	-0.649152	
-5.63429	0.177963	-0.568555	
-5.62099	1.24487	-0.568292	
-6.53206	1.39957	-0.648964	
-4.77101	0.139289	-0.489076	
-5.59823	1.69928	-0.567881	
-5.63126	1.75272	-0.568494	
-5.66972	1.35868	-0.569343	
-4.79745	1.39206	-0.489811	
-4.75097	1.42097	-0.488564	
-5.60878	1.81911	-0.568065	
-6.40861	1.6612	-0.593287	
-6.47523	1.71339	-0.566514	
-5.29007	0.496577	-0.510171	
-6.23889	0.549039	-0.592247	
-4.73328	1.85508	-0.488145	
-4.60404	0.520218	-0.486011	
-3.80826	0.528047	-0.407215	
-6.47523	1.57014	-0.566514	
-7.40027	0.500665	-0.647445	
-4.3328	0.932053	-0.427629	
-4.8425	1.07414	-0.49121	
-4.84595	1.51028	-0.491325	
-7.40027	1.64173	-0.647445	
-4.78221	0.282674	-0.48938	
-6.47523	0.571209	-0.566514	
-4.58058	0.59575	-0.428669	
-3.69069	1.71321	-0.405208	
-6.7141	1.88726	-0.653803	
-5.494	0.827624	-0.511261	
-4.83269	1.82622	-0.49089	
-4.61319	1.40032	-0.48611	
-5.71325	1.87065	-0.570477	
-4.47802	0.866054	-0.433478	
-4.44519	1.24863	-0.432676	
-4.89136	1.94589	-0.492922	
-4.57813	1.75284	-0.429067	
-3.92451	1.94185	-0.410515	
-6.43896	0.611259	-0.526014	
-7.34393	0.691022	-0.59727	
-5.51092	0.951279	-0.443485	
-7.35009	0.885946	-0.600023	
-5.96375	0	-0.475743	
-5.8954	0	-0.482944	
-6.85965	0.0792566	-0.559502	
-7.39534	0	-0.70989	
-4.65801	0.0639973	-0.457904	
-5.61473	0	-0.531528	
-5.52838	0.0936441	-0.552315	
-5.82426	0	-0.492459	
-5.75369	0	-0.503813	
-5.79679	0.0798839	-0.496656	
-5.52189	0.821071	-0.44965	
-6.43778	1.45488	-0.525381	
-6.44084	1.89867	-0.527043	
-5.03871	2	-0.394812	
-6.03537	2	-0.470409	
-6.93822	1.91895	-0.552736	
-4.66144	1.93754	-0.457093	
-5.53348	1.90585	-0.551008	
-5.54527	2	-0.548029	
-5.61473	2	-0.531528	
-5.8954	2	-0.482944	
-5.85971	1.92228	-0.487469	
-5.82426	2	-0.492459	
-6.07197	1.85759	-0.468636	
-6.92253	1.82278	-0.553865	
-6.71743	0.600657	-0.578286	
-5.73731	0.663037	-0.506715	
-6.7297	0.68441	-0.576354	
-5.53004	0.939959	-0.55189	
-5.5391	1.33496	-0.549581	
-6.90801	1.68417	-0.55501	
-5.08796	1.74973	-0.390889	
-7.92946	1.71007	-0.630226	
-5.78983	1.02684	-0.497766	
-6.72531	0.943151	-0.577039	
-5.73464	0.965528	-0.507196	
-5.56555	0.553448	-0.543027	
-5.5226	0.495631	-0.553805	
-6.225	1.36962	-0.472441	
-8.00678	1.42353	-0.630068	
-6.23556	1.43872	-0.473501	
-7.26626	1.02505	-0.572229	
-6.27509	0.965827	-0.478537	
-7.17328	1.04082	-0.55586	
-7.11214	1.21008	-0.550482	
-8.12595	1.26463	-0.640516	
-6.26987	1.19252	-0.477771	
-5.77865	1.8275	-0.499585	
-6.71599	1.91186	-0.578516	
-6.7711	1.83465	-0.570262	
-6.83475	1.04863	-0.562205	
-5.84917	1.0111	-0.488901	
-6.75767	1.09426	-0.572166	
-4.97658	1.10778	-0.401278	
-6.90754	1.09436	-0.555049	
-6.01844	0.92332	-0.471454	
-6.05664	0.983948	-0.469297	
-7.94964	0.912712	-0.629711	
-5.1184	1.65028	-0.389031	
-5.1722	1.64109	-0.386963	
-6.97457	1.58611	-0.550574	
-5.54546	0.621253	-0.547983	
-4.6869	0.607584	-0.451228	
-6.5767	0.544593	-0.604406	
-6.59737	0.626188	-0.600117	
-6.83263	0.883867	-0.562447	
-5.86654	0.814004	-0.486563	
-5.84222	0.883506	-0.48987	
-4.93577	0.94284	-0.406392	
-4.88268	0.823889	-0.414023	
-5.77307	0.86549	-0.50051	
-6.21848	0.577518	-0.471844	
-7.14101	0.659851	-0.552556	
-6.2802	0.634606	-0.479317	
-6.57211	0.0913029	-0.60538	
-5.57586	0.141129	-0.540543	
-6.00199	1.15841	-0.4726	
-7.93886	1.18235	-0.629946	
-5.12741	1.11752	-0.388567	
-7.28494	0.938839	-0.577032	
-5.48474	0.99711	-0.431623	
-6.03518	0.516229	-0.47042	
-6.98854	0.597248	-0.549916	
-6.10956	0.53029	-0.467716	
-6.81037	1.25683	-0.565099	
-6.79033	1.17353	-0.567658	
-5.81681	1.22905	-0.493568	
-7.30596	1.10599	-0.583233	
-6.42482	1.05145	-0.518981	
-6.38163	1.1866	-0.502528	
-6.43468	1.17077	-0.523756	
-7.65209	1.39834	-0.657697	
-4.88138	1.4857	-0.414223	
-5.86661	1.4682	-0.486555	
-7.12447	0.907417	-0.551269	
-6.14647	0.841878	-0.467939	
-8.24617	0.492781	-0.669268	
-5.41444	0.543817	-0.409948	
-6.38838	0.570722	-0.504738	
-6.16647	1.72433	-0.468547	
-6.12239	1.78876	-0.467664	
-6.03673	0.853718	-0.470332	
-5.94969	0.389993	-0.477062	
-5.03209	0.316743	-0.395423	
-5.8955	0.343184	-0.482933	
-6.07011	0.780432	-0.46871	
-5.16404	0.84375	-0.387147	
-6.14017	0.770799	-0.467819	
-5.98531	0.577671	-0.473889	
-6.47488	1.02428	-0.627818	
-6.6769	0.237428	-0.585062	
-5.76771	0.153222	-0.50141	
-5.70011	0.163431	-0.513667	
-6.76797	0.159631	-0.5707	
-6.18961	1.80219	-0.469699	
-5.2945	1.86234	-0.391007	
-6.2685	1.80354	-0.477574	
-6.09766	0.329138	-0.467885	
-7.09738	0.30982	-0.549724	
-7.04527	0.244444	-0.548594	
-6.12978	0.391669	-0.467696	
-4.80426	1.03303	-0.42724	
-6.09807	0.717798	-0.467877	
-6.01644	0.718603	-0.471586	
-5.12933	0.665477	-0.388474	
-6.12946	0.658642	-0.467694	
-5.03053	1.87015	-0.39557	
-5.9199	1.80864	-0.480137	
-5.13556	1.78424	-0.388184	
-5.94748	1.74797	-0.477277	
-6.19496	0.386445	-0.470036	
-6.225	0.441074	-0.472441	
-6.26433	0.365688	-0.476993	
-6.03624	1.25637	-0.47036	
-6.11108	1.24657	-0.467703	
-6.05909	1.3122	-0.469183	
-5.19958	1.30199	-0.386738	
-6.1846	1.27096	-0.469408	
-5.91017	0.276367	-0.481222	
-7.67899	0.292881	-0.653635	
-4.93926	0.234809	-0.405929	
-4.88334	0.216682	-0.413921	
-6.28682	0.891352	-0.480377	
-6.08617	1.48059	-0.468156	
-6.01032	1.4429	-0.472004	
-6.93366	1.51083	-0.553053	
-5.93893	1.45569	-0.478129	
-6.09868	1.36546	-0.467866	
-6.16915	1.34038	-0.468656	
-5.8347	1.70558	-0.490938	
-5.84968	1.63351	-0.48883	
-5.77773	1.65739	-0.499737	
-5.69855	0.837679	-0.51397	
-5.74283	0.792044	-0.505726	
-5.75508	1.09876	-0.503572	
-6.70994	1.30603	-0.579492	
-4.81319	1.35315	-0.425619	
-7.07612	0.166399	-0.548979	
-6.06928	0.169498	-0.468744	
-6.62799	1.40455	-0.594048	
-6.79347	0.41495	-0.567246	
-6.84604	0.474418	-0.560947	
-7.08109	1.05334	-0.549117	
-6.19696	0.984567	-0.470169	
-6.16039	1.13834	-0.468325	
-5.79516	0.452043	-0.496914	
-6.71735	0.374434	-0.578297	
-4.81136	0.42015	-0.425949	
-6.64044	0.484457	-0.591677	
-6.31299	0	-0.48511	
-6.32963	0.0667918	-0.48861	
-6.37738	0	-0.50119	
-6.31299	2	-0.48511	
-5.35642	1.94291	-0.398584	
-5.3175	2	-0.393335	
-6.35057	0.853126	-0.493626	
-6.37738	2	-0.50119	
-7.26904	1.92333	-0.572905	
-5.04773	0.506745	-0.394012	
-5.91974	0.56183	-0.480155	
-5.9275	0.636864	-0.479317	
-5.85841	0.546278	-0.487642	
-5.85914	0.617676	-0.487545	
-7.18546	0.078087	-0.557395	
-7.14554	1.56345	-0.552955	
-5.34753	1.62497	-0.397231	
-6.30466	1.57191	-0.483506	
-7.28763	0.153301	-0.577776	
-7.29187	0.252546	-0.578977	
-5.49303	0.211952	-0.43505	
-5.99085	0.650538	-0.473447	
-6.86521	0.718414	-0.558934	
-5.92943	0.798942	-0.479112	
-5.99648	0.786413	-0.473011	
-4.9499	0.678765	-0.404546	
-5.86918	0.741319	-0.486219	
-7.35045	1.80752	-0.600186	
-6.37667	1.74768	-0.500972	
-7.27272	1.83308	-0.573822	
-5.93701	1.20637	-0.478325	
-6.57731	1.92648	-0.604278	
-6.52162	1.86025	-0.616596	
-6.39635	0.344499	-0.507497	
-6.42227	0.410465	-0.517824	
-7.18239	0.282592	-0.556994	
-7.25222	0.338159	-0.569002	
-6.90907	0.251286	-0.554923	
-5.11563	0.217721	-0.389181	
-6.902	0.164212	-0.555513	
-6.47772	0.230355	-0.627112	
-7.03327	1.93673	-0.54866	
-6.36507	1.26103	-0.497541	
-6.42867	1.24459	-0.520787	
-6.35008	1.32491	-0.493499	
-7.34574	1.31978	-0.598061	
-7.20783	0.804788	-0.560657	
-7.27965	0.759874	-0.575608	
-6.29183	0.714139	-0.481214	
-5.91816	0.206449	-0.480329	
-4.97755	0.138218	-0.401165	
-5.59849	1.72394	-0.535226	
-5.56349	1.78328	-0.543528	
-6.56757	1.79352	-0.60635	
-5.99606	1.03613	-0.473044	
-6.99423	1.05319	-0.549677	
-6.11994	0.992616	-0.467664	
-5.18484	1.10914	-0.386783	
-7.21709	0.204267	-0.562183	
-6.20355	0.22975	-0.470634	
-5.97212	0.863551	-0.474998	
-5.95407	0.938032	-0.476642	
-5.39489	1.76807	-0.405589	
-7.23385	1.69808	-0.565225	
-6.23701	1.73846	-0.473656	
-6.29398	0.425321	-0.481584	
-6.25003	0.500006	-0.475145	
-6.15356	0.456585	-0.468114	
-6.18107	0.51622	-0.469217	
-5.6752	0.232607	-0.518604	
-5.84924	1.33248	-0.488892	
-5.92478	1.52656	-0.479607	
-6.77494	1.55451	-0.56973	
-6.85103	1.60907	-0.560408	
-4.8095	0.903738	-0.426285	
-6.58593	0.902651	-0.602472	
-6.17497	0	-0.468913	
-6.10376	0	-0.467784	
-6.12635	0.051764	-0.467676	
-6.03537	0	-0.470409	
-6.05663	0.0537652	-0.469297	
-5.95339	1.3862	-0.476706	
-5.88268	1.3946	-0.484499	
-5.95925	1.26486	-0.476155	
-5.08269	1.21166	-0.391255	
-5.91638	1.32507	-0.480525	
-5.98735	1.32038	-0.473724	
-5.47333	0.814456	-0.427289	
-5.72297	1.88165	-0.509335	
-6.15078	0.594595	-0.46804	
-5.52168	1.38879	-0.449519	
-6.397	1.39048	-0.507727	
-6.58933	0.75837	-0.601766	
-5.62089	0.821275	-0.53015	
-6.42955	0.75743	-0.52121	
-6.6371	1.60921	-0.592308	
-5.71181	1.68446	-0.511425	
-4.78014	1.75212	-0.431761	
-6.6923	1.73879	-0.582416	
-6.55315	1.59941	-0.609482	
-5.64317	1.66432	-0.525283	
-7.13434	1.93182	-0.552005	
-6.28413	1.87756	-0.47994	
-6.43779	0.146224	-0.525386	
-5.51924	1.10891	-0.448068	
-5.5134	0.544978	-0.4448	
-6.58916	1.32361	-0.601801	
-5.72226	0.0813768	-0.509466	
-5.68486	0	-0.516662	
-5.40099	1.21454	-0.406887	
-6.32573	1.14931	-0.487755	
-6.14862	1.87232	-0.467987	
-5.62545	1.24379	-0.52914	
-5.58729	1.29411	-0.537833	
-5.69147	1.24385	-0.515354	
-5.78946	1.16415	-0.497825	
-7.51092	0.398041	-0.68341	
-6.47421	1.20048	-0.627985	
-5.53845	1.11243	-0.549747	
-5.72498	0.560548	-0.508963	
-5.78974	0.523541	-0.49778	
-7.14345	1.65544	-0.552768	
-6.08707	0.109422	-0.468131	
-4.97272	1.86761	-0.401733	
-5.93117	1.9304	-0.478929	
-5.3136	0.741046	-0.392901	
-6.3486	0.676971	-0.493121	
-4.75352	0.693471	-0.436995	
-5.73755	0.726744	-0.506672	
-5.80452	0.760134	-0.495447	
-3.88127	0.61385	-0.345935	
-4.59665	0.170423	-0.473113	
-5.29547	1.15632	-0.391094	
-5.2828	1.09603	-0.390029	
-6.26532	1.1197	-0.477129	
-4.73905	1.85832	-0.439948	
-5.71733	1.8111	-0.510386	
-6.37699	1.45652	-0.501072	
-6.33746	1.39372	-0.490403	
-4.7964	1.94352	-0.42869	
-5.75369	2	-0.503813	
-6.20121	0.79232	-0.470464	
-5.30099	0.850283	-0.391608	
-6.17677	0.718066	-0.469	
-5.62677	0.180772	-0.528847	
-6.15112	1.51591	-0.468049	
-7.06908	1.59438	-0.548819	
-5.27814	1.48768	-0.389676	
-6.26995	1.50665	-0.477783	
-4.60595	1.83632	-0.470718	
-6.6812	1.53312	-0.584315	
-4.75948	1.54488	-0.4358	
-5.52844	1.71558	-0.552299	
-7.32178	1.66217	-0.588568	
-5.72056	0.358669	-0.509782	
-5.66392	0.310734	-0.520914	
-5.35395	1.39867	-0.398199	
-6.30919	1.4537	-0.484367	
-6.2887	1.33896	-0.480687	
-6.08304	0.46147	-0.468248	
-5.13878	0.394907	-0.388042	
-6.93019	0.433969	-0.5533	
-5.152	1.42238	-0.387516	
-6.02364	1.37641	-0.471119	
-6.33564	0.606335	-0.489977	
-5.57215	0.879786	-0.54143	
-5.58351	0.752034	-0.538724	
-5.54027	0.815753	-0.549287	
-6.53671	1.38066	-0.613146	
-7.34356	1.52165	-0.597112	
-6.34352	1.51493	-0.491857	
-5.38632	1.08423	-0.403858	
-5.54059	1.59815	-0.549207	
-5.17873	2	-0.386854	
-6.63855	1.16076	-0.592034	
-4.73206	1.18618	-0.441403	
-5.00955	1.14984	-0.397644	
-5.75348	1.23168	-0.503851	
-5.59936	1.16237	-0.535025	
-5.90526	1.68406	-0.481785	
-4.3745	0.333428	-0.31054	
-5.5411	1.52552	-0.549079	
-5.58753	0.488947	-0.537776	
-4.86009	1.59304	-0.417596	
-6.37593	1.57917	-0.500745	
-5.56562	1.65719	-0.543009	
-6.28048	0.559694	-0.479361	
-6.31835	0.490232	-0.486193	
-5.60449	0.956713	-0.533849	
-5.67514	0.989568	-0.518616	
-5.87934	1.75665	-0.484917	
-4.89447	1.77244	-0.412234	
-4.73333	1.72615	-0.441138	
-4.84137	0.310718	-0.4207	
-4.78882	0.290342	-0.430109	
-4.79986	1.29539	-0.428049	
-6.17497	2	-0.468913	
-4.92674	0.482459	-0.407613	
-5.3049	1.30941	-0.391992	
-6.0133	0.109198	-0.471798	
-5.62808	1.03572	-0.528561	
-5.68911	1.07584	-0.515819	
-5.68486	2	-0.516662	
-5.46556	0.633303	-0.424558	
-6.35756	0.422033	-0.495465	
-4.46268	0.266461	-0.323202	
-5.61148	0.262786	-0.53226	
-5.22382	1.66446	-0.387062	
-5.16112	1.54135	-0.387226	
-5.56933	0.371856	-0.542112	
-4.67659	0.429791	-0.453574	
-5.05527	1.56661	-0.39337	
-5.06969	1.62234	-0.392215	
-3.98307	1.2804	-0.329302	
-5.53759	0.68957	-0.549965	
-4.59724	0.753859	-0.472959	
-6.435	0.285029	-0.523923	
-4.60133	1.26259	-0.471904	
-7.36151	0	-0.605622	
-4.60929	1.39629	-0.469865	
-6.48552	1.45609	-0.625191	
-5.54563	0.308608	-0.547939	
-6.53616	0.682551	-0.613271	
-5.53464	0.423502	-0.550714	
-6.43648	2	-0.524692	
-5.07157	0.980727	-0.392071	
-6.54742	1.51237	-0.610749	
-5.64568	1.11653	-0.524746	
-5.12913	0.277428	-0.388484	
-6.94404	0.33864	-0.552348	
-4.66607	1.08627	-0.45601	
-5.22602	0.0993244	-0.387117	
-6.19915	0.0548078	-0.470319	
-3.73458	1.55961	-0.376593	
-6.43639	1.72118	-0.524647	
-5.47643	1.94239	-0.428427	
-5.46825	1.87535	-0.425485	
-4.72365	0.473525	-0.443177	
-4.68714	0.331482	-0.451173	
-5.41113	1.63205	-0.409168	
-5.50892	1.59521	-0.442459	
-5.69516	1.47977	-0.514629	
-6.235	0.160133	-0.473443	
-5.27811	0.114041	-0.389673	
-4.82871	1.45658	-0.422874	
-5.37363	0.130179	-0.401477	
-5.90337	0.972536	-0.482004	
-6.40818	0.0752793	-0.511925	
-5.06863	0.0509452	-0.392297	
-5.02368	1.00206	-0.396226	
-3.99387	0.356044	-0.327767	
-5.86326	0.0762643	-0.486995	
-4.71371	1.44431	-0.445304	
-6.24253	0	-0.474265	
-4.59498	0.460204	-0.367592	
-4.30201	0.946643	-0.306213	
-5.54956	2	-0.557218	
-5.62855	2	-0.548684	
-5.79211	2	-0.535421	
-5.87811	2	-0.530831	
-5.70911	2	-0.541408	
-6.97946	2	-0.607493	
-7.15761	2	-0.613634	
-6.40449	2	-0.553617	
-6.32116	2	-0.541634	
-6.14343	2	-0.527677	
-6.88996	2	-0.608797	
-7.3253	-0.0721374	-0.728375	
-4.60001	-0.0524234	-0.48597	
-4.86714	-1.94219	-0.49205	
-5.72648	-1.93265	-0.570858	
-5.76685	-2	-0.572118	
-5.58588	-0.0610541	-0.56768	
-5.73013	-0.0745946	-0.570966	
-5.87213	-0.063891	-0.576014	
-6.47523	-1.2856	-0.566514	
-6.41351	-1.32684	-0.592812	
-6.47523	-1.35721	-0.566514	
-6.47523	-0.0721374	-0.566514	
-7.40027	-0.215036	-0.647445	
-6.47523	-0.143615	-0.566514	
-6.424	-0.177622	-0.591546	
-5.5502	-0.286611	-0.485583	
-6.42508	-0.326516	-0.591394	
-7.40027	-0.358269	-0.647445	
-6.42527	-0.255005	-0.591367	
-6.47523	-0.714404	-0.566514	
-7.34084	-0.754353	-0.673496	
-6.47523	-0.786116	-0.566514	
-5.91247	-2	-0.577682	
-6.79233	-1.91632	-0.656749	
-5.83978	-2	-0.574735	
-4.62329	-2	-0.486227	
-4.60112	-1.94543	-0.485981	
-5.47523	-2	-0.566514	
-6.4263	-1.39944	-0.591216	
-6.47523	-1.42879	-0.566514	
-4.62517	-2	-0.404653	
-7.40027	-1.92786	-0.647445	
-5.49066	-2	-0.511647	
-5.6213	-2	-0.568298	
-5.58545	-1.9425	-0.567673	
-6.95105	-1.91894	-0.663464	
-5.98486	-2	-0.580784	
-5.13261	-2	-0.502897	
-6.47523	-1.21388	-0.566514	
-6.41341	-1.25457	-0.592822	
-7.40027	-1.78496	-0.647445	
-4.58132	-1.82622	-0.428543	
-6.47523	-1.85639	-0.566514	
-5.67003	-0.824164	-0.56935	
-5.59224	-0.840188	-0.567782	
-6.57216	-0.897364	-0.649757	
-7.3253	-1.07055	-0.728375	
-6.46575	-1.0996	-0.647999	
-7.38544	-0.999321	-0.72887	
-5.85455	-1.67801	-0.575311	
-5.92562	-1.66711	-0.578239	
-6.78321	-1.60664	-0.656385	
-5.73813	-0.446895	-0.571207	
-7.60911	-0.354649	-0.733725	
-5.68431	-0.398171	-0.569702	
-6.83425	-1.83141	-0.658476	
-5.04354	-1.78071	-0.499152	
-6.83581	-1.74009	-0.658541	
-6.99616	-1.7075	-0.665289	
-5.98962	-1.71822	-0.580988	
-6.03672	-1.78279	-0.582978	
-7.03609	-1.79397	-0.666953	
-5.93652	-1.60358	-0.578704	
-5.89128	-1.5428	-0.576797	
-4.91216	-1.84473	-0.493705	
-7.15478	-1.45461	-0.672745	
-6.14752	-1.49442	-0.587733	
-6.19499	-1.53304	-0.5901	
-8.04672	-1.28582	-0.752044	
-6.12666	-1.23395	-0.586736	
-7.94756	-1.30809	-0.747289	
-8.1319	-1.05755	-0.755933	
-5.43175	-1.02435	-0.514548	
-5.38316	-0.98494	-0.513987	
-6.04878	-0.659051	-0.583471	
-5.98175	-0.685531	-0.58065	
-6.95994	-0.738859	-0.663834	
-6.93535	-1.33862	-0.662803	
-6.94504	-1.25231	-0.663212	
-7.3253	-1.42879	-0.728375	
-7.3253	-1.49933	-0.728375	
-6.48483	-1.4654	-0.648234	
-5.5627	-0.918262	-0.567342	
-5.61485	-1.01699	-0.568176	
-4.68147	-0.957788	-0.487094	
-7.59097	-0.881052	-0.733153	
-5.74883	-0.965074	-0.571538	
-5.8123	-0.954992	-0.573702	
-5.14903	-0.86716	-0.503541	
-7.0655	-0.888326	-0.668322	
-6.12264	-0.817828	-0.586549	
-6.57573	-0.589278	-0.649835	
-6.59276	-0.676587	-0.650226	
-6.65805	-0.618429	-0.651983	
-7.2523	-0.0745363	-0.676257	
-6.06185	-1.18703	-0.583995	
-5.99988	-1.16574	-0.581428	
-5.99522	-0.496062	-0.581228	
-7.00125	-0.503541	-0.665485	
-6.03086	-0.439924	-0.582736	
-7.03764	-0.698429	-0.667022	
-5.87987	-1.23016	-0.576328	
-6.72662	-1.19538	-0.654245	