<VTKFile type="UnstructuredGrid" version="0.1" byte_order="LittleEndian">
	<UnstructuredGrid>
		<Piece NumberOfPoints="1917" NumberOfCells="56">
			<CellData Scalars="scalars">
				<DataArray type="Float64" Name="Doublet Strengths" NumberOfComponents="1" Format="ascii">
-2.37573	
-9.67294	
-7.41997	
-5.91767	
-8.81154	
-8.86521	
-9.5061	
-8.76223	
-6.0325	
-6.59102	
-3.7597	
-9.16666	
-7.343	
-9.14519	
-6.19276	
-7.59172	
-8.86074	
-8.12125	
-8.24197	
-8.56993	
-9.05795	
-8.70128	
-8.52466	
-8.57105	
-10.498	
-8.13307	
-4.95305	
-6.99878	
-10.5071	
-8.01111	
-8.71502	
-9.45125	
-8.43633	
-6.9681	
-3.82414	
-9.17095	
-7.71421	
-8.54267	
-8.81347	
-6.77474	
-7.86524	
-8.93913	
-9.49815	
-8.36782	
-8.74974	
-9.80557	
-9.14649	
-8.43718	
-7.20424	
-8.75748	
-8.71954	
-2.42664	
-6.16598	
-7.47142	
-8.7883	
-4.73407	
				</DataArray>
				<DataArray type="Float64" Name="Velocity Potential" NumberOfComponents="1" Format="ascii">
14.2298	
1.30935	
-2.21549	
-3.93194	
0.024068	
0.170894	
0.823193	
-0.217377	
-3.69948	
-3.07647	
-6.09284	
0.417127	
-1.92279	
-0.0289532	
-3.48165	
-1.27557	
-0.113021	
-1.36554	
-1.24825	
0.246395	
0.502074	
-0.634484	
0.0265516	
-0.690597	
1.70382	
-1.43132	
-4.96145	
-2.52653	
1.63777	
-1.55796	
-0.253411	
0.571173	
-0.748803	
-3.22802	
-6.74199	
0.238757	
-1.6193	
-0.763691	
-0.0838435	
-3.0722	
-1.12257	
0.0409536	
0.322783	
-0.849835	
0.3866	
1.41931	
0.525702	
-0.857098	
-2.43338	
0.157434	
-0.35673	
13.4036	
-4.36658	
-2.04219	
-0.382611	
-5.93036	
				</DataArray>
			</CellData>
			<Points>
				<DataArray type="Float64" Name="Position" NumberOfComponents="3" Format="ascii">
-2.06166	0	-0.262112	
-1.61144	0.0524256	-0.224502	
-2.84245	0	-0.336173	
-2.20771	2	-0.264917	
-2.23894	1.93467	-0.265786	
-2.70712	2	-0.304425	
-2.13463	0	-0.263252	
-2.09922	0.0610502	-0.262634	
-2.24346	0.0745738	-0.26592	
-2.20771	0	-0.264917	
-2.28018	0	-0.267072	
-2.35312	0	-0.269689	
-2.42581	0	-0.272636	
-2.38443	0.0639395	-0.270926	
-2.51399	1.39584	-0.248622	
-2.92657	1.3266	-0.287795	
-2.98857	1.35721	-0.261468	
-2.84245	1.92786	-0.336173	
-1.61231	1.94512	-0.224511	
-3.41551	0.0721374	-0.298821	
-2.9246	0.0533506	-0.287992	
-2.56163	0	-0.224115	
-3.41551	0.215036	-0.298821	
-3.7526	0.171582	-0.364453	
-2.56163	0.143615	-0.224115	
-2.56163	0.286611	-0.224115	
-3.41551	0.358269	-0.298821	
-2.93839	0.326064	-0.286352	
-2.93618	0.252841	-0.286659	
-2.98857	0.714404	-0.261468	
-2.98857	0.786116	-0.261468	
-3.35605	0.754574	-0.324875	
-2.42581	2	-0.272636	
-2.35312	2	-0.269689	
-3.2441	1.91204	-0.345866	
-2.44104	1.66657	-0.273282	
-2.79801	1.60722	-0.307744	
-2.2517	0.446925	-0.266168	
-2.19876	0.397747	-0.264685	
-3.12683	0.354616	-0.341541	
-1.98857	2	-0.261468	
-2.98857	1.42879	-0.261468	
-2.13469	2	-0.186763	
-2.50209	2	-0.250179	
-3.41551	1.92786	-0.298821	
-2.13463	2	-0.263252	
-1.63472	2	-0.224759	
-2.09955	1.93956	-0.262639	
-2.03888	1.94176	-0.236991	
-3.39299	1.9167	-0.352183	
-2.49819	2	-0.275738	
-2.98857	1.21388	-0.261468	
-2.50997	1.19029	-0.249208	
-2.98857	1.14216	-0.261468	
-2.98857	1.2856	-0.261468	
-2.92687	1.25405	-0.287764	
-3.41551	1.78496	-0.298821	
-2.98857	1.85639	-0.261468	
-2.09081	1.82617	-0.21066	
-2.50267	0.114671	-0.250115	
-3.34226	1.46922	-0.326138	
-3.29674	1.38862	-0.327787	
-2.18337	0.824164	-0.264304	
-2.5874	0.897364	-0.301133	
-2.10557	0.840188	-0.262736	
-2.83121	1.46561	-0.290104	
-2.41551	1	-0.298821	
-2.90259	0.999321	-0.336668	
-2.84245	1.07055	-0.336173	
-2.44988	1.60348	-0.273659	
-2.08109	0.356544	-0.262365	
-1.71847	0.353408	-0.226112	
-2.1255	0.427857	-0.263081	
-2.84802	1.82506	-0.309789	
-2.8517	1.7382	-0.309945	
-2.05496	1.77788	-0.237683	
-2.50334	1.71777	-0.275959	
-2.55123	1.78088	-0.277981	
-3.01156	1.70728	-0.316671	
-3.0516	1.79378	-0.318341	
-2.40454	1.54291	-0.271747	
-2.34229	1.8351	-0.269276	
-3.16984	1.45384	-0.324113	
-2.70838	1.53294	-0.285056	
-2.66089	1.49429	-0.282689	
-3.12829	1.28284	-0.322056	
-3.46353	1.30815	-0.355037	
-2.63867	1.23305	-0.281628	
-3.65013	1.05577	-0.363771	
-2.83474	0.974397	-0.290177	
-2.44808	1.02275	-0.253031	
-2.56212	0.65903	-0.278426	
-2.97518	0.738857	-0.31521	
-2.49508	0.685529	-0.275604	
-2.95049	1.33866	-0.314174	
-2.96016	1.25226	-0.314583	
-2.84245	1.42879	-0.336173	
-2.50061	1.46516	-0.299617	
-2.84245	1.49933	-0.336173	
-2.07604	0.918262	-0.262296	
-3.10811	0.881052	-0.340951	
-2.33917	0.891355	-0.269158	
-2.32564	0.954992	-0.268656	
-2.16045	0.867158	-0.242073	
-2.63596	0.817822	-0.281502	
-3.08064	0.888323	-0.319693	
-2.59097	0.589259	-0.301211	
-2.67329	0.618435	-0.303359	
-2.608	0.676586	-0.301602	
-2.78704	0	-0.288715	
-2.85833	0	-0.290455	
-3.27612	0.0790961	-0.327746	
-2.46853	1.27156	-0.27446	
-2.4581	1.20368	-0.274012	
-2.50879	0.496767	-0.276192	
-2.5455	0.442032	-0.277743	
-3.01718	0.502871	-0.316888	
-3.05288	0.698424	-0.318398	
-2.3932	1.23016	-0.271282	
-2.34384	1.27217	-0.269335	
-2.74186	1.19537	-0.305621	
-1.9855	1.2898	-0.234723	
-2.19656	1.02577	-0.243583	
-3.07489	0.967174	-0.319418	
-2.70191	1.0342	-0.284731	
-3.32526	1.00672	-0.349288	
-2.50818	0.93866	-0.276166	
-2.55974	0.987296	-0.278329	
-2.79349	0.378981	-0.307565	
-2.4274	0.426844	-0.272703	
-2.80143	0.470462	-0.30788	
-3.33337	1.87857	-0.326718	
-3.31914	1.79633	-0.327351	
-2.82691	1.84585	-0.290007	
-2.61663	0.270573	-0.280633	
-2.17499	0.200611	-0.242655	
-3.09613	0.193571	-0.320448	
-3.03441	0.123897	-0.317592	
-2.55108	0.249496	-0.277974	
-2.54198	0.173576	-0.277597	
-3.28675	1.20923	-0.327812	
-2.8297	1.13932	-0.290071	
-2.91432	1.13751	-0.288859	
-2.66691	0.531427	-0.282983	
-2.66781	0.463982	-0.283027	
-2.61097	0.427199	-0.280388	
-2.67769	0.382421	-0.283517	
-2.43723	0.742778	-0.253107	
-3.2969	0.813881	-0.327786	
-3.0196	0.580015	-0.316984	
-2.67169	1.7199	-0.283219	
-3.11186	0.757182	-0.32123	
-2.27241	0.698895	-0.24725	
-2.75849	0.732194	-0.287491	
-2.73881	0.893597	-0.286563	
-2.70585	0.830458	-0.284929	
-3.21554	0.834567	-0.326129	
-2.85604	1.53139	-0.290446	
-2.80347	1.59044	-0.289321	
-2.77912	1.5207	-0.288394	
-2.76147	1.10613	-0.306337	
-2.26449	1.13654	-0.266565	
-3.25702	0.567577	-0.327432	
-3.32414	0.624293	-0.327165	
-2.82427	0.641057	-0.289942	
-2.75592	0.667946	-0.287373	
-2.75581	0.607392	-0.287368	
-3.17468	0.97644	-0.324343	
-2.92903	0	-0.287532	
-2.42158	1.40806	-0.272458	
-2.45426	1.34451	-0.273846	
-2.48783	1.41675	-0.275292	
-2.44875	1.48085	-0.273611	
-2.98092	1.43176	-0.315446	
-2.51343	1.49613	-0.276391	
-2.57941	0.925911	-0.279115	
-2.74645	1.74077	-0.286929	
-3.60108	1.66215	-0.36167	
-2.38455	1.70694	-0.25223	
-2.84245	1.71339	-0.336173	
-2.9129	1.77904	-0.336785	
-2.84245	1.78496	-0.336173	
-2.78704	2	-0.288715	
-3.25656	1.92525	-0.327422	
-2.85833	2	-0.290455	
-2.61945	0.350099	-0.280756	
-2.55574	0.315549	-0.278166	
-2.31555	1.02327	-0.268291	
-2.81206	1.02942	-0.308306	
-2.3106	0.0746863	-0.268114	
-2.34531	0.130322	-0.269391	
-2.69806	0.159825	-0.304129	
-2.71044	0.255296	-0.304535	
-1.89967	0.198868	-0.231339	
-2.38868	0.185075	-0.271098	
-2.66321	0.53229	-0.303061	
-3.69632	0.358269	-0.410878	
-2.41551	0.286611	-0.298821	
-2.05076	0.283499	-0.261985	
-2.84245	0.143615	-0.336173	
-2.49329	0.19815	-0.299522	
-2.84245	0.215036	-0.336173	
-2.98721	0.268711	-0.337932	
-2.92513	0	-0.31309	
-2.14404	0	-0.241429	
-2.5778	0.0522709	-0.279052	
-2.02701	0.233077	-0.215587	
-3.29389	0.293965	-0.327803	
-3.00755	1.52249	-0.316515	
-2.57911	1.6164	-0.279103	
-2.51949	1.57352	-0.276649	
-2.51503	1.65009	-0.276459	
-2.87665	1.59898	-0.290362	
-2.71552	0	-0.285414	
-2.66094	0.0589648	-0.282691	
-2.64289	0	-0.281826	
-2.16098	1.47391	-0.263791	
-2.67064	1.46129	-0.30328	
-2.64816	1.53681	-0.302634	
-3.10921	0.286849	-0.321098	
-2.30201	0.724627	-0.267812	
-1.88525	0.784216	-0.230818	
-2.67771	0.788387	-0.303492	
-3.24374	0.223399	-0.327093	
-2.37579	1.34531	-0.251943	
-2.37104	1.40661	-0.251776	
-3.16287	1.36487	-0.323776	
-2.77076	1.29047	-0.288039	
-2.35737	0.414541	-0.251254	
-2.73158	0.434011	-0.28621	
-3.16774	0.349215	-0.324012	
-2.84717	0.422964	-0.290372	
-3.22449	0.489015	-0.326466	
-2.86948	0.488653	-0.290437	
-1.73521	1.24582	-0.204785	
-2.57504	1.18695	-0.278943	
-2.31725	1.58611	-0.249469	
-1.88879	0.42229	-0.230945	
-1.91097	0.312816	-0.231759	
-2.8453	0.310713	-0.309676	
-2.36777	0.255176	-0.270261	
-2.43361	0.23291	-0.272966	
-3.61846	1.20734	-0.362472	
-2.63407	1.1572	-0.281415	
-2.70332	1.15129	-0.284802	
-2.26512	1.2101	-0.246883	
-3.07027	1.08885	-0.319199	
-2.24672	1.61914	-0.266017	
-2.26556	1.69424	-0.266599	
-2.6139	1.67616	-0.301743	
-2.31444	1.64844	-0.268251	
-2.34285	1.72086	-0.269297	
-2.68788	0.644913	-0.284026	
-2.32931	1.94629	-0.250036	
-3.11119	1.93331	-0.321197	
-2.75767	1.88539	-0.287454	
-2.59625	0.0804625	-0.301329	
-1.68273	0.127785	-0.225451	
-1.69397	1.88257	-0.225645	
-2.59931	1.92762	-0.301399	
-2.2082	0.21589	-0.26493	
-2.32194	0.273142	-0.249692	
-2.74198	0.209198	-0.286716	
-2.31057	0.143339	-0.249147	
-2.80814	0.145092	-0.289476	
-2.2581	0.115792	-0.246531	
-2.68481	1.85807	-0.283872	
-2.61906	1.88373	-0.280739	
-2.18238	1.94611	-0.242965	
-2.14404	2	-0.241429	
-2.64289	2	-0.281826	
-2.51231	0.682902	-0.248875	
-3.41551	0.64279	-0.298821	
-2.03887	1.88295	-0.23699	
-2.34371	1.53147	-0.26933	
-2.32128	1.46174	-0.268498	
-2.38576	1.47178	-0.270979	
-2.88817	1.08229	-0.290122	
-1.77001	0.329519	-0.227286	
-2.47805	0.43708	-0.299342	
-2.41551	0.429861	-0.298821	
-1.95174	1.67699	-0.233342	
-2.29638	1.57544	-0.267618	
-2.26515	1.60691	-0.246885	
-2.65037	1.65508	-0.282181	
-2.75145	1.81461	-0.287165	
-2.26372	1.78507	-0.246813	
-1.76883	0.749751	-0.227256	
-2.24561	0.701087	-0.265984	
-2.55252	0.758919	-0.300435	
-2.98857	0.429861	-0.261468	
-3.34938	0.409639	-0.325548	
-2.8196	1.77163	-0.289819	
-3.31615	1.71936	-0.327445	
-2.60925	1.1716	-0.301631	
-2.21511	1.09553	-0.265115	
-2.7148	1.76477	-0.304681	
-1.93812	1.7791	-0.232801	
-2.48857	0.277236	-0.275323	
-2.89072	0.151691	-0.311608	
-2.14335	1.84554	-0.241402	
-2.50408	1.83711	-0.275991	
-2.3846	1.33945	-0.270932	
-2.35563	1.40104	-0.269786	
-2.37091	0.297567	-0.251771	
-2.81725	0.357474	-0.289754	
-2.18711	0.760525	-0.243168	
-2.56436	0.810302	-0.278516	
-2.47239	0.749841	-0.274626	
-2.40737	0.751361	-0.271865	
-2.42965	0.686344	-0.272798	
-2.49904	0.810027	-0.275774	
-2.43373	0.81571	-0.272971	
-3.26939	1.64173	-0.373526	
-2.05422	1.65788	-0.262024	
-3.41551	1	-0.298821	
-3.41551	1.07055	-0.298821	
-2.513	1.0308	-0.248773	
-1.62639	1.5272	-0.224662	
-2.84245	1.57014	-0.336173	
-1.98205	0.121062	-0.234579	
-2.4556	0.068568	-0.273904	
-2.52309	0.0968802	-0.276802	
-2.84245	1.85639	-0.336173	
-2.48221	1.8723	-0.299389	
-2.84245	0.0721374	-0.336173	
-2.0488	0.116381	-0.261964	
-2.55481	0.378957	-0.278128	
-2.84245	1.2856	-0.336173	
-2.05433	1.33655	-0.262025	
-2.84245	1.35721	-0.336173	
-2.01655	1.07097	-0.236034	
-2.44998	1.13809	-0.273663	
-1.96917	1.10545	-0.234048	
-2.50307	1.08867	-0.275947	
-2.46434	0.876824	-0.27428	
-2.40267	0.882801	-0.27167	
-2.79585	0.819303	-0.307658	
-2.62232	1.38959	-0.280883	
-2.18893	1.45442	-0.243247	
-2.68109	1.41914	-0.283686	
-2.06541	0.213959	-0.238134	
-2.45032	0.621411	-0.273678	
-2.4125	0.549577	-0.272078	
-2.4739	0.556476	-0.274691	
-2.44163	0.491713	-0.273307	
-3.18141	0.0712931	-0.324659	
-2.38233	1.1672	-0.270841	
-2.63778	1.57159	-0.281587	
-2.18215	0.47164	-0.264275	
-2.50895	0.476615	-0.249346	
-3.33799	0.546631	-0.326436	
-2.41551	0.500665	-0.298821	
-2.04855	0.802839	-0.261961	
-1.69686	0.646217	-0.225697	
-1.67467	0.69766	-0.225319	
-2.10171	1.17495	-0.262673	
-2.48099	1.0996	-0.299375	
-2.56541	1.1007	-0.300679	
-2.67357	1.32398	-0.303367	
-1.75113	1.29855	-0.226826	
-2.20788	1.24767	-0.264921	
-2.3905	0.61668	-0.271172	
-2.35336	0.546139	-0.269699	
-1.86775	0.561624	-0.230207	
-2.30656	0.491616	-0.267971	
-1.75749	1.0418	-0.226977	
-2.24507	1.02609	-0.265968	
-2.61296	0.976287	-0.301721	
-2.26216	0.965074	-0.266492	
-2.39465	0.954567	-0.271341	
-2.12216	1.62515	-0.26302	
-1.75657	1.59965	-0.226955	
-2.45478	0.360303	-0.252923	
-2.05875	1.5889	-0.262077	
-2.3163	1.33334	-0.268318	
-2.28996	1.39903	-0.267399	
-2.27755	1.2624	-0.266986	
-2.79198	0.683934	-0.307506	
-2.92035	0.967445	-0.288381	
-3.756	0.89983	-0.364297	
-2.80687	0.914042	-0.289435	
-2.55672	1.0505	-0.278206	
-2.33982	1.13415	-0.250511	
-2.29623	1.09375	-0.248442	
-2.03786	1.5431	-0.236946	
-2.81479	0.770923	-0.289682	
-2.32198	0.785107	-0.249694	
-2.24464	1.34839	-0.245861	
-3.28243	1.29694	-0.327796	
-2.83833	1.65281	-0.290243	
-2.48708	1.25411	-0.299446	
-2.11836	1.32162	-0.262952	
-2.19785	0.633745	-0.243641	
-2.6789	0.587288	-0.283577	
-2.87959	0.6882	-0.290316	
-2.52549	0.873522	-0.276904	
-1.72183	1.36753	-0.204264	
-2.71552	2	-0.285414	
-1.82016	1.1987	-0.228676	
-2.4919	0.394274	-0.275467	
-2.49124	0.336713	-0.275438	
-2.81329	0.702848	-0.289637	
-2.98857	0.929454	-0.261468	
-2.98857	0.857842	-0.261468	
-2.47697	1.94387	-0.252149	
-2.5132	1.16572	-0.276381	
-2.56994	1.11814	-0.27874	
-2.63344	1.79696	-0.302238	
-1.78781	1.73661	-0.227752	
-2.00896	0.370041	-0.23571	
-2.05725	0.446178	-0.237782	
-2.02142	0.936014	-0.236242	
-1.23633	1.0523	-0.187791	
-2.12818	1.01699	-0.26313	
-2.98857	1.49933	-0.261468	
-2.4987	0.586375	-0.299591	
-2.53522	0.509874	-0.300133	
-2.927	1.54624	-0.28775	
-1.87538	0.664255	-0.23047	
-1.92652	0.750955	-0.23235	
-1.87856	0.837223	-0.230582	
-2.84245	1.21388	-0.336173	
-1.61292	1.17543	-0.224517	
-2.84245	0.929454	-0.336173	
-1.61378	0.873321	-0.224526	
-3.26939	0.857842	-0.373526	
-2.04511	0.725606	-0.261924	
-2.84245	0.786116	-0.336173	
-2.84245	0.714404	-0.336173	
-2.06112	0.653203	-0.262105	
-2.84245	0.64279	-0.336173	
-3.26939	0.571209	-0.373526	
-2.84245	1.14216	-0.336173	
-1.6929	0.957788	-0.225626	
-1.36148	0.930031	-0.190416	
-2.32938	0.613315	-0.268794	
-2.51763	1.6049	-0.248031	
-2.10729	0.552048	-0.23992	
-2.5138	0.616488	-0.276406	
-2.55758	1.54065	-0.300528	
-2.14762	0.177963	-0.263509	
-2.13432	1.24487	-0.263246	
-2.5473	1.39957	-0.30034	
-1.78244	0.139289	-0.227608	
-2.11157	1.69928	-0.262835	
-2.14459	1.75272	-0.263448	
-2.18306	1.35868	-0.264297	
-1.80888	1.39206	-0.228343	
-1.7624	1.42097	-0.227096	
-2.12211	1.81911	-0.263019	
-2.92194	1.6612	-0.288241	
-2.98857	1.71339	-0.261468	
-2.3015	0.496577	-0.248703	
-2.75222	0.549039	-0.287201	
-1.74471	1.85508	-0.226677	
-1.61547	0.520218	-0.224543	
-1.31779	0.528047	-0.189325	
-2.98857	1.57014	-0.261468	
-3.41551	0.500665	-0.298821	
-1.84233	0.932053	-0.209739	
-1.85393	1.07414	-0.229742	
-1.85738	1.51028	-0.229857	
-3.41551	1.64173	-0.298821	
-1.79364	0.282674	-0.227912	
-2.98857	0.571209	-0.261468	
-2.09011	0.59575	-0.210779	
-1.20021	1.71321	-0.187318	
-2.72934	1.88726	-0.305179	
-2.50543	0.827624	-0.249793	
-1.84412	1.82622	-0.229422	
-1.62462	1.40032	-0.224642	
-2.22659	1.87065	-0.265431	
-1.98754	0.866054	-0.215588	
-1.95471	1.24863	-0.214786	
-1.90279	1.94589	-0.231454	
-2.08765	1.75284	-0.211177	
-1.43404	1.94185	-0.192625	
-2.9523	0.611259	-0.220968	
-3.35917	0.691022	-0.248646	
-2.52235	0.951279	-0.182017	
-3.36533	0.885946	-0.251399	
-2.47708	0	-0.170697	
-2.40874	0	-0.177898	
-2.87489	0.0792566	-0.210878	
-2.91249	0	-0.317688	
-1.66944	0.0639973	-0.196436	
-2.12806	0	-0.226482	
-2.04172	0.0936441	-0.247269	
-2.33759	0	-0.187413	
-2.26703	0	-0.198767	
-2.31013	0.0798839	-0.19161	
-2.53332	0.821071	-0.188182	
-2.95112	1.45488	-0.220335	
-2.95417	1.89867	-0.221997	
-2.05014	2	-0.133344	
-2.54871	2	-0.165363	
-2.95346	1.91895	-0.204112	
-1.67287	1.93754	-0.195625	
-2.04682	1.90585	-0.245962	
-2.05861	2	-0.242983	
-2.12806	2	-0.226482	
-2.40874	2	-0.177898	
-2.37304	1.92228	-0.182423	
-2.33759	2	-0.187413	
-2.58531	1.85759	-0.16359	
-2.93777	1.82278	-0.205241	
-2.73267	0.600657	-0.229662	
-2.25064	0.663037	-0.201669	
-2.74494	0.68441	-0.22773	
-2.04337	0.939959	-0.246844	
-2.05244	1.33496	-0.244535	
-2.92325	1.68417	-0.206386	
-2.09939	1.74973	-0.129421	
-3.44661	1.71007	-0.238024	
-2.30316	1.02684	-0.19272	
-2.74055	0.943151	-0.228415	
-2.24798	0.965528	-0.20215	
-2.07888	0.553448	-0.237981	
-2.03594	0.495631	-0.248759	
-2.73833	1.36962	-0.167395	
-3.52393	1.42353	-0.237866	
-2.74889	1.43872	-0.168455	
-3.2815	1.02505	-0.223605	
-2.78843	0.965827	-0.173491	
-3.18852	1.04082	-0.207236	
-3.12738	1.21008	-0.201858	
-3.64309	1.26463	-0.248314	
-2.78321	1.19252	-0.172725	
-2.29198	1.8275	-0.194539	
-2.73123	1.91186	-0.229892	
-2.78634	1.83465	-0.221638	
-2.84999	1.04863	-0.213581	
-2.36251	1.0111	-0.183855	
-2.77291	1.09426	-0.223542	
-1.98801	1.10778	-0.13981	
-2.92278	1.09436	-0.206425	
-2.53177	0.92332	-0.166408	
-2.56997	0.983948	-0.164251	
-3.46678	0.912712	-0.237509	
-2.12983	1.65028	-0.127563	
-2.18363	1.64109	-0.125495	
-2.98981	1.58611	-0.20195	
-2.05879	0.621253	-0.242937	
-1.69833	0.607584	-0.18976	
-2.59194	0.544593	-0.255782	
-2.61261	0.626188	-0.251493	
-2.84787	0.883867	-0.213823	
-2.37988	0.814004	-0.181517	
-2.35555	0.883506	-0.184824	
-1.9472	0.94284	-0.144924	
-1.89411	0.823889	-0.152555	
-2.28641	0.86549	-0.195464	
-2.73182	0.577518	-0.166798	
-3.15625	0.659851	-0.203932	
-2.79353	0.634606	-0.174271	
-2.58735	0.0913029	-0.256756	
-2.08919	0.141129	-0.235497	
-2.51532	1.15841	-0.167554	
-3.45601	1.18235	-0.237744	
-2.13884	1.11752	-0.127099	
-3.30018	0.938839	-0.228408	
-2.49617	0.99711	-0.170155	
-2.54851	0.516229	-0.165374	
-3.00378	0.597248	-0.201292	
-2.62289	0.53029	-0.16267	
-2.82561	1.25683	-0.216475	
-2.80557	1.17353	-0.219034	
-2.33015	1.22905	-0.188522	
-3.3212	1.10599	-0.234609	
-2.93815	1.05145	-0.213935	
-2.89496	1.1866	-0.197482	
-2.94801	1.17077	-0.21871	
-3.16923	1.39834	-0.265495	
-1.89281	1.4857	-0.152755	
-2.37994	1.4682	-0.181509	
-3.13971	0.907417	-0.202645	
-2.6598	0.841878	-0.162893	
-3.76331	0.492781	-0.277066	
-2.42587	0.543817	-0.14848	
-2.90172	0.570722	-0.199692	
-2.6798	1.72433	-0.163501	
-2.63572	1.78876	-0.162618	
-2.55006	0.853718	-0.165286	
-2.46302	0.389993	-0.172016	
-2.04352	0.316743	-0.133955	
-2.40883	0.343184	-0.177887	
-2.58344	0.780432	-0.163664	
-2.17547	0.84375	-0.125679	
-2.6535	0.770799	-0.162773	
-2.49865	0.577671	-0.168843	
-2.49012	1.02428	-0.279194	
-2.69214	0.237428	-0.236438	
-2.28105	0.153222	-0.196364	
-2.21344	0.163431	-0.208621	
-2.78321	0.159631	-0.222076	
-2.70294	1.80219	-0.164653	
-2.30593	1.86234	-0.129539	
-2.78183	1.80354	-0.172528	
-2.611	0.329138	-0.162839	
-3.11262	0.30982	-0.2011	
-3.06051	0.244444	-0.19997	
-2.64312	0.391669	-0.16265	
-1.81569	1.03303	-0.165772	
-2.6114	0.717798	-0.162831	
-2.52977	0.718603	-0.16654	
-2.14076	0.665477	-0.127006	
-2.6428	0.658642	-0.162648	
-2.04196	1.87015	-0.134102	
-2.43324	1.80864	-0.175091	
-2.14699	1.78424	-0.126716	
-2.46081	1.74797	-0.172231	
-2.70829	0.386445	-0.16499	
-2.73834	0.441074	-0.167395	
-2.77767	0.365688	-0.171947	
-2.54957	1.25637	-0.165314	
-2.62442	1.24657	-0.162657	
-2.57242	1.3122	-0.164137	
-2.21101	1.30199	-0.12527	
-2.69793	1.27096	-0.164362	
-2.42351	0.276367	-0.176176	
-3.19614	0.292881	-0.261433	
-1.95069	0.234809	-0.144461	
-1.89477	0.216682	-0.152453	
-2.80016	0.891352	-0.175331	
-2.59951	1.48059	-0.16311	
-2.52365	1.4429	-0.166958	
-2.9489	1.51083	-0.204429	
-2.45227	1.45569	-0.173083	
-2.61202	1.36546	-0.16282	
-2.68248	1.34038	-0.16361	
-2.34804	1.70558	-0.185892	
-2.36302	1.63351	-0.183784	
-2.29106	1.65739	-0.194691	
-2.21188	0.837679	-0.208924	
-2.25617	0.792044	-0.20068	
-2.26842	1.09876	-0.198526	
-2.72518	1.30603	-0.230868	
-1.82462	1.35315	-0.164151	
-3.09136	0.166399	-0.200355	
-2.58261	0.169498	-0.163698	
-2.64323	1.40455	-0.245424	
-2.80871	0.41495	-0.218622	
-2.86128	0.474418	-0.212323	
-3.09633	1.05334	-0.200493	
-2.71029	0.984567	-0.165123	
-2.67373	1.13834	-0.163279	
-2.3085	0.452043	-0.191868	
-2.73259	0.374434	-0.229673	
-1.82279	0.42015	-0.164481	
-2.65568	0.484457	-0.243053	
-2.82632	0	-0.180064	
-2.84296	0.0667918	-0.183564	
-2.89071	0	-0.196144	
-2.82632	2	-0.180064	
-2.36785	1.94291	-0.137116	
-2.32893	2	-0.131867	
-2.86391	0.853126	-0.18858	
-2.89071	2	-0.196144	
-3.28428	1.92333	-0.224281	
-2.05916	0.506745	-0.132544	
-2.43307	0.56183	-0.175109	
-2.44084	0.636864	-0.174271	
-2.37175	0.546278	-0.182596	
-2.37247	0.617676	-0.182499	
-3.2007	0.078087	-0.208771	
-3.16078	1.56345	-0.204331	
-2.35896	1.62497	-0.135763	
-2.818	1.57191	-0.17846	
-3.30287	0.153301	-0.229152	
-3.30711	0.252546	-0.230353	
-2.50446	0.211952	-0.173582	
-2.50418	0.650538	-0.168401	
-2.88045	0.718414	-0.21031	
-2.44277	0.798942	-0.174066	
-2.50982	0.786413	-0.167965	
-1.96133	0.678765	-0.143078	
-2.38252	0.741319	-0.181173	
-3.36569	1.80752	-0.251562	
-2.89001	1.74768	-0.195926	
-3.28796	1.83308	-0.225198	
-2.45035	1.20637	-0.173279	
-2.59255	1.92648	-0.255654	
-2.53686	1.86025	-0.267972	
-2.90969	0.344499	-0.202451	
-2.9356	0.410465	-0.212778	
-3.19763	0.282592	-0.20837	
-3.26746	0.338159	-0.220378	
-2.92431	0.251286	-0.206299	
-2.12706	0.217721	-0.127713	
-2.91724	0.164212	-0.206889	
-2.49296	0.230355	-0.278488	
-3.04851	1.93673	-0.200036	
-2.8784	1.26103	-0.192495	
-2.94201	1.24459	-0.215741	
-2.86342	1.32491	-0.188453	
-3.36098	1.31978	-0.249437	
-3.22307	0.804788	-0.212033	
-3.29489	0.759874	-0.226984	
-2.80516	0.714139	-0.176168	
-2.43149	0.206449	-0.175283	
-1.98898	0.138218	-0.139697	
-2.11182	1.72394	-0.23018	
-2.07682	1.78328	-0.238482	
-2.58281	1.79352	-0.257726	
-2.50939	1.03613	-0.167998	
-3.00947	1.05319	-0.201053	
-2.63328	0.992616	-0.162618	
-2.19627	1.10914	-0.125315	
-3.23233	0.204267	-0.213559	
-2.71689	0.22975	-0.165588	
-2.48546	0.863551	-0.169952	
-2.4674	0.938032	-0.171596	
-2.40632	1.76807	-0.144121	
-3.24909	1.69808	-0.216601	
-2.75035	1.73846	-0.16861	
-2.80732	0.425321	-0.176538	
-2.76337	0.500006	-0.170099	
-2.66689	0.456585	-0.163068	
-2.69441	0.51622	-0.164171	
-2.18853	0.232607	-0.213558	
-2.36257	1.33248	-0.183846	
-2.43812	1.52656	-0.174561	
-2.79018	1.55451	-0.221106	
-2.86627	1.60907	-0.211784	
-1.82093	0.903738	-0.164817	
-2.60117	0.902651	-0.253848	
-2.6883	0	-0.163867	
-2.61709	0	-0.162738	
-2.63968	0.051764	-0.16263	
-2.54871	0	-0.165363	
-2.56997	0.0537652	-0.164251	
-2.46673	1.3862	-0.17166	
-2.39601	1.3946	-0.179453	
-2.47259	1.26486	-0.171109	
-2.09412	1.21166	-0.129787	
-2.42971	1.32507	-0.175479	
-2.50069	1.32038	-0.168678	
-2.48476	0.814456	-0.165821	
-2.2363	1.88165	-0.204289	
-2.66412	0.594595	-0.162994	
-2.53311	1.38879	-0.188051	
-2.91033	1.39048	-0.202681	
-2.60457	0.75837	-0.253142	
-2.13422	0.821275	-0.225104	
-2.94289	0.75743	-0.216164	
-2.65234	1.60921	-0.243684	
-2.22515	1.68446	-0.206379	
-1.79157	1.75212	-0.170293	
-2.70754	1.73879	-0.233792	
-2.56839	1.59941	-0.260858	
-2.15651	1.66432	-0.220237	
-3.14958	1.93182	-0.203381	
-2.79747	1.87756	-0.174894	
-2.95113	0.146224	-0.22034	
-2.53067	1.10891	-0.1866	
-2.52483	0.544978	-0.183332	
-2.6044	1.32361	-0.253177	
-2.2356	0.0813768	-0.20442	
-2.1982	0	-0.211616	
-2.41242	1.21454	-0.145419	
-2.83907	1.14931	-0.182709	
-2.66196	1.87232	-0.162941	
-2.13878	1.24379	-0.224094	
-2.10063	1.29411	-0.232787	
-2.2048	1.24385	-0.210308	
-2.3028	1.16415	-0.192779	
-3.02807	0.398041	-0.291208	
-2.48945	1.20048	-0.279361	
-2.05179	1.11243	-0.244701	
-2.23831	0.560548	-0.203917	
-2.30307	0.523541	-0.192734	
-3.15869	1.65544	-0.204144	
-2.6004	0.109422	-0.163085	
-1.98415	1.86761	-0.140265	
-2.44451	1.9304	-0.173883	
-2.32503	0.741046	-0.131433	
-2.86193	0.676971	-0.188075	
-1.76495	0.693471	-0.175527	
-2.25088	0.726744	-0.201626	
-2.31785	0.760134	-0.190401	
-1.3908	0.61385	-0.128045	
-1.60808	0.170423	-0.211645	
-2.3069	1.15632	-0.129626	
-2.29423	1.09603	-0.128561	
-2.77866	1.1197	-0.172083	
-1.75048	1.85832	-0.17848	
-2.23066	1.8111	-0.20534	
-2.89033	1.45652	-0.196026	
-2.8508	1.39372	-0.185357	
-1.80783	1.94352	-0.167222	
-2.26703	2	-0.198767	
-2.71455	0.79232	-0.165418	
-2.31242	0.850283	-0.13014	
-2.69011	0.718066	-0.163954	
-2.14011	0.180772	-0.223801	
-2.66445	1.51591	-0.163003	
-3.08432	1.59438	-0.200195	
-2.28957	1.48768	-0.128208	
-2.78329	1.50665	-0.172737	
-1.61738	1.83632	-0.20925	
-2.69644	1.53312	-0.235691	
-1.77091	1.54488	-0.174332	
-2.04178	1.71558	-0.247253	
-3.33702	1.66217	-0.239944	
-2.2339	0.358669	-0.204736	
-2.17725	0.310734	-0.215868	
-2.36538	1.39867	-0.136731	
-2.82253	1.4537	-0.179321	
-2.80204	1.33896	-0.175641	
-2.59637	0.46147	-0.163202	
-2.15021	0.394907	-0.126574	
-2.94543	0.433969	-0.204676	
-2.16343	1.42238	-0.126048	
-2.53697	1.37641	-0.166073	
-2.84898	0.606335	-0.184931	
-2.08549	0.879786	-0.236384	
-2.09684	0.752034	-0.233678	
-2.0536	0.815753	-0.244241	
-2.55195	1.38066	-0.264522	
-3.3588	1.52165	-0.248488	
-2.85686	1.51493	-0.186811	
-2.39775	1.08423	-0.14239	
-2.05392	1.59815	-0.244161	
-2.19016	2	-0.125386	
-2.65379	1.16076	-0.24341	
-1.74349	1.18618	-0.179935	
-2.02098	1.14984	-0.136176	
-2.26681	1.23168	-0.198805	
-2.1127	1.16237	-0.229979	
-2.41859	1.68406	-0.176739	
-1.88403	0.333428	-0.0926495	
-2.05443	1.52552	-0.244033	
-2.10087	0.488947	-0.23273	
-1.87152	1.59304	-0.156128	
-2.88926	1.57917	-0.195699	
-2.07896	1.65719	-0.237963	
-2.79382	0.559694	-0.174315	
-2.83168	0.490232	-0.181147	
-2.11782	0.956713	-0.228803	
-2.18847	0.989568	-0.21357	
-2.39268	1.75665	-0.179871	
-1.9059	1.77244	-0.150766	
-1.74476	1.72615	-0.17967	
-1.8528	0.310718	-0.159232	
-1.80025	0.290342	-0.168641	
-1.81129	1.29539	-0.166581	
-2.6883	2	-0.163867	
-1.93817	0.482459	-0.146145	
-2.31633	1.30941	-0.130524	
-2.52663	0.109198	-0.166752	
-2.14141	1.03572	-0.223515	
-2.20244	1.07584	-0.210773	
-2.1982	2	-0.211616	
-2.47699	0.633303	-0.16309	
-2.8709	0.422033	-0.190419	
-1.97221	0.266461	-0.105312	
-2.12482	0.262786	-0.227214	
-2.23525	1.66446	-0.125594	
-2.17255	1.54135	-0.125758	
-2.08266	0.371856	-0.237066	
-1.68802	0.429791	-0.192106	
-2.0667	1.56661	-0.131902	
-2.08112	1.62234	-0.130747	
-1.4926	1.2804	-0.111412	
-2.05092	0.68957	-0.244919	
-1.60867	0.753859	-0.211491	
-2.94833	0.285029	-0.218877	
-1.61276	1.26259	-0.210436	
-3.37675	0	-0.256998	
-1.62072	1.39629	-0.208397	
-2.50076	1.45609	-0.276567	
-2.05897	0.308608	-0.242893	
-2.5514	0.682551	-0.264647	
-2.04798	0.423502	-0.245668	
-2.94981	2	-0.219646	
-2.083	0.980727	-0.130603	
-2.56266	1.51237	-0.262125	
-2.15902	1.11653	-0.2197	
-2.14056	0.277428	-0.127016	
-2.95928	0.33864	-0.203724	
-1.6775	1.08627	-0.194542	
-2.23745	0.0993244	-0.125649	
-2.71248	0.0548078	-0.165273	
-1.24411	1.55961	-0.158703	
-2.94973	1.72118	-0.219601	
-2.48786	1.94239	-0.166959	
-2.47968	1.87535	-0.164017	
-1.73508	0.473525	-0.181709	
-1.69857	0.331482	-0.189705	
-2.42256	1.63205	-0.1477	
-2.52035	1.59521	-0.180991	
-2.2085	1.47977	-0.209583	
-2.74834	0.160133	-0.168397	
-2.28954	0.114041	-0.128205	
-1.84014	1.45658	-0.161406	
-2.38506	0.130179	-0.140009	
-2.41671	0.972536	-0.176958	
-2.92152	0.0752793	-0.206879	
-2.08006	0.0509452	-0.130829	
-2.03511	1.00206	-0.134758	
-1.5034	0.356044	-0.109877	
-2.3766	0.0762643	-0.181949	
-1.72514	1.44431	-0.183836	
-2.75587	0	-0.169219	
-2.1045	0.460204	-0.149702	
-1.81154	0.946643	-0.0883229	
-2.06289	2	-0.252172	
-2.14188	2	-0.243638	
-2.30544	2	-0.230375	
-2.39145	2	-0.225785	
-2.22244	2	-0.236362	
-2.9947	2	-0.258869	
-3.17285	2	-0.26501	
-2.91783	2	-0.248571	
-2.8345	2	-0.236588	
-2.65676	2	-0.222631	
-2.9052	2	-0.260173	
-2.84245	-0.0721374	-0.336173	
-1.61144	-0.0524234	-0.224502	
-1.87857	-1.94219	-0.230582	
-2.23981	-1.93265	-0.265812	
-2.28018	-2	-0.267072	
-2.09922	-0.0610541	-0.262634	
-2.24347	-0.0745946	-0.26592	
-2.38547	-0.063891	-0.270968	
-2.98857	-1.2856	-0.261468	
-2.92684	-1.32684	-0.287766	
-2.98857	-1.35721	-0.261468	
-2.98857	-0.0721374	-0.261468	
-3.41551	-0.215036	-0.298821	
-2.98857	-0.143615	-0.261468	
-2.93734	-0.177622	-0.2865	
-2.56163	-0.286611	-0.224115	
-2.93842	-0.326516	-0.286348	
-3.41551	-0.358269	-0.298821	
-2.93861	-0.255005	-0.286321	
-2.98857	-0.714404	-0.261468	
-3.35608	-0.754353	-0.324872	
-2.98857	-0.786116	-0.261468	
-2.42581	-2	-0.272636	
-2.80757	-1.91632	-0.308125	
-2.35312	-2	-0.269689	
-1.63472	-2	-0.224759	
-1.61255	-1.94543	-0.224513	
-1.98857	-2	-0.261468	
-2.93964	-1.39944	-0.28617	
-2.98857	-1.42879	-0.261468	
-2.13469	-2	-0.186763	
-3.41551	-1.92786	-0.298821	
-2.50209	-2	-0.250179	
-2.13463	-2	-0.263252	
-2.09878	-1.9425	-0.262627	
-2.96629	-1.91894	-0.31484	
-2.49819	-2	-0.275738	
-2.14404	-2	-0.241429	
-2.98857	-1.21388	-0.261468	
-2.92675	-1.25457	-0.287776	
-3.41551	-1.78496	-0.298821	
-2.09084	-1.82622	-0.210653	
-2.98857	-1.85639	-0.261468	
-2.18337	-0.824164	-0.264304	
-2.10557	-0.840188	-0.262736	
-2.5874	-0.897364	-0.301133	
-2.84245	-1.07055	-0.336173	
-2.48099	-1.0996	-0.299375	
-2.90259	-0.999321	-0.336668	
-2.36788	-1.67801	-0.270265	
-2.43896	-1.66711	-0.273193	
-2.79845	-1.60664	-0.307761	
-2.25146	-0.446895	-0.266161	
-3.12626	-0.354649	-0.341523	
-2.19764	-0.398171	-0.264656	
-2.84949	-1.83141	-0.309852	
-2.05497	-1.78071	-0.237684	
-2.85105	-1.74009	-0.309917	
-3.0114	-1.7075	-0.316665	
-2.50295	-1.71822	-0.275942	
-2.55006	-1.78279	-0.277932	
-3.05133	-1.79397	-0.318329	
-2.44985	-1.60358	-0.273658	
-2.40461	-1.5428	-0.271751	
-1.92359	-1.84473	-0.232237	
-3.17002	-1.45461	-0.324121	
-2.66085	-1.49442	-0.282687	
-2.70833	-1.53304	-0.285054	
-3.56386	-1.28582	-0.359842	
-2.63999	-1.23395	-0.28169	
-3.46471	-1.30809	-0.355087	
-3.64905	-1.05755	-0.363731	
-2.44318	-1.02435	-0.25308	
-2.39459	-0.98494	-0.252519	
-2.56211	-0.659051	-0.278425	
-2.49508	-0.685531	-0.275604	
-2.97518	-0.738859	-0.31521	
-2.95059	-1.33862	-0.314179	
-2.96028	-1.25231	-0.314588	
-2.84245	-1.42879	-0.336173	
-2.84245	-1.49933	-0.336173	
-2.50007	-1.4654	-0.29961	
-2.07604	-0.918262	-0.262296	
-2.12818	-1.01699	-0.26313	
-1.6929	-0.957788	-0.225626	
-3.10811	-0.881052	-0.340951	
-2.26216	-0.965074	-0.266492	
-2.32564	-0.954992	-0.268656	
-2.16046	-0.86716	-0.242073	
-3.08074	-0.888326	-0.319698	
-2.63597	-0.817828	-0.281503	
-2.59097	-0.589278	-0.301211	
-2.608	-0.676587	-0.301602	
-2.67329	-0.618429	-0.303359	
-3.26754	-0.0745363	-0.327633	
-2.57519	-1.18703	-0.278949	
-2.51322	-1.16574	-0.276382	
-2.50856	-0.496062	-0.276182	
-3.01649	-0.503541	-0.316861	
-2.5442	-0.439924	-0.27769	
-3.05288	-0.698429	-0.318398	