<VTKFile type="UnstructuredGrid" version="0.1" byte_order="LittleEndian">
	<UnstructuredGrid>
		<Piece NumberOfPoints="1917" NumberOfCells="56">
			<CellData Scalars="scalars">
				<DataArray type="Float64" Name="Doublet Strengths" NumberOfComponents="1" Format="ascii">
-0.782383	
-3.01595	
-2.29556	
-2.6189	
-3.07919	
-3.24194	
-3.26955	
-3.1684	
-2.44745	
-2.19686	
-1.35156	
-3.75489	
-2.31335	
-3.55266	
-2.23989	
-2.3618	
-3.14117	
-2.94544	
-2.92817	
-2.67088	
-3.05634	
-3.21212	
-2.58457	
-3.14723	
-5.29152	
-2.8858	
-2.09905	
-2.23024	
-5.29039	
-2.29056	
-2.8423	
-3.13425	
-2.68334	
-2.11086	
-1.15996	
-3.70748	
-2.25144	
-2.68777	
-3.14282	
-2.11588	
-2.28547	
-2.84243	
-2.86554	
-2.64495	
-2.55621	
-2.85917	
-2.82238	
-2.66578	
-2.22643	
-2.49254	
-2.73593	
-0.720492	
-1.88621	
-2.19112	
-2.74061	
-1.46993	
				</DataArray>
				<DataArray type="Float64" Name="Velocity Potential" NumberOfComponents="1" Format="ascii">
-219.556	
-291.856	
-292.93	
-292.414	
-292.146	
-291.127	
-291.804	
-291.885	
-292.545	
-292.95	
-293.825	
-289.55	
-292.882	
-291.372	
-292.806	
-292.741	
-291.527	
-292.056	
-292.133	
-292.351	
-291.686	
-291.747	
-292.546	
-291.644	
-287.473	
-292.267	
-293.014	
-293.016	
-287.979	
-292.553	
-292.59	
-292.211	
-292.775	
-292.865	
-294.314	
-290.636	
-292.735	
-292.712	
-291.92	
-292.671	
-292.633	
-291.847	
-292.135	
-292.516	
-292.152	
-291.751	
-291.853	
-292.628	
-292.525	
-292.277	
-292.161	
-219.92	
-293.349	
-292.76	
-292.363	
-293.962	
				</DataArray>
			</CellData>
			<Points>
				<DataArray type="Float64" Name="Position" NumberOfComponents="3" Format="ascii">
-7.04261	0	-0.697892	
-5.88083	0.0524256	-0.598028	
-9.24653	0	-0.896462	
-7.18866	2	-0.700697	
-7.21989	1.93467	-0.701566	
-8.39963	2	-0.802459	
-7.11558	0	-0.699032	
-7.08017	0.0610502	-0.698414	
-7.22441	0.0745738	-0.7017	
-7.18866	0	-0.700697	
-7.26113	0	-0.702852	
-7.33407	0	-0.705469	
-7.40676	0	-0.708416	
-7.36538	0.0639395	-0.706706	
-6.78338	1.39584	-0.622148	
-7.90752	1.3266	-0.723575	
-7.96952	1.35721	-0.697248	
-9.24653	1.92786	-0.896462	
-5.8817	1.94512	-0.598037	
-9.10802	0.0721374	-0.796855	
-7.90555	0.0533506	-0.723772	
-6.83102	0	-0.597641	
-9.10802	0.215036	-0.796855	
-10.1567	0.171582	-0.924742	
-6.83102	0.143615	-0.597641	
-6.83102	0.286611	-0.597641	
-9.10802	0.358269	-0.796855	
-7.91934	0.326064	-0.722132	
-7.91713	0.252841	-0.722439	
-7.96952	0.714404	-0.697248	
-7.96952	0.786116	-0.697248	
-9.04857	0.754574	-0.822909	
-7.40676	2	-0.708416	
-7.33407	2	-0.705469	
-9.64818	1.91204	-0.906154	
-7.42199	1.66657	-0.709062	
-8.49053	1.60722	-0.805778	
-7.23265	0.446925	-0.701948	
-7.17971	0.397747	-0.700465	
-9.53091	0.354616	-0.90183	
-6.96952	2	-0.697248	
-7.96952	1.42879	-0.697248	
-5.69251	2	-0.498034	
-6.77148	2	-0.623705	
-9.10802	1.92786	-0.796855	
-7.11558	2	-0.699032	
-5.90411	2	-0.598285	
-7.0805	1.93956	-0.698419	
-6.30827	1.94176	-0.610517	
-9.79707	1.9167	-0.912471	
-7.47914	2	-0.711518	
-7.96952	1.21388	-0.697248	
-6.77935	1.19029	-0.622733	
-7.96952	1.14216	-0.697248	
-7.96952	1.2856	-0.697248	
-7.90782	1.25405	-0.723544	
-9.10802	1.78496	-0.796855	
-7.96952	1.85639	-0.697248	
-5.64863	1.82617	-0.521931	
-6.77206	0.114671	-0.623641	
-9.03478	1.46922	-0.824172	
-8.98926	1.38862	-0.825821	
-7.16432	0.824164	-0.700084	
-8.27992	0.897364	-0.799167	
-7.08652	0.840188	-0.698516	
-7.81216	1.46561	-0.725884	
-8.10802	1	-0.796855	
-9.30667	0.999321	-0.896956	
-9.24653	1.07055	-0.896462	
-7.43083	1.60348	-0.709439	
-7.06204	0.356544	-0.698145	
-5.98785	0.353408	-0.599637	
-7.10645	0.427857	-0.698861	
-8.54053	1.82506	-0.807824	
-8.54422	1.7382	-0.807979	
-6.32435	1.77788	-0.611209	
-7.48429	1.71777	-0.711739	
-7.53218	1.78088	-0.713761	
-8.70407	1.70728	-0.814705	
-8.74412	1.79378	-0.816375	
-7.38549	1.54291	-0.707527	
-7.32324	1.8351	-0.705056	
-8.86236	1.45384	-0.822147	
-7.68933	1.53294	-0.720836	
-7.64184	1.49429	-0.718469	
-8.8208	1.28284	-0.82009	
-9.86761	1.30815	-0.915325	
-7.61962	1.23305	-0.717408	
-10.0542	1.05577	-0.924059	
-7.81569	0.974397	-0.725957	
-6.71747	1.02275	-0.626557	
-7.54307	0.65903	-0.714206	
-8.6677	0.738857	-0.813244	
-7.47603	0.685529	-0.711384	
-8.643	1.33866	-0.812208	
-8.65268	1.25226	-0.812617	
-9.24653	1.42879	-0.896462	
-8.19312	1.46516	-0.797651	
-9.24653	1.49933	-0.896462	
-7.05699	0.918262	-0.698076	
-9.51219	0.881052	-0.901239	
-7.32012	0.891355	-0.704938	
-7.30659	0.954992	-0.704436	
-6.42984	0.867158	-0.615598	
-7.61691	0.817822	-0.717282	
-8.77315	0.888323	-0.817727	
-8.28348	0.589259	-0.799245	
-8.36581	0.618435	-0.801393	
-8.30052	0.676586	-0.799636	
-7.76799	0	-0.724495	
-7.83928	0	-0.726235	
-8.96863	0.0790961	-0.82578	
-7.44948	1.27156	-0.71024	
-7.43905	1.20368	-0.709792	
-7.48974	0.496767	-0.711972	
-7.52645	0.442032	-0.713523	
-8.70969	0.502871	-0.814923	
-8.74539	0.698424	-0.816432	
-7.37415	1.23016	-0.707062	
-7.32479	1.27217	-0.705115	
-8.43437	1.19537	-0.803655	
-6.25489	1.2898	-0.608249	
-6.46595	1.02577	-0.617109	
-8.76741	0.967174	-0.817452	
-7.68286	1.0342	-0.720511	
-9.72934	1.00672	-0.909577	
-7.48913	0.93866	-0.711946	
-7.54069	0.987296	-0.714109	
-8.48601	0.378981	-0.8056	
-7.40835	0.426844	-0.708483	
-8.49395	0.470462	-0.805914	
-9.02589	1.87857	-0.824752	
-9.01165	1.79633	-0.825385	
-7.80786	1.84585	-0.725787	
-7.59758	0.270573	-0.716413	
-6.44438	0.200611	-0.616181	
-8.78864	0.193571	-0.818482	
-8.72693	0.123897	-0.815626	
-7.53203	0.249496	-0.713754	
-7.52293	0.173576	-0.713377	
-8.97927	1.20923	-0.825846	
-7.81065	1.13932	-0.725851	
-7.89527	1.13751	-0.724639	
-7.64786	0.531427	-0.718763	
-7.64876	0.463982	-0.718807	
-7.59192	0.427199	-0.716168	
-7.65864	0.382421	-0.719297	
-6.70662	0.742778	-0.626632	
-8.98942	0.813881	-0.82582	
-8.71211	0.580015	-0.815018	
-7.65264	1.7199	-0.718999	
-8.80437	0.757182	-0.819265	
-6.54179	0.698895	-0.620775	
-7.73944	0.732194	-0.723271	
-7.71976	0.893597	-0.722343	
-7.6868	0.830458	-0.720709	
-8.90806	0.834567	-0.824163	
-7.83699	1.53139	-0.726226	
-7.78442	1.59044	-0.725101	
-7.76007	1.5207	-0.724174	
-8.45398	1.10613	-0.804372	
-7.24544	1.13654	-0.702345	
-8.94953	0.567577	-0.825466	
-9.01666	0.624293	-0.825199	
-7.80522	0.641057	-0.725722	
-7.73687	0.667946	-0.723153	
-7.73676	0.607392	-0.723148	
-8.8672	0.97644	-0.822378	
-7.90998	0	-0.723312	
-7.40253	1.40806	-0.708238	
-7.43521	1.34451	-0.709626	
-7.46878	1.41675	-0.711072	
-7.4297	1.48085	-0.709391	
-8.67344	1.43176	-0.813481	
-7.49438	1.49613	-0.712171	
-7.56036	0.925911	-0.714895	
-7.7274	1.74077	-0.722709	
-10.0052	1.66215	-0.921959	
-6.65394	1.70694	-0.625755	
-9.24653	1.71339	-0.896462	
-9.31698	1.77904	-0.897074	
-9.24653	1.78496	-0.896462	
-7.76799	2	-0.724495	
-8.94908	1.92525	-0.825456	
-7.83928	2	-0.726235	
-7.6004	0.350099	-0.716536	
-7.53669	0.315549	-0.713946	
-7.2965	1.02327	-0.704071	
-8.50458	1.02942	-0.806341	
-7.29155	0.0746863	-0.703894	
-7.32626	0.130322	-0.705171	
-8.39057	0.159825	-0.802164	
-8.40295	0.255296	-0.802569	
-6.16905	0.198868	-0.604865	
-7.36963	0.185075	-0.706878	
-8.35573	0.53229	-0.801096	
-11.5235	0.358269	-1.09568	
-8.10802	0.286611	-0.796855	
-7.03171	0.283499	-0.697765	
-9.24653	0.143615	-0.896462	
-8.1858	0.19815	-0.797556	
-9.24653	0.215036	-0.896462	
-9.39129	0.268711	-0.898221	
-8.61764	0	-0.811124	
-6.41342	0	-0.614955	
-7.55875	0.0522709	-0.714832	
-5.58483	0.233077	-0.526858	
-8.98641	0.293965	-0.825838	
-8.70007	1.52249	-0.814549	
-7.56006	1.6164	-0.714883	
-7.50044	1.57352	-0.712429	
-7.49598	1.65009	-0.712239	
-7.8576	1.59898	-0.726142	
-7.69647	0	-0.721194	
-7.64189	0.0589648	-0.718471	
-7.62384	0	-0.717606	
-7.14193	1.47391	-0.699571	
-8.36316	1.46129	-0.801314	
-8.34068	1.53681	-0.800669	
-8.80172	0.286849	-0.819132	
-7.28296	0.724627	-0.703592	
-6.15464	0.784216	-0.604344	
-8.37022	0.788387	-0.801527	
-8.93625	0.223399	-0.825127	
-6.64517	1.34531	-0.625469	
-6.64043	1.40661	-0.625302	
-8.85539	1.36487	-0.82181	
-7.75171	1.29047	-0.723819	
-6.62675	0.414541	-0.624779	
-7.71253	0.434011	-0.72199	
-8.86025	0.349215	-0.822046	
-7.82812	0.422964	-0.726152	
-8.917	0.489015	-0.8245	
-7.85043	0.488653	-0.726217	
-5.29303	1.24582	-0.516057	
-7.55599	1.18695	-0.714723	
-6.58664	1.58611	-0.622995	
-6.15817	0.42229	-0.60447	
-6.18035	0.312816	-0.605284	
-8.53782	0.310713	-0.80771	
-7.34872	0.255176	-0.706041	
-7.41456	0.23291	-0.708746	
-10.0225	1.20734	-0.922761	
-7.61502	1.1572	-0.717195	
-7.68427	1.15129	-0.720582	
-6.53451	1.2101	-0.620409	
-8.76279	1.08885	-0.817234	
-7.22767	1.61914	-0.701797	
-7.24651	1.69424	-0.702379	
-8.30641	1.67616	-0.799778	
-7.29539	1.64844	-0.704031	
-7.3238	1.72086	-0.705077	
-7.66883	0.644913	-0.719806	
-6.59869	1.94629	-0.623561	
-8.80371	1.93331	-0.819231	
-7.73862	1.88539	-0.723234	
-8.28876	0.0804625	-0.799363	
-5.95212	0.127785	-0.598977	
-5.96336	1.88257	-0.599171	
-8.29183	1.92762	-0.799433	
-7.18915	0.21589	-0.70071	
-6.59132	0.273142	-0.623217	
-7.72293	0.209198	-0.722496	
-6.57996	0.143339	-0.622673	
-7.78909	0.145092	-0.725256	
-6.52749	0.115792	-0.620057	
-7.66576	1.85807	-0.719652	
-7.60001	1.88373	-0.716519	
-6.45176	1.94611	-0.61649	
-6.41342	2	-0.614955	
-7.62384	2	-0.717606	
-6.78169	0.682902	-0.622401	
-9.10802	0.64279	-0.796855	
-6.30826	1.88295	-0.610516	
-7.32466	1.53147	-0.70511	
-7.30223	1.46174	-0.704278	
-7.36671	1.47178	-0.706759	
-7.86912	1.08229	-0.725902	
-6.0394	0.329519	-0.600812	
-8.17056	0.43708	-0.797376	
-8.10802	0.429861	-0.796855	
-6.22113	1.67699	-0.606868	
-7.27733	1.57544	-0.703398	
-6.53454	1.60691	-0.620411	
-7.63132	1.65508	-0.717961	
-7.7324	1.81461	-0.722945	
-6.53311	1.78507	-0.620339	
-6.03821	0.749751	-0.600782	
-7.22656	0.701087	-0.701764	
-8.24503	0.758919	-0.798469	
-7.96952	0.429861	-0.697248	
-9.04189	0.409639	-0.823583	
-7.80055	1.77163	-0.725599	
-9.00866	1.71936	-0.825479	
-8.30176	1.1716	-0.799666	
-7.19606	1.09553	-0.700895	
-8.40731	1.76477	-0.802715	
-6.2075	1.7791	-0.606327	
-7.46952	0.277236	-0.711103	
-8.58324	0.151691	-0.809643	
-6.41274	1.84554	-0.614927	
-7.48503	1.83711	-0.711771	
-7.36555	1.33945	-0.706712	
-7.33658	1.40104	-0.705566	
-6.6403	0.297567	-0.625297	
-7.7982	0.357474	-0.725534	
-6.45649	0.760525	-0.616693	
-7.54531	0.810302	-0.714296	
-7.45334	0.749841	-0.710406	
-7.38832	0.751361	-0.707645	
-7.4106	0.686344	-0.708578	
-7.47999	0.810027	-0.711554	
-7.41468	0.81571	-0.708751	
-10.385	1.64173	-0.996069	
-7.03517	1.65788	-0.697804	
-9.10802	1	-0.796855	
-9.10802	1.07055	-0.796855	
-6.78238	1.0308	-0.622299	
-5.89578	1.5272	-0.598187	
-9.24653	1.57014	-0.896462	
-6.25143	0.121062	-0.608105	
-7.43655	0.068568	-0.709684	
-7.50404	0.0968802	-0.712582	
-9.24653	1.85639	-0.896462	
-8.17473	1.8723	-0.797423	
-9.24653	0.0721374	-0.896462	
-7.02975	0.116381	-0.697744	
-7.53576	0.378957	-0.713908	
-9.24653	1.2856	-0.896462	
-7.03528	1.33655	-0.697805	
-9.24653	1.35721	-0.896462	
-6.28594	1.07097	-0.609559	
-7.43093	1.13809	-0.709443	
-6.23856	1.10545	-0.607574	
-7.48402	1.08867	-0.711727	
-7.44529	0.876824	-0.71006	
-7.38362	0.882801	-0.70745	
-8.48836	0.819303	-0.805692	
-7.60327	1.38959	-0.716663	
-6.45832	1.45442	-0.616773	
-7.66204	1.41914	-0.719466	
-6.3348	0.213959	-0.611659	
-7.43127	0.621411	-0.709458	
-7.39345	0.549577	-0.707858	
-7.45485	0.556476	-0.710471	
-7.42258	0.491713	-0.709087	
-8.87392	0.0712931	-0.822693	
-7.36328	1.1672	-0.706621	
-7.61873	1.57159	-0.717367	
-7.1631	0.47164	-0.700055	
-6.77833	0.476615	-0.622872	
-9.03051	0.546631	-0.824471	
-8.10802	0.500665	-0.796855	
-7.0295	0.802839	-0.697741	
-5.96624	0.646217	-0.599223	
-5.94406	0.69766	-0.598845	
-7.08266	1.17495	-0.698453	
-8.1735	1.0996	-0.797409	
-8.25792	1.1007	-0.798713	
-8.36608	1.32398	-0.801402	
-6.02052	1.29855	-0.600351	
-7.18883	1.24767	-0.700701	
-7.37145	0.61668	-0.706952	
-7.33431	0.546139	-0.705479	
-6.13713	0.561624	-0.603733	
-7.28751	0.491616	-0.703751	
-6.02688	1.0418	-0.600503	
-7.22602	1.02609	-0.701748	
-8.30548	0.976287	-0.799755	
-7.24311	0.965074	-0.702272	
-7.3756	0.954567	-0.707121	
-7.10311	1.62515	-0.6988	
-6.02596	1.59965	-0.600481	
-6.72416	0.360303	-0.626449	
-7.0397	1.5889	-0.697857	
-7.29725	1.33334	-0.704098	
-7.27091	1.39903	-0.703179	
-7.2585	1.2624	-0.702766	
-8.4845	0.683934	-0.80554	
-7.9013	0.967445	-0.724161	
-10.1601	0.89983	-0.924586	
-7.78782	0.914042	-0.725215	
-7.53767	1.0505	-0.713986	
-6.60921	1.13415	-0.624037	
-6.56561	1.09375	-0.621968	
-6.30724	1.5431	-0.610472	
-7.79574	0.770923	-0.725462	
-6.59137	0.785107	-0.623219	
-6.51403	1.34839	-0.619387	
-8.97495	1.29694	-0.82583	
-7.81928	1.65281	-0.726023	
-8.17959	1.25411	-0.79748	
-7.09931	1.32162	-0.698732	
-6.46723	0.633745	-0.617167	
-7.65985	0.587288	-0.719357	
-7.86054	0.6882	-0.726096	
-7.50644	0.873522	-0.712684	
-5.27965	1.36753	-0.515536	
-7.69647	2	-0.721194	
-6.08955	1.1987	-0.602202	
-7.47285	0.394274	-0.711247	
-7.47219	0.336713	-0.711218	
-7.79424	0.702848	-0.725417	
-7.96952	0.929454	-0.697248	
-7.96952	0.857842	-0.697248	
-6.74636	1.94387	-0.625675	
-7.49415	1.16572	-0.712161	
-7.55089	1.11814	-0.71452	
-8.32595	1.79696	-0.800272	
-6.05719	1.73661	-0.601278	
-6.27834	0.370041	-0.609236	
-6.32663	0.446178	-0.611308	
-6.29081	0.936014	-0.609767	
-4.79415	1.0523	-0.499063	
-7.10913	1.01699	-0.69891	
-7.96952	1.49933	-0.697248	
-8.19121	0.586375	-0.797626	
-8.22773	0.509874	-0.798167	
-7.90795	1.54624	-0.72353	
-6.14477	0.664255	-0.603996	
-6.19591	0.750955	-0.605876	
-6.14795	0.837223	-0.604107	
-9.24653	1.21388	-0.896462	
-5.88231	1.17543	-0.598043	
-9.24653	0.929454	-0.896462	
-5.88317	0.873321	-0.598052	
-10.385	0.857842	-0.996069	
-7.02606	0.725606	-0.697704	
-9.24653	0.786116	-0.896462	
-9.24653	0.714404	-0.896462	
-7.04207	0.653203	-0.697885	
-9.24653	0.64279	-0.896462	
-10.385	0.571209	-0.996069	
-9.24653	1.14216	-0.896462	
-5.96229	0.957788	-0.599152	
-4.91931	0.930031	-0.501688	
-7.31033	0.613315	-0.704574	
-6.78702	1.6049	-0.621557	
-6.37668	0.552048	-0.613446	
-7.49475	0.616488	-0.712186	
-8.25009	1.54065	-0.798563	
-7.12857	0.177963	-0.699289	
-7.11527	1.24487	-0.699026	
-8.23981	1.39957	-0.798375	
-6.05182	0.139289	-0.601134	
-7.09252	1.69928	-0.698615	
-7.12554	1.75272	-0.699228	
-7.16401	1.35868	-0.700077	
-6.07827	1.39206	-0.601869	
-6.03178	1.42097	-0.600622	
-7.10306	1.81911	-0.698799	
-7.90289	1.6612	-0.724021	
-7.96952	1.71339	-0.697248	
-6.57088	0.496577	-0.622229	
-7.73317	0.549039	-0.722981	
-6.01409	1.85508	-0.600203	
-5.88485	0.520218	-0.598069	
-4.87561	0.528047	-0.500596	
-7.96952	1.57014	-0.697248	
-9.10802	0.500665	-0.796855	
-5.40015	0.932053	-0.521011	
-6.12331	1.07414	-0.603268	
-6.12676	1.51028	-0.603382	
-9.10802	1.64173	-0.796855	
-6.06303	0.282674	-0.601437	
-7.96952	0.571209	-0.697248	
-5.64793	0.59575	-0.52205	
-4.75803	1.71321	-0.498589	
-8.42186	1.88726	-0.803213	
-6.77482	0.827624	-0.623319	
-6.11351	1.82622	-0.602948	
-5.894	1.40032	-0.598167	
-7.20754	1.87065	-0.701211	
-5.54536	0.866054	-0.52686	
-5.51254	1.24863	-0.526057	
-6.17217	1.94589	-0.60498	
-5.64547	1.75284	-0.522448	
-4.99186	1.94185	-0.503896	
-7.93325	0.611259	-0.656748	
-9.05168	0.691022	-0.74668	
-6.79173	0.951279	-0.555543	
-9.05785	0.885946	-0.749433	
-7.45803	0	-0.606477	
-7.38969	0	-0.613678	
-8.5674	0.0792566	-0.708912	
-9.31657	0	-0.877976	
-5.93882	0.0639973	-0.569962	
-7.10901	0	-0.662262	
-7.02267	0.0936441	-0.683049	
-7.31854	0	-0.623193	
-7.24798	0	-0.634547	
-7.29108	0.0798839	-0.62739	
-6.80271	0.821071	-0.561707	
-7.93207	1.45488	-0.656115	
-7.93512	1.89867	-0.657777	
-6.31953	2	-0.50687	
-7.52966	2	-0.601143	
-8.64598	1.91895	-0.702147	
-5.94226	1.93754	-0.569151	
-7.02777	1.90585	-0.681742	
-7.03956	2	-0.678763	
-7.10901	2	-0.662262	
-7.38969	2	-0.613678	
-7.35399	1.92228	-0.618203	
-7.31854	2	-0.623193	
-7.56626	1.85759	-0.59937	
-8.63029	1.82278	-0.703275	
-8.42518	0.600657	-0.727696	
-7.23159	0.663037	-0.637449	
-8.43746	0.68441	-0.725764	
-7.02432	0.939959	-0.682624	
-7.03339	1.33496	-0.680315	
-8.61576	1.68417	-0.704421	
-6.36877	1.74973	-0.502946	
-9.85069	1.71007	-0.798313	
-7.28411	1.02684	-0.6285	
-8.43306	0.943151	-0.72645	
-7.22893	0.965528	-0.63793	
-7.05983	0.553448	-0.673761	
-7.01689	0.495631	-0.684539	
-7.71928	1.36962	-0.603175	
-9.92801	1.42353	-0.798154	
-7.72984	1.43872	-0.604235	
-8.97401	1.02505	-0.721639	
-7.76938	0.965827	-0.609271	
-8.88103	1.04082	-0.705271	
-8.8199	1.21008	-0.699892	
-10.0472	1.26463	-0.808603	
-7.76416	1.19252	-0.608505	
-7.27293	1.8275	-0.630319	
-8.42374	1.91186	-0.727926	
-8.47885	1.83465	-0.719672	
-8.5425	1.04863	-0.711615	
-7.34346	1.0111	-0.619635	
-8.46542	1.09426	-0.721577	
-6.2574	1.10778	-0.513336	
-8.61529	1.09436	-0.704459	
-7.51272	0.92332	-0.602188	
-7.55092	0.983948	-0.600031	
-9.87086	0.912712	-0.797798	
-6.39921	1.65028	-0.501088	
-6.45301	1.64109	-0.49902	
-8.68232	1.58611	-0.699984	
-7.03974	0.621253	-0.678717	
-5.96771	0.607584	-0.563285	
-8.28445	0.544593	-0.753817	
-8.30512	0.626188	-0.749527	
-8.54038	0.883867	-0.711857	
-7.36083	0.814004	-0.617297	
-7.3365	0.883506	-0.620604	
-6.21658	0.94284	-0.51845	
-6.16349	0.823889	-0.526081	
-7.26736	0.86549	-0.631244	
-7.71277	0.577518	-0.602578	
-8.84877	0.659851	-0.701967	
-7.77448	0.634606	-0.610051	
-8.27986	0.0913029	-0.75479	
-7.07014	0.141129	-0.671277	
-7.49627	1.15841	-0.603334	
-9.86009	1.18235	-0.798033	
-6.40823	1.11752	-0.500625	
-8.99269	0.938839	-0.726442	
-6.76555	0.99711	-0.54368	
-7.52946	0.516229	-0.601154	
-8.69629	0.597248	-0.699327	
-7.60384	0.53029	-0.59845	
-8.51812	1.25683	-0.71451	
-8.49808	1.17353	-0.717068	
-7.3111	1.22905	-0.624302	
-9.01371	1.10599	-0.732644	
-7.9191	1.05145	-0.649715	
-7.87591	1.1866	-0.633262	
-7.92896	1.17077	-0.65449	
-9.57331	1.39834	-0.825783	
-6.1622	1.4857	-0.526281	
-7.36089	1.4682	-0.617289	
-8.83222	0.907417	-0.70068	
-7.64075	0.841878	-0.598673	
-10.1674	0.492781	-0.837355	
-6.69525	0.543817	-0.522006	
-7.88267	0.570722	-0.635472	
-7.66075	1.72433	-0.599281	
-7.61667	1.78876	-0.598398	
-7.53101	0.853718	-0.601066	
-7.44397	0.389993	-0.607796	
-6.3129	0.316743	-0.507481	
-7.38978	0.343184	-0.613667	
-7.56439	0.780432	-0.599444	
-6.44485	0.84375	-0.499205	
-7.63445	0.770799	-0.598553	
-7.4796	0.577671	-0.604623	
-8.18263	1.02428	-0.777229	
-8.38466	0.237428	-0.734472	
-7.262	0.153222	-0.632144	
-7.19439	0.163431	-0.644401	
-8.47572	0.159631	-0.72011	
-7.68389	1.80219	-0.600433	
-6.57531	1.86234	-0.503064	
-7.76278	1.80354	-0.608308	
-7.59195	0.329138	-0.598619	
-8.80513	0.30982	-0.699134	
-8.75302	0.244444	-0.698004	
-7.62407	0.391669	-0.59843	
-6.08507	1.03303	-0.539297	
-7.59235	0.717798	-0.598611	
-7.51072	0.718603	-0.60232	
-6.41014	0.665477	-0.500532	
-7.62375	0.658642	-0.598428	
-6.31134	1.87015	-0.507628	
-7.41419	1.80864	-0.610871	
-6.41638	1.78424	-0.500242	
-7.44176	1.74797	-0.608011	
-7.68924	0.386445	-0.60077	
-7.71929	0.441074	-0.603175	
-7.75862	0.365688	-0.607727	
-7.53052	1.25637	-0.601094	
-7.60537	1.24657	-0.598437	
-7.55337	1.3122	-0.599917	
-6.48039	1.30199	-0.498796	
-7.67888	1.27096	-0.600142	
-7.40446	0.276367	-0.611956	
-9.60022	0.292881	-0.821722	
-6.22007	0.234809	-0.517987	
-6.16415	0.216682	-0.525979	
-7.78111	0.891352	-0.611111	
-7.58046	1.48059	-0.59889	
-7.5046	1.4429	-0.602738	
-8.64141	1.51083	-0.702463	
-7.43322	1.45569	-0.608863	
-7.59297	1.36546	-0.5986	
-7.66343	1.34038	-0.59939	
-7.32899	1.70558	-0.621672	
-7.34397	1.63351	-0.619564	
-7.27201	1.65739	-0.630471	
-7.19283	0.837679	-0.644704	
-7.23712	0.792044	-0.63646	
-7.24937	1.09876	-0.634306	
-8.41769	1.30603	-0.728902	
-6.09401	1.35315	-0.537677	
-8.78387	0.166399	-0.698389	
-7.56356	0.169498	-0.599478	
-8.33574	1.40455	-0.743459	
-8.50123	0.41495	-0.716656	
-8.55379	0.474418	-0.710358	
-8.78884	1.05334	-0.698527	
-7.69124	0.984567	-0.600903	
-7.65468	1.13834	-0.599059	
-7.28945	0.452043	-0.627648	
-8.42511	0.374434	-0.727707	
-6.09218	0.42015	-0.538007	
-8.3482	0.484457	-0.741087	
-7.80727	0	-0.615844	
-7.82391	0.0667918	-0.619344	
-7.87166	0	-0.631924	
-7.80727	2	-0.615844	
-6.63724	1.94291	-0.510642	
-6.59832	2	-0.505393	
-7.84486	0.853126	-0.62436	
-7.87166	2	-0.631924	
-8.97679	1.92333	-0.722315	
-6.32855	0.506745	-0.506069	
-7.41402	0.56183	-0.610889	
-7.42179	0.636864	-0.610051	
-7.3527	0.546278	-0.618376	
-7.35342	0.617676	-0.618279	
-8.89321	0.078087	-0.706806	
-8.85329	1.56345	-0.702366	
-6.62834	1.62497	-0.509289	
-7.79895	1.57191	-0.61424	
-8.99539	0.153301	-0.727187	
-8.99963	0.252546	-0.728387	
-6.77384	0.211952	-0.547108	
-7.48513	0.650538	-0.604181	
-8.57296	0.718414	-0.708344	
-7.42372	0.798942	-0.609846	
-7.49077	0.786413	-0.603745	
-6.23071	0.678765	-0.516604	
-7.36347	0.741319	-0.616953	
-9.0582	1.80752	-0.749597	
-7.87096	1.74768	-0.631706	
-8.98048	1.83308	-0.723232	
-7.4313	1.20637	-0.609059	
-8.28506	1.92648	-0.753688	
-8.22938	1.86025	-0.766006	
-7.89064	0.344499	-0.638231	
-7.91655	0.410465	-0.648558	
-8.89015	0.282592	-0.706404	
-8.95997	0.338159	-0.718412	
-8.61682	0.251286	-0.704334	
-6.39644	0.217721	-0.501239	
-8.60975	0.164212	-0.704923	
-8.18548	0.230355	-0.776523	
-8.74102	1.93673	-0.69807	
-7.85935	1.26103	-0.628275	
-7.92296	1.24459	-0.651521	
-7.84437	1.32491	-0.624233	
-9.05349	1.31978	-0.747472	
-8.91558	0.804788	-0.710067	
-8.9874	0.759874	-0.725018	
-7.78611	0.714139	-0.611948	
-7.41244	0.206449	-0.611063	
-6.25837	0.138218	-0.513223	
-7.09277	1.72394	-0.66596	
-7.05777	1.78328	-0.674262	
-8.27532	1.79352	-0.75576	
-7.49034	1.03613	-0.603778	
-8.70198	1.05319	-0.699088	
-7.61423	0.992616	-0.598398	
-6.46565	1.10914	-0.49884	
-8.92484	0.204267	-0.711593	
-7.69784	0.22975	-0.601368	
-7.46641	0.863551	-0.605732	
-7.44835	0.938032	-0.607376	
-6.6757	1.76807	-0.517647	
-8.9416	1.69808	-0.714635	
-7.7313	1.73846	-0.60439	
-7.78827	0.425321	-0.612318	
-7.74432	0.500006	-0.605879	
-7.64784	0.456585	-0.598848	
-7.67536	0.51622	-0.599951	
-7.16948	0.232607	-0.649338	
-7.34352	1.33248	-0.619626	
-7.41907	1.52656	-0.610341	
-8.4827	1.55451	-0.719141	
-8.55879	1.60907	-0.709818	
-6.09032	0.903738	-0.538343	
-8.29368	0.902651	-0.751882	
-7.66925	0	-0.599647	
-7.59804	0	-0.598518	
-7.62063	0.051764	-0.59841	
-7.52966	0	-0.601143	
-7.55092	0.0537652	-0.600031	
-7.44768	1.3862	-0.60744	
-7.37696	1.3946	-0.615233	
-7.45354	1.26486	-0.606889	
-6.3635	1.21166	-0.503313	
-7.41066	1.32507	-0.611259	
-7.48164	1.32038	-0.604458	
-6.75415	0.814456	-0.539347	
-7.21725	1.88165	-0.640069	
-7.64507	0.594595	-0.598774	
-6.80249	1.38879	-0.561577	
-7.89128	1.39048	-0.638461	
-8.29709	0.75837	-0.751176	
-7.11517	0.821275	-0.660884	
-7.92384	0.75743	-0.651944	
-8.34485	1.60921	-0.741718	
-7.2061	1.68446	-0.642159	
-6.06095	1.75212	-0.543818	
-8.40005	1.73879	-0.731826	
-8.26091	1.59941	-0.758892	
-7.13746	1.66432	-0.656017	
-8.84209	1.93182	-0.701415	
-7.77842	1.87756	-0.610674	
-7.93208	0.146224	-0.65612	
-6.80006	1.10891	-0.560126	
-6.79422	0.544978	-0.556858	
-8.29692	1.32361	-0.751211	
-7.21655	0.0813768	-0.6402	
-7.17915	0	-0.647396	
-6.6818	1.21454	-0.518945	
-7.82002	1.14931	-0.618489	
-7.64291	1.87232	-0.598721	
-7.11973	1.24379	-0.659874	
-7.08158	1.29411	-0.668567	
-7.18575	1.24385	-0.646088	
-7.28375	1.16415	-0.628559	
-9.43215	0.398041	-0.851496	
-8.18196	1.20048	-0.777395	
-7.03274	1.11243	-0.680481	
-7.21926	0.560548	-0.639697	
-7.28402	0.523541	-0.628514	
-8.8512	1.65544	-0.702179	
-7.58135	0.109422	-0.598865	
-6.25354	1.86761	-0.513791	
-7.42546	1.9304	-0.609663	
-6.59441	0.741046	-0.504959	
-7.84288	0.676971	-0.623855	
-6.03433	0.693471	-0.549053	
-7.23183	0.726744	-0.637406	
-7.2988	0.760134	-0.626181	
-4.94862	0.61385	-0.439316	
-5.87747	0.170423	-0.585171	
-6.57629	1.15632	-0.503152	
-6.56362	1.09603	-0.502086	
-7.75961	1.1197	-0.607863	
-6.01987	1.85832	-0.552006	
-7.21161	1.8111	-0.64112	
-7.87128	1.45652	-0.631806	
-7.83175	1.39372	-0.621137	
-6.07721	1.94352	-0.540748	
-7.24798	2	-0.634547	
-7.6955	0.79232	-0.601198	
-6.5818	0.850283	-0.503666	
-7.67106	0.718066	-0.599734	
-7.12106	0.180772	-0.659581	
-7.6454	1.51591	-0.598783	
-8.77684	1.59438	-0.69823	
-6.55895	1.48768	-0.501733	
-7.76424	1.50665	-0.608517	
-5.88676	1.83632	-0.582776	
-8.38895	1.53312	-0.733725	
-6.0403	1.54488	-0.547858	
-7.02273	1.71558	-0.683033	
-9.02954	1.66217	-0.737978	
-7.21485	0.358669	-0.640516	
-7.1582	0.310734	-0.651648	
-6.63477	1.39867	-0.510257	
-7.80348	1.4537	-0.615101	
-7.78299	1.33896	-0.611421	
-7.57732	0.46147	-0.598982	
-6.4196	0.394907	-0.5001	
-8.63794	0.433969	-0.70271	
-6.43281	1.42238	-0.499574	
-7.51792	1.37641	-0.601853	
-7.82993	0.606335	-0.620711	
-7.06644	0.879786	-0.672164	
-7.07779	0.752034	-0.669458	
-7.03455	0.815753	-0.680021	
-8.24446	1.38066	-0.762556	
-9.05132	1.52165	-0.746523	
-7.83781	1.51493	-0.622591	
-6.66714	1.08423	-0.515915	
-7.03487	1.59815	-0.679941	
-6.45954	2	-0.498911	
-8.3463	1.16076	-0.741444	
-6.01288	1.18618	-0.553461	
-6.29037	1.14984	-0.509701	
-7.24776	1.23168	-0.634585	
-7.09365	1.16237	-0.665759	
-7.39954	1.68406	-0.612519	
-5.44185	0.333428	-0.403921	
-7.03538	1.52552	-0.679813	
-7.08182	0.488947	-0.66851	
-6.1409	1.59304	-0.529653	
-7.87021	1.57917	-0.631479	
-7.05991	1.65719	-0.673743	
-7.77477	0.559694	-0.610095	
-7.81263	0.490232	-0.616927	
-7.09877	0.956713	-0.664583	
-7.16942	0.989568	-0.64935	
-7.37363	1.75665	-0.615651	
-6.17529	1.77244	-0.524291	
-6.01414	1.72615	-0.553196	
-6.12219	0.310718	-0.532758	
-6.06963	0.290342	-0.542167	
-6.08067	1.29539	-0.540106	
-7.66925	2	-0.599647	
-6.20755	0.482459	-0.519671	
-6.58571	1.30941	-0.504049	
-7.50758	0.109198	-0.602532	
-7.12236	1.03572	-0.659295	
-7.18339	1.07584	-0.646553	
-7.17915	2	-0.647396	
-6.74638	0.633303	-0.536616	
-7.85185	0.422033	-0.626199	
-5.53003	0.266461	-0.416583	
-7.10577	0.262786	-0.662994	
-6.50464	1.66446	-0.49912	
-6.44193	1.54135	-0.499284	
-7.06361	0.371856	-0.672846	
-5.95741	0.429791	-0.565631	
-6.33609	1.56661	-0.505428	
-6.35051	1.62234	-0.504273	
-5.05042	1.2804	-0.422683	
-7.03187	0.68957	-0.680699	
-5.87806	0.753859	-0.585017	
-7.92928	0.285029	-0.654657	
-5.88214	1.26259	-0.583961	
-9.06927	0	-0.755032	
-5.8901	1.39629	-0.581922	
-8.19328	1.45609	-0.774601	
-7.03992	0.308608	-0.678673	
-8.24391	0.682551	-0.762681	
-7.02893	0.423502	-0.681448	
-7.93076	2	-0.655426	
-6.35239	0.980727	-0.504129	
-8.25517	1.51237	-0.760159	
-7.13997	1.11653	-0.65548	
-6.40995	0.277428	-0.500541	
-8.65179	0.33864	-0.701758	
-5.94689	1.08627	-0.568067	
-6.50683	0.0993244	-0.499174	
-7.69343	0.0548078	-0.601053	
-4.80193	1.55961	-0.469975	
-7.93068	1.72118	-0.655381	
-6.75725	1.94239	-0.540485	
-6.74907	1.87535	-0.537543	
-6.00446	0.473525	-0.555235	
-5.96795	0.331482	-0.563231	
-6.69194	1.63205	-0.521225	
-6.78974	1.59521	-0.554516	
-7.18945	1.47977	-0.645363	
-7.72929	0.160133	-0.604177	
-6.55892	0.114041	-0.501731	
-6.10953	1.45658	-0.534931	
-6.65445	0.130179	-0.513535	
-7.39766	0.972536	-0.612738	
-7.90247	0.0752793	-0.642659	
-6.34945	0.0509452	-0.504354	
-6.30449	1.00206	-0.508284	
-5.06122	0.356044	-0.421149	
-7.35755	0.0762643	-0.617729	
-5.99453	1.44431	-0.557362	
-7.73682	0	-0.604999	
-5.66233	0.460204	-0.460973	
-5.36936	0.946643	-0.399594	
-7.04384	2	-0.687952	
-7.12283	2	-0.679418	
-7.28639	2	-0.666155	
-7.3724	2	-0.661565	
-7.20339	2	-0.672142	
-8.68721	2	-0.756903	
-8.86537	2	-0.763044	
-7.89878	2	-0.684351	
-7.81545	2	-0.672368	
-7.63771	2	-0.658411	
-8.59771	2	-0.758207	
-9.24653	-0.0721374	-0.896462	
-5.88083	-0.0524234	-0.598028	
-6.14795	-1.94219	-0.604108	
-7.22076	-1.93265	-0.701592	
-7.26113	-2	-0.702852	
-7.08017	-0.0610541	-0.698414	
-7.22442	-0.0745946	-0.7017	
-7.36642	-0.063891	-0.706748	
-7.96952	-1.2856	-0.697248	
-7.90779	-1.32684	-0.723546	
-7.96952	-1.35721	-0.697248	
-7.96952	-0.0721374	-0.697248	
-9.10802	-0.215036	-0.796855	
-7.96952	-0.143615	-0.697248	
-7.91829	-0.177622	-0.72228	
-6.83102	-0.286611	-0.597641	
-7.91937	-0.326516	-0.722128	
-9.10802	-0.358269	-0.796855	
-7.91956	-0.255005	-0.722101	
-7.96952	-0.714404	-0.697248	
-9.04859	-0.754353	-0.822907	
-7.96952	-0.786116	-0.697248	
-7.40676	-2	-0.708416	
-8.50008	-1.91632	-0.806159	
-7.33407	-2	-0.705469	
-5.90411	-2	-0.598285	
-5.88193	-1.94543	-0.598039	
-6.96952	-2	-0.697248	
-7.92059	-1.39944	-0.72195	
-7.96952	-1.42879	-0.697248	
-5.69251	-2	-0.498034	
-9.10802	-1.92786	-0.796855	
-6.77148	-2	-0.623705	
-7.11558	-2	-0.699032	
-7.07973	-1.9425	-0.698407	
-8.65881	-1.91894	-0.812875	
-7.47914	-2	-0.711518	
-6.41342	-2	-0.614955	
-7.96952	-1.21388	-0.697248	
-7.9077	-1.25457	-0.723556	
-9.10802	-1.78496	-0.796855	
-5.64867	-1.82622	-0.521925	
-7.96952	-1.85639	-0.697248	
-7.16432	-0.824164	-0.700084	
-7.08652	-0.840188	-0.698516	
-8.27992	-0.897364	-0.799167	
-9.24653	-1.07055	-0.896462	
-8.1735	-1.0996	-0.797409	
-9.30667	-0.999321	-0.896956	
-7.34883	-1.67801	-0.706045	
-7.41991	-1.66711	-0.708973	
-8.49096	-1.60664	-0.805795	
-7.23241	-0.446895	-0.701941	
-9.53034	-0.354649	-0.901811	
-7.17859	-0.398171	-0.700436	
-8.54201	-1.83141	-0.807886	
-6.32436	-1.78071	-0.611209	
-8.54357	-1.74009	-0.807951	
-8.70391	-1.7075	-0.814699	
-7.4839	-1.71822	-0.711722	
-7.53101	-1.78279	-0.713712	
-8.74385	-1.79397	-0.816363	
-7.4308	-1.60358	-0.709438	
-7.38556	-1.5428	-0.707531	
-6.19297	-1.84473	-0.605763	
-8.86254	-1.45461	-0.822156	
-7.6418	-1.49442	-0.718467	
-7.68928	-1.53304	-0.720834	
-9.96794	-1.28582	-0.920131	
-7.62094	-1.23395	-0.71747	
-9.86879	-1.30809	-0.915376	
-10.0531	-1.05755	-0.92402	
-6.71256	-1.02435	-0.626605	
-6.66397	-0.98494	-0.626044	
-7.54306	-0.659051	-0.714205	
-7.47603	-0.685531	-0.711384	
-8.6677	-0.738859	-0.813244	
-8.64311	-1.33862	-0.812213	
-8.65279	-1.25231	-0.812622	
-9.24653	-1.42879	-0.896462	
-9.24653	-1.49933	-0.896462	
-8.19259	-1.4654	-0.797644	
-7.05699	-0.918262	-0.698076	
-7.10913	-1.01699	-0.69891	
-5.96229	-0.957788	-0.599152	
-9.51219	-0.881052	-0.901239	
-7.24311	-0.965074	-0.702272	
-7.30659	-0.954992	-0.704436	
-6.42985	-0.86716	-0.615599	
-8.77326	-0.888326	-0.817732	
-7.61692	-0.817828	-0.717283	
-8.28348	-0.589278	-0.799245	
-8.30052	-0.676587	-0.799636	
-8.36581	-0.618429	-0.801393	
-8.96006	-0.0745363	-0.825668	
-7.55614	-1.18703	-0.714729	
-7.49417	-1.16574	-0.712162	
-7.48951	-0.496062	-0.711962	
-8.709	-0.503541	-0.814896	
-7.52515	-0.439924	-0.71347	