<VTKFile type="UnstructuredGrid" version="0.1" byte_order="LittleEndian">
	<UnstructuredGrid>
		<Piece NumberOfPoints="1917" NumberOfCells="56">
			<CellData Scalars="scalars">
				<DataArray type="Float64" Name="Doublet Strengths" NumberOfComponents="1" Format="ascii">
-0.674961	
-2.61957	
-1.99708	
-2.4159	
-2.75943	
-2.92964	
-2.92587	
-2.85296	
-2.22447	
-1.93265	
-1.19993	
-3.44867	
-2.01076	
-3.23965	
-1.99808	
-2.05014	
-2.79428	
-2.63589	
-2.61914	
-2.32288	
-2.69493	
-2.89946	
-2.23588	
-2.8201	
-4.99855	
-2.57593	
-1.92225	
-1.94562	
-4.9968	
-1.95868	
-2.51257	
-2.78459	
-2.35792	
-1.79074	
-0.990782	
-3.39876	
-1.924	
-2.35219	
-2.82664	
-1.82453	
-1.95302	
-2.46878	
-2.4688	
-2.31042	
-2.19028	
-2.44442	
-2.43854	
-2.32817	
-1.92616	
-2.12482	
-2.36982	
-0.6055	
-1.60824	
-1.87761	
-2.38028	
-1.26189	
				</DataArray>
				<DataArray type="Float64" Name="Velocity Potential" NumberOfComponents="1" Format="ascii">
-312.497	
-406.581	
-407.733	
-406.851	
-407.01	
-405.567	
-406.645	
-406.654	
-407.014	
-407.535	
-408.236	
-403.443	
-407.748	
-406.055	
-407.33	
-407.641	
-406.143	
-406.582	
-406.78	
-407.003	
-406.312	
-406.388	
-407.223	
-406.228	
-401.068	
-406.824	
-407.446	
-407.838	
-401.765	
-407.144	
-407.328	
-406.963	
-407.502	
-407.448	
-408.783	
-404.843	
-407.518	
-407.457	
-406.499	
-407.201	
-407.446	
-406.53	
-406.814	
-407.165	
-406.745	
-406.363	
-406.443	
-407.301	
-407.068	
-407.138	
-406.794	
-312.843	
-407.922	
-407.496	
-406.956	
-408.47	
				</DataArray>
			</CellData>
			<Points>
				<DataArray type="Float64" Name="Position" NumberOfComponents="3" Format="ascii">
-9.03499	0	-0.872204	
-7.58858	0.0524256	-0.747438	
-11.8082	0	-1.12058	
-9.18104	2	-0.875009	
-9.21227	1.93467	-0.875878	
-10.6766	2	-1.00167	
-9.10796	0	-0.873344	
-9.07255	0.0610502	-0.872726	
-9.21679	0.0745738	-0.876012	
-9.18104	0	-0.875009	
-9.25351	0	-0.877164	
-9.32645	0	-0.879781	
-9.39914	0	-0.882728	
-9.35776	0.0639395	-0.881018	
-8.49113	1.39584	-0.771558	
-9.8999	1.3266	-0.897887	
-9.9619	1.35721	-0.87156	
-11.8082	1.92786	-1.12058	
-7.58945	1.94512	-0.747447	
-11.385	0.0721374	-0.996069	
-9.89793	0.0533506	-0.898084	
-8.53877	0	-0.747051	
-11.385	0.215036	-0.996069	
-12.7183	0.171582	-1.14886	
-8.53877	0.143615	-0.747051	
-8.53877	0.286611	-0.747051	
-11.385	0.358269	-0.996069	
-9.91172	0.326064	-0.896444	
-9.90951	0.252841	-0.896751	
-9.9619	0.714404	-0.87156	
-9.9619	0.786116	-0.87156	
-11.3256	0.754574	-1.02212	
-9.39914	2	-0.882728	
-9.32645	2	-0.879781	
-12.2098	1.91204	-1.13027	
-9.41437	1.66657	-0.883374	
-10.7675	1.60722	-1.00499	
-9.22503	0.446925	-0.87626	
-9.17209	0.397747	-0.874777	
-12.0925	0.354616	-1.12595	
-8.9619	2	-0.87156	
-9.9619	1.42879	-0.87156	
-7.11564	2	-0.622543	
-8.47923	2	-0.773115	
-11.385	1.92786	-0.996069	
-9.10796	2	-0.873344	
-7.61186	2	-0.747695	
-9.07288	1.93956	-0.872731	
-8.01602	1.94176	-0.759927	
-12.3587	1.9167	-1.13659	
-9.47152	2	-0.88583	
-9.9619	1.21388	-0.87156	
-8.48711	1.19029	-0.772144	
-9.9619	1.14216	-0.87156	
-9.9619	1.2856	-0.87156	
-9.9002	1.25405	-0.897856	
-11.385	1.78496	-0.996069	
-9.9619	1.85639	-0.87156	
-7.07176	1.82617	-0.64644	
-8.47981	0.114671	-0.773051	
-11.3118	1.46922	-1.02339	
-11.2663	1.38862	-1.02503	
-9.1567	0.824164	-0.874396	
-10.5569	0.897364	-0.998381	
-9.0789	0.840188	-0.872828	
-9.80454	1.46561	-0.900196	
-10.385	1	-0.996069	
-11.8683	0.999321	-1.12107	
-11.8082	1.07055	-1.12058	
-9.42321	1.60348	-0.883751	
-9.05442	0.356544	-0.872457	
-7.69561	0.353408	-0.749048	
-9.09883	0.427857	-0.873173	
-10.8175	1.82506	-1.00704	
-10.8212	1.7382	-1.00719	
-8.0321	1.77788	-0.760619	
-9.47667	1.71777	-0.886051	
-9.52456	1.78088	-0.888073	
-10.9811	1.70728	-1.01392	
-11.0211	1.79378	-1.01559	
-9.37787	1.54291	-0.881839	
-9.31562	1.8351	-0.879368	
-11.1394	1.45384	-1.02136	
-9.68171	1.53294	-0.895148	
-9.63422	1.49429	-0.892781	
-11.0978	1.28284	-1.0193	
-12.4292	1.30815	-1.13944	
-9.612	1.23305	-0.89172	
-12.6158	1.05577	-1.14817	
-9.80807	0.974397	-0.900269	
-8.42522	1.02275	-0.775967	
-9.53545	0.65903	-0.888518	
-10.9447	0.738857	-1.01246	
-9.46841	0.685529	-0.885696	
-10.92	1.33866	-1.01142	
-10.9297	1.25226	-1.01183	
-11.8082	1.42879	-1.12058	
-10.4701	1.46516	-0.996865	
-11.8082	1.49933	-1.12058	
-9.04937	0.918262	-0.872388	
-12.0738	0.881052	-1.12535	
-9.3125	0.891355	-0.87925	
-9.29897	0.954992	-0.878748	
-8.13759	0.867158	-0.765009	
-9.60929	0.817822	-0.891594	
-11.0502	0.888323	-1.01694	
-10.5605	0.589259	-0.998459	
-10.6428	0.618435	-1.00061	
-10.5775	0.676586	-0.99885	
-9.76037	0	-0.898807	
-9.83166	0	-0.900547	
-11.2456	0.0790961	-1.02499	
-9.44186	1.27156	-0.884552	
-9.43143	1.20368	-0.884104	
-9.48212	0.496767	-0.886284	
-9.51883	0.442032	-0.887835	
-10.9867	0.502871	-1.01414	
-11.0224	0.698424	-1.01565	
-9.36653	1.23016	-0.881374	
-9.31717	1.27217	-0.879427	
-10.7114	1.19537	-1.00287	
-7.96264	1.2898	-0.757659	
-8.1737	1.02577	-0.766519	
-11.0444	0.967174	-1.01667	
-9.67524	1.0342	-0.894823	
-12.291	1.00672	-1.13369	
-9.48151	0.93866	-0.886258	
-9.53307	0.987296	-0.888421	
-10.763	0.378981	-1.00481	
-9.40073	0.426844	-0.882795	
-10.771	0.470462	-1.00513	
-11.3029	1.87857	-1.02397	
-11.2887	1.79633	-1.0246	
-9.80024	1.84585	-0.900099	
-9.58996	0.270573	-0.890725	
-8.15213	0.200611	-0.765591	
-11.0656	0.193571	-1.0177	
-11.0039	0.123897	-1.01484	
-9.52441	0.249496	-0.888066	
-9.51531	0.173576	-0.887689	
-11.2563	1.20923	-1.02506	
-9.80303	1.13932	-0.900163	
-9.88765	1.13751	-0.898951	
-9.64024	0.531427	-0.893075	
-9.64114	0.463982	-0.893119	
-9.5843	0.427199	-0.89048	
-9.65102	0.382421	-0.893609	
-8.41437	0.742778	-0.776043	
-11.2664	0.813881	-1.02503	
-10.9891	0.580015	-1.01423	
-9.64502	1.7199	-0.893311	
-11.0814	0.757182	-1.01848	
-8.24955	0.698895	-0.770186	
-9.73182	0.732194	-0.897583	
-9.71214	0.893597	-0.896655	
-9.67918	0.830458	-0.895021	
-11.1851	0.834567	-1.02338	
-9.82937	1.53139	-0.900538	
-9.7768	1.59044	-0.899413	
-9.75245	1.5207	-0.898486	
-10.731	1.10613	-1.00359	
-9.23782	1.13654	-0.876657	
-11.2265	0.567577	-1.02468	
-11.2937	0.624293	-1.02441	
-9.7976	0.641057	-0.900034	
-9.72925	0.667946	-0.897465	
-9.72914	0.607392	-0.89746	
-11.1442	0.97644	-1.02159	
-9.90236	0	-0.897624	
-9.39491	1.40806	-0.88255	
-9.42759	1.34451	-0.883938	
-9.46116	1.41675	-0.885384	
-9.42208	1.48085	-0.883703	
-10.9504	1.43176	-1.01269	
-9.48676	1.49613	-0.886483	
-9.55274	0.925911	-0.889207	
-9.71978	1.74077	-0.897021	
-12.5668	1.66215	-1.14607	
-8.36169	1.70694	-0.775166	
-11.8082	1.71339	-1.12058	
-11.8786	1.77904	-1.12119	
-11.8082	1.78496	-1.12058	
-9.76037	2	-0.898807	
-11.2261	1.92525	-1.02467	
-9.83166	2	-0.900547	
-9.59278	0.350099	-0.890848	
-9.52907	0.315549	-0.888258	
-9.28888	1.02327	-0.878383	
-10.7816	1.02942	-1.00555	
-9.28393	0.0746863	-0.878206	
-9.31864	0.130322	-0.879483	
-10.6676	0.159825	-1.00138	
-10.68	0.255296	-1.00178	
-7.87681	0.198868	-0.754275	
-9.36201	0.185075	-0.88119	
-10.6327	0.53229	-1.00031	
-14.6544	0.358269	-1.36959	
-10.385	0.286611	-0.996069	
-9.02409	0.283499	-0.872077	
-11.8082	0.143615	-1.12058	
-10.4628	0.19815	-0.99677	
-11.8082	0.215036	-1.12058	
-11.9529	0.268711	-1.12234	
-10.8947	0	-1.01034	
-8.12118	0	-0.764365	
-9.55113	0.0522709	-0.889144	
-7.00796	0.233077	-0.651367	
-11.2634	0.293965	-1.02505	
-10.9771	1.52249	-1.01376	
-9.55244	1.6164	-0.889195	
-9.49282	1.57352	-0.886741	
-9.48836	1.65009	-0.886551	
-9.84998	1.59898	-0.900454	
-9.68885	0	-0.895506	
-9.63427	0.0589648	-0.892783	
-9.61622	0	-0.891918	
-9.13431	1.47391	-0.873883	
-10.6402	1.46129	-1.00053	
-10.6177	1.53681	-0.999882	
-11.0787	0.286849	-1.01835	
-9.27534	0.724627	-0.877904	
-7.86239	0.784216	-0.753754	
-10.6472	0.788387	-1.00074	
-11.2133	0.223399	-1.02434	
-8.35293	1.34531	-0.774879	
-8.34818	1.40661	-0.774712	
-11.1324	1.36487	-1.02102	
-9.74409	1.29047	-0.898131	
-8.33451	0.414541	-0.77419	
-9.70491	0.434011	-0.896302	
-11.1373	0.349215	-1.02126	
-9.8205	0.422964	-0.900464	
-11.194	0.489015	-1.02371	
-9.84281	0.488653	-0.900529	
-6.71616	1.24582	-0.640565	
-9.54837	1.18695	-0.889035	
-8.29439	1.58611	-0.772405	
-7.86593	0.42229	-0.753881	
-7.88811	0.312816	-0.754695	
-10.8148	0.310713	-1.00692	
-9.3411	0.255176	-0.880353	
-9.40694	0.23291	-0.883058	
-12.5842	1.20734	-1.14688	
-9.6074	1.1572	-0.891507	
-9.67665	1.15129	-0.894894	
-8.24226	1.2101	-0.769819	
-11.0398	1.08885	-1.01645	
-9.22005	1.61914	-0.876109	
-9.23889	1.69424	-0.876691	
-10.5834	1.67616	-0.998991	
-9.28777	1.64844	-0.878343	
-9.31618	1.72086	-0.879389	
-9.66121	0.644913	-0.894118	
-8.30645	1.94629	-0.772972	
-11.0807	1.93331	-1.01845	
-9.731	1.88539	-0.897546	
-10.5658	0.0804625	-0.998577	
-7.65987	0.127785	-0.748387	
-7.67111	1.88257	-0.748581	
-10.5688	1.92762	-0.998647	
-9.18153	0.21589	-0.875022	
-8.29908	0.273142	-0.772628	
-9.71531	0.209198	-0.896808	
-8.28771	0.143339	-0.772083	
-9.78147	0.145092	-0.899568	
-8.23524	0.115792	-0.769467	
-9.65814	1.85807	-0.893964	
-9.59239	1.88373	-0.890831	
-8.15952	1.94611	-0.765901	
-8.12118	2	-0.764365	
-9.61622	2	-0.891918	
-8.48945	0.682902	-0.771811	
-11.385	0.64279	-0.996069	
-8.01601	1.88295	-0.759926	
-9.31704	1.53147	-0.879422	
-9.29461	1.46174	-0.87859	
-9.35909	1.47178	-0.881071	
-9.8615	1.08229	-0.900214	
-7.74715	0.329519	-0.750222	
-10.4476	0.43708	-0.99659	
-10.385	0.429861	-0.996069	
-7.92888	1.67699	-0.756278	
-9.26971	1.57544	-0.87771	
-8.24229	1.60691	-0.769821	
-9.6237	1.65508	-0.892273	
-9.72478	1.81461	-0.897257	
-8.24086	1.78507	-0.769749	
-7.74597	0.749751	-0.750192	
-9.21894	0.701087	-0.876076	
-10.522	0.758919	-0.997683	
-9.9619	0.429861	-0.87156	
-11.3189	0.409639	-1.0228	
-9.79293	1.77163	-0.899911	
-11.2857	1.71936	-1.02469	
-10.5788	1.1716	-0.998879	
-9.18844	1.09553	-0.875207	
-10.6843	1.76477	-1.00193	
-7.91526	1.7791	-0.755737	
-9.4619	0.277236	-0.885415	
-10.8602	0.151691	-1.00886	
-8.12049	1.84554	-0.764338	
-9.47741	1.83711	-0.886083	
-9.35793	1.33945	-0.881024	
-9.32896	1.40104	-0.879878	
-8.34805	0.297567	-0.774707	
-9.79058	0.357474	-0.899846	
-8.16425	0.760525	-0.766104	
-9.53769	0.810302	-0.888608	
-9.44572	0.749841	-0.884718	
-9.3807	0.751361	-0.881957	
-9.40298	0.686344	-0.88289	
-9.47237	0.810027	-0.885866	
-9.40706	0.81571	-0.883063	
-13.2313	1.64173	-1.24509	
-9.02755	1.65788	-0.872116	
-11.385	1	-0.996069	
-11.385	1.07055	-0.996069	
-8.49014	1.0308	-0.771709	
-7.60353	1.5272	-0.747598	
-11.8082	1.57014	-1.12058	
-7.95919	0.121062	-0.757515	
-9.42893	0.068568	-0.883996	
-9.49642	0.0968802	-0.886894	
-11.8082	1.85639	-1.12058	
-10.4517	1.8723	-0.996637	
-11.8082	0.0721374	-1.12058	
-9.02213	0.116381	-0.872056	
-9.52814	0.378957	-0.88822	
-11.8082	1.2856	-1.12058	
-9.02766	1.33655	-0.872117	
-11.8082	1.35721	-1.12058	
-7.99369	1.07097	-0.75897	
-9.42331	1.13809	-0.883755	
-7.94631	1.10545	-0.756984	
-9.4764	1.08867	-0.886039	
-9.43767	0.876824	-0.884372	
-9.376	0.882801	-0.881762	
-10.7654	0.819303	-1.00491	
-9.59565	1.38959	-0.890975	
-8.16607	1.45442	-0.766183	
-9.65442	1.41914	-0.893778	
-8.04255	0.213959	-0.76107	
-9.42365	0.621411	-0.88377	
-9.38583	0.549577	-0.88217	
-9.44723	0.556476	-0.884783	
-9.41496	0.491713	-0.883399	
-11.1509	0.0712931	-1.02191	
-9.35566	1.1672	-0.880933	
-9.61111	1.57159	-0.891679	
-9.15548	0.47164	-0.874367	
-8.48609	0.476615	-0.772282	
-11.3075	0.546631	-1.02368	
-10.385	0.500665	-0.996069	
-9.02188	0.802839	-0.872053	
-7.674	0.646217	-0.748633	
-7.65181	0.69766	-0.748255	
-9.07504	1.17495	-0.872765	
-10.4505	1.0996	-0.996623	
-10.5349	1.1007	-0.997927	
-10.6431	1.32398	-1.00062	
-7.72827	1.29855	-0.749762	
-9.18121	1.24767	-0.875013	
-9.36383	0.61668	-0.881264	
-9.32669	0.546139	-0.879791	
-7.84489	0.561624	-0.753143	
-9.27989	0.491616	-0.878063	
-7.73463	1.0418	-0.749913	
-9.2184	1.02609	-0.87606	
-10.5825	0.976287	-0.998969	
-9.23549	0.965074	-0.876584	
-9.36798	0.954567	-0.881433	
-9.09549	1.62515	-0.873112	
-7.73371	1.59965	-0.749891	
-8.43192	0.360303	-0.775859	
-9.03208	1.5889	-0.872169	
-9.28963	1.33334	-0.87841	
-9.26329	1.39903	-0.877491	
-9.25088	1.2624	-0.877078	
-10.7615	0.683934	-1.00475	
-9.89368	0.967445	-0.898473	
-12.7217	0.89983	-1.1487	
-9.7802	0.914042	-0.899527	
-9.53005	1.0505	-0.888298	
-8.31696	1.13415	-0.773447	
-8.27337	1.09375	-0.771378	
-8.015	1.5431	-0.759882	
-9.78812	0.770923	-0.899774	
-8.29912	0.785107	-0.77263	
-8.22178	1.34839	-0.768797	
-11.252	1.29694	-1.02504	
-9.81166	1.65281	-0.900335	
-10.4566	1.25411	-0.996694	
-9.09169	1.32162	-0.873044	
-8.17499	0.633745	-0.766577	
-9.65223	0.587288	-0.893669	
-9.85292	0.6882	-0.900408	
-9.49882	0.873522	-0.886996	
-6.70278	1.36753	-0.640044	
-9.68885	2	-0.895506	
-7.7973	1.1987	-0.751612	
-9.46523	0.394274	-0.885559	
-9.46457	0.336713	-0.88553	
-9.78662	0.702848	-0.899729	
-9.9619	0.929454	-0.87156	
-9.9619	0.857842	-0.87156	
-8.45411	1.94387	-0.775085	
-9.48653	1.16572	-0.886473	
-9.54327	1.11814	-0.888832	
-10.603	1.79696	-0.999486	
-7.76495	1.73661	-0.750688	
-7.9861	0.370041	-0.758646	
-8.03439	0.446178	-0.760718	
-7.99856	0.936014	-0.759178	
-6.21728	1.0523	-0.623571	
-9.10151	1.01699	-0.873222	
-9.9619	1.49933	-0.87156	
-10.4682	0.586375	-0.996839	
-10.5047	0.509874	-0.997381	
-9.90033	1.54624	-0.897842	
-7.85252	0.664255	-0.753406	
-7.90366	0.750955	-0.755286	
-7.8557	0.837223	-0.753518	
-11.8082	1.21388	-1.12058	
-7.59006	1.17543	-0.747453	
-11.8082	0.929454	-1.12058	
-7.59092	0.873321	-0.747462	
-13.2313	0.857842	-1.24509	
-9.01844	0.725606	-0.872016	
-11.8082	0.786116	-1.12058	
-11.8082	0.714404	-1.12058	
-9.03445	0.653203	-0.872197	
-11.8082	0.64279	-1.12058	
-13.2313	0.571209	-1.24509	
-11.8082	1.14216	-1.12058	
-7.67004	0.957788	-0.748562	
-6.34243	0.930031	-0.626196	
-9.30271	0.613315	-0.878886	
-8.49477	1.6049	-0.770967	
-8.08443	0.552048	-0.762856	
-9.48713	0.616488	-0.886498	
-10.5271	1.54065	-0.997776	
-9.12095	0.177963	-0.873601	
-9.10765	1.24487	-0.873338	
-10.5168	1.39957	-0.997588	
-7.75958	0.139289	-0.750544	
-9.0849	1.69928	-0.872927	
-9.11792	1.75272	-0.87354	
-9.15639	1.35868	-0.874389	
-7.78602	1.39206	-0.751279	
-7.73954	1.42097	-0.750032	
-9.09544	1.81911	-0.873111	
-9.89527	1.6612	-0.898333	
-9.9619	1.71339	-0.87156	
-8.27864	0.496577	-0.771639	
-9.72555	0.549039	-0.897293	
-7.72185	1.85508	-0.749613	
-7.59261	0.520218	-0.747479	
-6.29874	0.528047	-0.625105	
-9.9619	1.57014	-0.87156	
-11.385	0.500665	-0.996069	
-6.82328	0.932053	-0.645519	
-7.83107	1.07414	-0.752678	
-7.83452	1.51028	-0.752793	
-11.385	1.64173	-0.996069	
-7.77078	0.282674	-0.750848	
-9.9619	0.571209	-0.87156	
-7.07106	0.59575	-0.646559	
-6.18116	1.71321	-0.623098	
-10.6989	1.88726	-1.00243	
-8.48257	0.827624	-0.772729	
-7.82126	1.82622	-0.752358	
-7.60176	1.40032	-0.747578	
-9.19992	1.87065	-0.875523	
-6.96849	0.866054	-0.651368	
-6.93566	1.24863	-0.650566	
-7.87993	1.94589	-0.75439	
-7.0686	1.75284	-0.646957	
-6.41499	1.94185	-0.628405	
-9.92563	0.611259	-0.83106	
-11.3287	0.691022	-0.945894	
-8.49949	0.951279	-0.704953	
-11.3349	0.885946	-0.948647	
-9.45041	0	-0.780789	
-9.38207	0	-0.78799	
-10.8444	0.0792566	-0.908126	
-11.8782	0	-1.10209	
-7.64658	0.0639973	-0.719372	
-9.10139	0	-0.836574	
-9.01505	0.0936441	-0.857361	
-9.31092	0	-0.797505	
-9.24036	0	-0.808859	
-9.28346	0.0798839	-0.801702	
-8.51046	0.821071	-0.711118	
-9.92445	1.45488	-0.830427	
-9.9275	1.89867	-0.832089	
-8.02728	2	-0.65628	
-9.52204	2	-0.775455	
-10.923	1.91895	-0.90136	
-7.65001	1.93754	-0.718561	
-9.02015	1.90585	-0.856054	
-9.03194	2	-0.853075	
-9.10139	2	-0.836574	
-9.38207	2	-0.78799	
-9.34637	1.92228	-0.792515	
-9.31092	2	-0.797505	
-9.55864	1.85759	-0.773682	
-10.9073	1.82278	-0.902489	
-10.7022	0.600657	-0.92691	
-9.22397	0.663037	-0.811761	
-10.7145	0.68441	-0.924978	
-9.0167	0.939959	-0.856936	
-9.02577	1.33496	-0.854627	
-10.8928	1.68417	-0.903634	
-8.07653	1.74973	-0.652357	
-12.4123	1.71007	-1.02243	
-9.27649	1.02684	-0.802812	
-10.7101	0.943151	-0.925663	
-9.22131	0.965528	-0.812242	
-9.05221	0.553448	-0.848073	
-9.00927	0.495631	-0.858851	
-9.71166	1.36962	-0.777487	
-12.4896	1.42353	-1.02227	
-9.72222	1.43872	-0.778547	
-11.251	1.02505	-0.920853	
-9.76176	0.965827	-0.783583	
-11.158	1.04082	-0.904484	
-11.0969	1.21008	-0.899106	
-12.6088	1.26463	-1.03272	
-9.75654	1.19252	-0.782817	
-9.26531	1.8275	-0.804631	
-10.7007	1.91186	-0.92714	
-10.7559	1.83465	-0.918886	
-10.8195	1.04863	-0.910829	
-9.33584	1.0111	-0.793947	
-10.7424	1.09426	-0.92079	
-7.96515	1.10778	-0.662746	
-10.8923	1.09436	-0.903673	
-9.5051	0.92332	-0.7765	
-9.5433	0.983948	-0.774343	
-12.4325	0.912712	-1.02191	
-8.10697	1.65028	-0.650499	
-8.16077	1.64109	-0.648431	
-10.9593	1.58611	-0.899198	
-9.03212	0.621253	-0.853029	
-7.67547	0.607584	-0.712696	
-10.5615	0.544593	-0.95303	
-10.5821	0.626188	-0.948741	
-10.8174	0.883867	-0.911071	
-9.35321	0.814004	-0.791609	
-9.32888	0.883506	-0.794916	
-7.92434	0.94284	-0.66786	
-7.87125	0.823889	-0.675491	
-9.25974	0.86549	-0.805556	
-9.70515	0.577518	-0.77689	
-11.1258	0.659851	-0.90118	
-9.76686	0.634606	-0.784363	
-10.5569	0.0913029	-0.954004	
-9.06252	0.141129	-0.845589	
-9.48865	1.15841	-0.777646	
-12.4217	1.18235	-1.02215	
-8.11598	1.11752	-0.650035	
-11.2697	0.938839	-0.925656	
-8.47331	0.99711	-0.693091	
-9.52184	0.516229	-0.775466	
-10.9733	0.597248	-0.89854	
-9.59622	0.53029	-0.772762	
-10.7951	1.25683	-0.913723	
-10.7751	1.17353	-0.916282	
-9.30348	1.22905	-0.798614	
-11.2907	1.10599	-0.931857	
-9.91148	1.05145	-0.824027	
-9.86829	1.1866	-0.807574	
-9.92134	1.17077	-0.828802	
-12.1349	1.39834	-1.0499	
-7.86995	1.4857	-0.675691	
-9.35327	1.4682	-0.791601	
-11.1092	0.907417	-0.899893	
-9.63313	0.841878	-0.772985	
-12.729	0.492781	-1.06147	
-8.40301	0.543817	-0.671416	
-9.87505	0.570722	-0.809784	
-9.65313	1.72433	-0.773593	
-9.60905	1.78876	-0.77271	
-9.52339	0.853718	-0.775378	
-9.43635	0.389993	-0.782108	
-8.02066	0.316743	-0.656891	
-9.38216	0.343184	-0.787979	
-9.55677	0.780432	-0.773756	
-8.15261	0.84375	-0.648615	
-9.62683	0.770799	-0.772865	
-9.47198	0.577671	-0.778935	
-10.4596	1.02428	-0.976442	
-10.6617	0.237428	-0.933686	
-9.25438	0.153222	-0.806456	
-9.18677	0.163431	-0.818713	
-10.7527	0.159631	-0.919324	
-9.67627	1.80219	-0.774745	
-8.28307	1.86234	-0.652475	
-9.75516	1.80354	-0.78262	
-9.58433	0.329138	-0.772931	
-11.0821	0.30982	-0.898348	
-11.03	0.244444	-0.897218	
-9.61645	0.391669	-0.772742	
-7.79283	1.03303	-0.688708	
-9.58473	0.717798	-0.772923	
-9.5031	0.718603	-0.776632	
-8.1179	0.665477	-0.649942	
-9.61613	0.658642	-0.77274	
-8.0191	1.87015	-0.657038	
-9.40657	1.80864	-0.785183	
-8.12413	1.78424	-0.649652	
-9.43414	1.74797	-0.782323	
-9.68162	0.386445	-0.775082	
-9.71167	0.441074	-0.777487	
-9.751	0.365688	-0.782039	
-9.5229	1.25637	-0.775406	
-9.59775	1.24657	-0.772749	
-9.54575	1.3122	-0.774229	
-8.18815	1.30199	-0.648206	
-9.67126	1.27096	-0.774454	
-9.39684	0.276367	-0.786268	
-12.1618	0.292881	-1.04584	
-7.92783	0.234809	-0.667397	
-7.87191	0.216682	-0.675389	
-9.77349	0.891352	-0.785423	
-9.57284	1.48059	-0.773202	
-9.49698	1.4429	-0.77705	
-10.9184	1.51083	-0.901677	
-9.4256	1.45569	-0.783175	
-9.58535	1.36546	-0.772912	
-9.65581	1.34038	-0.773702	
-9.32137	1.70558	-0.795984	
-9.33635	1.63351	-0.793876	
-9.26439	1.65739	-0.804783	
-9.18521	0.837679	-0.819016	
-9.2295	0.792044	-0.810772	
-9.24175	1.09876	-0.808618	
-10.6947	1.30603	-0.928116	
-7.80176	1.35315	-0.687087	
-11.0609	0.166399	-0.897603	
-9.55594	0.169498	-0.77379	
-10.6127	1.40455	-0.942672	
-10.7782	0.41495	-0.91587	
-10.8308	0.474418	-0.909571	
-11.0658	1.05334	-0.897741	
-9.68362	0.984567	-0.775215	
-9.64706	1.13834	-0.773371	
-9.28183	0.452043	-0.80196	
-10.7021	0.374434	-0.926921	
-7.79993	0.42015	-0.687417	
-10.6252	0.484457	-0.940301	
-9.79965	0	-0.790156	
-9.81629	0.0667918	-0.793656	
-9.86404	0	-0.806236	
-9.79965	2	-0.790156	
-8.34499	1.94291	-0.660052	
-8.30607	2	-0.654803	
-9.83724	0.853126	-0.798672	
-9.86404	2	-0.806236	
-11.2538	1.92333	-0.921529	
-8.0363	0.506745	-0.65548	
-9.4064	0.56183	-0.785201	
-9.41417	0.636864	-0.784363	
-9.34508	0.546278	-0.792688	
-9.3458	0.617676	-0.792591	
-11.1702	0.078087	-0.906019	
-11.1303	1.56345	-0.901579	
-8.3361	1.62497	-0.658699	
-9.79133	1.57191	-0.788552	
-11.2724	0.153301	-0.9264	
-11.2766	0.252546	-0.927601	
-8.4816	0.211952	-0.696518	
-9.47751	0.650538	-0.778493	
-10.85	0.718414	-0.907558	
-9.4161	0.798942	-0.784158	
-9.48315	0.786413	-0.778057	
-7.93847	0.678765	-0.666014	
-9.35585	0.741319	-0.791265	
-11.3352	1.80752	-0.94881	
-9.86334	1.74768	-0.806018	
-11.2575	1.83308	-0.922446	
-9.42368	1.20637	-0.783371	
-10.5621	1.92648	-0.952902	
-10.5064	1.86025	-0.96522	
-9.88302	0.344499	-0.812543	
-9.90893	0.410465	-0.82287	
-11.1672	0.282592	-0.905618	
-11.237	0.338159	-0.917626	
-10.8938	0.251286	-0.903547	
-8.1042	0.217721	-0.650649	
-10.8868	0.164212	-0.904137	
-10.4625	0.230355	-0.975736	
-11.018	1.93673	-0.897284	
-9.85173	1.26103	-0.802587	
-9.91534	1.24459	-0.825833	
-9.83675	1.32491	-0.798545	
-11.3305	1.31978	-0.946685	
-11.1926	0.804788	-0.909281	
-11.2644	0.759874	-0.924232	
-9.77849	0.714139	-0.78626	
-9.40482	0.206449	-0.785375	
-7.96612	0.138218	-0.662633	
-9.08515	1.72394	-0.840272	
-9.05015	1.78328	-0.848574	
-10.5523	1.79352	-0.954974	
-9.48272	1.03613	-0.77809	
-10.979	1.05319	-0.898301	
-9.60661	0.992616	-0.77271	
-8.17341	1.10914	-0.648251	
-11.2018	0.204267	-0.910807	
-9.69022	0.22975	-0.77568	
-9.45879	0.863551	-0.780044	
-9.44073	0.938032	-0.781688	
-8.38346	1.76807	-0.667057	
-11.2186	1.69808	-0.913849	
-9.72368	1.73846	-0.778702	
-9.78065	0.425321	-0.78663	
-9.7367	0.500006	-0.780191	
-9.64022	0.456585	-0.77316	
-9.66774	0.51622	-0.774263	
-9.16186	0.232607	-0.82365	
-9.3359	1.33248	-0.793938	
-9.41145	1.52656	-0.784653	
-10.7597	1.55451	-0.918354	
-10.8358	1.60907	-0.909032	
-7.79807	0.903738	-0.687753	
-10.5707	0.902651	-0.951096	
-9.66163	0	-0.773959	
-9.59042	0	-0.77283	
-9.61301	0.051764	-0.772722	
-9.52204	0	-0.775455	
-9.5433	0.0537652	-0.774343	
-9.44006	1.3862	-0.781752	
-9.36934	1.3946	-0.789545	
-9.44592	1.26486	-0.781201	
-8.07126	1.21166	-0.652723	
-9.40304	1.32507	-0.785571	
-9.47402	1.32038	-0.77877	
-8.4619	0.814456	-0.688757	
-9.20963	1.88165	-0.814381	
-9.63745	0.594595	-0.773086	
-8.51025	1.38879	-0.710987	
-9.88366	1.39048	-0.812773	
-10.5741	0.75837	-0.95039	
-9.10755	0.821275	-0.835196	
-9.91622	0.75743	-0.826256	
-10.6219	1.60921	-0.940932	
-9.19848	1.68446	-0.816471	
-7.76871	1.75212	-0.693229	
-10.6771	1.73879	-0.93104	
-10.5379	1.59941	-0.958106	
-9.12984	1.66432	-0.830329	
-11.1191	1.93182	-0.900629	
-9.7708	1.87756	-0.784986	
-9.92446	0.146224	-0.830432	
-8.50781	1.10891	-0.709536	
-8.50197	0.544978	-0.706268	
-10.5739	1.32361	-0.950425	
-9.20893	0.0813768	-0.814512	
-9.17153	0	-0.821708	
-8.38956	1.21454	-0.668355	
-9.8124	1.14931	-0.792801	
-9.63529	1.87232	-0.773033	
-9.11211	1.24379	-0.834186	
-9.07396	1.29411	-0.842879	
-9.17813	1.24385	-0.8204	
-9.27613	1.16415	-0.802871	
-11.9938	0.398041	-1.07561	
-10.459	1.20048	-0.976609	
-9.02512	1.11243	-0.854793	
-9.21164	0.560548	-0.814009	
-9.2764	0.523541	-0.802826	
-11.1282	1.65544	-0.901392	
-9.57373	0.109422	-0.773177	
-7.96129	1.86761	-0.663201	
-9.41784	1.9304	-0.783975	
-8.30217	0.741046	-0.654369	
-9.83526	0.676971	-0.798167	
-7.74209	0.693471	-0.698463	
-9.22421	0.726744	-0.811718	
-9.29118	0.760134	-0.800493	
-6.37175	0.61385	-0.563825	
-7.58522	0.170423	-0.734581	
-8.28404	1.15632	-0.652562	
-8.27137	1.09603	-0.651497	
-9.75199	1.1197	-0.782175	
-7.72762	1.85832	-0.701416	
-9.20399	1.8111	-0.815432	
-9.86366	1.45652	-0.806118	
-9.82413	1.39372	-0.795449	
-7.78497	1.94352	-0.690158	
-9.24036	2	-0.808859	
-9.68788	0.79232	-0.77551	
-8.28956	0.850283	-0.653076	
-9.66344	0.718066	-0.774046	
-9.11344	0.180772	-0.833893	
-9.63778	1.51591	-0.773095	
-11.0538	1.59438	-0.897443	
-8.26671	1.48768	-0.651144	
-9.75662	1.50665	-0.782829	
-7.59452	1.83632	-0.732186	
-10.666	1.53312	-0.932939	
-7.74805	1.54488	-0.697268	
-9.01511	1.71558	-0.857345	
-11.3065	1.66217	-0.937192	
-9.20723	0.358669	-0.814828	
-9.15058	0.310734	-0.82596	
-8.34252	1.39867	-0.659667	
-9.79586	1.4537	-0.789413	
-9.77537	1.33896	-0.785733	
-9.5697	0.46147	-0.773294	
-8.12735	0.394907	-0.64951	
-10.9149	0.433969	-0.901924	
-8.14057	1.42238	-0.648984	
-9.5103	1.37641	-0.776165	
-9.82231	0.606335	-0.795023	
-9.05882	0.879786	-0.846476	
-9.07017	0.752034	-0.84377	
-9.02693	0.815753	-0.854333	
-10.5215	1.38066	-0.96177	
-11.3283	1.52165	-0.945736	
-9.83019	1.51493	-0.796903	
-8.37489	1.08423	-0.665326	
-9.02725	1.59815	-0.854253	
-8.1673	2	-0.648322	
-10.6233	1.16076	-0.940658	
-7.72063	1.18618	-0.702871	
-7.99812	1.14984	-0.659112	
-9.24014	1.23168	-0.808897	
-9.08603	1.16237	-0.840071	
-9.39192	1.68406	-0.786831	
-6.86498	0.333428	-0.52843	
-9.02776	1.52552	-0.854125	
-9.0742	0.488947	-0.842822	
-7.84866	1.59304	-0.679064	
-9.86259	1.57917	-0.805791	
-9.05229	1.65719	-0.848055	
-9.76715	0.559694	-0.784407	
-9.80501	0.490232	-0.791239	
-9.09115	0.956713	-0.838895	
-9.1618	0.989568	-0.823662	
-9.36601	1.75665	-0.789963	
-7.88304	1.77244	-0.673702	
-7.7219	1.72615	-0.702606	
-7.82994	0.310718	-0.682168	
-7.77739	0.290342	-0.691577	
-7.78843	1.29539	-0.689517	
-9.66163	2	-0.773959	
-7.91531	0.482459	-0.669081	
-8.29347	1.30941	-0.65346	
-9.49996	0.109198	-0.776844	
-9.11474	1.03572	-0.833607	
-9.17577	1.07584	-0.820865	
-9.17153	2	-0.821708	
-8.45413	0.633303	-0.686026	
-9.84423	0.422033	-0.800511	
-6.95316	0.266461	-0.541092	
-9.09815	0.262786	-0.837306	
-8.21239	1.66446	-0.64853	
-8.14969	1.54135	-0.648694	
-9.05599	0.371856	-0.847158	
-7.66516	0.429791	-0.715042	
-8.04384	1.56661	-0.654838	
-8.05826	1.62234	-0.653683	
-6.47355	1.2804	-0.547192	
-9.02425	0.68957	-0.855011	
-7.58581	0.753859	-0.734427	
-9.92166	0.285029	-0.828969	
-7.5899	1.26259	-0.733372	
-11.3463	0	-0.954246	
-7.59786	1.39629	-0.731333	
-10.4703	1.45609	-0.973815	
-9.0323	0.308608	-0.852985	
-10.5209	0.682551	-0.961895	
-9.02131	0.423502	-0.85576	
-9.92314	2	-0.829738	
-8.06014	0.980727	-0.653539	
-10.5322	1.51237	-0.959373	
-9.13235	1.11653	-0.829792	
-8.1177	0.277428	-0.649952	
-10.9288	0.33864	-0.900972	
-7.65464	1.08627	-0.717478	
-8.21459	0.0993244	-0.648585	
-9.68581	0.0548078	-0.775365	
-6.22506	1.55961	-0.594483	
-9.92306	1.72118	-0.829693	
-8.465	1.94239	-0.689895	
-8.45682	1.87535	-0.686953	
-7.71222	0.473525	-0.704645	
-7.67571	0.331482	-0.712641	
-8.3997	1.63205	-0.670636	
-8.49749	1.59521	-0.703927	
-9.18183	1.47977	-0.819675	
-9.72167	0.160133	-0.778489	
-8.26668	0.114041	-0.651141	
-7.81728	1.45658	-0.684342	
-8.3622	0.130179	-0.662945	
-9.39004	0.972536	-0.78705	
-9.89485	0.0752793	-0.816971	
-8.0572	0.0509452	-0.653765	
-8.01225	1.00206	-0.657694	
-6.48435	0.356044	-0.545657	
-9.34993	0.0762643	-0.792041	
-7.70228	1.44431	-0.706772	
-9.7292	0	-0.779311	
-7.08545	0.460204	-0.585482	
-6.79249	0.946643	-0.524103	
-9.03622	2	-0.862264	
-9.11521	2	-0.85373	
-9.27877	2	-0.840467	
-9.36478	2	-0.835877	
-9.19577	2	-0.846454	
-10.9642	2	-0.956117	
-11.1424	2	-0.962258	
-9.89116	2	-0.858663	
-9.80783	2	-0.84668	
-9.63009	2	-0.832723	
-10.8747	2	-0.957421	
-11.8082	-0.0721374	-1.12058	
-7.58858	-0.0524234	-0.747438	
-7.85571	-1.94219	-0.753518	
-9.21314	-1.93265	-0.875904	
-9.25351	-2	-0.877164	
-9.07255	-0.0610541	-0.872726	
-9.2168	-0.0745946	-0.876012	
-9.3588	-0.063891	-0.88106	
-9.9619	-1.2856	-0.87156	
-9.90017	-1.32684	-0.897858	
-9.9619	-1.35721	-0.87156	
-9.9619	-0.0721374	-0.87156	
-11.385	-0.215036	-0.996069	
-9.9619	-0.143615	-0.87156	
-9.91067	-0.177622	-0.896592	
-8.53877	-0.286611	-0.747051	
-9.91175	-0.326516	-0.89644	
-11.385	-0.358269	-0.996069	
-9.91194	-0.255005	-0.896413	
-9.9619	-0.714404	-0.87156	
-11.3256	-0.754353	-1.02212	
-9.9619	-0.786116	-0.87156	
-9.39914	-2	-0.882728	
-10.7771	-1.91632	-1.00537	
-9.32645	-2	-0.879781	
-7.61186	-2	-0.747695	
-7.58969	-1.94543	-0.747449	
-8.9619	-2	-0.87156	
-9.91297	-1.39944	-0.896262	
-9.9619	-1.42879	-0.87156	
-7.11564	-2	-0.622543	
-11.385	-1.92786	-0.996069	
-8.47923	-2	-0.773115	
-9.10796	-2	-0.873344	
-9.07211	-1.9425	-0.872719	
-10.9358	-1.91894	-1.01209	
-9.47152	-2	-0.88583	
-8.12118	-2	-0.764365	
-9.9619	-1.21388	-0.87156	
-9.90008	-1.25457	-0.897868	
-11.385	-1.78496	-0.996069	
-7.07179	-1.82622	-0.646433	
-9.9619	-1.85639	-0.87156	
-9.1567	-0.824164	-0.874396	
-9.0789	-0.840188	-0.872828	
-10.5569	-0.897364	-0.998381	
-11.8082	-1.07055	-1.12058	
-10.4505	-1.0996	-0.996623	
-11.8683	-0.999321	-1.12107	
-9.34121	-1.67801	-0.880357	
-9.41229	-1.66711	-0.883285	
-10.768	-1.60664	-1.00501	
-9.22479	-0.446895	-0.876253	
-12.092	-0.354649	-1.12593	
-9.17097	-0.398171	-0.874748	
-10.819	-1.83141	-1.0071	
-8.03211	-1.78071	-0.76062	
-10.8206	-1.74009	-1.00717	
-10.9809	-1.7075	-1.01391	
-9.47628	-1.71822	-0.886034	
-9.52339	-1.78279	-0.888024	
-11.0209	-1.79397	-1.01558	
-9.42318	-1.60358	-0.88375	
-9.37794	-1.5428	-0.881843	
-7.90073	-1.84473	-0.755173	
-11.1395	-1.45461	-1.02137	
-9.63418	-1.49442	-0.892779	
-9.68166	-1.53304	-0.895146	
-12.5296	-1.28582	-1.14425	
-9.61332	-1.23395	-0.891782	
-12.4304	-1.30809	-1.13949	
-12.6148	-1.05755	-1.14813	
-8.42032	-1.02435	-0.776016	
-8.37173	-0.98494	-0.775455	
-9.53544	-0.659051	-0.888517	
-9.46841	-0.685531	-0.885696	
-10.9447	-0.738859	-1.01246	
-10.9201	-1.33862	-1.01143	
-10.9298	-1.25231	-1.01184	
-11.8082	-1.42879	-1.12058	
-11.8082	-1.49933	-1.12058	
-10.4696	-1.4654	-0.996858	
-9.04937	-0.918262	-0.872388	
-9.10151	-1.01699	-0.873222	
-7.67004	-0.957788	-0.748562	
-12.0738	-0.881052	-1.12535	
-9.23549	-0.965074	-0.876584	
-9.29897	-0.954992	-0.878748	
-8.1376	-0.86716	-0.765009	
-11.0503	-0.888326	-1.01695	
-9.6093	-0.817828	-0.891595	
-10.5605	-0.589278	-0.998459	
-10.5775	-0.676587	-0.99885	
-10.6428	-0.618429	-1.00061	
-11.2371	-0.0745363	-1.02488	
-9.54852	-1.18703	-0.889041	
-9.48655	-1.16574	-0.886474	
-9.48189	-0.496062	-0.886274	
-10.986	-0.503541	-1.01411	
-9.51753	-0.439924	-0.887782	
-11.0224	-0.698429	-1.01565	
-9.36653	-1.23016	-0.881374	
-10.7114	-1.19538	-1.00287	
-9.31717	-1.27217	-0.879427	
-9.35792	-1.33945	-0.881024	
-7.96264	-1.2898	-0.757659	
-11.1427	-0.976561	-1.02152	
-11.0443	-0.96716	-1.01666	
-9.67506	-1.03431	-0.894814	