<VTKFile type="UnstructuredGrid" version="0.1" byte_order="LittleEndian">
	<UnstructuredGrid>
		<Piece NumberOfPoints="1917" NumberOfCells="56">
			<CellData Scalars="scalars">
				<DataArray type="Float64" Name="Doublet Strengths" NumberOfComponents="1" Format="ascii">
-0.696691	
-2.69927	
-2.05709	
-2.45662	
-2.82404	
-2.99276	
-2.99526	
-2.91676	
-2.2692	
-1.9858	
-1.23043	
-3.51064	
-2.0716	
-3.30299	
-2.04668	
-2.11281	
-2.86408	
-2.69828	
-2.68154	
-2.39295	
-2.76764	
-2.96267	
-2.30607	
-2.88598	
-5.05792	
-2.63845	
-1.95772	
-2.00288	
-5.05631	
-2.02537	
-2.57914	
-2.85515	
-2.42362	
-1.85531	
-1.02493	
-3.46125	
-1.98984	
-2.41996	
-2.89054	
-1.88325	
-2.01989	
-2.54396	
-2.5487	
-2.3779	
-2.26396	
-2.52782	
-2.51581	
-2.39631	
-1.98659	
-2.19884	
-2.44355	
-0.628636	
-1.66439	
-1.94066	
-2.45293	
-1.30389	
				</DataArray>
				<DataArray type="Float64" Name="Velocity Potential" NumberOfComponents="1" Format="ascii">
-289.214	
-377.809	
-378.909	
-378.238	
-378.305	
-376.962	
-377.958	
-377.973	
-378.392	
-378.884	
-379.618	
-374.989	
-379.061	
-377.396	
-378.694	
-378.947	
-377.475	
-377.987	
-378.112	
-378.31	
-377.63	
-377.757	
-378.673	
-377.569	
-372.682	
-378.161	
-378.837	
-379.158	
-373.328	
-378.513	
-378.663	
-378.295	
-378.835	
-378.815	
-380.157	
-376.29	
-378.867	
-378.794	
-377.862	
-378.58	
-378.792	
-377.844	
-378.15	
-378.559	
-378.241	
-377.713	
-377.761	
-378.701	
-378.446	
-378.477	
-378.141	
-289.547	
-379.297	
-378.721	
-378.357	
-379.854	
				</DataArray>
			</CellData>
			<Points>
				<DataArray type="Float64" Name="Position" NumberOfComponents="3" Format="ascii">
-8.53689	0	-0.828626	
-7.16165	0.0524256	-0.710086	
-11.1677	0	-1.06455	
-8.68294	2	-0.831431	
-8.71417	1.93467	-0.8323	
-10.1074	2	-0.951869	
-8.60987	0	-0.829766	
-8.57446	0.0610502	-0.829148	
-8.71869	0.0745738	-0.832434	
-8.68294	0	-0.831431	
-8.75542	0	-0.833586	
-8.82835	0	-0.836203	
-8.90104	0	-0.83915	
-8.85967	0.0639395	-0.83744	
-8.06419	1.39584	-0.734206	
-9.4018	1.3266	-0.854309	
-9.4638	1.35721	-0.827982	
-11.1677	1.92786	-1.06455	
-7.16251	1.94512	-0.710094	
-10.8158	0.0721374	-0.946265	
-9.39983	0.0533506	-0.854506	
-8.11183	0	-0.709699	
-10.8158	0.215036	-0.946265	
-12.0779	0.171582	-1.09283	
-8.11183	0.143615	-0.709699	
-8.11183	0.286611	-0.709699	
-10.8158	0.358269	-0.946265	
-9.41362	0.326064	-0.852866	
-9.41141	0.252841	-0.853173	
-9.4638	0.714404	-0.827982	
-9.4638	0.786116	-0.827982	
-10.7563	0.754574	-0.97232	
-8.90104	2	-0.83915	
-8.82835	2	-0.836203	
-11.5694	1.91204	-1.07424	
-8.91628	1.66657	-0.839796	
-10.1983	1.60722	-0.955189	
-8.72693	0.446925	-0.832682	
-8.67399	0.397747	-0.831199	
-11.4521	0.354616	-1.06992	
-8.4638	2	-0.827982	
-9.4638	1.42879	-0.827982	
-6.75986	2	-0.591416	
-8.0523	2	-0.735762	
-10.8158	1.92786	-0.946265	
-8.60987	2	-0.829766	
-7.18492	2	-0.710343	
-8.57479	1.93956	-0.829153	
-7.58909	1.94176	-0.722574	
-11.7183	1.9167	-1.08056	
-8.97343	2	-0.842252	
-9.4638	1.21388	-0.827982	
-8.06017	1.19029	-0.734791	
-9.4638	1.14216	-0.827982	
-9.4638	1.2856	-0.827982	
-9.4021	1.25405	-0.854278	
-10.8158	1.78496	-0.946265	
-9.4638	1.85639	-0.827982	
-6.71598	1.82617	-0.615313	
-8.05287	0.114671	-0.735698	
-10.7425	1.46922	-0.973582	
-10.697	1.38862	-0.975231	
-8.6586	0.824164	-0.830818	
-9.98767	0.897364	-0.948577	
-8.58081	0.840188	-0.82925	
-9.30645	1.46561	-0.856618	
-9.81578	1	-0.946265	
-11.2279	0.999321	-1.06504	
-11.1677	1.07055	-1.06455	
-8.92511	1.60348	-0.840173	
-8.55633	0.356544	-0.828879	
-7.26867	0.353408	-0.711695	
-8.60074	0.427857	-0.829595	
-10.2483	1.82506	-0.957234	
-10.252	1.7382	-0.957389	
-7.60516	1.77788	-0.723267	
-8.97857	1.71777	-0.842473	
-9.02647	1.78088	-0.844495	
-10.4118	1.70728	-0.964115	
-10.4519	1.79378	-0.965785	
-8.87977	1.54291	-0.838261	
-8.81753	1.8351	-0.83579	
-10.5701	1.45384	-0.971557	
-9.18361	1.53294	-0.85157	
-9.13613	1.49429	-0.849203	
-10.5286	1.28284	-0.9695	
-11.7888	1.30815	-1.08341	
-9.1139	1.23305	-0.848142	
-11.9754	1.05577	-1.09215	
-9.30997	0.974397	-0.856691	
-7.99828	1.02275	-0.738614	
-9.03736	0.65903	-0.84494	
-10.3755	0.738857	-0.962655	
-8.97032	0.685529	-0.842118	
-10.3508	1.33866	-0.961619	
-10.3604	1.25226	-0.962028	
-11.1677	1.42879	-1.06455	
-9.90087	1.46516	-0.947061	
-11.1677	1.49933	-1.06455	
-8.55127	0.918262	-0.82881	
-11.4334	0.881052	-1.06933	
-8.8144	0.891355	-0.835672	
-8.80087	0.954992	-0.83517	
-7.71065	0.867158	-0.727656	
-9.11119	0.817822	-0.848016	
-10.4809	0.888323	-0.967138	
-9.99124	0.589259	-0.948656	
-10.0736	0.618435	-0.950804	
-10.0083	0.676586	-0.949046	
-9.26227	0	-0.855229	
-9.33357	0	-0.856969	
-10.6764	0.0790961	-0.975191	
-8.94376	1.27156	-0.840974	
-8.93334	1.20368	-0.840526	
-8.98403	0.496767	-0.842706	
-9.02073	0.442032	-0.844257	
-10.4174	0.502871	-0.964333	
-10.4531	0.698424	-0.965842	
-8.86844	1.23016	-0.837796	
-8.81908	1.27217	-0.835849	
-10.1421	1.19537	-0.953065	
-7.5357	1.2898	-0.720306	
-7.74676	1.02577	-0.729167	
-10.4752	0.967174	-0.966863	
-9.17715	1.0342	-0.851245	
-11.6506	1.00672	-1.07766	
-8.98341	0.93866	-0.84268	
-9.03498	0.987296	-0.844843	
-10.1938	0.378981	-0.95501	
-8.90263	0.426844	-0.839217	
-10.2017	0.470462	-0.955324	
-10.7336	1.87857	-0.974162	
-10.7194	1.79633	-0.974795	
-9.30215	1.84585	-0.856521	
-9.09187	0.270573	-0.847147	
-7.7252	0.200611	-0.728238	
-10.4964	0.193571	-0.967893	
-10.4347	0.123897	-0.965036	
-9.02632	0.249496	-0.844488	
-9.01721	0.173576	-0.844111	
-10.687	1.20923	-0.975256	
-9.30494	1.13932	-0.856585	
-9.38956	1.13751	-0.855373	
-9.14214	0.531427	-0.849497	
-9.14304	0.463982	-0.849541	
-9.08621	0.427199	-0.846902	
-9.15292	0.382421	-0.850031	
-7.98744	0.742778	-0.73869	
-10.6972	0.813881	-0.97523	
-10.4199	0.580015	-0.964428	
-9.14692	1.7199	-0.849733	
-10.5121	0.757182	-0.968675	
-7.82261	0.698895	-0.732833	
-9.23373	0.732194	-0.854005	
-9.21405	0.893597	-0.853077	
-9.18108	0.830458	-0.851443	
-10.6158	0.834567	-0.973574	
-9.33127	1.53139	-0.85696	
-9.2787	1.59044	-0.855835	
-9.25435	1.5207	-0.854908	
-10.1617	1.10613	-0.953782	
-8.73972	1.13654	-0.833079	
-10.6573	0.567577	-0.974877	
-10.7244	0.624293	-0.974609	
-9.2995	0.641057	-0.856456	
-9.23116	0.667946	-0.853887	
-9.23105	0.607392	-0.853882	
-10.575	0.97644	-0.971788	
-9.40427	0	-0.854046	
-8.89681	1.40806	-0.838972	
-8.92949	1.34451	-0.84036	
-8.96307	1.41675	-0.841806	
-8.92399	1.48085	-0.840125	
-10.3812	1.43176	-0.962891	
-8.98866	1.49613	-0.842905	
-9.05465	0.925911	-0.845629	
-9.22169	1.74077	-0.853443	
-11.9264	1.66215	-1.09005	
-7.93476	1.70694	-0.737813	
-11.1677	1.71339	-1.06455	
-11.2382	1.77904	-1.06516	
-11.1677	1.78496	-1.06455	
-9.26227	2	-0.855229	
-10.6568	1.92525	-0.974867	
-9.33357	2	-0.856969	
-9.09469	0.350099	-0.84727	
-9.03097	0.315549	-0.84468	
-8.79078	1.02327	-0.834805	
-10.2123	1.02942	-0.955751	
-8.78584	0.0746863	-0.834628	
-8.82055	0.130322	-0.835905	
-10.0983	0.159825	-0.951574	
-10.1107	0.255296	-0.951979	
-7.44987	0.198868	-0.716923	
-8.86392	0.185075	-0.837612	
-10.0635	0.53229	-0.950506	
-13.8717	0.358269	-1.30111	
-9.81578	0.286611	-0.946265	
-8.52599	0.283499	-0.828499	
-11.1677	0.143615	-1.06455	
-9.89355	0.19815	-0.946967	
-11.1677	0.215036	-1.06455	
-11.3125	0.268711	-1.06631	
-10.3254	0	-0.960535	
-7.69424	0	-0.727012	
-9.05304	0.0522709	-0.845566	
-6.65217	0.233077	-0.62024	
-10.6942	0.293965	-0.975248	
-10.4078	1.52249	-0.963959	
-9.05435	1.6164	-0.845617	
-8.99473	1.57352	-0.843163	
-8.99026	1.65009	-0.842973	
-9.35189	1.59898	-0.856876	
-9.19076	0	-0.851928	
-9.13617	0.0589648	-0.849205	
-9.11813	0	-0.84834	
-8.63621	1.47391	-0.830305	
-10.0709	1.46129	-0.950724	
-10.0484	1.53681	-0.950079	
-10.5095	0.286849	-0.968542	
-8.77725	0.724627	-0.834326	
-7.43545	0.784216	-0.716401	
-10.078	0.788387	-0.950937	
-10.644	0.223399	-0.974538	
-7.92599	1.34531	-0.737526	
-7.92124	1.40661	-0.737359	
-10.5631	1.36487	-0.97122	
-9.246	1.29047	-0.854553	
-7.90757	0.414541	-0.736837	
-9.20681	0.434011	-0.852724	
-10.568	0.349215	-0.971456	
-9.3224	0.422964	-0.856886	
-10.6248	0.489015	-0.97391	
-9.34471	0.488653	-0.856951	
-6.36037	1.24582	-0.609438	
-9.05027	1.18695	-0.845457	
-7.86745	1.58611	-0.735053	
-7.43899	0.42229	-0.716528	
-7.46117	0.312816	-0.717342	
-10.2456	0.310713	-0.95712	
-8.843	0.255176	-0.836775	
-8.90885	0.23291	-0.83948	
-11.9438	1.20734	-1.09085	
-9.10931	1.1572	-0.847929	
-9.17855	1.15129	-0.851316	
-7.81532	1.2101	-0.732467	
-10.4705	1.08885	-0.966644	
-8.72195	1.61914	-0.832531	
-8.74079	1.69424	-0.833113	
-10.0142	1.67616	-0.949188	
-8.78968	1.64844	-0.834765	
-8.81808	1.72086	-0.835811	
-9.16312	0.644913	-0.85054	
-7.87951	1.94629	-0.735619	
-10.5115	1.93331	-0.968642	
-9.23291	1.88539	-0.853968	
-9.99651	0.0804625	-0.948773	
-7.23294	0.127785	-0.711034	
-7.24418	1.88257	-0.711229	
-9.99958	1.92762	-0.948843	
-8.68344	0.21589	-0.831444	
-7.87214	0.273142	-0.735275	
-9.21722	0.209198	-0.85323	
-7.86077	0.143339	-0.734731	
-9.28338	0.145092	-0.85599	
-7.8083	0.115792	-0.732114	
-9.16004	1.85807	-0.850386	
-9.0943	1.88373	-0.847253	
-7.73258	1.94611	-0.728548	
-7.69424	2	-0.727012	
-9.11813	2	-0.84834	
-8.06251	0.682902	-0.734459	
-10.8158	0.64279	-0.946265	
-7.58908	1.88295	-0.722574	
-8.81895	1.53147	-0.835844	
-8.79652	1.46174	-0.835012	
-8.86099	1.47178	-0.837493	
-9.3634	1.08229	-0.856636	
-7.32021	0.329519	-0.71287	
-9.87832	0.43708	-0.946786	
-9.81578	0.429861	-0.946265	
-7.50194	1.67699	-0.718925	
-8.77161	1.57544	-0.834132	
-7.81536	1.60691	-0.732468	
-9.1256	1.65508	-0.848695	
-9.22668	1.81461	-0.853679	
-7.81392	1.78507	-0.732396	
-7.31903	0.749751	-0.71284	
-8.72085	0.701087	-0.832498	
-9.95278	0.758919	-0.947879	
-9.4638	0.429861	-0.827982	
-10.7496	0.409639	-0.972993	
-9.29483	1.77163	-0.856333	
-10.7164	1.71936	-0.974889	
-10.0095	1.1716	-0.949076	
-8.69034	1.09553	-0.831629	
-10.1151	1.76477	-0.952125	
-7.48832	1.7791	-0.718385	
-8.9638	0.277236	-0.841837	
-10.291	0.151691	-0.959053	
-7.69355	1.84554	-0.726985	
-8.97932	1.83711	-0.842505	
-8.85983	1.33945	-0.837446	
-8.83086	1.40104	-0.8363	
-7.92111	0.297567	-0.737355	
-9.29248	0.357474	-0.856268	
-7.73731	0.760525	-0.728751	
-9.03959	0.810302	-0.84503	
-8.94762	0.749841	-0.84114	
-8.8826	0.751361	-0.838379	
-8.90488	0.686344	-0.839312	
-8.97428	0.810027	-0.842288	
-8.90896	0.81571	-0.839485	
-12.5197	1.64173	-1.18283	
-8.52946	1.65788	-0.828538	
-10.8158	1	-0.946265	
-10.8158	1.07055	-0.946265	
-8.0632	1.0308	-0.734356	
-7.1766	1.5272	-0.710245	
-11.1677	1.57014	-1.06455	
-7.53225	0.121062	-0.720163	
-8.93083	0.068568	-0.840418	
-8.99832	0.0968802	-0.843316	
-11.1677	1.85639	-1.06455	
-9.88248	1.8723	-0.946833	
-11.1677	0.0721374	-1.06455	
-8.52404	0.116381	-0.828478	
-9.03005	0.378957	-0.844642	
-11.1677	1.2856	-1.06455	
-8.52957	1.33655	-0.828539	
-11.1677	1.35721	-1.06455	
-7.56676	1.07097	-0.721617	
-8.92522	1.13809	-0.840177	
-7.51937	1.10545	-0.719632	
-8.97831	1.08867	-0.842461	
-8.93957	0.876824	-0.840794	
-8.87791	0.882801	-0.838184	
-10.1961	0.819303	-0.955103	
-9.09755	1.38959	-0.847397	
-7.73913	1.45442	-0.72883	
-9.15632	1.41914	-0.8502	
-7.61561	0.213959	-0.723717	
-8.92556	0.621411	-0.840192	
-8.88773	0.549577	-0.838592	
-8.94914	0.556476	-0.841205	
-8.91687	0.491713	-0.839821	
-10.5817	0.0712931	-0.972103	
-8.85756	1.1672	-0.837355	
-9.11301	1.57159	-0.848101	
-8.65738	0.47164	-0.830789	
-8.05915	0.476615	-0.734929	
-10.7383	0.546631	-0.973881	
-9.81578	0.500665	-0.946265	
-8.52378	0.802839	-0.828475	
-7.24706	0.646217	-0.71128	
-7.22487	0.69766	-0.710903	
-8.57694	1.17495	-0.829187	
-9.88126	1.0996	-0.946819	
-9.96568	1.1007	-0.948123	
-10.0738	1.32398	-0.950812	
-7.30133	1.29855	-0.712409	
-8.68312	1.24767	-0.831435	
-8.86574	0.61668	-0.837686	
-8.8286	0.546139	-0.836213	
-7.41795	0.561624	-0.71579	
-8.7818	0.491616	-0.834485	
-7.30769	1.0418	-0.71256	
-8.72031	1.02609	-0.832482	
-10.0132	0.976287	-0.949165	
-8.7374	0.965074	-0.833006	
-8.86988	0.954567	-0.837855	
-8.59739	1.62515	-0.829534	
-7.30677	1.59965	-0.712538	
-8.00498	0.360303	-0.738507	
-8.53398	1.5889	-0.828591	
-8.79153	1.33334	-0.834832	
-8.7652	1.39903	-0.833913	
-8.75278	1.2624	-0.8335	
-10.1923	0.683934	-0.954951	
-9.39559	0.967445	-0.854895	
-12.0813	0.89983	-1.09267	
-9.28211	0.914042	-0.855949	
-9.03195	1.0505	-0.84472	
-7.89003	1.13415	-0.736095	
-7.84643	1.09375	-0.734026	
-7.58806	1.5431	-0.72253	
-9.29002	0.770923	-0.856196	
-7.87218	0.785107	-0.735277	
-7.79485	1.34839	-0.731445	
-10.6827	1.29694	-0.97524	
-9.31357	1.65281	-0.856757	
-9.88735	1.25411	-0.946891	
-8.59359	1.32162	-0.829466	
-7.74805	0.633745	-0.729224	
-9.15414	0.587288	-0.850091	
-9.35482	0.6882	-0.85683	
-9.00073	0.873522	-0.843418	
-6.347	1.36753	-0.608917	
-9.19076	2	-0.851928	
-7.37036	1.1987	-0.71426	
-8.96714	0.394274	-0.841981	
-8.96647	0.336713	-0.841952	
-9.28853	0.702848	-0.856151	
-9.4638	0.929454	-0.827982	
-9.4638	0.857842	-0.827982	
-8.02717	1.94387	-0.737733	
-8.98843	1.16572	-0.842895	
-9.04517	1.11814	-0.845254	
-10.0337	1.79696	-0.949682	
-7.33801	1.73661	-0.713336	
-7.55916	0.370041	-0.721294	
-7.60745	0.446178	-0.723365	
-7.57163	0.936014	-0.721825	
-5.8615	1.0523	-0.592444	
-8.60342	1.01699	-0.829644	
-9.4638	1.49933	-0.827982	
-9.89897	0.586375	-0.947036	
-9.93549	0.509874	-0.947577	
-9.40223	1.54624	-0.854264	
-7.42558	0.664255	-0.716054	
-7.47672	0.750955	-0.717933	
-7.42877	0.837223	-0.716165	
-11.1677	1.21388	-1.06455	
-7.16312	1.17543	-0.710101	
-11.1677	0.929454	-1.06455	
-7.16398	0.873321	-0.710109	
-12.5197	0.857842	-1.18283	
-8.52034	0.725606	-0.828438	
-11.1677	0.786116	-1.06455	
-11.1677	0.714404	-1.06455	
-8.53636	0.653203	-0.828619	
-11.1677	0.64279	-1.06455	
-12.5197	0.571209	-1.18283	
-11.1677	1.14216	-1.06455	
-7.24311	0.957788	-0.71121	
-5.98665	0.930031	-0.595069	
-8.80462	0.613315	-0.835308	
-8.06784	1.6049	-0.733615	
-7.65749	0.552048	-0.725504	
-8.98903	0.616488	-0.84292	
-9.95784	1.54065	-0.947973	
-8.62286	0.177963	-0.830023	
-8.60956	1.24487	-0.82976	
-9.94757	1.39957	-0.947785	
-7.33264	0.139289	-0.713192	
-8.5868	1.69928	-0.829349	
-8.61983	1.75272	-0.829962	
-8.65829	1.35868	-0.830811	
-7.35909	1.39206	-0.713926	
-7.3126	1.42097	-0.71268	
-8.59735	1.81911	-0.829533	
-9.39718	1.6612	-0.854755	
-9.4638	1.71339	-0.827982	
-7.8517	0.496577	-0.734287	
-9.22746	0.549039	-0.853715	
-7.29491	1.85508	-0.71226	
-7.16567	0.520218	-0.710127	
-5.94295	0.528047	-0.593978	
-9.4638	1.57014	-0.827982	
-10.8158	0.500665	-0.946265	
-6.4675	0.932053	-0.614392	
-7.40413	1.07414	-0.715326	
-7.40758	1.51028	-0.71544	
-10.8158	1.64173	-0.946265	
-7.34385	0.282674	-0.713495	
-9.4638	0.571209	-0.827982	
-6.71527	0.59575	-0.615432	
-5.82538	1.71321	-0.59197	
-10.1296	1.88726	-0.952623	
-8.05563	0.827624	-0.735377	
-7.39432	1.82622	-0.715006	
-7.17482	1.40032	-0.710225	
-8.70182	1.87065	-0.831945	
-6.61271	0.866054	-0.620241	
-6.57988	1.24863	-0.619438	
-7.45299	1.94589	-0.717038	
-6.71282	1.75284	-0.61583	
-6.0592	1.94185	-0.597277	
-9.42753	0.611259	-0.787482	
-10.7594	0.691022	-0.896091	
-8.07255	0.951279	-0.6676	
-10.7656	0.885946	-0.898843	
-8.95232	0	-0.737211	
-8.88397	0	-0.744412	
-10.2752	0.0792566	-0.858322	
-11.2378	0	-1.04606	
-7.21964	0.0639973	-0.68202	
-8.6033	0	-0.792996	
-8.51695	0.0936441	-0.813783	
-8.81283	0	-0.753927	
-8.74226	0	-0.765281	
-8.78536	0.0798839	-0.758124	
-8.08352	0.821071	-0.673765	
-9.42635	1.45488	-0.786849	
-9.42941	1.89867	-0.788511	
-7.60034	2	-0.618928	
-9.02394	2	-0.731877	
-10.3537	1.91895	-0.851557	
-7.22308	1.93754	-0.681209	
-8.52205	1.90585	-0.812476	
-8.53384	2	-0.809497	
-8.6033	2	-0.792996	
-8.88397	2	-0.744412	
-8.84828	1.92228	-0.748937	
-8.81283	2	-0.753927	
-9.06054	1.85759	-0.730104	
-10.338	1.82278	-0.852685	
-10.1329	0.600657	-0.877106	
-8.72588	0.663037	-0.768183	
-10.1452	0.68441	-0.875174	
-8.51861	0.939959	-0.813358	
-8.52767	1.33496	-0.811049	
-10.3235	1.68417	-0.853831	
-7.64959	1.74973	-0.615004	
-11.7719	1.71007	-0.966399	
-8.7784	1.02684	-0.759234	
-10.1408	0.943151	-0.87586	
-8.72321	0.965528	-0.768664	
-8.55412	0.553448	-0.804495	
-8.51117	0.495631	-0.815273	
-9.21357	1.36962	-0.733909	
-11.8492	1.42353	-0.966241	
-9.22413	1.43872	-0.734969	
-10.6818	1.02505	-0.87105	
-9.26366	0.965827	-0.740005	
-10.5888	1.04082	-0.854681	
-10.5277	1.21008	-0.849302	
-11.9684	1.26463	-0.976689	
-9.25844	1.19252	-0.739239	
-8.76722	1.8275	-0.761053	
-10.1315	1.91186	-0.877337	
-10.1866	1.83465	-0.869083	
-10.2503	1.04863	-0.861025	
-8.83774	1.0111	-0.750369	
-10.1732	1.09426	-0.870987	
-7.53821	1.10778	-0.625394	
-10.323	1.09436	-0.85387	
-9.00701	0.92332	-0.732922	
-9.04521	0.983948	-0.730765	
-11.7921	0.912712	-0.965884	
-7.68003	1.65028	-0.613146	
-7.73383	1.64109	-0.611078	
-10.3901	1.58611	-0.849394	
-8.53403	0.621253	-0.809451	
-7.24853	0.607584	-0.675343	
-9.99221	0.544593	-0.903227	
-10.0129	0.626188	-0.898937	
-10.2481	0.883867	-0.861267	
-8.85511	0.814004	-0.748031	
-8.83079	0.883506	-0.751338	
-7.4974	0.94284	-0.630508	
-7.44431	0.823889	-0.638138	
-8.76164	0.86549	-0.761978	
-9.20705	0.577518	-0.733312	
-10.5565	0.659851	-0.851377	
-9.26877	0.634606	-0.740785	
-9.98762	0.0913029	-0.9042	
-8.56443	0.141129	-0.802011	
-8.99056	1.15841	-0.734068	
-11.7813	1.18235	-0.966119	
-7.68904	1.11752	-0.612683	
-10.7004	0.938839	-0.875852	
-8.04637	0.99711	-0.655738	
-9.02375	0.516229	-0.731888	
-10.404	0.597248	-0.848737	
-9.09813	0.53029	-0.729184	
-10.2259	1.25683	-0.86392	
-10.2058	1.17353	-0.866478	
-8.80538	1.22905	-0.755036	
-10.7215	1.10599	-0.882054	
-9.41339	1.05145	-0.780449	
-9.3702	1.1866	-0.763996	
-9.42325	1.17077	-0.785224	
-11.4945	1.39834	-0.99387	
-7.44301	1.4857	-0.638338	
-8.85518	1.4682	-0.748023	
-10.54	0.907417	-0.85009	
-9.13504	0.841878	-0.729407	
-12.0886	0.492781	-1.00544	
-7.97607	0.543817	-0.634063	
-9.37695	0.570722	-0.766206	
-9.15504	1.72433	-0.730015	
-9.11096	1.78876	-0.729132	
-9.0253	0.853718	-0.7318	
-8.93826	0.389993	-0.73853	
-7.59372	0.316743	-0.619539	
-8.88407	0.343184	-0.744401	
-9.05868	0.780432	-0.730178	
-7.72567	0.84375	-0.611263	
-9.12874	0.770799	-0.729287	
-8.97388	0.577671	-0.735357	
-9.89039	1.02428	-0.926639	
-10.0924	0.237428	-0.883883	
-8.75628	0.153222	-0.762878	
-8.68868	0.163431	-0.775135	
-10.1835	0.159631	-0.86952	
-9.17818	1.80219	-0.731167	
-7.85613	1.86234	-0.615122	
-9.25707	1.80354	-0.739042	
-9.08623	0.329138	-0.729353	
-10.5129	0.30982	-0.848545	
-10.4608	0.244444	-0.847414	
-9.11835	0.391669	-0.729164	
-7.36589	1.03303	-0.651355	
-9.08664	0.717798	-0.729345	
-9.00501	0.718603	-0.733054	
-7.69096	0.665477	-0.61259	
-9.11803	0.658642	-0.729162	
-7.59216	1.87015	-0.619685	
-8.90847	1.80864	-0.741605	
-7.69719	1.78424	-0.6123	
-8.93605	1.74797	-0.738745	
-9.18353	0.386445	-0.731504	
-9.21357	0.441074	-0.733909	
-9.2529	0.365688	-0.738461	
-9.02481	1.25637	-0.731828	
-9.09965	1.24657	-0.729171	
-9.04766	1.3122	-0.730651	
-7.76121	1.30199	-0.610854	
-9.17317	1.27096	-0.730876	
-8.89874	0.276367	-0.74269	
-11.5214	0.292881	-0.989808	
-7.50089	0.234809	-0.630045	
-7.44497	0.216682	-0.638037	
-9.27539	0.891352	-0.741845	
-9.07474	1.48059	-0.729624	
-8.99889	1.4429	-0.733472	
-10.3492	1.51083	-0.851873	
-8.9275	1.45569	-0.739597	
-9.08725	1.36546	-0.729334	
-9.15772	1.34038	-0.730124	
-8.82327	1.70558	-0.752406	
-8.83825	1.63351	-0.750298	
-8.7663	1.65739	-0.761205	
-8.68712	0.837679	-0.775438	
-8.7314	0.792044	-0.767194	
-8.74365	1.09876	-0.76504	
-10.1254	1.30603	-0.878312	
-7.37482	1.35315	-0.649735	
-10.4916	0.166399	-0.847799	
-9.05785	0.169498	-0.730212	
-10.0435	1.40455	-0.892869	
-10.209	0.41495	-0.866066	
-10.2615	0.474418	-0.859768	
-10.4966	1.05334	-0.847938	
-9.18553	0.984567	-0.731637	
-9.14896	1.13834	-0.729793	
-8.78373	0.452043	-0.758382	
-10.1329	0.374434	-0.877118	
-7.37299	0.42015	-0.650064	
-10.056	0.484457	-0.890497	
-9.30156	0	-0.746578	
-9.3182	0.0667918	-0.750078	
-9.36595	0	-0.762658	
-9.30156	2	-0.746578	
-7.91806	1.94291	-0.6227	
-7.87913	2	-0.61745	
-9.33914	0.853126	-0.755094	
-9.36595	2	-0.762658	
-10.6845	1.92333	-0.871725	
-7.60936	0.506745	-0.618127	
-8.90831	0.56183	-0.741623	
-8.91607	0.636864	-0.740785	
-8.84698	0.546278	-0.74911	
-8.84771	0.617676	-0.749013	
-10.601	0.078087	-0.856216	
-10.561	1.56345	-0.851776	
-7.90916	1.62497	-0.621347	
-9.29323	1.57191	-0.744974	
-10.7031	0.153301	-0.876597	
-10.7074	0.252546	-0.877797	
-8.05466	0.211952	-0.659166	
-8.97942	0.650538	-0.734915	
-10.2807	0.718414	-0.857754	
-8.918	0.798942	-0.74058	
-8.98505	0.786413	-0.734479	
-7.51153	0.678765	-0.628662	
-8.85775	0.741319	-0.747687	
-10.766	1.80752	-0.899007	
-9.36524	1.74768	-0.76244	
-10.6882	1.83308	-0.872642	
-8.92558	1.20637	-0.739793	
-9.99281	1.92648	-0.903098	
-9.93713	1.86025	-0.915416	
-9.38492	0.344499	-0.768965	
-9.41084	0.410465	-0.779292	
-10.5979	0.282592	-0.855814	
-10.6677	0.338159	-0.867822	
-10.3246	0.251286	-0.853744	
-7.67726	0.217721	-0.613297	
-10.3175	0.164212	-0.854333	
-9.89323	0.230355	-0.925933	
-10.4488	1.93673	-0.84748	
-9.35364	1.26103	-0.759009	
-9.41724	1.24459	-0.782255	
-9.33865	1.32491	-0.754967	
-10.7612	1.31978	-0.896882	
-10.6233	0.804788	-0.859477	
-10.6952	0.759874	-0.874429	
-9.2804	0.714139	-0.742682	
-8.90673	0.206449	-0.741797	
-7.53918	0.138218	-0.62528	
-8.58706	1.72394	-0.796694	
-8.55206	1.78328	-0.804996	
-9.98308	1.79352	-0.905171	
-8.98463	1.03613	-0.734512	
-10.4097	1.05319	-0.848498	
-9.10851	0.992616	-0.729132	
-7.74647	1.10914	-0.610898	
-10.6326	0.204267	-0.861004	
-9.19212	0.22975	-0.732102	
-8.96069	0.863551	-0.736466	
-8.94264	0.938032	-0.73811	
-7.95652	1.76807	-0.629705	
-10.6494	1.69808	-0.864045	
-9.22558	1.73846	-0.735124	
-9.28255	0.425321	-0.743052	
-9.2386	0.500006	-0.736613	
-9.14213	0.456585	-0.729582	
-9.16964	0.51622	-0.730685	
-8.66377	0.232607	-0.780072	
-8.83781	1.33248	-0.75036	
-8.91335	1.52656	-0.741075	
-10.1904	1.55451	-0.868551	
-10.2665	1.60907	-0.859228	
-7.37113	0.903738	-0.650401	
-10.0014	0.902651	-0.901292	
-9.16354	0	-0.730381	
-9.09233	0	-0.729252	
-9.11492	0.051764	-0.729144	
-9.02394	0	-0.731877	
-9.0452	0.0537652	-0.730765	
-8.94196	1.3862	-0.738174	
-8.87125	1.3946	-0.745967	
-8.94782	1.26486	-0.737623	
-7.64432	1.21166	-0.615371	
-8.90495	1.32507	-0.741993	
-8.97592	1.32038	-0.735192	
-8.03496	0.814456	-0.651405	
-8.71154	1.88165	-0.770803	
-9.13935	0.594595	-0.729508	
-8.08331	1.38879	-0.673634	
-9.38557	1.39048	-0.769195	
-10.0048	0.75837	-0.900586	
-8.60946	0.821275	-0.791618	
-9.41812	0.75743	-0.782678	
-10.0526	1.60921	-0.891129	
-8.70038	1.68446	-0.772893	
-7.34177	1.75212	-0.655876	
-10.1078	1.73879	-0.881236	
-9.96866	1.59941	-0.908303	
-8.63174	1.66432	-0.786751	
-10.5498	1.93182	-0.850826	
-9.2727	1.87756	-0.741408	
-9.42636	0.146224	-0.786854	
-8.08087	1.10891	-0.672184	
-8.07503	0.544978	-0.668915	
-10.0047	1.32361	-0.900621	
-8.71083	0.0813768	-0.770934	
-8.67343	0	-0.77813	
-7.96262	1.21454	-0.631002	
-9.3143	1.14931	-0.749223	
-9.13719	1.87232	-0.729455	
-8.61402	1.24379	-0.790608	
-8.57586	1.29411	-0.799301	
-8.68004	1.24385	-0.776822	
-8.77803	1.16415	-0.759293	
-11.3534	0.398041	-1.01958	
-9.88972	1.20048	-0.926806	
-8.52702	1.11243	-0.811215	
-8.71355	0.560548	-0.770431	
-8.77831	0.523541	-0.759248	
-10.559	1.65544	-0.851589	
-9.07564	0.109422	-0.729599	
-7.53435	1.86761	-0.625849	
-8.91974	1.9304	-0.740397	
-7.87523	0.741046	-0.617016	
-9.33717	0.676971	-0.754589	
-7.31515	0.693471	-0.661111	
-8.72612	0.726744	-0.76814	
-8.79309	0.760134	-0.756915	
-6.01597	0.61385	-0.532697	
-7.15828	0.170423	-0.697229	
-7.8571	1.15632	-0.61521	
-7.84444	1.09603	-0.614144	
-9.25389	1.1197	-0.738597	
-7.30069	1.85832	-0.664064	
-8.7059	1.8111	-0.771854	
-9.36556	1.45652	-0.76254	
-9.32603	1.39372	-0.751871	
-7.35803	1.94352	-0.652805	
-8.74226	2	-0.765281	
-9.18978	0.79232	-0.731932	
-7.86262	0.850283	-0.615724	
-9.16534	0.718066	-0.730468	
-8.61534	0.180772	-0.790315	
-9.13969	1.51591	-0.729517	
-10.4846	1.59438	-0.84764	
-7.83977	1.48768	-0.613791	
-9.25852	1.50665	-0.739251	
-7.16758	1.83632	-0.694833	
-10.0967	1.53312	-0.883136	
-7.32111	1.54488	-0.659916	
-8.51701	1.71558	-0.813767	
-10.7373	1.66217	-0.887389	
-8.70913	0.358669	-0.77125	
-8.65249	0.310734	-0.782382	
-7.91559	1.39867	-0.622314	
-9.29776	1.4537	-0.745835	
-9.27727	1.33896	-0.742155	
-9.07161	0.46147	-0.729716	
-7.70041	0.394907	-0.612157	
-10.3457	0.433969	-0.85212	
-7.71363	1.42238	-0.611631	
-9.01221	1.37641	-0.732587	
-9.32421	0.606335	-0.751445	
-8.56072	0.879786	-0.802898	
-8.57208	0.752034	-0.800192	
-8.52884	0.815753	-0.810755	
-9.95222	1.38066	-0.911967	
-10.7591	1.52165	-0.895933	
-9.33209	1.51493	-0.753325	
-7.94795	1.08423	-0.627973	
-8.52916	1.59815	-0.810675	
-7.74036	2	-0.610969	
-10.0541	1.16076	-0.890855	
-7.29369	1.18618	-0.665518	
-7.57118	1.14984	-0.621759	
-8.74205	1.23168	-0.765319	
-8.58793	1.16237	-0.796493	
-8.89383	1.68406	-0.743253	
-6.5092	0.333428	-0.497302	
-8.52967	1.52552	-0.810547	
-8.5761	0.488947	-0.799244	
-7.42172	1.59304	-0.641711	
-9.3645	1.57917	-0.762213	
-8.55419	1.65719	-0.804477	
-9.26905	0.559694	-0.740829	
-9.30692	0.490232	-0.747661	
-8.59306	0.956713	-0.795317	
-8.66371	0.989568	-0.780084	
-8.86791	1.75665	-0.746385	
-7.45611	1.77244	-0.636349	
-7.29496	1.72615	-0.665254	
-7.403	0.310718	-0.644815	
-7.35045	0.290342	-0.654224	
-7.36149	1.29539	-0.652164	
-9.16354	2	-0.730381	
-7.48837	0.482459	-0.631729	
-7.86653	1.30941	-0.616107	
-9.00187	0.109198	-0.733266	
-8.61665	1.03572	-0.790029	
-8.67768	1.07584	-0.777287	
-8.67343	2	-0.77813	
-8.0272	0.633303	-0.648673	
-9.34613	0.422033	-0.756933	
-6.59738	0.266461	-0.509965	
-8.60005	0.262786	-0.793728	
-7.78545	1.66446	-0.611178	
-7.72275	1.54135	-0.611342	
-8.5579	0.371856	-0.80358	
-7.23822	0.429791	-0.677689	
-7.61691	1.56661	-0.617486	
-7.63132	1.62234	-0.61633	
-6.11777	1.2804	-0.516065	
-8.52616	0.68957	-0.811433	
-7.15888	0.753859	-0.697075	
-9.42357	0.285029	-0.785391	
-7.16296	1.26259	-0.696019	
-10.777	0	-0.904443	
-7.17092	1.39629	-0.69398	
-9.90103	1.45609	-0.924011	
-8.5342	0.308608	-0.809407	
-9.95167	0.682551	-0.912092	
-8.52321	0.423502	-0.812182	
-9.42505	2	-0.78616	
-7.6332	0.980727	-0.616187	
-9.96293	1.51237	-0.909569	
-8.63425	1.11653	-0.786214	
-7.69076	0.277428	-0.612599	
-10.3595	0.33864	-0.851168	
-7.2277	1.08627	-0.680125	
-7.78765	0.0993244	-0.611232	
-9.18772	0.0548078	-0.731787	
-5.86928	1.55961	-0.563356	
-9.42496	1.72118	-0.786115	
-8.03806	1.94239	-0.652542	
-8.02989	1.87535	-0.649601	
-7.28528	0.473525	-0.667293	
-7.24877	0.331482	-0.675288	
-7.97276	1.63205	-0.633283	
-8.07055	1.59521	-0.666574	
-8.68373	1.47977	-0.776097	
-9.22357	0.160133	-0.734911	
-7.83974	0.114041	-0.613789	
-7.39034	1.45658	-0.646989	
-7.93526	0.130179	-0.625593	
-8.89194	0.972536	-0.743472	
-9.39675	0.0752793	-0.773393	
-7.63026	0.0509452	-0.616412	
-7.58531	1.00206	-0.620342	
-6.12856	0.356044	-0.51453	
-8.85183	0.0762643	-0.748463	
-7.27535	1.44431	-0.66942	
-9.2311	0	-0.735733	
-6.72967	0.460204	-0.554355	
-6.43671	0.946643	-0.492976	
-8.53813	2	-0.818686	
-8.61712	2	-0.810152	
-8.78068	2	-0.796889	
-8.86668	2	-0.792299	
-8.69768	2	-0.802876	
-10.395	2	-0.906313	
-10.5731	2	-0.912454	
-9.39306	2	-0.815085	
-9.30973	2	-0.803102	
-9.132	2	-0.789145	
-10.3055	2	-0.907617	
-11.1677	-0.0721374	-1.06455	
-7.16164	-0.0524234	-0.710086	
-7.42877	-1.94219	-0.716165	
-8.71505	-1.93265	-0.832326	
-8.75542	-2	-0.833586	
-8.57445	-0.0610541	-0.829148	
-8.7187	-0.0745946	-0.832434	
-8.8607	-0.063891	-0.837482	
-9.4638	-1.2856	-0.827982	
-9.40208	-1.32684	-0.85428	
-9.4638	-1.35721	-0.827982	
-9.4638	-0.0721374	-0.827982	
-10.8158	-0.215036	-0.946265	
-9.4638	-0.143615	-0.827982	
-9.41257	-0.177622	-0.853014	
-8.11183	-0.286611	-0.709699	
-9.41365	-0.326516	-0.852862	
-10.8158	-0.358269	-0.946265	
-9.41384	-0.255005	-0.852835	
-9.4638	-0.714404	-0.827982	
-10.7563	-0.754353	-0.972317	
-9.4638	-0.786116	-0.827982	
-8.90104	-2	-0.83915	
-10.2078	-1.91632	-0.95557	
-8.82835	-2	-0.836203	
-7.18492	-2	-0.710343	
-7.16275	-1.94543	-0.710097	
-8.4638	-2	-0.827982	
-9.41487	-1.39944	-0.852684	
-9.4638	-1.42879	-0.827982	
-6.75986	-2	-0.591416	
-10.8158	-1.92786	-0.946265	
-8.0523	-2	-0.735762	
-8.60987	-2	-0.829766	
-8.57402	-1.9425	-0.829141	
-10.3666	-1.91894	-0.962285	
-8.97343	-2	-0.842252	
-7.69424	-2	-0.727012	
-9.4638	-1.21388	-0.827982	
-9.40198	-1.25457	-0.85429	
-10.8158	-1.78496	-0.946265	
-6.71601	-1.82622	-0.615306	
-9.4638	-1.85639	-0.827982	
-8.6586	-0.824164	-0.830818	
-8.58081	-0.840188	-0.82925	
-9.98767	-0.897364	-0.948577	
-11.1677	-1.07055	-1.06455	
-9.88126	-1.0996	-0.946819	
-11.2279	-0.999321	-1.06504	
-8.84312	-1.67801	-0.836779	
-8.91419	-1.66711	-0.839707	
-10.1987	-1.60664	-0.955206	
-8.7267	-0.446895	-0.832675	
-11.4516	-0.354649	-1.0699	
-8.67288	-0.398171	-0.83117	
-10.2498	-1.83141	-0.957296	
-7.60517	-1.78071	-0.723267	
-10.2513	-1.74009	-0.957362	
-10.4117	-1.7075	-0.964109	
-8.97819	-1.71822	-0.842456	
-9.02529	-1.78279	-0.844446	
-10.4516	-1.79397	-0.965773	
-8.92509	-1.60358	-0.840172	
-8.87985	-1.5428	-0.838265	
-7.47379	-1.84473	-0.717821	
-10.5703	-1.45461	-0.971566	
-9.13609	-1.49442	-0.849201	
-9.18356	-1.53304	-0.851568	
-11.8892	-1.28582	-1.08822	
-9.11523	-1.23395	-0.848204	
-11.79	-1.30809	-1.08346	
-11.9743	-1.05755	-1.09211	
-7.99338	-1.02435	-0.738663	
-7.94479	-0.98494	-0.738102	
-9.03735	-0.659051	-0.844939	
-8.97032	-0.685531	-0.842118	
-10.3755	-0.738859	-0.962654	
-10.3509	-1.33862	-0.961623	
-10.3605	-1.25231	-0.962032	
-11.1677	-1.42879	-1.06455	
-11.1677	-1.49933	-1.06455	
-9.90034	-1.4654	-0.947054	
-8.55127	-0.918262	-0.82881	
-8.60342	-1.01699	-0.829644	
-7.24311	-0.957788	-0.71121	
-11.4334	-0.881052	-1.06933	
-8.7374	-0.965074	-0.833006	
-8.80087	-0.954992	-0.83517	
-7.71066	-0.86716	-0.727656	
-10.481	-0.888326	-0.967143	
-9.11121	-0.817828	-0.848017	
-9.99124	-0.589278	-0.948656	
-10.0083	-0.676587	-0.949046	
-10.0736	-0.618429	-0.950803	
-10.6678	-0.0745363	-0.975078	
-9.05042	-1.18703	-0.845463	
-8.98845	-1.16574	-0.842896	
-8.98379	-0.496062	-0.842696	
-10.4168	-0.503541	-0.964306	
-9.01943	-0.439924	-0.844204	
-10.4531	-0.698429	-0.965842	
-8.86844	-1.23016	-0.837796	
-10.1421	-1.19538	-0.953065	
-8.81907	-1.27217	-0.835849	