<VTKFile type="UnstructuredGrid" version="0.1" byte_order="LittleEndian">
	<UnstructuredGrid>
		<Piece NumberOfPoints="112" NumberOfCells="56">
			<CellData Scalars="scalars">
				<DataArray type="Float64" Name="Gamma" NumberOfComponents="1" Format="ascii">
0.5955	
2.33278	
1.78009	
2.26701	
2.52656	
2.70164	
2.67583	
2.623	
2.06115	
1.73986	
1.08861	
3.22429	
1.79082	
3.01188	
1.82128	
1.82368	
2.54285	
2.41106	
2.39433	
2.07003	
2.43292	
2.67222	
1.98245	
2.58269	
4.78319	
2.35057	
1.79246	
1.73842	
4.78102	
1.71919	
2.2726	
2.53037	
2.12106	
1.55803	
0.867455	
3.1727	
1.68735	
2.10782	
2.59594	
1.61313	
1.71271	
2.19859	
2.18146	
2.06743	
1.9253	
2.14503	
2.16091	
2.08261	
1.70884	
1.85863	
2.10463	
0.520749	
1.4055	
1.65099	
2.1188	
1.11035	
				</DataArray>
			</CellData>
			<Points>
				<DataArray type="Float64" Name="Position" NumberOfComponents="3" Format="ascii">
1.16299	1.92786	-0.0205876	
1.163	2	-0.0205018	
1.16299	1	-0.0206187	
1.163	1.07055	-0.0205113	
1.163	1.42879	-0.0205027	
1.16301	1.49933	-0.0204229	
1.16298	1.71339	-0.0206892	
1.16298	1.78496	-0.0206481	
1.16302	0.286611	-0.0203779	
1.16299	0.358269	-0.0205746	
1.16297	0.143615	-0.0207228	
1.16301	0.215036	-0.0204529	
1.16301	0.215036	-0.0204529	
1.16302	0.286611	-0.0203779	
1.16299	0.358269	-0.0205746	
1.16297	0.429861	-0.0207468	
1.163	1.64173	-0.0205481	
1.16298	1.71339	-0.0206892	
1.16301	1.49933	-0.0204229	
1.163	1.57014	-0.0205024	
1.16298	1.85639	-0.0206331	
1.16299	1.92786	-0.0205876	
1.16299	0.0721374	-0.0205578	
1.16297	0.143615	-0.0207228	
1.16298	1.2856	-0.0206614	
1.16299	1.35721	-0.0205972	
1.16297	0.429861	-0.0207468	
1.16296	0.500665	-0.0208144	
1.163	1.57014	-0.0205024	
1.163	1.64173	-0.0205481	
1.163	1.21388	-0.0205086	
1.16298	1.2856	-0.0206614	
1.16299	0.857842	-0.0205859	
1.16298	0.929454	-0.0206976	
1.16299	0.714404	-0.0206055	
1.16299	0.786116	-0.0206108	
1.16297	0.571209	-0.0207126	
1.163	0.64279	-0.0204959	
1.163	1.07055	-0.0205113	
1.16301	1.14216	-0.0204692	
1.16298	0.929454	-0.0206976	
1.16299	1	-0.0206187	
1.16296	0.500665	-0.0208144	
1.16297	0.571209	-0.0207126	
1.16301	1.14216	-0.0204692	
1.163	1.21388	-0.0205086	
1.16299	0.786116	-0.0206108	
1.16299	0.857842	-0.0205859	
1.163	0	-0.0205049	
1.16299	0.0721374	-0.0205578	
1.163	0.64279	-0.0204959	
1.16299	0.714404	-0.0206055	
1.16298	1.78496	-0.0206481	
1.16298	1.85639	-0.0206331	
1.16299	1.35721	-0.0205972	
1.163	1.42879	-0.0205027	
1.16298	-0.0721374	-0.0206625	
1.163	0	-0.0205049	
1.16301	-1.49933	-0.0204051	
1.163	-1.42879	-0.0204933	
1.16299	-0.358269	-0.0206283	
1.16302	-0.286611	-0.0203816	
1.16302	-0.286611	-0.0203816	
1.16298	-0.215036	-0.0206521	
1.16298	-0.429861	-0.0206843	
1.16299	-0.358269	-0.0206283	
1.16299	-1.71339	-0.0206105	
1.163	-1.64173	-0.0205212	
1.163	-1.92786	-0.0205261	
1.16299	-1.85639	-0.0206054	
1.16297	-0.143615	-0.0207401	
1.16298	-0.0721374	-0.0206625	
1.16299	-1.35721	-0.0205933	
1.16298	-1.2856	-0.020661	
1.16302	-0.500665	-0.0203846	
1.16298	-0.429861	-0.0206843	
1.16298	-0.215036	-0.0206521	
1.16297	-0.143615	-0.0207401	
1.163	-1.64173	-0.0205212	
1.163	-1.57014	-0.020496	
1.16298	-1.2856	-0.020661	
1.163	-1.21388	-0.0205087	
1.16298	-0.929454	-0.0206969	
1.16299	-0.857842	-0.0205955	
1.16301	-0.786116	-0.0204698	
1.16302	-0.714404	-0.02038	
1.16301	-0.64279	-0.0204633	
1.16302	-0.571209	-0.0203499	
1.16301	-1.14216	-0.0204693	
1.16301	-1.07055	-0.0204376	
1.16301	-1.07055	-0.0204376	
1.16299	-1	-0.0206181	
1.16299	-1	-0.0206181	
1.16298	-0.929454	-0.0206969	
1.16302	-0.571209	-0.0203499	
1.16302	-0.500665	-0.0203846	
1.163	-1.57014	-0.020496	
1.16301	-1.49933	-0.0204051	
1.163	-1.21388	-0.0205087	
1.16301	-1.14216	-0.0204693	
1.16299	-0.857842	-0.0205955	
1.16301	-0.786116	-0.0204698	
1.163	-2	-0.020501	
1.163	-1.92786	-0.0205261	
1.16299	-1.78496	-0.0206089	
1.16299	-1.71339	-0.0206105	
1.163	-1.42879	-0.0204933	
1.16299	-1.35721	-0.0205933	
1.16302	-0.714404	-0.02038	
1.16301	-0.64279	-0.0204633	
1.16299	-1.85639	-0.0206054	
1.16299	-1.78496	-0.0206089	
				</DataArray>
			</Points>
			<Cells>
				<DataArray type="Int32" Name="connectivity" Format="ascii">
0	1	
2	3	
4	5	
6	7	
8	9	
10	11	
12	13	
14	15	
16	17	
18	19	
20	21	
22	23	
24	25	
26	27	
28	29	
30	31	
32	33	
34	35	
36	37	
38	39	
40	41	
42	43	
44	45	
46	47	
48	49	
50	51	
52	53	
54	55	
56	57	
58	59	
60	61	
62	63	
64	65	
66	67	
68	69	
70	71	
72	73	
74	75	
76	77	
78	79	
80	81	
82	83	
84	85	
86	87	
88	89	
90	91	
92	93	
94	95	
96	97	
98	99	
100	101	
102	103	
104	105	
106	107	
108	109	
110	111	
				</DataArray>
				<DataArray type="Int32" Name="offsets" Format="ascii">
2	
4	
6	
8	
10	
12	
14	
16	
18	
20	
22	
24	
26	
28	
30	
32	
34	
36	
38	
40	
42	
44	
46	
48	
50	
52	
54	
56	
58	
60	
62	
64	
66	
68	
70	
72	
74	
76	
78	
80	
82	
84	
86	
88	
90	
92	
94	
96	
98	
100	
102	
104	
106	
108	
110	
112	
				</DataArray>
				<DataArray type="Int32" Name="types" Format="ascii">
3	
3	
3	
3	
3	
3	
3	
3	
3	
3	
3	
3	
3	
3	
3	
3	
3	
3	
3	
3	
3	
3	
3	
3	
3	
3	
3	
3	
3	
3	
3	
3	
3	
3	
3	
3	
3	
3	
3	
3	
3	
3	
3	
3	
3	
3	
3	
3	
3	
3	
3	
3	
3	
3	
3	
3	
				</DataArray>
			</Cells>
		</Piece>
	</UnstructuredGrid>
</VTKFile>
