<VTKFile type="UnstructuredGrid" version="0.1" byte_order="LittleEndian">
	<UnstructuredGrid>
		<Piece NumberOfPoints="112" NumberOfCells="56">
			<CellData Scalars="scalars">
				<DataArray type="Float64" Name="Gamma" NumberOfComponents="1" Format="ascii">
1.06791	
4.11694	
3.11389	
3.16862	
3.94989	
4.08992	
4.20931	
4.03	
3.04737	
2.91394	
1.75806	
4.5824	
3.14679	
4.41231	
2.89268	
3.22182	
4.1	
3.79484	
3.77221	
3.62829	
4.05743	
4.06837	
3.54392	
4.0482	
6.08619	
3.7326	
2.5774	
3.00974	
6.0869	
3.20804	
3.74065	
4.09075	
3.57454	
2.98148	
1.61559	
4.54222	
3.15766	
3.60642	
4.00162	
2.91034	
3.20613	
3.87298	
3.95684	
3.55944	
3.56454	
4.01168	
3.88455	
3.58702	
3.04971	
3.50684	
3.74175	
1.02782	
2.63873	
3.05606	
3.72689	
2.03184	
				</DataArray>
			</CellData>
			<Points>
				<DataArray type="Float64" Name="Position" NumberOfComponents="3" Format="ascii">
1.16299	1.92786	-0.0205876	
1.163	2	-0.0205018	
1.16299	1	-0.0206187	
1.163	1.07055	-0.0205113	
1.163	1.42879	-0.0205027	
1.16301	1.49933	-0.0204229	
1.16298	1.71339	-0.0206892	
1.16298	1.78496	-0.0206481	
1.16302	0.286611	-0.0203779	
1.16299	0.358269	-0.0205746	
1.16297	0.143615	-0.0207228	
1.16301	0.215036	-0.0204529	
1.16301	0.215036	-0.0204529	
1.16302	0.286611	-0.0203779	
1.16299	0.358269	-0.0205746	
1.16297	0.429861	-0.0207468	
1.163	1.64173	-0.0205481	
1.16298	1.71339	-0.0206892	
1.16301	1.49933	-0.0204229	
1.163	1.57014	-0.0205024	
1.16298	1.85639	-0.0206331	
1.16299	1.92786	-0.0205876	
1.16299	0.0721374	-0.0205578	
1.16297	0.143615	-0.0207228	
1.16298	1.2856	-0.0206614	
1.16299	1.35721	-0.0205972	
1.16297	0.429861	-0.0207468	
1.16296	0.500665	-0.0208144	
1.163	1.57014	-0.0205024	
1.163	1.64173	-0.0205481	
1.163	1.21388	-0.0205086	
1.16298	1.2856	-0.0206614	
1.16299	0.857842	-0.0205859	
1.16298	0.929454	-0.0206976	
1.16299	0.714404	-0.0206055	
1.16299	0.786116	-0.0206108	
1.16297	0.571209	-0.0207126	
1.163	0.64279	-0.0204959	
1.163	1.07055	-0.0205113	
1.16301	1.14216	-0.0204692	
1.16298	0.929454	-0.0206976	
1.16299	1	-0.0206187	
1.16296	0.500665	-0.0208144	
1.16297	0.571209	-0.0207126	
1.16301	1.14216	-0.0204692	
1.163	1.21388	-0.0205086	
1.16299	0.786116	-0.0206108	
1.16299	0.857842	-0.0205859	
1.163	0	-0.0205049	
1.16299	0.0721374	-0.0205578	
1.163	0.64279	-0.0204959	
1.16299	0.714404	-0.0206055	
1.16298	1.78496	-0.0206481	
1.16298	1.85639	-0.0206331	
1.16299	1.35721	-0.0205972	
1.163	1.42879	-0.0205027	
1.16298	-0.0721374	-0.0206625	
1.163	0	-0.0205049	
1.16301	-1.49933	-0.0204051	
1.163	-1.42879	-0.0204933	
1.16299	-0.358269	-0.0206283	
1.16302	-0.286611	-0.0203816	
1.16302	-0.286611	-0.0203816	
1.16298	-0.215036	-0.0206521	
1.16298	-0.429861	-0.0206843	
1.16299	-0.358269	-0.0206283	
1.16299	-1.71339	-0.0206105	
1.163	-1.64173	-0.0205212	
1.163	-1.92786	-0.0205261	
1.16299	-1.85639	-0.0206054	
1.16297	-0.143615	-0.0207401	
1.16298	-0.0721374	-0.0206625	
1.16299	-1.35721	-0.0205933	
1.16298	-1.2856	-0.020661	
1.16302	-0.500665	-0.0203846	
1.16298	-0.429861	-0.0206843	
1.16298	-0.215036	-0.0206521	
1.16297	-0.143615	-0.0207401	
1.163	-1.64173	-0.0205212	
1.163	-1.57014	-0.020496	
1.16298	-1.2856	-0.020661	
1.163	-1.21388	-0.0205087	
1.16298	-0.929454	-0.0206969	
1.16299	-0.857842	-0.0205955	
1.16301	-0.786116	-0.0204698	
1.16302	-0.714404	-0.02038	
1.16301	-0.64279	-0.0204633	
1.16302	-0.571209	-0.0203499	
1.16301	-1.14216	-0.0204693	
1.16301	-1.07055	-0.0204376	
1.16301	-1.07055	-0.0204376	
1.16299	-1	-0.0206181	
1.16299	-1	-0.0206181	
1.16298	-0.929454	-0.0206969	
1.16302	-0.571209	-0.0203499	
1.16302	-0.500665	-0.0203846	
1.163	-1.57014	-0.020496	
1.16301	-1.49933	-0.0204051	
1.163	-1.21388	-0.0205087	
1.16301	-1.14216	-0.0204693	
1.16299	-0.857842	-0.0205955	
1.16301	-0.786116	-0.0204698	
1.163	-2	-0.020501	
1.163	-1.92786	-0.0205261	
1.16299	-1.78496	-0.0206089	
1.16299	-1.71339	-0.0206105	
1.163	-1.42879	-0.0204933	
1.16299	-1.35721	-0.0205933	
1.16302	-0.714404	-0.02038	
1.16301	-0.64279	-0.0204633	
1.16299	-1.85639	-0.0206054	
1.16299	-1.78496	-0.0206089	
				</DataArray>
			</Points>
			<Cells>
				<DataArray type="Int32" Name="connectivity" Format="ascii">
0	1	
2	3	
4	5	
6	7	
8	9	
10	11	
12	13	
14	15	
16	17	
18	19	
20	21	
22	23	
24	25	
26	27	
28	29	
30	31	
32	33	
34	35	
36	37	
38	39	
40	41	
42	43	
44	45	
46	47	
48	49	
50	51	
52	53	
54	55	
56	57	
58	59	
60	61	
62	63	
64	65	
66	67	
68	69	
70	71	
72	73	
74	75	
76	77	
78	79	
80	81	
82	83	
84	85	
86	87	
88	89	
90	91	
92	93	
94	95	
96	97	
98	99	
100	101	
102	103	
104	105	
106	107	
108	109	
110	111	
				</DataArray>
				<DataArray type="Int32" Name="offsets" Format="ascii">
2	
4	
6	
8	
10	
12	
14	
16	
18	
20	
22	
24	
26	
28	
30	
32	
34	
36	
38	
40	
42	
44	
46	
48	
50	
52	
54	
56	
58	
60	
62	
64	
66	
68	
70	
72	
74	
76	
78	
80	
82	
84	
86	
88	
90	
92	
94	
96	
98	
100	
102	
104	
106	
108	
110	
112	
				</DataArray>
				<DataArray type="Int32" Name="types" Format="ascii">
3	
3	
3	
3	
3	
3	
3	
3	
3	
3	
3	
3	
3	
3	
3	
3	
3	
3	
3	
3	
3	
3	
3	
3	
3	
3	
3	
3	
3	
3	
3	
3	
3	
3	
3	
3	
3	
3	
3	
3	
3	
3	
3	
3	
3	
3	
3	
3	
3	
3	
3	
3	
3	
3	
3	
3	
				</DataArray>
			</Cells>
		</Piece>
	</UnstructuredGrid>
</VTKFile>
