<VTKFile type="UnstructuredGrid" version="0.1" byte_order="LittleEndian">
	<UnstructuredGrid>
		<Piece NumberOfPoints="112" NumberOfCells="56">
			<CellData Scalars="scalars">
				<DataArray type="Float64" Name="Gamma" NumberOfComponents="1" Format="ascii">
1.32121	
5.14018	
3.8835	
3.66815	
4.76485	
4.88423	
5.09223	
4.82781	
3.59757	
3.58115	
2.13043	
5.35249	
3.93901	
5.20745	
3.49641	
4.0407	
4.99134	
4.58327	
4.554	
4.52385	
4.98417	
4.86575	
4.4445	
4.88683	
6.81507	
4.51721	
3.01177	
3.74414	
6.81731	
4.0662	
4.57829	
4.98719	
4.39542	
3.75812	
2.02685	
5.31777	
4.01362	
4.44907	
4.80301	
3.63321	
4.07707	
4.82306	
4.96491	
4.40513	
4.50288	
5.07672	
4.86039	
4.43628	
3.80912	
4.45495	
4.66904	
1.29841	
3.31002	
3.86551	
4.63666	
2.53816	
				</DataArray>
			</CellData>
			<Points>
				<DataArray type="Float64" Name="Position" NumberOfComponents="3" Format="ascii">
1.16299	1.92786	-0.0205876	
1.163	2	-0.0205018	
1.16299	1	-0.0206187	
1.163	1.07055	-0.0205113	
1.163	1.42879	-0.0205027	
1.16301	1.49933	-0.0204229	
1.16298	1.71339	-0.0206892	
1.16298	1.78496	-0.0206481	
1.16302	0.286611	-0.0203779	
1.16299	0.358269	-0.0205746	
1.16297	0.143615	-0.0207228	
1.16301	0.215036	-0.0204529	
1.16301	0.215036	-0.0204529	
1.16302	0.286611	-0.0203779	
1.16299	0.358269	-0.0205746	
1.16297	0.429861	-0.0207468	
1.163	1.64173	-0.0205481	
1.16298	1.71339	-0.0206892	
1.16301	1.49933	-0.0204229	
1.163	1.57014	-0.0205024	
1.16298	1.85639	-0.0206331	
1.16299	1.92786	-0.0205876	
1.16299	0.0721374	-0.0205578	
1.16297	0.143615	-0.0207228	
1.16298	1.2856	-0.0206614	
1.16299	1.35721	-0.0205972	
1.16297	0.429861	-0.0207468	
1.16296	0.500665	-0.0208144	
1.163	1.57014	-0.0205024	
1.163	1.64173	-0.0205481	
1.163	1.21388	-0.0205086	
1.16298	1.2856	-0.0206614	
1.16299	0.857842	-0.0205859	
1.16298	0.929454	-0.0206976	
1.16299	0.714404	-0.0206055	
1.16299	0.786116	-0.0206108	
1.16297	0.571209	-0.0207126	
1.163	0.64279	-0.0204959	
1.163	1.07055	-0.0205113	
1.16301	1.14216	-0.0204692	
1.16298	0.929454	-0.0206976	
1.16299	1	-0.0206187	
1.16296	0.500665	-0.0208144	
1.16297	0.571209	-0.0207126	
1.16301	1.14216	-0.0204692	
1.163	1.21388	-0.0205086	
1.16299	0.786116	-0.0206108	
1.16299	0.857842	-0.0205859	
1.163	0	-0.0205049	
1.16299	0.0721374	-0.0205578	
1.163	0.64279	-0.0204959	
1.16299	0.714404	-0.0206055	
1.16298	1.78496	-0.0206481	
1.16298	1.85639	-0.0206331	
1.16299	1.35721	-0.0205972	
1.163	1.42879	-0.0205027	
1.16298	-0.0721374	-0.0206625	
1.163	0	-0.0205049	
1.16301	-1.49933	-0.0204051	
1.163	-1.42879	-0.0204933	
1.16299	-0.358269	-0.0206283	
1.16302	-0.286611	-0.0203816	
1.16302	-0.286611	-0.0203816	
1.16298	-0.215036	-0.0206521	
1.16298	-0.429861	-0.0206843	
1.16299	-0.358269	-0.0206283	
1.16299	-1.71339	-0.0206105	
1.163	-1.64173	-0.0205212	
1.163	-1.92786	-0.0205261	
1.16299	-1.85639	-0.0206054	
1.16297	-0.143615	-0.0207401	
1.16298	-0.0721374	-0.0206625	
1.16299	-1.35721	-0.0205933	
1.16298	-1.2856	-0.020661	
1.16302	-0.500665	-0.0203846	
1.16298	-0.429861	-0.0206843	
1.16298	-0.215036	-0.0206521	
1.16297	-0.143615	-0.0207401	
1.163	-1.64173	-0.0205212	
1.163	-1.57014	-0.020496	
1.16298	-1.2856	-0.020661	
1.163	-1.21388	-0.0205087	
1.16298	-0.929454	-0.0206969	
1.16299	-0.857842	-0.0205955	
1.16301	-0.786116	-0.0204698	
1.16302	-0.714404	-0.02038	
1.16301	-0.64279	-0.0204633	
1.16302	-0.571209	-0.0203499	
1.16301	-1.14216	-0.0204693	
1.16301	-1.07055	-0.0204376	
1.16301	-1.07055	-0.0204376	
1.16299	-1	-0.0206181	
1.16299	-1	-0.0206181	
1.16298	-0.929454	-0.0206969	
1.16302	-0.571209	-0.0203499	
1.16302	-0.500665	-0.0203846	
1.163	-1.57014	-0.020496	
1.16301	-1.49933	-0.0204051	
1.163	-1.21388	-0.0205087	
1.16301	-1.14216	-0.0204693	
1.16299	-0.857842	-0.0205955	
1.16301	-0.786116	-0.0204698	
1.163	-2	-0.020501	
1.163	-1.92786	-0.0205261	
1.16299	-1.78496	-0.0206089	
1.16299	-1.71339	-0.0206105	
1.163	-1.42879	-0.0204933	
1.16299	-1.35721	-0.0205933	
1.16302	-0.714404	-0.02038	
1.16301	-0.64279	-0.0204633	
1.16299	-1.85639	-0.0206054	
1.16299	-1.78496	-0.0206089	
				</DataArray>
			</Points>
			<Cells>
				<DataArray type="Int32" Name="connectivity" Format="ascii">
0	1	
2	3	
4	5	
6	7	
8	9	
10	11	
12	13	
14	15	
16	17	
18	19	
20	21	
22	23	
24	25	
26	27	
28	29	
30	31	
32	33	
34	35	
36	37	
38	39	
40	41	
42	43	
44	45	
46	47	
48	49	
50	51	
52	53	
54	55	
56	57	
58	59	
60	61	
62	63	
64	65	
66	67	
68	69	
70	71	
72	73	
74	75	
76	77	
78	79	
80	81	
82	83	
84	85	
86	87	
88	89	
90	91	
92	93	
94	95	
96	97	
98	99	
100	101	
102	103	
104	105	
106	107	
108	109	
110	111	
				</DataArray>
				<DataArray type="Int32" Name="offsets" Format="ascii">
2	
4	
6	
8	
10	
12	
14	
16	
18	
20	
22	
24	
26	
28	
30	
32	
34	
36	
38	
40	
42	
44	
46	
48	
50	
52	
54	
56	
58	
60	
62	
64	
66	
68	
70	
72	
74	
76	
78	
80	
82	
84	
86	
88	
90	
92	
94	
96	
98	
100	
102	
104	
106	
108	
110	
112	
				</DataArray>
				<DataArray type="Int32" Name="types" Format="ascii">
3	
3	
3	
3	
3	
3	
3	
3	
3	
3	
3	
3	
3	
3	
3	
3	
3	
3	
3	
3	
3	
3	
3	
3	
3	
3	
3	
3	
3	
3	
3	
3	
3	
3	
3	
3	
3	
3	
3	
3	
3	
3	
3	
3	
3	
3	
3	
3	
3	
3	
3	
3	
3	
3	
3	
3	
				</DataArray>
			</Cells>
		</Piece>
	</UnstructuredGrid>
</VTKFile>
