<VTKFile type="UnstructuredGrid" version="0.1" byte_order="LittleEndian">
	<UnstructuredGrid>
		<Piece NumberOfPoints="672" NumberOfCells="672">
			<CellData Scalars="scalars">
				<DataArray type="Float64" Name="Strength" NumberOfComponents="3" Format="ascii">
0.5542	-0.353894	-0.0988556	
0.00976144	-1.04361	6.50192e-05	
0.0069008	-0.939534	0.0108531	
0.0952616	-0.818057	0.020717	
0.00140995	-1.0677	0.00608453	
-0.0206158	-1.00633	0.00636536	
0.000610496	-1.05348	-0.00083458	
-0.00817986	-1.04959	0.00864751	
-0.000576009	-0.855544	0.063076	
0.0126131	-0.920322	0.0122864	
0.143263	-0.569224	0.0336027	
0.0139349	-1.02633	-0.00727596	
-0.00593142	-0.972889	0.0196301	
-0.0055453	-1.04337	-0.00335814	
-0.0271322	-0.888794	0.043808	
0.055786	-0.964488	-0.0100608	
0.0216363	-1.04727	-0.00201858	
-0.00663889	-1.01723	0.00885488	
0.0081552	-1.03541	-0.0136552	
-0.0222888	-1.02953	0.0216201	
0.00432543	-1.03087	0.00371016	
-0.0138512	-1.02974	-0.00144496	
-0.0106048	-1.04739	0.0232677	
0.0212634	-1.05501	-0.00605411	
0.000579169	-1.05471	-0.00167438	
0.00618141	-1.02508	-0.000361821	
-0.010172	-0.71071	0.0817207	
-0.010487	-0.95741	0.0177141	
-0.0119821	-1.05577	0.002101	
-0.0127654	-0.944155	-0.0106593	
-0.019913	-1.06845	0.00705017	
0.0294028	-1.05537	-0.0121455	
0.00475917	-1.03886	0.00184209	
-0.0127988	-0.835845	-0.0571303	
-0.33036	-0.585129	0.0037185	
-0.00900979	-1.02685	0.0025164	
0.0091614	-0.976925	-0.020557	
0.0301232	-1.03994	0.000175792	
0.00304908	-1.00827	0.00135586	
-0.00282787	-0.879139	-0.0349907	
-0.0577614	-0.96548	0.0110336	
-0.0230754	-1.05661	0.00437424	
0.00686936	-1.10285	-0.00792788	
-0.0260717	-1.02534	0.0170055	
0.000294966	-1.0317	-0.0151054	
0.0164586	-1.04631	-0.0156865	
0.00429857	-1.03567	-0.00636686	
0.00314629	-1.0701	0.00932896	
0.0254048	-0.916981	-0.0341213	
0.011429	-1.04882	-0.0286069	
-0.0113888	-1.07454	-0.00282307	
-0.329858	-0.36007	0.0113137	
-0.0501861	-0.815156	-0.0781868	
0.0112097	-0.962915	-0.0189031	
-0.00351046	-1.05303	0.00433673	
0.0144301	-0.69688	-0.137202	
1.50319	0.0189146	-0.0635921	
0.0491788	-0.19217	-0.00535841	
0.125067	-0.164772	-0.00920324	
0.518308	-0.115222	-0.0378981	
-0.00959986	-0.206439	0.00277098	
-0.0482081	-0.206439	0.00672166	
0.000211452	-0.204749	0.000178363	
-0.0148275	-0.207971	0.00397348	
0.15515	-0.132788	-0.00456382	
0.149515	-0.16015	-0.0122015	
0.51215	-0.0632259	-0.0289471	
0.0493791	-0.210478	-0.00829829	
0.0388456	-0.182343	0.000489368	
0.0253395	-0.205351	-0.00283304	
-0.000731493	-0.150586	0.00854836	
0.247273	-0.187496	-0.0306643	
0.0450592	-0.19223	-0.0057235	
-0.0691275	-0.204289	0.0114373	
0.0705658	-0.204264	-0.0114981	
-0.0295627	-0.194472	0.00815626	
0.00113927	-0.191194	0.00120039	
-0.000858121	-0.204886	8.91504e-05	
-0.000616512	-0.189696	0.00455599	
0.00244286	-0.201623	-0.00010046	
0.00502765	-0.209097	-0.00191613	
0.000989899	-0.204625	0.000190473	
0.00217473	-0.101993	0.00954505	
0.000618407	-0.177029	0.0076447	
-0.0487661	-0.209653	0.0057704	
-0.145484	-0.165693	0.0128027	
-0.0215636	-0.2087	0.00464526	
0.124651	-0.205946	-0.0174701	
0.0321286	-0.21021	-0.00266593	
-0.266764	-0.144705	0.0215077	
-1.27126	-0.0930576	0.148348	
-0.0741314	-0.212062	0.0112786	
-0.0289506	-0.183003	-0.00269663	
0.0787648	-0.207808	-0.0098223	
3.87416e-05	-0.205602	0.000401026	
-0.177239	-0.154758	0.0113805	
-0.247296	-0.188713	0.0296801	
-0.0905648	-0.194277	0.0131909	
0.052011	-0.202056	-0.00947221	
-0.08746	-0.206194	0.0141231	
-0.0596715	-0.196417	0.00520933	
0.0283155	-0.19286	-0.00722219	
-4.21375e-05	-0.192283	-0.00196131	
-7.03584e-05	-0.200999	0.00136609	
0.00107985	-0.159882	-0.0111098	
0.000739241	-0.189965	-0.00504872	
-0.00135527	-0.202828	-0.00120877	
-0.725175	-0.0415093	0.0474007	
-0.372209	-0.134904	0.0431298	
-0.000670406	-0.177519	-0.00840672	
-0.000901246	-0.206187	-0.000271562	
-0.0005516	-0.102631	-0.0196754	
2.5032	0.0772708	0.0218051	
0.0867392	-0.059305	0.00411638	
0.244897	-0.0437762	0.0161936	
0.905542	-0.00649582	0.053749	
-0.0255911	-0.0692991	-0.000393093	
-0.0594646	-0.0706444	-0.0019892	
-4.21335e-05	-0.0688559	-0.00015311	
-0.0290085	-0.0706789	-0.00049447	
0.289499	-0.0289519	0.0269984	
0.272675	-0.0414114	0.026874	
0.871492	0.00914815	0.0135793	
0.0766668	-0.0731961	0.00167765	
0.0873819	-0.0548878	0.00673921	
0.0409636	-0.070671	0.0013682	
0.000297734	-0.0415901	0.00542188	
0.417309	-0.0535907	0.0201518	
0.0934485	-0.0601886	0.00358362	
-0.101542	-0.0700141	-0.00169506	
0.132433	-0.0680979	0.00313407	
-0.0390775	-0.0609354	0.000231959	
0.000136411	-0.0605578	0.000873923	
0.000111895	-0.0710039	0.000249837	
0.00037956	-0.0590606	0.00234788	
0.000108342	-0.0658814	0.000405127	
0.00992386	-0.0724959	2.27391e-06	
8.8429e-05	-0.0693834	0.000547784	
0.000819548	-0.0265423	0.00500351	
0.000413187	-0.0537126	0.00371144	
-0.0729292	-0.0726072	-0.00201969	
-0.281665	-0.043315	-0.00865309	
-0.0306095	-0.0697466	-0.000171369	
0.201091	-0.0688979	0.00392226	
0.052542	-0.0701719	0.00227782	
-0.486012	-0.0280048	-0.030723	
-2.1982	0.0392265	-0.0207259	
-0.138295	-0.0736383	-0.002813	
-0.0719474	-0.0552519	-0.00449512	
0.110958	-0.0688777	0.00448299	
4.47948e-05	-0.0710002	0.000391896	
-0.318182	-0.0363729	-0.0205887	
-0.417167	-0.053486	-0.0147097	
-0.166578	-0.0596684	-0.00571091	
0.0814968	-0.06357	0.00148599	
-0.143729	-0.0668285	-0.0040386	
-0.110607	-0.0600411	-0.00540611	
0.042425	-0.0599458	-2.58012e-06	
-0.000131713	-0.0603751	-0.00123971	
-7.24095e-06	-0.064627	0.000326656	
-0.000391682	-0.0456498	-0.00488103	
-0.000442762	-0.0590986	-0.00246715	
-0.000144134	-0.0646033	-0.000797988	
1.16822	-0.0123488	-0.0230466	
-0.662313	-0.0147906	-0.0238192	
-0.000434768	-0.0536807	-0.00361478	
-8.88975e-05	-0.0660913	-0.000163436	
-0.00090678	-0.0286328	-0.0027566	
3.29575	0.0486834	0.157767	
0.135478	0.0828563	-0.00280403	
0.326183	0.0860352	0.00286824	
1.12136	0.0896216	0.0145739	
-0.0209876	0.076851	-0.000282679	
-0.0818604	0.0761072	-0.00537852	
9.36756e-05	0.0759868	-0.000597673	
-0.0352274	0.0779072	0.00204853	
0.360247	0.0798344	-0.000204413	
0.361563	0.0845713	0.00541855	
1.09422	0.0550128	0.0330468	
0.114097	0.0748478	-0.00148184	
0.108369	0.0871957	0.00590471	
0.0584022	0.0783984	0.00524846	
-0.000437856	0.0790078	-0.00930185	
0.581306	0.095983	0.0412904	
0.152433	0.080918	-0.00363134	
-0.128929	0.0809731	-0.00166952	
0.183141	0.0782319	0.00911707	
-0.0528417	0.0856157	-0.0103261	
0.000705114	0.0824213	-0.00758304	
-7.87736e-05	0.0780862	0.00197673	
-0.000464942	0.0863514	-0.0036192	
2.2347e-05	0.0810349	-0.00223118	
0.0173584	0.0754936	-8.33807e-05	
-0.000127159	0.0790346	0.0016362	
-0.00123544	0.0512957	-0.00824845	
-0.00143429	0.0846693	-0.000318582	
-0.0982654	0.0748279	0.000965281	
-0.37887	0.088893	-0.00196277	
-0.0715513	0.0752028	-0.00640276	
0.28156	0.0739304	0.0176828	
0.0651838	0.0777486	-0.00328016	
-0.574457	0.087656	-0.0297176	
-2.78777	0.0702021	-0.132875	
-0.193835	0.0729483	-0.00240174	
-0.0893421	0.0880149	-0.00368493	
0.15209	0.0778708	-0.00418298	
-7.65071e-05	0.0738289	-8.58034e-05	
-0.422625	0.0864945	-0.0241653	
-0.578695	0.0955001	-0.0375666	
-0.247864	0.0849328	0.00210017	
0.0967149	0.0820695	0.00307189	
-0.214133	0.0809766	-0.0113011	
-0.159612	0.0874753	2.13748e-05	
0.0562067	0.0852082	0.00934478	
-0.000630219	0.0846758	0.0070373	
-0.00021624	0.0784214	0.00034779	
0.000427658	0.082822	0.00527993	
0.000322473	0.0874048	0.00482141	
0.000257221	0.0842037	0.00093278	
1.59198	-0.020196	0.0465869	
-0.805869	0.0856112	-0.0316049	
0.00150073	0.085819	0.00174344	
0.000133273	0.0815426	-0.000671935	
0.0009479	0.0485592	0.00407431	
5.7042	-0.0936901	0.2924	
-2.02967	-0.423898	-0.187562	
0.617056	-0.423156	0.186791	
1.56624	-0.125695	0.0785165	
1.94933	-0.444253	0.138807	
-1.7825	-0.548503	-0.118758	
-0.000696184	-0.554133	-0.00506517	
-0.617051	-0.31958	0.0152995	
0.627933	-0.0987251	0.0501779	
1.14509	-0.205422	0.123825	
-0.252922	-0.268093	0.00172238	
-0.104219	-0.366359	-0.0196241	
3.06968	-0.374277	0.257567	
0.76596	-0.402373	0.102189	
-0.00336951	-0.110283	0.0299543	
0.822039	-0.55164	0.160497	
-0.979741	-0.24147	-0.115369	
0.162837	-0.122123	0.0155693	
1.45432	-0.253428	0.132986	
-0.331481	-0.526402	-0.0622144	
0.0120362	-0.26572	-0.0582334	
-0.0088749	-0.309191	0.0473828	
-0.00481152	-0.554982	0.0269191	
0.00256581	-0.143395	-0.0112552	
0.0182624	-0.340504	0.00971852	
-0.00320049	-0.179197	0.0211482	
-0.000461799	-0.0812589	0.0101881	
-0.0114605	-0.202453	0.0736866	
0.0938119	-0.340413	0.0183437	
-0.44837	-0.525312	-0.195581	
-2.34868	-0.441533	-0.192049	
0.409888	-0.535272	-0.0146545	
0.00362225	-0.284716	-0.0357831	
-1.03804	-0.216123	-0.117945	
-3.64176	-0.447619	-0.270589	
1.30021	-0.366798	0.0822038	
-2.75143	-0.419257	-0.217706	
0.18329	-0.271291	-0.00748356	
0.00116787	-0.534592	0.00672306	
-1.17084	-0.246638	-0.151106	
-0.794964	-0.60313	-0.107874	
0.682779	-0.262491	0.0708178	
-1.22865	-0.399165	-0.0854832	
0.348262	-0.356381	0.00159085	
1.46454	-0.579858	0.114335	
0.995696	-0.42743	0.136431	
-0.0104538	-0.299321	0.0366924	
0.00296218	-0.270868	-0.0148754	
0.0142961	-0.283027	-0.0794609	
0.000509743	-0.600198	0.00455841	
-0.00166603	-0.193713	0.00533827	
2.1222	0.16339	0.0518686	
-1.25087	-0.205139	-0.111261	
0.0143147	-0.284248	-0.0827337	
0.00210286	-0.344272	-0.0207913	
0.00249364	-0.165284	-0.0252896	
4.43014	0.250663	0.296082	
0.0501209	0.575309	-0.0384951	
0.552245	0.666124	0.002886	
1.27349	0.425397	0.101287	
1.20051	0.722333	0.0709758	
-0.907325	0.766323	-0.114124	
-0.000685282	0.73722	-0.0235853	
-0.292127	0.626443	-0.0651708	
0.37857	0.42193	-0.00626177	
0.660857	0.519056	0.0318928	
1.14855	0.496131	0.0740905	
0.805077	0.622811	0.0938585	
0.714857	0.602627	0.0370738	
0.48961	0.667	0.0340435	
-0.000875622	0.452216	-0.0484516	
1.25758	0.825671	0.0791452	
-0.637696	0.528954	-0.0874094	
-0.267454	0.48626	-0.027471	
0.79943	0.586125	0.0886459	
-0.173762	0.777602	-0.0851186	
0.00462667	0.539328	-0.023463	
-0.00300891	0.61931	-0.0293335	
0.00274822	0.802376	-0.0550087	
0.00514209	0.497127	0.00456482	
0.0124158	0.539274	0.00367105	
-3.52133e-05	0.539513	-0.00156054	
-0.000578665	0.359134	-0.026555	
0.00399907	0.543094	-0.0308114	
-0.793231	0.54571	-0.0644376	
-0.455906	0.689581	0.0015159	
-1.4247	0.704358	-0.13541	
0.930069	0.725499	0.0800271	
0.0751473	0.595923	0.0156275	
-0.740197	0.410574	-0.0307398	
-2.89328	0.64248	-0.222779	
-0.0360882	0.618001	0.0372201	
-0.441194	0.61464	-0.030267	
-0.167039	0.582403	-0.0164629	
0.00253404	0.767086	0.0148341	
-0.691341	0.484308	-0.01009	
-1.20017	0.834697	-0.0584469	
0.443302	0.545589	0.0418139	
-0.323065	0.637616	-0.0545227	
0.333989	0.658207	0.0369169	
-0.54914	0.787351	-0.00710548	
0.850853	0.581388	0.136036	
-0.00315205	0.551423	0.00764734	
-0.00131011	0.614604	0.0207132	
-0.00014768	0.540235	0.0501886	
0.000177163	0.809365	0.0560274	
-0.00377463	0.524329	-0.0216475	
3.0325	-0.286562	0.199716	
-1.5033	0.444577	-0.137313	
-0.00474232	0.558782	0.0405363	
-0.00308218	0.632046	-0.00882719	
-0.00072867	0.42579	0.036914	
2.95918	0.0861108	0.206459	
0.450218	0.325792	0.0460493	
0.377006	0.3165	0.0209286	
0.99558	0.190015	0.0901151	
0.685314	0.349177	0.0614538	
-0.311651	0.346301	-0.045372	
9.75521e-05	0.384536	-0.0116608	
-0.351378	0.326789	-0.0575584	
0.14766	0.201542	0.00526767	
0.367694	0.25447	0.0220806	
1.10269	0.142577	0.085072	
1.22302	0.325869	0.161354	
0.547588	0.286003	0.0485547	
0.408019	0.324447	0.0464221	
-3.02997e-05	0.22392	-0.0109053	
0.860626	0.301402	0.079973	
-0.446816	0.284004	-0.0564636	
-0.402203	0.268557	-0.0485154	
0.522958	0.294803	0.0618318	
0.0429215	0.328942	-0.00550902	
0.00127368	0.294041	-0.00487431	
-0.000309173	0.309032	-0.0039531	
0.00170083	0.348826	-0.0163749	
0.00106097	0.274719	-0.000226684	
0.00867385	0.306868	0.00111728	
0.000276213	0.280813	-0.000854399	
-5.96716e-05	0.160593	-0.00588472	
0.00162542	0.277083	-0.0132527	
-1.22896	0.311685	-0.141863	
-0.247887	0.355836	-0.00618466	
-0.933806	0.356048	-0.100133	
0.587167	0.386167	0.0811033	
0.0977494	0.330725	0.0176901	
-0.561343	0.245165	-0.0428358	
-2.13137	0.170705	-0.178255	
-0.327813	0.32878	-0.0340382	
-0.364167	0.315546	-0.0282201	
-0.0971344	0.326503	-0.0156092	
0.000674616	0.348833	0.00876231	
-0.396229	0.258637	-0.0251915	
-0.82225	0.324977	-0.0866376	
0.391556	0.303128	0.0529516	
-0.0638861	0.364653	-0.0139907	
0.322624	0.322182	0.0381286	
-0.965341	0.347228	-0.109458	
0.60509	0.341716	0.0773153	
-0.00113156	0.309762	0.00310274	
-0.000228002	0.317756	-0.00154874	
-0.00105709	0.285649	0.0221432	
-0.00155858	0.37076	0.0163552	
-0.000690316	0.304256	-0.00584592	
1.78704	-0.0977115	0.122108	
-1.31919	0.238985	-0.135219	
-0.00231952	0.31157	0.0194907	
-0.000673485	0.328225	-0.00489577	
-0.00034535	0.196091	0.0117657	
2.44138	0.0410476	0.174477	
0.599481	0.166668	0.049695	
0.307867	0.137772	0.0222678	
0.853561	0.0872675	0.0680309	
0.448729	0.164687	0.0350412	
0.00769207	0.162019	-0.00230551	
8.47196e-05	0.178671	-0.00451131	
-0.424266	0.15501	-0.0428032	
-0.000867999	0.0942594	-0.00297044	
0.22559	0.118005	0.0136644	
1.1057	0.0634227	0.0838657	
1.54629	0.1553	0.138866	
0.494204	0.131599	0.0381322	
0.444887	0.153262	0.0389178	
8.47053e-05	0.105705	-0.00322874	
0.663151	0.137689	0.050931	
-0.339925	0.145615	-0.0318847	
-0.503878	0.137938	-0.0477286	
0.446914	0.145556	0.0403091	
0.0843524	0.15682	0.0024134	
0.000370073	0.149259	-0.00195651	
9.24084e-05	0.150428	-0.0014851	
0.000406693	0.159401	-0.00598963	
0.000183167	0.139749	-0.000112296	
0.00521966	0.146433	0.00100714	
5.35551e-06	0.142062	0.000168153	
2.88299e-05	0.074051	-0.00168811	
0.000341223	0.127572	-0.00450123	
-1.57502	0.148773	-0.152089	
-0.166206	0.154662	-0.00985695	
-0.76031	0.168554	-0.0659076	
0.426503	0.1794	0.0446084	
0.102297	0.158862	0.0128708	
-0.450941	0.121818	-0.0328005	
-1.82645	0.0708905	-0.143239	
-0.495058	0.156984	-0.039097	
-0.351117	0.144228	-0.030887	
-0.089435	0.158007	-0.0081945	
3.26444e-05	0.163148	0.00407606	
-0.278744	0.123237	-0.0175133	
-0.632236	0.147646	-0.0568647	
0.364965	0.155723	0.0344987	
0.0539952	0.175486	0.00336146	
0.302545	0.157772	0.027423	
-0.982427	0.165405	-0.0829115	
0.443344	0.175463	0.0425654	
-0.000281983	0.15809	0.000708371	
-0.000104882	0.155868	-0.000497878	
-0.00038034	0.133119	0.00688728	
-0.000475436	0.168973	0.00597679	
-2.07317e-06	0.154695	-0.00201977	
1.3377	-0.0434893	0.0924344	
-1.17423	0.112212	-0.101947	
-0.000650647	0.142562	0.00724386	
-3.79923e-05	0.163006	-0.00270092	
-0.000167995	0.0855236	0.00366772	
2.2392	0.0220325	0.160324	
0.58072	0.0938239	0.0448103	
0.271806	0.0675734	0.0191026	
0.81868	0.0477198	0.0621687	
0.406561	0.0778464	0.0289446	
0.18983	0.075068	0.0141277	
-6.09299e-05	0.0839959	-0.00179675	
-0.461555	0.0774597	-0.0400712	
-0.0662827	0.0485696	-0.00620023	
0.172662	0.0569288	0.0117628	
1.12861	0.03266	0.0846227	
1.73039	0.0754719	0.139428	
0.445517	0.0665898	0.0332084	
0.421542	0.0787313	0.033306	
2.50684e-05	0.0524809	-0.00128176	
0.570283	0.069648	0.0421372	
-0.217556	0.0805239	-0.0178968	
-0.480762	0.0704549	-0.0407569	
0.444077	0.0723014	0.0372066	
0.0875853	0.0801015	0.0052033	
0.000100376	0.0845944	-0.000908427	
-7.49817e-06	0.073117	-0.000540424	
4.2961e-05	0.07966	-0.00214502	
0.000107602	0.0760202	-0.000338775	
0.00393757	0.0752756	0.000564058	
4.40248e-07	0.0705058	-0.000189445	
-2.39671e-06	0.0396914	-0.000623812	
6.32447e-05	0.061953	-0.00166026	
-1.76931	0.0794912	-0.144289	
-0.125794	0.0744982	-0.00817181	
-0.793255	0.0801241	-0.0624029	
0.318639	0.0840392	0.0293468	
0.08123	0.0808752	0.00827019	
-0.445014	0.0667373	-0.0321226	
-1.72474	0.0349332	-0.131065	
-0.58734	0.0759001	-0.0479004	
-0.319714	0.071161	-0.023572	
-0.0187346	0.0821314	-0.00155177	
0.000124547	0.0750866	0.001829	
-0.25906	0.0616378	-0.0174261	
-0.541769	0.073786	-0.0435483	
0.290945	0.0847069	0.024088	
0.045292	0.0908319	0.00334189	
0.294336	0.0767766	0.0243008	
-0.865398	0.0841714	-0.0661539	
0.35675	0.0965031	0.0287939	
-8.97909e-05	0.0879955	0.000382684	
-5.85885e-06	0.0769944	-0.000149661	
-8.99164e-05	0.063761	0.00241032	
-4.13685e-05	0.0833901	0.00199482	
2.40614e-06	0.0821437	-0.000489839	
1.14493	-0.0225809	0.0779654	
-1.08944	0.0599592	-0.0866144	
-0.000140332	0.0681631	0.00231908	
-2.41485e-05	0.0810621	-0.000853969	
-2.78381e-05	0.0427252	0.00140952	
2.16178	0.0146443	0.157355	
0.622127	0.0599034	0.0470292	
0.220253	0.0448626	0.0167477	
0.791714	0.0293922	0.0603763	
0.357184	0.0495497	0.0282705	
0.351704	0.0481709	0.0266548	
1.98461e-05	0.0532283	-0.00100287	
-0.512892	0.0478364	-0.0416936	
-0.136725	0.0314163	-0.0108243	
0.114532	0.0386024	0.0082725	
1.19125	0.021344	0.0903916	
1.97703	0.0477139	0.143819	
0.400813	0.0469831	0.0299007	
0.461699	0.0480391	0.0355484	
8.80088e-06	0.0348107	-0.000516071	
0.545759	0.0490873	0.040516	
-0.131518	0.0516151	-0.010428	
-0.499322	0.0462027	-0.0403351	
0.47086	0.0467742	0.038166	
0.107263	0.052993	0.00735912	
5.07262e-05	0.0535499	-0.000507926	
7.92972e-06	0.0470544	-0.000304512	
2.58223e-05	0.0534963	-0.00110076	
4.53842e-05	0.0485135	-0.000150019	
0.00301761	0.043996	0.000226511	
-1.24479e-07	0.0464073	-0.000166425	
2.29331e-06	0.024895	-0.000255692	
2.7087e-05	0.0433809	-0.000711249	
-2.02647	0.0456574	-0.15418	
-0.0762393	0.0493803	-0.00500369	
-0.799508	0.0512178	-0.0627365	
0.248719	0.0535925	0.0217081	
0.0724534	0.0493156	0.00662364	
-0.43682	0.0442776	-0.0319669	
-1.67564	0.0235342	-0.127836	
-0.695326	0.0474548	-0.0560791	
-0.285966	0.0502003	-0.0209276	
-0.0173196	0.049787	-0.00134473	
-7.60412e-06	0.0481766	0.00102699	
-0.237809	0.0413638	-0.016543	
-0.510536	0.0515901	-0.0399805	
0.258537	0.0551798	0.0204146	
0.0437493	0.058954	0.00332951	
0.27073	0.0498527	0.0215645	
-0.840379	0.055783	-0.0626105	
0.292302	0.0618321	0.0227556	
-4.19384e-05	0.0563136	0.000226676	
-1.78929e-05	0.0494116	-4.0507e-06	
-3.74211e-05	0.0433257	0.00104303	
-2.31343e-05	0.0561585	0.00102519	
1.11627e-05	0.0537075	-0.000154781	
1.05958	-0.0153389	0.0732755	
-1.04298	0.0394759	-0.0815493	
-6.48973e-05	0.0472115	0.0010371	
-1.10829e-05	0.0532558	-0.000346124	
-1.17331e-05	0.0285117	0.000595914	
2.12797	0.0105939	0.157193	
0.663967	0.0416353	0.0498329	
0.184641	0.031604	0.0145761	
0.77476	0.020716	0.0591628	
0.317805	0.0336162	0.0267831	
0.487519	0.0324982	0.0396279	
7.69349e-05	0.0366379	-0.000614887	
-0.568197	0.0329861	-0.0444622	
-0.198832	0.0228432	-0.0151355	
0.0709794	0.0274671	0.00517215	
1.2631	0.0154915	0.096929	
2.22231	0.0326048	0.146706	
0.368868	0.0330209	0.0281815	
0.513077	0.0325213	0.0387064	
1.19921e-05	0.0251087	-0.000197376	
0.534858	0.0341705	0.0402968	
-0.0700129	0.0369232	-0.00537689	
-0.504458	0.032599	-0.0405781	
0.508103	0.0323187	0.0405296	
0.123854	0.0371711	0.00893682	
3.37238e-05	0.0377588	-0.000272553	
2.5222e-05	0.0325396	-0.000182496	
4.68033e-05	0.0375009	-0.000573345	
6.39564e-06	0.0347686	-5.9893e-05	
0.00160537	0.030426	0.000135497	
-2.29871e-06	0.032434	-0.000115712	
7.94896e-06	0.0179674	-9.80933e-05	
3.19114e-05	0.0305904	-0.000291456	
-2.28016	0.0288359	-0.156255	
-0.0391981	0.0350501	-0.00261291	
-0.814165	0.0346439	-0.0645433	
0.191314	0.037328	0.0171886	
0.062061	0.0338577	0.00543822	
-0.43643	0.0319027	-0.0321725	
-1.65106	0.0168847	-0.127254	
-0.791056	0.0310481	-0.06238	
-0.261722	0.0354867	-0.0200999	
-0.0264088	0.0343404	-0.00212334	
-0.000100512	0.0331204	0.000684507	
-0.229231	0.0297762	-0.0160698	
-0.499175	0.036094	-0.0394554	
0.244891	0.0392784	0.0187829	
0.0329855	0.0417589	0.00253775	
0.246859	0.034964	0.0193499	
-0.830459	0.0387535	-0.0608372	
0.245757	0.0433778	0.0183207	
-1.89326e-05	0.0396995	0.000103958	
-4.26512e-06	0.0345579	-3.69429e-06	
-2.5575e-05	0.0310357	0.000457367	
-4.40382e-05	0.039347	0.000543244	
1.49329e-05	0.038396	-1.34098e-05	
1.00486	-0.0112368	0.0706203	
-1.0118	0.0275526	-0.0798152	
-4.46076e-05	0.033537	0.00042632	
6.83253e-07	0.0375976	-0.000132416	
-2.38104e-05	0.0207263	0.000294052	
2.12491	0.00777682	0.159273	
0.702242	0.0304769	0.0541043	
0.156741	0.0226922	0.0125571	
0.769029	0.0150861	0.0596235	
0.293272	0.024624	0.0242877	
0.610493	0.0238974	0.0475101	
-4.00729e-06	0.026563	0.000179419	
-0.625561	0.0241604	-0.0486953	
-0.25314	0.0165775	-0.0194294	
0.0347729	0.0197751	0.00271062	
1.34069	0.0112535	0.104276	
2.46182	0.0234772	0.175627	
0.34701	0.0237191	0.027215	
0.562806	0.0237819	0.0433464	
-4.61998e-06	0.0181155	2.23894e-05	
0.527039	0.0245369	0.0409428	
-0.0151087	0.0269165	-0.00118261	
-0.516346	0.0239106	-0.0409351	
0.549313	0.0236442	0.0440682	
0.13806	0.0269497	0.0107666	
1.12496e-06	0.0276226	7.18951e-05	
7.42785e-07	0.0237146	7.50642e-05	
-1.08734e-05	0.0270988	9.12221e-05	
5.25901e-06	0.0253853	-3.63351e-05	
0.00114932	0.0221571	4.966e-05	
-4.60752e-06	0.0237575	-3.78e-05	
-3.26189e-06	0.0130567	4.35339e-05	
-2.05657e-06	0.0219817	9.09296e-05	
-2.52837	0.0216298	-0.185284	
-0.010386	0.0254903	-0.000895538	
-0.844543	0.0253789	-0.0670049	
0.145775	0.0270013	0.011789	
0.0521616	0.0249114	0.00411113	
-0.444453	0.023821	-0.0342151	
-1.64286	0.0126088	-0.128026	
-0.884649	0.023113	-0.0675495	
-0.245535	0.0258038	-0.019338	
-0.03175	0.0253255	-0.00266039	
4.17994e-06	0.0241248	-0.000222587	
-0.228094	0.0219986	-0.0172821	
-0.491993	0.0262553	-0.0389914	
0.233681	0.0287678	0.018073	
0.0243136	0.0305357	0.00198627	
0.228864	0.0255857	0.0179731	
-0.826174	0.0283648	-0.0628044	
0.208047	0.0317816	0.0156097	
-4.32918e-06	0.0291453	-3.31225e-05	
-1.56432e-06	0.0253548	-1.17933e-05	
9.65518e-06	0.0227363	-3.4928e-05	
1.05873e-05	0.028661	-9.40473e-05	
4.23637e-06	0.0281179	7.47834e-05	
0.967335	-0.00829802	0.0690737	
-0.992968	0.0205803	-0.0784139	
-3.18444e-07	0.0244075	-8.05424e-05	
-6.50835e-06	0.0275574	-6.99575e-06	
6.48447e-06	0.0154392	-7.65416e-05	
				</DataArray>
				<DataArray type="Float64" Name="Time Step Shed" NumberOfComponents="1" Format="ascii">
3	
3	
3	
3	
3	
3	
3	
3	
3	
3	
3	
3	
3	
3	
3	
3	
3	
3	
3	
3	
3	
3	
3	
3	
3	
3	
3	
3	
3	
3	
3	
3	
3	
3	
3	
3	
3	
3	
3	
3	
3	
3	
3	
3	
3	
3	
3	
3	
3	
3	
3	
3	
3	
3	
3	
3	
4	
4	
4	
4	
4	
4	
4	
4	
4	
4	
4	
4	
4	
4	
4	
4	
4	
4	
4	
4	
4	
4	
4	
4	
4	
4	
4	
4	
4	
4	
4	
4	
4	
4	
4	
4	
4	
4	
4	
4	
4	
4	
4	
4	
4	
4	
4	
4	
4	
4	
4	
4	
4	
4	
4	
4	
5	
5	
5	
5	
5	
5	
5	
5	
5	
5	
5	
5	
5	
5	
5	
5	
5	
5	
5	
5	
5	
5	
5	
5	
5	
5	
5	
5	
5	
5	
5	
5	
5	
5	
5	
5	
5	
5	
5	
5	
5	
5	
5	
5	
5	
5	
5	
5	
5	
5	
5	
5	
5	
5	
5	
5	
6	
6	
6	
6	
6	
6	
6	
6	
6	
6	
6	
6	
6	
6	
6	
6	
6	
6	
6	
6	
6	
6	
6	
6	
6	
6	
6	
6	
6	
6	
6	
6	
6	
6	
6	
6	
6	
6	
6	
6	
6	
6	
6	
6	
6	
6	
6	
6	
6	
6	
6	
6	
6	
6	
6	
6	
7	
7	
7	
7	
7	
7	
7	
7	
7	
7	
7	
7	
7	
7	
7	
7	
7	
7	
7	
7	
7	
7	
7	
7	
7	
7	
7	
7	
7	
7	
7	
7	
7	
7	
7	
7	
7	
7	
7	
7	
7	
7	
7	
7	
7	
7	
7	
7	
7	
7	
7	
7	
7	
7	
7	
7	
8	
8	
8	
8	
8	
8	
8	
8	
8	
8	
8	
8	
8	
8	
8	
8	
8	
8	
8	
8	
8	
8	
8	
8	
8	
8	
8	
8	
8	
8	
8	
8	
8	
8	
8	
8	
8	
8	
8	
8	
8	
8	
8	
8	
8	
8	
8	
8	
8	
8	
8	
8	
8	
8	
8	
8	
9	
9	
9	
9	
9	
9	
9	
9	
9	
9	
9	
9	
9	
9	
9	
9	
9	
9	
9	
9	
9	
9	
9	
9	
9	
9	
9	
9	
9	
9	
9	
9	
9	
9	
9	
9	
9	
9	
9	
9	
9	
9	
9	
9	
9	
9	
9	
9	
9	
9	
9	
9	
9	
9	
9	
9	
10	
10	
10	
10	
10	
10	
10	
10	
10	
10	
10	
10	
10	
10	
10	
10	
10	
10	
10	
10	
10	
10	
10	
10	
10	
10	
10	
10	
10	
10	
10	
10	
10	
10	
10	
10	
10	
10	
10	
10	
10	
10	
10	
10	
10	
10	
10	
10	
10	
10	
10	
10	
10	
10	
10	
10	
11	
11	
11	
11	
11	
11	
11	
11	
11	
11	
11	
11	
11	
11	
11	
11	
11	
11	
11	
11	
11	
11	
11	
11	
11	
11	
11	
11	
11	
11	
11	
11	
11	
11	
11	
11	
11	
11	
11	
11	
11	
11	
11	
11	
11	
11	
11	
11	
11	
11	
11	
11	
11	
11	
11	
11	
12	
12	
12	
12	
12	
12	
12	
12	
12	
12	
12	
12	
12	
12	
12	
12	
12	
12	
12	
12	
12	
12	
12	
12	
12	
12	
12	
12	
12	
12	
12	
12	
12	
12	
12	
12	
12	
12	
12	
12	
12	
12	
12	
12	
12	
12	
12	
12	
12	
12	
12	
12	
12	
12	
12	
12	
13	
13	
13	
13	
13	
13	
13	
13	
13	
13	
13	
13	
13	
13	
13	
13	
13	
13	
13	
13	
13	
13	
13	
13	
13	
13	
13	
13	
13	
13	
13	
13	
13	
13	
13	
13	
13	
13	
13	
13	
13	
13	
13	
13	
13	
13	
13	
13	
13	
13	
13	
13	
13	
13	
13	
13	
14	
14	
14	
14	
14	
14	
14	
14	
14	
14	
14	
14	
14	
14	
14	
14	
14	
14	
14	
14	
14	
14	
14	
14	
14	
14	
14	
14	
14	
14	
14	
14	
14	
14	
14	
14	
14	
14	
14	
14	
14	
14	
14	
14	
14	
14	
14	
14	
14	
14	
14	
14	
14	
14	
14	
14	
				</DataArray>
			</CellData>
			<Points>
				<DataArray type="Float64" Name="Position" NumberOfComponents="3" Format="ascii">
1.16103	1.95727	0.0310039	
1.19547	1.03584	-0.0645471	
1.20041	1.46862	-0.058889	
1.19746	1.75166	-0.0364546	
1.20333	0.321718	-0.0669917	
1.20675	0.177225	-0.0577505	
1.20806	0.251682	-0.0558417	
1.20602	0.391965	-0.0639015	
1.19756	1.68112	-0.0396883	
1.19849	1.536	-0.0549661	
1.18482	1.88847	0.00732528	
1.20318	0.107769	-0.0652133	
1.20159	1.32236	-0.0567129	
1.2073	0.463775	-0.0632806	
1.19547	1.60945	-0.0497602	
1.20276	1.25089	-0.0548018	
1.19397	0.895046	-0.0711834	
1.20879	0.750268	-0.0452646	
1.20982	0.606626	-0.0465768	
1.19878	1.10812	-0.0665303	
1.19592	0.964309	-0.0711983	
1.21015	0.534222	-0.0519509	
1.20057	1.18105	-0.0655899	
1.20404	0.822995	-0.0541454	
1.19852	0.035801	-0.0674706	
1.20936	0.67935	-0.0587003	
1.19369	1.81942	-0.0133239	
1.20157	1.39801	-0.0578815	
1.19841	-0.0374656	-0.069232	
1.20185	-1.4672	-0.0551804	
1.20279	-0.322598	-0.0645885	
1.20974	-0.248012	-0.0538829	
1.20394	-0.394228	-0.0647969	
1.20422	-1.68248	-0.0342438	
1.18816	-1.89077	0.0185605	
1.20368	-0.110182	-0.0646163	
1.20452	-1.32455	-0.0543922	
1.20566	-0.464926	-0.0599232	
1.20787	-0.177988	-0.0537934	
1.20154	-1.60892	-0.049441	
1.20596	-1.25116	-0.054722	
1.19658	-0.894172	-0.0676469	
1.20604	-0.75173	-0.055885	
1.20635	-0.608115	-0.0498295	
1.20218	-1.10703	-0.0633748	
1.19647	-1.03734	-0.0628332	
1.19916	-0.96518	-0.0682277	
1.20589	-0.535751	-0.0610177	
1.1945	-1.53794	-0.0629866	
1.20371	-1.17987	-0.0610344	
1.20253	-0.824134	-0.0597216	
1.16318	-1.96349	0.0383953	
1.20263	-1.75162	-0.0257005	
1.20377	-1.39807	-0.057604	
1.20374	-0.679105	-0.0649167	
1.19974	-1.82306	-0.00532117	
1.05881	1.95971	0.0181423	
1.09009	1.03233	0.0374179	
1.08022	1.46003	0.0201857	
1.07102	1.7424	0.00386427	
1.09121	0.32217	0.0464289	
1.09245	0.176476	0.046771	
1.09209	0.251304	0.0485919	
1.09061	0.392007	0.0451282	
1.0646	1.67349	-0.012436	
1.06795	1.53066	-0.00378299	
1.06342	1.88644	0.00616831	
1.09353	0.108986	0.0495445	
1.07954	1.31927	0.0238904	
1.08942	0.459092	0.0425293	
1.07675	1.60101	0.0103559	
1.07975	1.24369	0.0274925	
1.08779	0.894221	0.0375446	
1.08153	0.748827	0.0348868	
1.08647	0.600362	0.0410044	
1.08816	1.10666	0.0362222	
1.08759	0.961919	0.0359193	
1.08879	0.531641	0.0443	
1.08525	1.17714	0.0328943	
1.0871	0.821796	0.0385509	
1.09347	0.0383183	0.0484726	
1.08865	0.676516	0.0458553	
1.06436	1.81622	-0.00429171	
1.08219	1.38872	0.0267022	
1.09535	-0.0373731	0.0530268	
1.07792	-1.46097	0.0214542	
1.0908	-0.323054	0.0486704	
1.08933	-0.249302	0.0497806	
1.08863	-0.394607	0.0463631	
1.0708	-1.67364	0.0108138	
1.06471	-1.89076	0.0253855	
1.09323	-0.10852	0.0511149	
1.08346	-1.31996	0.0363801	
1.08602	-0.466694	0.043326	
1.09142	-0.17614	0.0489094	
1.07697	-1.60105	0.0205476	
1.08162	-1.25079	0.0357305	
1.08621	-0.892197	0.0391698	
1.08327	-0.750192	0.0397025	
1.085	-0.604167	0.0392093	
1.08725	-1.10346	0.0372772	
1.08698	-1.03313	0.0366971	
1.08739	-0.961743	0.0404195	
1.08604	-0.532119	0.0429635	
1.0829	-1.5273	0.0259961	
1.08936	-1.17505	0.0411317	
1.0858	-0.8229	0.0397973	
1.05972	-1.96707	0.0269909	
1.0715	-1.74511	0.01671	
1.08208	-1.39072	0.0329206	
1.08918	-0.678801	0.0470619	
1.06886	-1.81849	0.0196259	
0.822846	1.96243	-0.0190733	
0.756003	1.03389	-0.0603956	
0.759561	1.46411	-0.0728741	
0.762468	1.7511	-0.0750261	
0.755345	0.316939	-0.0446497	
0.754899	0.178425	-0.0383236	
0.75374	0.249305	-0.0395704	
0.753875	0.390441	-0.038701	
0.762042	1.67733	-0.0820838	
0.760764	1.53258	-0.0786124	
0.764539	1.8888	-0.039976	
0.754789	0.106239	-0.0402786	
0.757698	1.31843	-0.0647131	
0.754838	0.464576	-0.0436244	
0.761479	1.60291	-0.0815668	
0.756902	1.24591	-0.0622245	
0.755374	0.892422	-0.0507861	
0.754392	0.748685	-0.0396729	
0.754683	0.60273	-0.0407998	
0.75696	1.10525	-0.0647049	
0.756047	0.96298	-0.057587	
0.755555	0.534355	-0.044317	
0.755753	1.17725	-0.0634851	
0.754539	0.819694	-0.0440214	
0.755356	0.0338668	-0.041325	
0.754649	0.678844	-0.0391467	
0.762632	1.81662	-0.0575536	
0.758847	1.39337	-0.0674056	
0.755115	-0.0366921	-0.0414928	
0.758237	-1.46047	-0.0583993	
0.754091	-0.319507	-0.0363307	
0.753553	-0.251709	-0.032032	
0.753933	-0.393607	-0.0372186	
0.759987	-1.6775	-0.049838	
0.762318	-1.894	-0.0102506	
0.754369	-0.109633	-0.0386149	
0.756515	-1.32109	-0.0513316	
0.752794	-0.465225	-0.0401294	
0.753658	-0.177787	-0.0311204	
0.760109	-1.60423	-0.0575259	
0.756561	-1.24823	-0.0503359	
0.754219	-0.892756	-0.0487077	
0.754447	-0.751309	-0.0424925	
0.754107	-0.611456	-0.041901	
0.756576	-1.10377	-0.0575737	
0.755062	-1.0335	-0.0528567	
0.75441	-0.965007	-0.05073	
0.7545	-0.538126	-0.0460344	
0.759968	-1.53227	-0.0583639	
0.755413	-1.17654	-0.052715	
0.75403	-0.821836	-0.0441063	
0.822266	-1.96742	-0.0100572	
0.759625	-1.74779	-0.0370217	
0.75861	-1.39009	-0.0521448	
0.754348	-0.682711	-0.0421231	
0.760639	-1.82191	-0.0223144	
0.590871	1.96373	-0.041552	
0.495408	1.03461	-0.126383	
0.493811	1.46718	-0.129987	
0.490622	1.75638	-0.113323	
0.495484	0.32012	-0.107437	
0.492419	0.178545	-0.101238	
0.494105	0.24994	-0.106024	
0.494282	0.393979	-0.107746	
0.491854	1.68326	-0.125228	
0.493751	1.53917	-0.13207	
0.486415	1.89285	-0.0743331	
0.493188	0.104662	-0.102273	
0.493348	1.32491	-0.131307	
0.493818	0.463095	-0.104892	
0.493304	1.61263	-0.132173	
0.493957	1.25194	-0.13294	
0.494475	0.892375	-0.108788	
0.493732	0.751872	-0.10178	
0.492849	0.606173	-0.0993674	
0.494829	1.10573	-0.131236	
0.494787	0.964436	-0.118223	
0.495111	0.536301	-0.103243	
0.494629	1.18011	-0.134634	
0.495183	0.820976	-0.108586	
0.494225	0.0329339	-0.100988	
0.493667	0.679149	-0.0987032	
0.488588	1.82212	-0.0932872	
0.493095	1.39627	-0.130795	
0.494641	-0.0364483	-0.101326	
0.492938	-1.4616	-0.112855	
0.493778	-0.322731	-0.0994793	
0.49314	-0.250907	-0.098351	
0.493759	-0.396706	-0.100674	