<VTKFile type="UnstructuredGrid" version="0.1" byte_order="LittleEndian">
	<UnstructuredGrid>
		<Piece NumberOfPoints="1064" NumberOfCells="1064">
			<CellData Scalars="scalars">
				<DataArray type="Float64" Name="Strength" NumberOfComponents="3" Format="ascii">
0.542712	-0.368812	-0.107727	
0.0041281	-1.04362	0.00810294	
-0.0127698	-0.939397	0.0158496	
0.0366271	-0.822141	0.0386176	
-0.00026217	-1.06766	0.0117612	
-0.0232294	-1.00611	0.0189423	
-0.000983717	-1.05345	0.0077199	
-0.0127804	-1.04947	0.0146343	
-0.0459842	-0.851356	0.0949312	
-0.0164606	-0.92014	0.0191958	
0.116969	-0.574339	0.0461699	
0.0100065	-1.02641	-0.000124377	
-0.0182675	-0.972497	0.0290629	
-0.0158123	-1.04327	0.0011892	
-0.0628869	-0.885742	0.0640692	
0.0376362	-0.965412	-0.00258795	
0.0333235	-1.04693	-0.00836717	
0.0074159	-1.01726	0.000620769	
0.00194925	-1.03543	-0.0138872	
-0.0337771	-1.02873	0.0383583	
0.00836961	-1.03083	0.00629979	
-0.0243207	-1.02954	0.00347139	
-0.0263779	-1.04662	0.0396992	
0.0378823	-1.05439	-0.0187948	
0.00140612	-1.05471	0.000260738	
0.0111449	-1.02502	-0.00599542	
-0.0584661	-0.705436	0.104245	
-0.0243003	-0.957033	0.023468	
-0.00373135	-1.05581	-0.0070697	
0.00975828	-0.944092	-0.0172222	
-0.02296	-1.06839	0.00649001	
0.0286882	-1.05522	-0.0225682	
0.00159961	-1.03887	0.00219622	
0.0519011	-0.831045	-0.0935887	
-0.297273	-0.602015	-0.0269613	
0.00221065	-1.02683	-0.0114373	
0.0226916	-0.976515	-0.0281119	
0.0282014	-1.03999	-0.000817285	
0.0103669	-1.00817	-0.0108043	
0.0494857	-0.876333	-0.0609057	
-0.0376505	-0.96651	0.00708928	
-0.0247912	-1.05655	0.00780396	
-0.00268947	-1.10289	-0.00350257	
-0.0268775	-1.02526	0.0204685	
0.0169942	-1.03124	-0.0297918	
0.0270797	-1.04581	-0.028661	
0.00852053	-1.0356	-0.0114663	
0.00315432	-1.07008	0.0108983	
0.0585725	-0.914729	-0.0499997	
0.0303648	-1.04782	-0.046136	
-0.0186004	-1.07444	0.00210033	
-0.317697	-0.370804	-0.0121988	
0.0147409	-0.810282	-0.127888	
0.0281043	-0.96243	-0.0250069	
-0.00917326	-1.05298	0.00681189	
0.055305	-0.68074	-0.195467	
1.50083	0.027586	-0.103869	
0.0484268	-0.192274	-0.00786604	
0.124715	-0.164588	-0.0152746	
0.512992	-0.128686	-0.0603765	
-0.00934555	-0.206423	0.00436454	
-0.047562	-0.206352	0.0119655	
3.62375e-05	-0.204747	0.000866957	
-0.0144386	-0.207948	0.00603207	
0.152286	-0.135891	-0.00824926	
0.147837	-0.160923	-0.0199809	
0.510125	-0.0662359	-0.0502507	
0.047873	-0.210577	-0.0131683	
0.0392478	-0.182256	0.000675867	
0.0246424	-0.205407	-0.00446717	
-0.00145581	-0.150122	0.0145218	
0.24354	-0.188176	-0.0501772	
0.046042	-0.191812	-0.010153	
-0.0657	-0.204931	0.01818	
0.0695721	-0.204137	-0.0179741	
-0.0294907	-0.19412	0.0144145	
0.00235192	-0.191176	0.00199661	
-0.00102282	-0.204884	0.000721269	
-0.000677733	-0.189579	0.0080627	
0.00461247	-0.201583	-0.000879969	
0.00455771	-0.209091	-0.00321055	
0.00208605	-0.204616	-9.41168e-05	
0.00132996	-0.101563	0.0134713	
0.00229187	-0.176747	0.0123716	
-0.0479776	-0.209713	0.00918152	
-0.143613	-0.166497	0.0209249	
-0.0207674	-0.208677	0.0080475	
0.122806	-0.205697	-0.0294167	
0.0315664	-0.21027	-0.00419789	
-0.259909	-0.154463	0.0339876	
-1.24757	-0.143069	0.264586	
-0.0723232	-0.212243	0.0177448	
-0.0295732	-0.182861	-0.00476505	
0.0772493	-0.207926	-0.0168559	
0.000695225	-0.205601	-0.000447581	
-0.172937	-0.158892	0.0184317	
-0.2433	-0.189986	0.0485824	
-0.0896902	-0.19395	0.0213993	
0.0495527	-0.202347	-0.0148867	
-0.086491	-0.205778	0.0232136	
-0.0575516	-0.196972	0.00755642	
0.0282363	-0.192588	-0.012715	
-0.000302972	-0.192259	-0.00359221	
-0.000425307	-0.200992	0.00200666	
0.00126722	-0.15922	-0.0182714	
0.000944207	-0.189821	-0.00893339	
-0.00266861	-0.202813	-0.0014132	
-0.721803	-0.0588371	0.0735804	
-0.361478	-0.151831	0.0699043	
-0.00229608	-0.177169	-0.0137819	
-0.00200768	-0.206179	-0.000216073	
-0.00111536	-0.09956	-0.0317291	
2.50027	0.14552	0.00475975	
0.0869246	-0.0589532	0.00513388	
0.244585	-0.0427319	0.0224733	
0.903791	0.00172801	0.0781259	
-0.0256153	-0.0692909	-0.000212349	
-0.0594795	-0.0706373	-0.0017995	
-6.80864e-05	-0.0688555	-0.000215683	
-0.0289995	-0.0706833	-0.000386879	
0.287948	-0.0271078	0.0415699	
0.271341	-0.0396868	0.0398158	
0.871015	0.0329384	0.00488835	
0.0766603	-0.0732152	0.00104421	
0.0876326	-0.0540971	0.00935966	
0.041022	-0.070638	0.00131577	
-0.000169903	-0.0410034	0.00882414	
0.417431	-0.0504731	0.0250999	
0.0936437	-0.0598679	0.00385752	
-0.101512	-0.0700784	-0.000505594	
0.132494	-0.0680144	0.00227331	
-0.0388261	-0.061084	0.00125163	
0.000331721	-0.0605445	0.00150364	
0.000206047	-0.0710027	0.00042802	
0.000657962	-0.0589762	0.00389657	
0.000265068	-0.0658791	0.000626053	
0.00988901	-0.0725	-0.000277013	
0.000157624	-0.0693807	0.000800443	
0.00135948	-0.0256894	0.00826958	
0.000574837	-0.0535209	0.00584289	
-0.073038	-0.0725079	-0.00164131	
-0.282036	-0.0412821	-0.00619715	
-0.0304382	-0.069819	0.000601374	
0.201269	-0.0684766	0.00159285	
0.0526655	-0.0700629	0.00274442	
-0.485553	-0.0233193	-0.0403975	
-2.19684	0.0842108	0.0304757	
-0.138413	-0.0734599	-0.0013677	
-0.0724908	-0.0544462	-0.00548108	
0.111032	-0.068733	0.00489452	
8.08643e-05	-0.0709987	0.000580626	
-0.318028	-0.0333297	-0.027094	
-0.417668	-0.0496759	-0.013888	
-0.16678	-0.0591025	-0.00573415	
0.0814013	-0.0637081	0.000624421	
-0.143789	-0.0667367	-0.00340062	
-0.110855	-0.0594757	-0.00647891	
0.0422297	-0.0600731	-0.00115447	
-0.000293804	-0.0603482	-0.00217011	
-3.56209e-05	-0.0646249	0.000597664	
-0.000422344	-0.0451673	-0.00822151	
-0.000827511	-0.0589931	-0.00424899	
-0.000292697	-0.0645958	-0.0012369	
1.16711	-0.030397	-0.0486331	
-0.662479	-0.00341062	-0.0236304	
-0.000928398	-0.0534766	-0.00585188	
-0.000173127	-0.0660904	-0.000318671	
-0.00161733	-0.0283691	-0.00456392	
3.29454	0.0748211	0.172753	
0.136296	0.080836	-0.0107968	
0.325095	0.0899078	-0.00613139	
1.11973	0.108133	-0.0158519	
-0.021215	0.0767867	0.000580997	
-0.0816288	0.0762612	-0.0065868	
0.000211558	0.0759811	-0.001073	
-0.0358893	0.0774312	0.00556976	
0.359373	0.0826644	-0.0131897	
0.361735	0.0840291	-0.000283615	
1.09379	0.0681998	0.0206493	
0.114906	0.0732258	-0.00757441	
0.106152	0.0897566	0.00759856	
0.0578494	0.0786043	0.00771691	
-0.00015497	0.0779561	-0.0158665	
0.577888	0.108696	0.055444	
0.152978	0.0789506	-0.012722	
-0.128826	0.0811143	0.00255493	
0.183111	0.0783343	0.00888255	
-0.0521739	0.0849521	-0.0170242	
0.00147712	0.0815508	-0.0140844	
8.31803e-05	0.0780136	0.00390163	
-0.00103387	0.0861849	-0.00639985	
-4.62903e-05	0.0809615	-0.00410314	
0.0176939	0.075411	-0.000821861	
-8.5954e-05	0.0789805	0.00334658	
-0.00255118	0.0497481	-0.0148136	
-0.00330161	0.0846142	0.000777333	
-0.0985898	0.0741646	0.00600947	
-0.377345	0.094678	0.00979971	
-0.0711691	0.0752956	-0.00903629	
0.281322	0.0740112	0.0208728	
0.0653248	0.0771701	-0.00905294	
-0.57333	0.0944299	-0.0308085	
-2.78702	0.0928402	-0.135278	
-0.194529	0.0710188	0.0038643	
-0.0865578	0.090774	-0.00325856	
0.151912	0.0770409	-0.014154	
-0.000119938	0.0738276	-0.000393396	
-0.422186	0.0861345	-0.0319459	
-0.576129	0.107183	-0.0448854	
-0.247452	0.0849421	0.0144554	
0.0969113	0.0818875	0.0011267	
-0.214232	0.0805833	-0.0122459	
-0.160142	0.0860762	0.00861893	
0.0555202	0.084886	0.0147843	
-0.00124796	0.0839934	0.0127783	
-0.000650407	0.0784134	0.000992668	
-2.62254e-05	0.0825239	0.00879104	
0.000864344	0.0871135	0.00856734	
0.00063926	0.0841949	0.00140628	
1.59204	-0.0273775	0.0408114	
-0.804552	0.0990862	-0.0253145	
0.00380143	0.0857476	0.0017657	
0.000196271	0.0815342	-0.00133551	
0.0016398	0.0482068	0.00699376	
5.70473	-0.0821728	0.286354	
-1.99982	-0.526575	-0.241191	
0.580468	-0.397495	0.315724	
1.56522	-0.145375	0.0638542	
1.93974	-0.480068	0.153478	
-1.77794	-0.564707	-0.111276	
-0.00213316	-0.554034	-0.0113791	
-0.629374	-0.289613	0.0562138	
0.625689	-0.108084	0.0583074	
1.12735	-0.244949	0.194702	
-0.253411	-0.267063	0.017584	
-0.0983078	-0.36713	-0.0318857	
3.03593	-0.563579	0.30941	
0.745522	-0.425243	0.149707	
-0.00851486	-0.0999974	0.0547405	
0.792907	-0.558331	0.255573	
-0.962589	-0.280157	-0.162691	
0.162503	-0.121918	0.0200381	
1.44239	-0.292603	0.175831	
-0.317852	-0.528307	-0.103515	
0.0319434	-0.247071	-0.109931	
-0.0247162	-0.297377	0.0943958	
-0.0153604	-0.552578	0.0564536	
0.00688507	-0.142222	-0.0205058	
0.0186806	-0.340156	0.0177869	
-0.00808304	-0.176447	0.0370225	
-0.000767221	-0.0796525	0.0190134	
-0.0276016	-0.169659	0.130351	
0.0896391	-0.340588	0.031346	
-0.392431	-0.49741	-0.337262	
-2.33037	-0.51781	-0.222519	
0.422116	-0.523428	-0.0509478	
0.0160103	-0.27889	-0.0656961	
-1.0251	-0.250418	-0.156874	
-3.63637	-0.47031	-0.302844	
1.29694	-0.37775	0.0844512	
-2.72256	-0.56871	-0.241449	
0.192249	-0.264099	-0.0233658	
0.00384376	-0.5342	0.0213112	
-1.14908	-0.291072	-0.222284	
-0.775249	-0.621145	-0.143172	
0.672428	-0.282	0.0918321	
-1.22773	-0.39861	-0.100072	
0.35409	-0.350425	-0.0110417	
1.4436	-0.624777	0.141272	
0.964103	-0.472958	0.198894	
-0.0301586	-0.290924	0.0742546	
0.00897822	-0.269796	-0.0269921	
0.0415624	-0.253895	-0.142942	
0.0021289	-0.600173	0.0066176	
-0.00478999	-0.193468	0.0101492	
2.12222	0.167255	0.037401	
-1.24323	-0.239955	-0.126337	
0.0372368	-0.256256	-0.144153	
0.00622639	-0.342544	-0.0397952	
0.00574995	-0.1609	-0.0451906	
4.42988	0.25608	0.295945	
0.0539849	0.570636	-0.0801838	
0.547857	0.668965	-0.0325915	
1.26073	0.44955	0.146772	
1.1864	0.744354	0.0805286	
-0.899561	0.760971	-0.187668	
-0.00578648	0.736008	-0.0480035	
-0.29802	0.616742	-0.113215	
0.371959	0.426834	-0.0289583	
0.650438	0.533117	0.000666046	
1.14763	0.498286	0.0742406	
0.794918	0.626588	0.14266	
0.711381	0.606978	0.0330458	
0.474373	0.677662	0.0390578	
-0.00696973	0.444458	-0.0961346	
1.24752	0.840236	0.08537	
-0.62205	0.536561	-0.138779	
-0.259759	0.489333	-0.0425731	
0.787916	0.594153	0.129208	
-0.167026	0.766624	-0.162744	
0.0136444	0.537843	-0.0445187	
-0.013715	0.617366	-0.0553951	
0.00225009	0.795886	-0.115812	
0.01353	0.496854	0.0116888	
0.014955	0.539163	0.00778205	
-0.000951286	0.5395	-0.00355235	
-0.00254	0.356122	-0.0533777	
0.00434867	0.539615	-0.0686779	
-0.782432	0.558495	-0.0840411	
-0.448077	0.693608	0.0391702	
-1.4126	0.712769	-0.20224	
0.933481	0.717507	0.107683	
0.0756943	0.595531	0.0249652	
-0.731435	0.426116	-0.0294711	
-2.89146	0.639735	-0.252924	
-0.0304508	0.614951	0.0742993	
-0.437056	0.61735	-0.0349874	
-0.164932	0.582934	-0.0187573	
0.00943524	0.766782	0.0245116	
-0.681592	0.497985	0.0094194	
-1.18929	0.849714	-0.064816	
0.427793	0.556456	0.0573306	
-0.328547	0.630246	-0.0935258	
0.329662	0.659143	0.0547453	
-0.545577	0.789859	0.00336897	
0.837485	0.571668	0.228725	
-0.0114721	0.550795	0.0252215	
-0.00120776	0.613491	0.0423034	
0.0143343	0.528735	0.12112	
0.00442072	0.803503	0.112135	
-0.0135664	0.522801	-0.043549	
3.03328	-0.281656	0.195245	
-1.4868	0.474028	-0.203253	
-0.00722633	0.554865	0.0771893	
-0.00939869	0.631895	-0.013697	
-0.00182867	0.421604	0.0700217	
2.95864	0.0884344	0.213526	
0.447269	0.326478	0.0657764	
0.377296	0.31661	0.0126042	
0.991228	0.196854	0.118977	
0.679465	0.355295	0.0864537	
-0.307813	0.345552	-0.0702951	
-0.00114193	0.383898	-0.0249675	
-0.344126	0.324605	-0.0988508	
0.147227	0.201932	8.81674e-05	
0.366848	0.256396	0.0115437	
1.10183	0.143517	0.094306	
1.20541	0.326219	0.261922	
0.547656	0.283283	0.0620048	
0.40441	0.324714	0.0701365	
0.000225754	0.222835	-0.0245523	
0.857782	0.30054	0.10876	
-0.440012	0.286235	-0.0891624	
-0.3966	0.27109	-0.0739332	
0.519369	0.29437	0.0884512	
0.0463015	0.327981	-0.0190535	
0.00306399	0.293849	-0.0112835	
-0.000173028	0.308857	-0.0111446	
0.00701427	0.347465	-0.0341651	
0.00271763	0.274704	-0.00120545	
0.00902528	0.306856	0.00140247	
0.00150906	0.280805	-0.001646	
0.000400401	0.160117	-0.0136838	
0.00614997	0.275743	-0.0296887	
-1.21268	0.324699	-0.227393	
-0.249114	0.354804	0.0130978	
-0.924478	0.36237	-0.151162	
0.581251	0.378867	0.138322	
0.0957479	0.3304	0.0302185	
-0.559181	0.247491	-0.0559457	
-2.12902	0.169563	-0.205679	
-0.323409	0.331134	-0.0496726	
-0.365238	0.31385	-0.0330266	
-0.0976563	0.325605	-0.026993	
0.00264791	0.348513	0.017076	
-0.394599	0.260572	-0.0304773	
-0.818432	0.321609	-0.126363	
0.384931	0.304394	0.0846967	
-0.06494	0.363704	-0.0274	
0.318225	0.324043	0.055378	
-0.958787	0.344483	-0.162775	
0.595264	0.340206	0.137295	
-0.00299132	0.309675	0.0074466	
-0.000882135	0.317753	-0.00172346	
-0.00172432	0.283022	0.044531	
-0.0064364	0.369509	0.0339528	
-0.00291981	0.30399	-0.0136741	
1.78686	-0.0964829	0.125975	
-1.31105	0.24372	-0.193605	
-0.00802712	0.308689	0.0459118	
-0.00230478	0.328043	-0.0117276	
-0.00199215	0.194685	0.0261745	
2.44085	0.0421096	0.181807	
0.598121	0.166403	0.0648105	
0.307658	0.13834	0.0217277	
0.852233	0.0904135	0.0796948	
0.447628	0.167027	0.0379933	
0.00750362	0.161901	-0.00681023	
-0.000542541	0.178429	-0.010294	
-0.422386	0.152094	-0.0657826	
-0.000824793	0.0940307	-0.00719689	
0.225555	0.11853	0.00900507	
1.10525	0.0640573	0.0892359	
1.53714	0.159254	0.215361	
0.493606	0.132553	0.0424391	
0.443323	0.154613	0.0499275	
0.00012092	0.105441	-0.00813829	
0.662252	0.139337	0.0577936	
-0.338072	0.146631	-0.0444583	
-0.501796	0.139264	-0.0632972	
0.445733	0.145635	0.0516122	
0.0850071	0.156455	-0.00314407	
0.00104614	0.1492	-0.00450702	
0.000221162	0.150383	-0.003954	
0.00129606	0.158815	-0.0148635	
0.000562564	0.139746	-0.000570246	
0.00536345	0.146426	0.00112292	
0.000172545	0.14206	0.000665182	
9.30748e-05	0.0739463	-0.00427656	
0.000916063	0.12717	-0.0110406	
-1.5673	0.158314	-0.210843	
-0.166369	0.154722	-0.00522099	
-0.757615	0.172535	-0.0842136	
0.425007	0.176032	0.0669463	
0.101813	0.158492	0.0195052	
-0.450096	0.123816	-0.0367907	
-1.82539	0.0709827	-0.156366	
-0.492931	0.162268	-0.0441696	
-0.350408	0.144123	-0.0385509	
-0.0891754	0.158069	-0.00972901	
0.000883257	0.162898	0.00985033	
-0.278213	0.124415	-0.0177213	
-0.630567	0.14761	-0.073221	
0.362718	0.156601	0.0505442	
0.0532897	0.17572	0.00207554	
0.30095	0.158937	0.0366878	
-0.980059	0.165057	-0.107999	
0.440236	0.175726	0.0668628	
-0.00100844	0.158065	0.00270539	
-0.000373235	0.155867	-0.000280367	
-0.0010609	0.132191	0.0170853	
-0.00157997	0.168454	0.0144411	
-0.000350664	0.154603	-0.00570112	
1.3374	-0.042936	0.0972205	
-1.17098	0.117257	-0.129887	
-0.00190161	0.141528	0.0185244	
-0.000290625	0.162891	-0.00667827	
-0.000573579	0.0851284	0.00897808	
2.23898	0.0224437	0.16368	
0.579965	0.0947664	0.0520223	
0.271745	0.0683241	0.0172172	
0.81809	0.050909	0.0672049	
0.406323	0.0794122	0.0279673	
0.18924	0.0768717	0.0122232	
-0.000603878	0.0838872	-0.00459266	
-0.460681	0.0755118	-0.0520198	
-0.0662554	0.0481916	-0.00885315	
0.17269	0.0573169	0.00919448	
1.12846	0.0333249	0.0863622	
1.72376	0.080149	0.203958	
0.445175	0.0683781	0.0341377	
0.420823	0.0801936	0.0384661	
1.21956e-05	0.0523676	-0.00367639	
0.569857	0.0719146	0.0440343	
-0.216973	0.080854	-0.022788	
-0.479834	0.0712436	-0.0493507	
0.443331	0.0730316	0.0440234	
0.0875928	0.0802147	0.00281459	
0.000298774	0.084555	-0.00273388	
-9.50527e-05	0.0731	-0.0016827	
9.94492e-05	0.0794594	-0.006046	
0.000390539	0.0760102	-0.00125548	
0.00416886	0.0752634	0.000589442	
5.83281e-05	0.0705054	-0.000395596	
-2.35188e-05	0.0396509	-0.00190093	
0.000107131	0.0617687	-0.00505592	
-1.76452	0.0945101	-0.187199	
-0.125823	0.0747374	-0.00496721	
-0.791933	0.0835819	-0.0736182	
0.317544	0.0818888	0.0437959	
0.0811357	0.0805491	0.0116568	
-0.44442	0.0696834	-0.0340515	
-1.72441	0.0357013	-0.135238	
-0.585825	0.0845823	-0.0516895	
-0.319476	0.0724703	-0.0228107	
-0.0186312	0.0821507	-0.00179126	
0.00082298	0.0749442	0.00490916	
-0.258737	0.0630799	-0.0170869	
-0.540856	0.0760504	-0.0504591	
0.290297	0.0858262	0.027623	
0.0450114	0.0909819	0.00302121	
0.293696	0.0775117	0.0291834	
-0.863857	0.0856026	-0.0824551	
0.355776	0.096522	0.0389721	
-0.000334582	0.0879877	0.00120685	
-8.20407e-05	0.0769948	-0.000112464	
-0.000311192	0.0634406	0.00680929	
-0.000111048	0.0832341	0.00547764	
-0.000126696	0.0821256	-0.00180404	
1.14482	-0.0223497	0.0797357	
-1.08807	0.0675089	-0.0976583	
-0.000367311	0.0678422	0.00699475	
-9.44786e-05	0.0810259	-0.00258041	
-5.80587e-05	0.0425619	0.00398837	
2.16169	0.0150753	0.158625	
0.621651	0.0610329	0.0513903	
0.220204	0.0454519	0.015709	
0.791359	0.0318904	0.0634489	
0.356961	0.0512236	0.0279493	
0.351364	0.0505995	0.0264394	
-0.000283372	0.0531575	-0.00293264	
-0.512222	0.0462284	-0.0505236	
-0.136672	0.0309361	-0.0126582	
0.114514	0.0389163	0.00691691	
1.19115	0.021901	0.0912679	
1.97279	0.0530484	0.191197	
0.400663	0.0483046	0.0296646	
0.461196	0.0493006	0.0398462	
3.02058e-06	0.034771	-0.00174717	
0.545572	0.0508667	0.0406368	
-0.131266	0.0517145	-0.0127709	
-0.498786	0.0468268	-0.0456381	
0.470199	0.0474287	0.0447022	
0.107237	0.0531956	0.00615742	
0.000123067	0.0535217	-0.00183752	
-2.50789e-06	0.0470394	-0.00126693	
5.42141e-05	0.0533722	-0.00382302	
0.000207635	0.0485074	-0.000822919	
0.00308984	0.043992	0.000251172	
3.59898e-05	0.0464067	-0.00042004	
-9.57151e-06	0.0248784	-0.000956279	
2.34974e-05	0.04332	-0.00241537	
-2.02281	0.0557432	-0.192638	
-0.0762586	0.0495194	-0.00289286	
-0.798825	0.0541221	-0.0683669	
0.248759	0.0512256	0.0263545	
0.0723798	0.0490935	0.00871352	
-0.436478	0.0467842	-0.0329613	
-1.6754	0.0242488	-0.130362	
-0.693949	0.0535222	-0.0662614	
-0.285963	0.051156	-0.0184248	
-0.0173006	0.0498014	-0.00106133	
0.000334235	0.0480809	0.00321008	
-0.237619	0.0425275	-0.0162664	
-0.509997	0.0535937	-0.0438675	
0.258147	0.0556286	0.0237301	
0.0436357	0.0590552	0.00299796	
0.27037	0.0503608	0.0245546	
-0.839579	0.0578344	-0.0706086	
0.291811	0.0617208	0.0285032	
-0.000154671	0.0563079	0.000883934	
-6.96473e-05	0.0494125	5.20831e-05	
-0.000183527	0.0431822	0.00367796	
-4.98862e-05	0.0560633	0.00344411	
-3.44622e-05	0.0537019	-0.000860304	
1.05955	-0.015288	0.0738497	
-1.04222	0.0458677	-0.0874657	
-0.000197882	0.0470533	0.00400331	
-5.62603e-05	0.0532438	-0.00123208	
8.08456e-06	0.0284442	0.00205513	
2.12793	0.0108405	0.157435	
0.663959	0.041904	0.0491253	
0.184692	0.0317093	0.013558	
0.774521	0.0217249	0.0614604	
0.318064	0.0350677	0.0209668	
0.486612	0.0334229	0.0485372	
3.85301e-05	0.0365893	-0.00191311	
-0.567875	0.0321841	-0.0484303	
-0.198737	0.022573	-0.0165828	
0.0710128	0.0275128	0.00436881	
1.26306	0.0157844	0.0972368	
2.22048	0.034435	0.169278	
0.368839	0.0333108	0.0279373	
0.512721	0.032959	0.0423695	
4.87308e-05	0.0250892	-0.0010116	
0.534775	0.0346338	0.0405824	
-0.0698805	0.0369379	-0.00676426	
-0.504103	0.0326137	-0.0443189	
0.508105	0.0326094	0.0397953	
0.123931	0.0372046	0.0075143	
0.0001311	0.0377385	-0.00127463	
6.6661e-05	0.0325285	-0.000888635	
0.000168864	0.0374253	-0.00241414	
5.30216e-05	0.0347634	-0.000680794	
0.0015751	0.0304287	0.000156413	
1.9742e-05	0.0324331	-0.000389953	
2.41783e-05	0.0179587	-0.000566416	
9.15021e-05	0.0305622	-0.00132826	
-2.27679	0.0257726	-0.197685	
-0.0392901	0.035028	-0.00099735	
-0.813746	0.0356296	-0.0683918	
0.191391	0.0361761	0.0184912	
0.0619542	0.0337548	0.00699873	
-0.436293	0.0329398	-0.0327256	
-1.65097	0.0171988	-0.128248	
-0.789774	0.0323909	-0.0757154	
-0.261713	0.0356314	-0.019775	
-0.0264106	0.0343482	-0.00196683	
-0.000103333	0.0330479	0.00220095	
-0.229167	0.0302179	-0.0160028	
-0.498941	0.0364049	-0.0416853	
0.244491	0.0393216	0.0231763	
0.0329653	0.0417855	0.00234522	
0.246656	0.0351564	0.021257	
-0.830065	0.0388208	-0.0652754	
0.245441	0.043404	0.0219239	
-8.14133e-05	0.0396952	0.000665576	
-1.74293e-05	0.0345592	4.37819e-05	
-8.85965e-05	0.0309746	0.0019776	
-0.000155342	0.0392919	0.00211619	
6.47271e-06	0.0383961	-0.000308553	
1.00485	-0.0112342	0.070714	
-1.01143	0.0302728	-0.0829152	
-0.000177418	0.0334549	0.00236702	
9.70823e-06	0.0375936	-0.000648956	
-6.10422e-05	0.0206856	0.00130386	
2.12485	0.00798551	0.159141	
0.70224	0.03135	0.0527623	
0.156786	0.0227991	0.0116116	
0.768861	0.0160989	0.0608749	
0.293581	0.0268614	0.0166576	
0.610036	0.026901	0.0508407	
-2.79076e-05	0.0265317	-0.00139134	
-0.625208	0.0228619	-0.0528446	
-0.253069	0.01629	-0.0203467	
0.0347984	0.0197957	0.00215566	
1.34066	0.0114681	0.104076	
2.46183	0.0302713	0.170342	
0.347005	0.0241855	0.0264908	
0.562512	0.0246603	0.045858	
2.3671e-05	0.0181082	-0.000547075	
0.526998	0.0252795	0.0404316	
-0.0150481	0.0269091	-0.00191215	
-0.516054	0.023933	-0.0438621	
0.549054	0.0242858	0.0462031	
0.138109	0.0271461	0.00941219	
7.11919e-05	0.0276073	-0.000982454	
2.62021e-05	0.0237093	-0.000580301	
7.39941e-05	0.0270571	-0.00156605	
5.88124e-05	0.0253803	-0.00056494	
0.00113527	0.0221587	0.000120721	
1.37618e-05	0.0237567	-0.000314208	
7.73751e-06	0.0130507	-0.000296607	
5.00171e-05	0.0219655	-0.000892367	
-2.5267	0.022721	-0.203064	
-0.0104688	0.0254688	0.000529355	
-0.844498	0.0277136	-0.065544	
0.145998	0.0254212	0.0123676	
0.0520723	0.0247986	0.00560146	
-0.444381	0.0250734	-0.0338626	
-1.64277	0.012807	-0.128376	
-0.883259	0.0262416	-0.0820049	
-0.245566	0.0261094	-0.018233	
-0.0317469	0.0253516	-0.00241077	
-1.66624e-05	0.0240745	0.00166881	
-0.228086	0.0225059	-0.0164977	
-0.491802	0.0269832	-0.0403146	
0.23339	0.0287595	0.0212756	
0.024305	0.0305558	0.00176046	
0.22871	0.025741	0.0193627	
-0.826004	0.0292057	-0.0635946	
0.207874	0.0316696	0.0177194	
-4.68167e-05	0.0291429	0.000477885	
-9.36396e-06	0.0253558	0.000124032	
-4.82155e-05	0.0227047	0.00124151	
-6.72485e-05	0.0286314	0.00137242	
9.77575e-06	0.0281188	-0.000185024	
0.96734	-0.00829776	0.0690395	
-0.992634	0.0235949	-0.0809032	
-0.000104804	0.0243644	0.0014958	
-2.73048e-06	0.027557	-0.000322235	
-2.71778e-05	0.0154168	0.000831425	
2.14493	0.0061616	0.162728	
0.739549	0.0238932	0.0572813	
0.13605	0.0171792	0.0105774	
0.774476	0.0124828	0.061528	
0.279198	0.0196543	0.0158674	
0.722144	0.0186613	0.0785859	
1.8474e-05	0.0197594	-0.0010359	
-0.679604	0.0173876	-0.0542384	
-0.302939	0.012377	-0.0241551	
0.00347788	0.0149708	-0.000126933	
1.41707	0.00869661	0.111184	
2.69018	0.0220209	0.187208	
0.333205	0.018165	0.0258062	
0.608437	0.0186844	0.0490358	
1.47397e-05	0.013754	-0.000335863	
0.522464	0.0190219	0.0403986	
0.0383851	0.0202791	0.0025455	
-0.531325	0.0179725	-0.0444381	
0.590417	0.0182903	0.0515699	
0.151737	0.02048	0.0110598	
4.49209e-05	0.0208909	-0.000671175	
2.68827e-05	0.0177926	-0.000457732	
4.87674e-05	0.0203351	-0.00105547	
4.45691e-05	0.0190367	-0.000436098	
0.000298558	0.016911	4.09969e-05	
1.3155e-05	0.0178125	-0.000268785	
3.31224e-06	0.0101372	-0.000152321	
2.9803e-05	0.0165118	-0.000545984	
-2.76411	0.0164573	-0.215554	
0.01279	0.0191771	0.00184573	
-0.885339	0.0210895	-0.0658681	
0.105975	0.0192824	0.0087482	
0.0421353	0.0187352	0.00433614	
-0.458782	0.0193906	-0.035368	
-1.65338	0.00963775	-0.130618	
-0.97377	0.0208764	-0.0833716	
-0.236462	0.0195668	-0.0169023	
-0.0342041	0.019212	-0.00261458	
-3.41523e-05	0.0179459	0.00118259	
-0.231075	0.0171814	-0.0170655	
-0.486933	0.020321	-0.0397491	
0.222078	0.0219209	0.0201001	
0.0147893	0.0231151	0.00111049	
0.21379	0.0193837	0.0178276	
-0.82467	0.0221119	-0.0629403	
0.17728	0.0240505	0.0146612	
-3.30663e-05	0.0222028	0.000344888	
-6.02998e-06	0.0191034	8.41685e-05	
-3.2529e-05	0.0172143	0.000815332	
-4.25641e-05	0.0215692	0.00091052	
3.8768e-06	0.0212994	-6.95355e-05	
0.944131	-0.00647752	0.0683679	
-0.978949	0.0182526	-0.0798378	
-6.81063e-05	0.0183691	0.000959634	
-6.94368e-06	0.0207973	-0.000159648	
-1.69964e-05	0.0116945	0.000510049	
2.18003	0.0048487	0.167147	
0.777748	0.0180423	0.0597657	
0.117444	0.0133648	0.00928	
0.783206	0.00922512	0.0622752	
0.265658	0.0153192	0.0161334	
0.83127	0.0111404	0.088593	
6.83423e-05	0.0155772	-0.000744492	
-0.73479	0.0139715	-0.0533205	
-0.351167	0.00980054	-0.0278039	
-0.026155	0.0117294	-0.00229197	
1.49757	0.006749	0.119074	
2.92061	0.012986	0.208729	
0.324223	0.0139058	0.0253952	
0.656345	0.0141631	0.0522515	
1.23852e-05	0.0107486	-0.00019193	
0.519942	0.0144524	0.0403662	
0.0870826	0.0159214	0.00643581	
-0.549169	0.0140444	-0.0456068	
0.633524	0.0140923	0.0518964	
0.165655	0.0158891	0.0122706	
4.5852e-05	0.0164183	-0.000499174	
3.02943e-05	0.0140013	-0.00032805	
5.37631e-05	0.0159623	-0.000726241	
2.35789e-05	0.0149929	-0.000316452	
-0.000547098	0.0132196	-3.047e-05	
1.11415e-05	0.0140482	-0.00021221	
3.90242e-06	0.00784452	-6.49542e-05	
2.75519e-05	0.0129584	-0.000331261	
-3.00381	0.00398302	-0.2291	
0.0331037	0.0149917	0.00325219	
-0.926855	0.016343	-0.0691323	
0.0705147	0.0154757	0.00604036	
0.0331514	0.0147595	0.00341206	
-0.478573	0.0148077	-0.0371217	
-1.67225	0.00755265	-0.13327	
-1.06328	0.0112956	-0.0950579	
-0.230709	0.0152037	-0.0169406	
-0.0383931	0.0150981	-0.00298785	
-8.77001e-05	0.014199	0.000886111	
-0.234213	0.0132511	-0.0174512	
-0.484758	0.0153375	-0.0393719	
0.214201	0.0171506	0.0185057	
0.00741181	0.0181994	0.00054987	
0.200872	0.0152416	0.0165272	
-0.827969	0.0166312	-0.06388	
0.150984	0.0189617	0.0122274	
-2.57365e-05	0.0174503	0.000244581	
-9.82753e-06	0.0150849	0.000106637	
-3.25456e-05	0.0135475	0.000539289	
-4.86725e-05	0.0169049	0.000610836	
3.88712e-06	0.0167812	-3.40706e-06	
0.929381	-0.00513118	0.0681411	
-0.971742	0.0133311	-0.0790934	
-5.21308e-05	0.0144121	0.00062719	
-4.30745e-07	0.0164352	-9.70364e-05	
-1.91124e-05	0.00927835	0.000319608	
2.22287	0.00396915	0.17215	
0.819249	0.0148666	0.0643441	
0.10301	0.0108477	0.00828284	
0.79261	0.00756306	0.0630745	
0.255209	0.0124541	0.0173019	
0.936879	0.0101192	0.0853346	
5.60299e-05	0.0126382	-0.000542595	
-0.790387	0.0112911	-0.0621979	
-0.397552	0.00802423	-0.0313557	
-0.0521192	0.00949918	-0.00426642	
1.58282	0.00556261	0.126703	
3.15239	0.0113163	0.211025	
0.316586	0.0113327	0.024872	
0.704054	0.0115993	0.055788	
7.01501e-06	0.00877618	-0.00011061	
0.519374	0.0117709	0.040747	
0.130434	0.0129081	0.00977332	
-0.569074	0.0113894	-0.0468858	
0.67763	0.0115138	0.0568149	
0.177725	0.0129619	0.013621	
2.86738e-05	0.0132309	-0.000353987	
2.01933e-05	0.0113527	-0.000233962	
3.15278e-05	0.0128838	-0.000497246	
2.08407e-05	0.0121713	-0.000251203	
-0.00124558	0.0107568	-7.91588e-05	
8.4837e-06	0.0114297	-0.000167355	
6.37954e-07	0.00636167	-2.06278e-05	
1.57584e-05	0.0104095	-0.0002031	
-3.24361	0.00224534	-0.234905	
0.0514639	0.0121244	0.00451816	
-0.969732	0.0135663	-0.0748786	
0.0379413	0.0126777	0.00376023	
0.0252106	0.0119506	0.00258872	
-0.496598	0.0121294	-0.0387846	
-1.69715	0.0062341	-0.136125	
-1.15192	0.00914019	-0.0892688	
-0.226536	0.0121276	-0.0179274	
-0.0422954	0.0122222	-0.00334914	
-7.28833e-05	0.0115197	0.000651194	
-0.242226	0.0108348	-0.0182404	
-0.483781	0.0124141	-0.0393285	
0.208799	0.0138753	0.0166733	
-0.000174677	0.0146686	-4.25933e-05	
0.191657	0.0123183	0.01573	
-0.836534	0.0135442	-0.0643266	
0.127901	0.0152096	0.0102674	
-1.79865e-05	0.0140315	0.000170745	
-6.91168e-06	0.0121969	8.85519e-05	
-2.02582e-05	0.0109031	0.000358054	
-2.98924e-05	0.0136171	0.000414869	
1.66035e-06	0.0135228	1.72096e-05	
0.921316	-0.00419951	0.0683119	
-0.971624	0.010934	-0.0792065	
-3.40467e-05	0.0115728	0.00040747	
-1.69589e-06	0.0132193	-5.63965e-05	
-1.1196e-05	0.00757258	0.000205568	
2.27266	0.00330398	0.177455	
0.861858	0.0122656	0.0678135	
0.0900254	0.00893771	0.00735791	
0.804921	0.00620961	0.0642519	
0.245558	0.00991939	0.0193292	
1.03857	0.00725092	0.0981087	
4.52646e-05	0.0104569	-0.000391801	
-0.846394	0.00937767	-0.064531	
-0.442854	0.00667923	-0.0349881	
-0.0770058	0.00787917	-0.00622691	
1.66807	0.00459417	0.134369	
3.38087	0.00932507	0.245497	
0.311637	0.00933004	0.0248665	
0.751662	0.0095257	0.0590119	
3.74973e-06	0.00728035	-6.14455e-05	
0.520587	0.00971681	0.0411186	
0.173191	0.0106088	0.0131257	
-0.59113	0.00939222	-0.0485938	
0.721564	0.0094709	0.0591134	
0.189991	0.0107001	0.0147415	
2.04728e-05	0.0109048	-0.000244971	
1.49134e-05	0.0093693	-0.000160144	
2.07801e-05	0.0106322	-0.000334043	
1.59593e-05	0.00999021	-0.000182487	
-0.00197139	0.00892153	-0.000126535	
5.95505e-06	0.00941549	-0.000120269	
-6.53618e-07	0.00530703	1.2565e-06	
9.68068e-06	0.00862158	-0.000121394	
-3.48143	0.000444107	-0.253024	
0.0675157	0.00992466	0.00564719	
-1.01366	0.0112603	-0.0771426	
0.0080407	0.0105971	0.00131793	
0.0178255	0.00987186	0.0018409	
-0.517745	0.00994356	-0.0407265	
-1.72724	0.00510735	-0.139327	
-1.23843	0.00654196	-0.10705	
-0.222767	0.0099978	-0.0178309	
-0.0470495	0.0100885	-0.00380973	
-5.60445e-05	0.00955443	0.000466485	
-0.251362	0.00891172	-0.0190878	
-0.484263	0.0102002	-0.0395653	
0.205342	0.0113869	0.0171661	
-0.0057082	0.0120941	-0.000456936	
0.183365	0.0101679	0.0149754	
-0.8471	0.0112482	-0.0662113	
0.106124	0.0125034	0.00841651	
-1.18852e-05	0.0115297	0.000115724	
-4.36791e-06	0.0100947	5.71353e-05	
-1.33233e-05	0.00896122	0.000235818	
-1.87607e-05	0.0111847	0.000274875	
1.29814e-06	0.0111437	2.19395e-05	
0.917627	-0.00348356	0.0687117	
-0.973324	0.0089676	-0.0798019	
-2.17765e-05	0.00946465	0.00024939	
-2.5242e-06	0.0109471	-2.12549e-05	
-7.85383e-06	0.00625216	0.000125476	
2.32549	0.0027775	0.182891	
0.905146	0.0101277	0.0715184	
0.078363	0.00755278	0.00649706	
0.818032	0.00518739	0.0654773	
0.237327	0.00797471	0.0212009	
1.13856	0.00570367	0.104071	
4.05451e-05	0.00877878	-0.000295843	
-0.902541	0.0078635	-0.0682742	
-0.487395	0.00570106	-0.0385703	
-0.10102	0.00667711	-0.00816516	
1.75499	0.00390241	0.142106	
3.61149	0.00823217	0.242261	
0.308874	0.00780092	0.0248877	
0.799699	0.00796396	0.0624835	
1.72956e-06	0.00617106	-2.97038e-05	
0.523074	0.00808643	0.041709	
0.213485	0.00891189	0.0161912	
-0.613734	0.00790297	-0.050472	
0.766058	0.00792929	0.0629845	
0.202676	0.00894774	0.0160276	
1.44362e-05	0.00915678	-0.000157066	
1.08174e-05	0.00787746	-0.000102644	
1.49126e-05	0.00894519	-0.00021338	
1.0098e-05	0.00842112	-0.000117057	
-0.002652	0.00751063	-0.000164164	
3.65663e-06	0.00793332	-8.35984e-05	
-5.42841e-07	0.00448624	7.08523e-06	
6.50241e-06	0.00728318	-6.58941e-05	
-3.71935	-0.00264442	-0.262593	
0.0828881	0.00842347	0.00681862	
-1.05869	0.00913459	-0.0851259	
-0.0201757	0.00890865	-0.00140556	
0.0103789	0.0083191	0.00113884	
-0.539309	0.00832422	-0.042696	
-1.75955	0.00434467	-0.142637	