<VTKFile type="UnstructuredGrid" version="0.1" byte_order="LittleEndian">
	<UnstructuredGrid>
		<Piece NumberOfPoints="1176" NumberOfCells="1176">
			<CellData Scalars="scalars">
				<DataArray type="Float64" Name="Strength" NumberOfComponents="3" Format="ascii">
0.538538	-0.373886	-0.111141	
0.0026796	-1.0436	0.01099	
-0.0171899	-0.939321	0.0161238	
0.0188974	-0.822453	0.044369	
-9.71255e-05	-1.06763	0.0142782	
-0.0232531	-1.00599	0.0245626	
-0.000823048	-1.05341	0.0120204	
-0.0133682	-1.04943	0.0168036	
-0.0608046	-0.849953	0.0990731	
-0.0235877	-0.919978	0.0194282	
0.108044	-0.57583	0.0492708	
0.00952849	-1.0264	0.00352561	
-0.0210643	-0.97237	0.0313385	
-0.0179492	-1.04323	0.00232192	
-0.0722554	-0.884668	0.0688357	
0.0331303	-0.96558	-0.000886418	
0.0364572	-1.04682	-0.00897305	
0.0114384	-1.01722	-0.00102326	
0.000731857	-1.03543	-0.0139904	
-0.0366369	-1.02844	0.0432247	
0.00953448	-1.03081	0.00794039	
-0.0264896	-1.02948	0.00452032	
-0.0303871	-1.04633	0.0441318	
0.0422775	-1.05417	-0.021196	
0.00212317	-1.0547	0.00140782	
0.0127572	-1.025	-0.0072983	
-0.0730055	-0.702953	0.111586	
-0.0268621	-0.956939	0.0244329	
-0.00160264	-1.0558	-0.00985428	
0.0158602	-0.943994	-0.0180152	
-0.0238576	-1.06838	0.00406588	
0.0283372	-1.0551	-0.0280062	
0.000534024	-1.03887	0.000893241	
0.0709882	-0.828491	-0.103187	
-0.287289	-0.606476	-0.0341659	
0.00511336	-1.02674	-0.0172826	
0.026468	-0.97637	-0.0297684	
0.0273713	-1.04001	-0.00171067	
0.0122372	-1.00807	-0.0164877	
0.0644432	-0.874931	-0.0667518	
-0.0318291	-0.966724	0.00632095	
-0.0254306	-1.05653	0.00846593	
-0.00530537	-1.10289	-0.00268899	
-0.0272243	-1.02523	0.0214409	
0.0216815	-1.03103	-0.0337811	
0.0298755	-1.04563	-0.0323707	
0.00949779	-1.03557	-0.0131424	
0.00292415	-1.07008	0.0112544	
0.067846	-0.913903	-0.053256	
0.0356335	-1.04744	-0.0506887	
-0.0207247	-1.0744	0.00282202	
-0.314365	-0.3734	-0.0179037	
0.0334566	-0.807488	-0.141312	
0.0321488	-0.962277	-0.0259398	
-0.0108087	-1.05297	0.00730383	
0.0671547	-0.675086	-0.210748	
1.49977	0.0275495	-0.118174	
0.0482198	-0.192298	-0.00853738	
0.124671	-0.164444	-0.0170712	
0.510827	-0.133545	-0.0677728	
-0.00925128	-0.206416	0.00486451	
-0.0473382	-0.206305	0.0135625	
-5.3341e-05	-0.204745	0.00117642	
-0.0142379	-0.207944	0.00661874	
0.151223	-0.136993	-0.0094888	
0.147278	-0.161091	-0.0226061	
0.509167	-0.0682268	-0.0568912	
0.047305	-0.210621	-0.0144557	
0.0395871	-0.182183	0.000538161	
0.0244838	-0.205415	-0.0049344	
-0.0015539	-0.14996	0.0160943	
0.242215	-0.188295	-0.0558298	
0.0462058	-0.191711	-0.011268	
-0.064518	-0.205133	0.0200446	
0.0692284	-0.204077	-0.0198808	
-0.0291681	-0.194041	0.0160326	
0.00273766	-0.191168	0.00231087	
-0.000954606	-0.204883	0.000899012	
-0.000456556	-0.189538	0.008969	
0.00519909	-0.201568	-0.00101343	
0.00437984	-0.20909	-0.00352718	
0.00246068	-0.204612	-0.000178686	
0.000928003	-0.101426	0.0144981	
0.00304608	-0.176648	0.0135704	
-0.0477176	-0.209725	0.0102046	
-0.143025	-0.166694	0.0232517	
-0.0203688	-0.208682	0.00888508	
0.122099	-0.205575	-0.0329983	
0.0314897	-0.210268	-0.00479992	
-0.257588	-0.15748	0.0376282	
-1.23767	-0.159168	0.299647	
-0.0716409	-0.21232	0.019509	
-0.0299813	-0.182784	-0.00513321	
0.0766212	-0.208	-0.0187118	
0.000959042	-0.205599	-0.000838741	
-0.171674	-0.159994	0.0205868	
-0.241902	-0.190277	0.0541125	
-0.0892824	-0.193873	0.0236811	
0.0486546	-0.202454	-0.0163348	
-0.0860239	-0.205675	0.0257289	
-0.0570444	-0.197087	0.00834816	
0.0280401	-0.192514	-0.0141737	
-0.000489786	-0.192249	-0.00407677	
-0.000535344	-0.20099	0.00219144	
0.00107815	-0.159007	-0.0200493	
0.000833582	-0.189769	-0.00997164	
-0.00307577	-0.202807	-0.00148632	
-0.720301	-0.0646593	0.0828744	
-0.357609	-0.157154	0.0776237	
-0.00299468	-0.177048	-0.0151341	
-0.00235887	-0.206176	-0.000186891	
-0.00161103	-0.0984934	-0.0348756	
2.49907	0.164962	0.00162563	
0.0869683	-0.0588656	0.00539404	
0.244457	-0.0426564	0.0239611	
0.903154	0.0023532	0.0851653	
-0.0256221	-0.0692886	-0.000160122	
-0.0594822	-0.0706365	-0.00174067	
-7.66156e-05	-0.0688555	-0.000233315	
-0.0289972	-0.0706845	-0.000353543	
0.287318	-0.027152	0.0456954	
0.270924	-0.0394772	0.0427547	
0.870752	0.0394934	0.00297988	
0.0766619	-0.0732158	0.000883797	
0.0876906	-0.0538891	0.00999507	
0.0410375	-0.0706295	0.00129665	
-0.000418177	-0.0407928	0.00974406	
0.417449	-0.0497847	0.0261667	
0.0937111	-0.0597624	0.00386036	
-0.101506	-0.0700895	-6.88214e-05	
0.132499	-0.0680129	0.00201139	
-0.0387568	-0.0611196	0.00162276	
0.000392916	-0.0605391	0.00169612	
0.000219203	-0.0710021	0.000518835	
0.000725436	-0.0589437	0.00434979	
0.000315251	-0.0658783	0.000693737	
0.00988504	-0.0725002	-0.000353155	
0.00017046	-0.0693796	0.000891856	
0.00147655	-0.0253749	0.00917151	
0.000603858	-0.053458	0.00638997	
-0.0730685	-0.0724797	-0.00152798	
-0.282128	-0.0407625	-0.00542035	
-0.0303592	-0.0698518	0.000758353	
0.201329	-0.0683167	0.000847096	
0.0527055	-0.0700295	0.00282985	
-0.48536	-0.0227025	-0.0429846	
-2.19609	0.0965155	0.0448292	
-0.13842	-0.0734524	-0.000981512	
-0.0726598	-0.0541981	-0.00569759	
0.11105	-0.0686998	0.00494774	
0.000100589	-0.0709984	0.000606662	
-0.317929	-0.0327683	-0.0288893	
-0.417818	-0.0484931	-0.0135797	
-0.166834	-0.0589553	-0.00568322	
0.0813527	-0.0637722	0.000392313	
-0.143801	-0.0667243	-0.00312908	
-0.110937	-0.0592954	-0.00672731	
0.0421602	-0.0601146	-0.00148957	
-0.000350406	-0.060338	-0.0024288	
-3.68265e-05	-0.0646244	0.000657493	
-0.000397289	-0.0449804	-0.0091925	
-0.000933496	-0.0589514	-0.0047723	
-0.000332113	-0.0645928	-0.0013727	
1.16664	-0.035624	-0.0558978	
-0.662487	-0.000972932	-0.0236404	
-0.00108419	-0.0533992	-0.00649705	
-0.000199525	-0.0660902	-0.000352375	
-0.00181132	-0.0282718	-0.00506703	
3.29409	0.0815583	0.178112	
0.136563	0.0800639	-0.012967	
0.324738	0.0909837	-0.00872228	
1.11905	0.113363	-0.0248697	
-0.0212844	0.0767655	0.00080491	
-0.0815508	0.0763166	-0.00690443	
0.000260471	0.0759788	-0.00121851	
-0.0360969	0.0772606	0.00651539	
0.359079	0.0832124	-0.0171727	
0.36186	0.0834668	-0.00217624	
1.09363	0.0715066	0.0175587	
0.115154	0.0726458	-0.00921101	
0.10541	0.0905854	0.0080925	
0.0576782	0.0786589	0.0084108	
-2.81672e-06	0.0775522	-0.0177379	
0.576663	0.112875	0.0597018	
0.153101	0.0782771	-0.0151685	
-0.128765	0.0811645	0.00375257	
0.183117	0.0783309	0.00878422	
-0.0519155	0.0847084	-0.018922	
0.00171064	0.0812243	-0.0158346	
0.000166883	0.0779832	0.00446543	
-0.00118733	0.0861187	-0.00721329	
-7.58593e-05	0.0809341	-0.00461178	
0.0178027	0.0753831	-0.00100888	
-5.27434e-05	0.0789588	0.0038258	
-0.00296263	0.0491352	-0.0166682	
-0.00389809	0.0845855	0.00108062	
-0.0986834	0.0739142	0.00739909	
-0.376823	0.0963643	0.0129592	
-0.0710344	0.0753335	-0.00975208	
0.281265	0.0740114	0.0216347	
0.0653454	0.0769485	-0.0106499	
-0.573087	0.0959546	-0.0306232	
-2.78678	0.0980454	-0.136664	
-0.194748	0.0703046	0.00554364	
-0.0855844	0.0916984	-0.00310027	
0.15178	0.0767494	-0.0168859	
-0.000128543	0.073827	-0.000504123	
-0.422102	0.0863015	-0.032586	
-0.575204	0.111233	-0.0468686	
-0.247225	0.0849537	0.0178688	
0.0969628	0.0818322	0.000593297	
-0.214279	0.0804136	-0.0125447	
-0.16031	0.0855099	0.0108317	
0.0553152	0.0847549	0.0162323	
-0.00141121	0.0837453	0.0142971	
-0.000810834	0.0784094	0.00117265	
-0.000272414	0.0824206	0.00970722	
0.00105595	0.0870014	0.00962036	
0.000775468	0.0841918	0.00151958	
1.59205	-0.0289329	0.0393263	
-0.804163	0.102598	-0.0236895	
0.00455292	0.0857111	0.00176529	
0.000206171	0.0815307	-0.00153049	
0.00180698	0.0480704	0.00783987	
5.70483	-0.0786391	0.285508	
-1.98832	-0.561694	-0.256676	
0.570588	-0.388688	0.343282	
1.56474	-0.153081	0.0573403	
1.93614	-0.493581	0.15602	
-1.77625	-0.570607	-0.108163	
-0.00273633	-0.553992	-0.0131692	
-0.633497	-0.278118	0.0669929	
0.624928	-0.111623	0.0597908	
1.12029	-0.259371	0.215701	
-0.25365	-0.266516	0.0219135	
-0.0962049	-0.367371	-0.0353324	
3.02172	-0.631354	0.317873	
0.737678	-0.433901	0.163142	
-0.0100451	-0.0961322	0.0610416	
0.783581	-0.559579	0.280366	
-0.956647	-0.293115	-0.174484	
0.162359	-0.121901	0.0212699	
1.43785	-0.307365	0.187485	
-0.313488	-0.528484	-0.115245	
0.0380517	-0.239774	-0.123317	
-0.0303208	-0.292024	0.108425	
-0.0194922	-0.551243	0.0672928	
0.00825906	-0.141784	-0.0228901	
0.0187986	-0.339983	0.0207282	
-0.00978904	-0.17538	0.0414189	
-0.000819465	-0.0790226	0.0214805	
-0.0317968	-0.15729	0.144171	
0.088104	-0.340627	0.0350613	
-0.373091	-0.486198	-0.373576	
-2.32346	-0.545816	-0.227872	
0.426209	-0.518952	-0.0615701	
0.0202277	-0.27675	-0.0731631	
-1.02063	-0.262908	-0.16539	
-3.63526	-0.476637	-0.306265	
1.29569	-0.382055	0.0843055	
-2.71085	-0.622262	-0.241477	
0.195485	-0.261312	-0.0274936	
0.00501341	-0.534011	0.0254319	
-1.14098	-0.307261	-0.241455	
-0.769034	-0.626889	-0.1514	
0.668864	-0.288772	0.0966938	
-1.22759	-0.398443	-0.102457	
0.356277	-0.348087	-0.0142961	
1.4362	-0.640069	0.14812	
0.952797	-0.489137	0.213736	
-0.0368002	-0.287544	0.0838056	
0.0112464	-0.269378	-0.0301401	
0.050976	-0.242636	-0.158591	
0.00365255	-0.600169	0.00643638	
-0.00584728	-0.193376	0.0112831	
2.12217	0.168711	0.0333797	
-1.24083	-0.251561	-0.127392	
0.0444627	-0.245324	-0.160211	
0.00779159	-0.341863	-0.0450286	
0.00663561	-0.159216	-0.0506953	
4.4298	0.257415	0.296102	
0.0552776	0.568872	-0.0910565	
0.545269	0.670534	-0.0423719	
1.25586	0.458062	0.161444	
1.18119	0.751727	0.0883679	
-0.896585	0.759842	-0.205493	
-0.00790346	0.735521	-0.0546988	
-0.300505	0.613075	-0.125854	
0.369381	0.428626	-0.0348919	
0.644721	0.53986	-0.0134245	
1.14743	0.498711	0.0745029	
0.791308	0.62794	0.156142	
0.708912	0.609921	0.0319998	
0.468765	0.681451	0.0408439	
-0.00951335	0.441421	-0.10905	
1.24225	0.847755	0.0879252	
-0.616145	0.538558	-0.156346	
-0.257009	0.490379	-0.0469972	
0.783869	0.596602	0.141914	
-0.165128	0.762051	-0.184682	
0.0167934	0.537239	-0.0503659	
-0.0170778	0.616696	-0.0615877	
0.00115005	0.79302	-0.134083	
0.0162146	0.496709	0.0141963	
0.0160044	0.539116	0.00890415	
-0.000455356	0.539509	-0.00213297	
-0.00299967	0.354928	-0.0607925	
0.00352846	0.538089	-0.0798142	
-0.778341	0.563506	-0.0884944	
-0.443398	0.695861	0.050841	
-1.40783	0.715131	-0.225772	
0.934513	0.714722	0.116876	
0.0757013	0.595406	0.0277835	
-0.728278	0.431397	-0.0308475	
-2.89104	0.637996	-0.261938	
-0.0281966	0.613734	0.0845368	
-0.433963	0.619491	-0.0356847	
-0.164215	0.583061	-0.0209903	
0.0116813	0.766629	0.0280989	
-0.677618	0.503256	0.0147374	
-1.18433	0.85629	-0.0690582	
0.42243	0.559995	0.0624388	
-0.330445	0.627522	-0.104507	
0.328117	0.65946	0.0599588	
-0.544081	0.790869	0.00682037	
0.832222	0.56845	0.254474	
-0.0144373	0.550487	0.0299885	
-0.00115713	0.61303	0.0485335	
0.0199702	0.523698	0.140636	
0.00627248	0.801023	0.128594	
-0.0171153	0.522182	-0.0493348	
3.03356	-0.279705	0.193848	
-1.48047	0.483344	-0.226292	
-0.00671246	0.553489	0.0864941	
-0.0116533	0.631849	-0.0140909	
-0.00286	0.42002	0.0789328	
2.95847	0.0890537	0.215776	
0.446082	0.327019	0.0709419	
0.377349	0.316657	0.00953678	
0.989731	0.198908	0.127719	
0.677222	0.357678	0.0939125	
-0.306557	0.345511	-0.0757664	
-0.00142464	0.383763	-0.0268775	
-0.341469	0.32412	-0.109117	
0.147149	0.201984	-0.00137313	
0.366499	0.257023	0.00824128	
1.10159	0.143599	0.0969829	
1.19883	0.326195	0.290563	
0.547813	0.282178	0.0655533	
0.403104	0.324552	0.0780219	
0.000349296	0.222374	-0.0284277	
0.857235	0.299306	0.116212	
-0.43762	0.286918	-0.0982662	
-0.394494	0.272006	-0.0814513	
0.518314	0.293953	0.0957272	
0.047599	0.327521	-0.0233066	
0.00375484	0.293781	-0.0127449	
9.14925e-05	0.308767	-0.0133992	
0.00907435	0.346897	-0.0391033	
0.00317239	0.274698	-0.00142052	
0.00913937	0.306855	0.00057506	
0.00208391	0.280799	-0.00196317	
0.000604839	0.159893	-0.0161008	
0.00789114	0.275103	-0.0347966	
-1.20567	0.32979	-0.255619	
-0.249509	0.354257	0.0190898	
-0.920994	0.364721	-0.166054	
0.579134	0.37551	0.155247	
0.0949512	0.330372	0.0328954	
-0.558569	0.247777	-0.0606136	
-2.12832	0.168689	-0.213551	
-0.321876	0.33209	-0.0531434	
-0.365688	0.313184	-0.0343529	
-0.097784	0.325353	-0.029433	
0.00342359	0.348403	0.0190601	
-0.394159	0.261053	-0.032029	
-0.817165	0.320268	-0.137484	
0.382894	0.304707	0.0924251	
-0.0653933	0.363323	-0.0311218	
0.316211	0.324942	0.0613606	
-0.956643	0.343673	-0.176526	
0.591671	0.338818	0.1551	
-0.00352398	0.309641	0.00854465	
-0.00097202	0.317755	-0.0011601	
-0.00191526	0.281919	0.0510369	
-0.00853228	0.368981	0.038883	
-0.00378401	0.303874	-0.015876	
1.7868	-0.0959529	0.127193	
-1.30822	0.244152	-0.211415	
-0.0101373	0.307364	0.0537374	
-0.00298404	0.327965	-0.0136009	
-0.00261758	0.194024	0.0306522	
2.44068	0.0423232	0.184034	
0.597545	0.166476	0.0697458	
0.307552	0.138705	0.0209031	
0.851781	0.0914969	0.0832323	
0.447201	0.168011	0.038684	
0.00717964	0.161886	-0.00746675	
-0.000861813	0.178333	-0.0118164	
-0.421589	0.151155	-0.0726969	
-0.000824424	0.0939393	-0.00830777	
0.225507	0.118718	0.00763221	
1.10512	0.0641904	0.0908268	
1.53349	0.160422	0.23923	
0.493376	0.132912	0.0439763	
0.442759	0.155173	0.0531021	
0.000108088	0.105324	-0.0095293	
0.661916	0.140009	0.0599925	
-0.337403	0.146989	-0.048201	
-0.501023	0.13974	-0.0681932	
0.445307	0.145534	0.0554315	
0.0852632	0.156292	-0.00413745	
0.001269	0.149172	-0.00532969	
0.000236772	0.150359	-0.00479543	
0.00160172	0.158558	-0.0173643	
0.000703413	0.139745	-0.000701833	
0.00549115	0.146421	0.00113569	
0.00024853	0.142059	0.000797787	
0.000120554	0.0739011	-0.00499866	
0.00110879	0.126993	-0.0129133	
-1.56429	0.162853	-0.228991	
-0.166404	0.154733	-0.00347718	
-0.756646	0.174096	-0.0895631	
0.424019	0.174833	0.0757632	
0.101704	0.158374	0.0209803	
-0.449768	0.124482	-0.0385281	
-1.82513	0.0709729	-0.159364	
-0.491954	0.164607	-0.0463772	
-0.350138	0.14409	-0.0410516	
-0.0891201	0.158022	-0.0109299	
0.00133363	0.162786	0.0115234	
-0.27803	0.124805	-0.0178579	
-0.629993	0.147591	-0.0780513	
0.361903	0.156763	0.0556328	
0.0530654	0.175795	0.00138102	
0.300377	0.159399	0.0392944	
-0.979088	0.164795	-0.116857	
0.439158	0.175557	0.0740159	
-0.0012068	0.158057	0.00309813	
-0.000458472	0.155867	-9.00143e-05	
-0.00135106	0.131811	0.0197947	
-0.00196529	0.168226	0.0168575	
-0.000501642	0.15456	-0.00675387	
1.33731	-0.0426874	0.0986343	
-1.16984	0.118832	-0.138474	
-0.0023202	0.141072	0.0216802	
-0.000413195	0.162839	-0.00783273	
-0.000718142	0.0849512	0.0105173	
2.23891	0.0225376	0.164614	
0.579623	0.0950705	0.0551889	
0.271711	0.0685931	0.0166805	
0.817896	0.0519942	0.068733	
0.406225	0.0800036	0.0277114	
0.188977	0.077627	0.0115087	
-0.000818256	0.0838379	-0.00538903	
-0.460379	0.0747408	-0.0556891	
-0.066255	0.0480486	-0.00960176	
0.172695	0.0574502	0.00824234	
1.12843	0.0334881	0.0867871	
1.72129	0.0811946	0.223493	
0.445051	0.0689915	0.0345235	
0.420541	0.0807339	0.0403986	
-3.99884e-06	0.0523142	-0.00437344	
0.569701	0.0727094	0.0447678	
-0.216774	0.0809737	-0.0242079	
-0.479539	0.0715377	-0.0517391	
0.443095	0.0732519	0.0459926	
0.0875934	0.0802351	0.00214545	
0.000345106	0.0845385	-0.00319964	
-0.000128358	0.0730923	-0.00199201	
0.000115387	0.0793669	-0.0071585	
0.000486169	0.0760045	-0.00153215	
0.00428289	0.0752569	0.000601186	
8.30126e-05	0.0705049	-0.000463294	
-3.10505e-05	0.0396313	-0.00227332	
0.000115335	0.0616799	-0.00604442	
-1.76283	0.100821	-0.199417	
-0.125838	0.074788	-0.00367595	
-0.791464	0.0848197	-0.0771791	
0.317024	0.0811975	0.0485901	
0.0811342	0.0804406	0.0123937	
-0.444203	0.0706912	-0.0348117	
-1.72434	0.0359258	-0.136089	
-0.585265	0.087975	-0.0523845	
-0.319369	0.0728204	-0.0231984	
-0.0185956	0.0821555	-0.00193655	
0.0011021	0.0748765	0.00580669	
-0.25861	0.0635924	-0.0171207	
-0.540556	0.0767969	-0.0525127	
0.290001	0.0860546	0.0299509	
0.0449334	0.0910308	0.00269556	
0.293478	0.0778042	0.0305771	
-0.863353	0.0861073	-0.0870982	
0.355378	0.0965062	0.0424901	
-0.000415809	0.0879843	0.0014179	
-0.000126621	0.0769948	-4.89132e-05	
-0.000387385	0.0632958	0.00804185	
-0.000135922	0.0831625	0.0064731	
-0.000183891	0.0821162	-0.00218604	
1.14479	-0.0222463	0.0802252	
-1.0876	0.0700583	-0.101088	
-0.000430172	0.0676919	0.00832123	
-0.00013311	0.0810084	-0.00308041	
-7.04744e-05	0.0424858	0.00473096	
2.16167	0.0151754	0.159021	
0.621495	0.0614494	0.0527693	
0.220189	0.0456405	0.0153843	
0.791251	0.0327048	0.0643958	
0.356815	0.051243	0.0297177	
0.35125	0.0514744	0.0262645	
-0.000414441	0.0531249	-0.00345842	
-0.512028	0.0456707	-0.0529429	
-0.136659	0.030769	-0.0131932	
0.114514	0.0390086	0.00638463	
1.19113	0.0220604	0.0915838	
1.97104	0.0552745	0.207963	
0.40062	0.0487284	0.0295583	
0.461028	0.0497277	0.0412396	
-4.48713e-06	0.0347524	-0.00208576	
0.545517	0.0514659	0.0406278	
-0.131189	0.0517394	-0.0134485	
-0.498621	0.0470448	-0.0471975	
0.470103	0.0476345	0.0454816	
0.107223	0.053251	0.00591807	
0.000136602	0.0535079	-0.00220332	
-1.12434e-05	0.0470325	-0.00150172	
5.78344e-05	0.0533106	-0.00460475	
0.000260201	0.0485027	-0.0010506	
0.00312471	0.0439894	0.000267332	
4.82558e-05	0.0464061	-0.000470891	
-1.40283e-05	0.0248698	-0.00115824	
1.89152e-05	0.0432897	-0.0029088	
-2.02158	0.0598178	-0.204054	
-0.0762689	0.0495435	-0.00211801	
-0.798522	0.0549005	-0.0712374	
0.248358	0.0511373	0.0301044	
0.0723717	0.0490197	0.00918403	
-0.436356	0.0476033	-0.0334124	
-1.67535	0.0244531	-0.131085	
-0.694029	0.0568797	-0.0625555	
-0.285946	0.0514948	-0.0177451	
-0.0172871	0.0498056	-0.00108434	
0.000483085	0.0480358	0.00380938	
-0.237551	0.0429203	-0.0162455	
-0.509835	0.0542769	-0.0449083	
0.258026	0.0557984	0.0246292	
0.0435976	0.0590906	0.00285042	
0.270261	0.0505622	0.0253227	
-0.839316	0.0586036	-0.0730704	
0.29159	0.061714	0.0306967	
-0.000188408	0.0563047	0.00106261	
-0.000101003	0.0494123	0.000141403	
-0.000241833	0.0431074	0.00446962	
-5.35321e-05	0.0560164	0.00413893	
-5.68759e-05	0.0536983	-0.00105672	
1.05954	-0.0152527	0.0740088	
-1.04198	0.0479525	-0.0892909	
-0.000232172	0.0469723	0.00486159	
-6.84205e-05	0.053236	-0.00153296	
1.65795e-05	0.0284113	0.00246979	
2.12793	0.0108922	0.15747	
0.663923	0.0419917	0.0495443	
0.184707	0.0317357	0.0132915	
0.774464	0.022069	0.0620623	
0.318092	0.0354124	0.0198885	
0.486484	0.0342216	0.0492438	
-5.54121e-06	0.0365666	-0.0023068	
-0.567632	0.0319265	-0.0513728	
-0.198717	0.0224701	-0.0169622	
0.0710226	0.0275253	0.00412577	
1.26306	0.0158765	0.0973479	
2.21892	0.0368616	0.188273	
0.368837	0.0334041	0.0278555	
0.512623	0.0331688	0.0433696	
5.60584e-05	0.0250795	-0.00122678	
0.534762	0.0348148	0.040606	
-0.0698446	0.0369347	-0.00714066	
-0.504009	0.0325937	-0.0453819	
0.508116	0.0327398	0.0395423	
0.123955	0.0372212	0.00701876	
0.000161478	0.0377271	-0.00157449	
7.61756e-05	0.0325223	-0.00109453	
0.00020407	0.0373855	-0.00296694	
7.168e-05	0.0347585	-0.000898683	
0.00156668	0.0304292	0.000160402	
2.42347e-05	0.0324322	-0.000457285	
2.89572e-05	0.0179538	-0.000706725	
0.000109593	0.030547	-0.00163995	
-2.27597	0.0258597	-0.206895	
-0.0393158	0.0350093	-0.000541422	
-0.813692	0.036074	-0.0687726	
0.191579	0.0353418	0.0181542	
0.0619319	0.0337237	0.0073366	
-0.436256	0.0332961	-0.0328675	
-1.65096	0.017292	-0.128562	
-0.789607	0.0334538	-0.0769734	
-0.261699	0.0356784	-0.0198773	
-0.0264099	0.0343487	-0.00196883	
-8.01996e-05	0.0330143	0.00265973	
-0.229151	0.0303826	-0.0159148	
-0.498875	0.0365338	-0.0423684	
0.24435	0.0393122	0.0246279	
0.0329605	0.0417949	0.00224276	
0.246599	0.0352386	0.0217774	
-0.829997	0.0389172	-0.0660783	
0.245356	0.043378	0.0229068	
-0.000100016	0.039692	0.00083182	
-2.97414e-05	0.0345591	0.000104133	
-0.00010623	0.0309421	0.00243506	
-0.000187556	0.0392635	0.00258884	
5.76389e-06	0.0383951	-0.000415556	
1.00486	-0.0112249	0.0707051	
-1.01132	0.03117	-0.0839501	
-0.000215466	0.0334096	0.00293539	
1.17987e-05	0.0375902	-0.00082241	
-7.16205e-05	0.0206648	0.00160076	
2.12485	0.00803354	0.159193	
0.702273	0.0317608	0.0520431	
0.156783	0.0228435	0.011567	
0.768805	0.0164722	0.0614696	
0.293573	0.0267414	0.0169211	
0.609886	0.0284454	0.0517592	
-7.8419e-05	0.0265123	-0.00172127	
-0.625042	0.0224821	-0.0549232	
-0.253048	0.0161744	-0.0206966	
0.0348047	0.0198014	0.00199632	
1.34065	0.0115403	0.104155	
2.46161	0.0324979	0.173022	
0.347002	0.024342	0.0263822	
0.562424	0.0250368	0.0466982	
2.92349e-05	0.018103	-0.000698221	
0.526985	0.0255562	0.0404166	
-0.015032	0.0269025	-0.00212087	
-0.515976	0.0239379	-0.0447401	
0.549004	0.0245298	0.0466397	
0.138116	0.0272228	0.00908333	
8.50065e-05	0.0275971	-0.00123481	
3.23103e-05	0.0237045	-0.000754235	
8.90493e-05	0.0270305	-0.00197406	
7.84159e-05	0.0253755	-0.000750619	
0.00113205	0.0221589	0.000126719	
1.82862e-05	0.0237558	-0.000378799	
9.46155e-06	0.0130482	-0.000390857	
6.11778e-05	0.0219542	-0.00113813	
-2.52623	0.0239964	-0.208586	
-0.0104866	0.0254513	0.000894754	
-0.844399	0.0281889	-0.0665736	
0.145876	0.0253668	0.0138487	
0.0520631	0.0247551	0.00587153	
-0.444346	0.0255331	-0.0339654	
-1.64276	0.0128733	-0.128567	
-0.883849	0.0300481	-0.0740484	
-0.245546	0.0262024	-0.0183627	
-0.0317413	0.0253608	-0.00238714	
1.48646e-05	0.0240441	0.00206081	
-0.228067	0.022703	-0.016478	
-0.491753	0.0272788	-0.0406943	
0.233347	0.0287906	0.021685	
0.024302	0.0305624	0.00168704	
0.22867	0.0258005	0.0197478	
-0.825961	0.0295613	-0.0639698	
0.207828	0.0316041	0.0183519	
-5.74346e-05	0.0291404	0.000613407	
-2.02297e-05	0.0253553	0.000216862	
-5.7024e-05	0.0226854	0.00155514	
-7.9691e-05	0.028613	0.00171426	
9.02778e-06	0.0281184	-0.000245456	
0.967348	-0.00828876	0.0690241	
-0.992547	0.0246976	-0.0816271	
-0.000129302	0.0243361	0.00190017	
-1.03966e-06	0.0275555	-0.000440167	
-3.17923e-05	0.0154032	0.00105494	
2.14493	0.00619798	0.162746	
0.739499	0.0241805	0.0577781	
0.136059	0.0172066	0.0104108	
0.774432	0.0128026	0.0619957	
0.279289	0.0204334	0.0130161	
0.721376	0.0190907	0.0851725	
1.38884e-07	0.0197444	-0.00129085	
-0.679636	0.0170901	-0.053894	
-0.30292	0.0122622	-0.0244431	
0.00348471	0.0149675	-0.000260987	
1.41706	0.00875082	0.111296	
2.68947	0.0229111	0.196855	
0.333205	0.0183049	0.0256868	
0.608364	0.0188786	0.0498255	
1.88276e-05	0.0137511	-0.000439311	
0.52246	0.0192606	0.0403239	
0.0383928	0.0202756	0.00245467	
-0.531276	0.0180263	-0.0449817	
0.590266	0.0184146	0.0532079	
0.151741	0.0205504	0.0108723	
5.41354e-05	0.0208847	-0.000841065	
3.34563e-05	0.0177894	-0.000569277	
6.20252e-05	0.0203167	-0.00136531	
6.10528e-05	0.0190325	-0.000592721	
0.000301876	0.016911	4.53881e-05	
1.99344e-05	0.0178115	-0.000332338	
4.9017e-06	0.010136	-0.000220579	
3.56683e-05	0.0165061	-0.000694233	
-2.76328	0.018263	-0.2256	
0.0127747	0.0191574	0.00213262	
-0.885307	0.0215853	-0.0660975	
0.105959	0.0190978	0.00934511	
0.0421279	0.0186998	0.0045528	
-0.458751	0.0197969	-0.0355289	
-1.65337	0.0096845	-0.130758	
-0.973705	0.0229746	-0.0835272	
-0.236503	0.0196783	-0.01618	
-0.0342006	0.019223	-0.00257721	
-1.82526e-05	0.0179233	0.0014869	
-0.231061	0.0173519	-0.0170792	
-0.486896	0.0205891	-0.0400512	
0.222049	0.0219374	0.0203858	
0.0147886	0.0231184	0.00105009	
0.213761	0.0194255	0.0181134	
-0.824584	0.0224525	-0.0639096	
0.177249	0.0240058	0.0150934	
-4.10449e-05	0.0222009	0.000453426	
-1.08221e-05	0.0191032	0.000132093	
-4.1158e-05	0.0172014	0.0010544	
-5.29782e-05	0.0215568	0.00116845	
3.45072e-06	0.0212993	-0.000102059	
0.944141	-0.00647641	0.0683665	
-0.978882	0.0191994	-0.0804081	
-8.62267e-05	0.0183511	0.00125757	
-7.49737e-06	0.0207967	-0.000228653	
-2.1293e-05	0.0116861	0.000676196	
2.18002	0.00488352	0.167151	
0.77771	0.0179865	0.060219	
0.117454	0.0133633	0.00915309	
0.783169	0.00932839	0.0626919	
0.265785	0.0159885	0.0130638	
0.830121	0.00949835	0.0988933	
7.61989e-05	0.015565	-0.000966692	
-0.734836	0.0139043	-0.052626	
-0.351147	0.00975758	-0.0280626	
-0.0261464	0.011726	-0.002404	
1.49757	0.00678564	0.119175	
2.92006	0.0120065	0.216035	
0.324229	0.0139243	0.025294	
0.656282	0.0141173	0.0530058	
1.71015e-05	0.0107472	-0.000262347	
0.519946	0.014498	0.040259	
0.0870856	0.0159158	0.00640367	
-0.54913	0.0140124	-0.0460532	
0.633444	0.0140579	0.0528349	
0.165668	0.0158813	0.0120929	
6.12804e-05	0.0164122	-0.000671036	
3.72609e-05	0.0139992	-0.000408374	
7.29686e-05	0.0159489	-0.000978249	
3.39133e-05	0.0149892	-0.000460982	
-0.000548034	0.0132196	-2.7885e-05	
1.698e-05	0.0140471	-0.000277595	
6.90884e-06	0.00784401	-0.000114617	
3.46341e-05	0.0129557	-0.000425367	
-3.00307	0.00156998	-0.238391	
0.0330868	0.0149766	0.00348385	
-0.927042	0.0171322	-0.066318	
0.0705955	0.0151653	0.00587894	
0.03314	0.0147415	0.00359356	
-0.478562	0.014958	-0.0371731	
-1.67225	0.00758472	-0.13343	
-1.06238	0.0101702	-0.104718	
-0.230759	0.0152399	-0.0162013	
-0.0383934	0.0151049	-0.00294665	
-9.67465e-05	0.0141797	0.00115506	
-0.23421	0.0133063	-0.0174434	
-0.484742	0.0153492	-0.0395374	
0.214161	0.0171261	0.0189628	
0.0074146	0.0181997	0.000501256	
0.200853	0.0152529	0.0167398	
-0.82793	0.0165919	-0.0643317	
0.150959	0.0189605	0.012522	
-3.34053e-05	0.0174488	0.000338042	
-1.48972e-05	0.0150844	0.000165264	
-4.37724e-05	0.0135392	0.000717756	
-6.51272e-05	0.0168963	0.00081445	
3.35406e-06	0.0167812	-1.26174e-05	
0.929388	-0.00512821	0.0681307	
-0.971708	0.0137053	-0.0794043	
-6.92562e-05	0.0144002	0.000857513	
2.14701e-06	0.0164348	-0.000151103	
-2.66711e-05	0.009273	0.00044968	
2.22286	0.00399612	0.172156	
0.819369	0.0154107	0.0625899	
0.103016	0.0108579	0.00817685	
0.792575	0.00779888	0.0634343	
0.255346	0.013386	0.0143143	
0.935427	0.00875292	0.100362	
5.1012e-05	0.012628	-0.000743426	
-0.790523	0.0108228	-0.0604311	
-0.397534	0.00794422	-0.031575	
-0.0521153	0.00949303	-0.00432306	
1.58284	0.00559917	0.12676	
3.15267	0.0115985	0.206185	
0.316593	0.0114685	0.0246802	
0.703971	0.0118386	0.0566934	
9.80575e-06	0.00877549	-0.000158093	
0.519372	0.0120109	0.0406496	
0.130436	0.0129308	0.0097037	
-0.569041	0.0113699	-0.0472332	
0.677452	0.0116604	0.058792	
0.177732	0.0130826	0.0134001	
3.62445e-05	0.0132258	-0.000512308	
2.23751e-05	0.0113511	-0.000303269	
3.93133e-05	0.0128743	-0.000702893	
3.24115e-05	0.0121681	-0.000378562	
-0.00124162	0.0107573	-8.09921e-05	
1.34403e-05	0.0114286	-0.000232603	
1.61497e-06	0.00636156	-5.75875e-05	
1.78982e-05	0.010408	-0.000269563	
-3.24339	0.00251285	-0.237493	
0.0514511	0.012101	0.00471755	
-0.9699	0.015112	-0.0722533	
0.0380106	0.0124345	0.00386685	
0.0252049	0.0119252	0.00275342	
-0.496579	0.0125079	-0.0388625	
-1.69717	0.00626472	-0.136214	
-1.15171	0.0112452	-0.0917985	
-0.226574	0.0122281	-0.0173582	
-0.0422926	0.0122403	-0.0033131	
-6.53896e-05	0.011503	0.00090007	
-0.242217	0.0109757	-0.0182514	
-0.483761	0.0126244	-0.0394492	
0.208739	0.0138709	0.0173915	
-0.000173599	0.0146685	-8.53604e-05	
0.19164	0.0123392	0.0158986	
-0.836502	0.0138183	-0.0645832	
0.127884	0.0151835	0.0104985	
-2.41094e-05	0.0140304	0.00025151	
-9.00689e-06	0.0121965	0.000139977	
-2.65045e-05	0.0108975	0.000500733	
-3.74037e-05	0.0136112	0.000577923	
6.79516e-07	0.0135229	1.0076e-05	
0.92132	-0.00419981	0.0683083	
-0.971592	0.0117432	-0.079414	
-4.62586e-05	0.0115648	0.000591002	
-6.31554e-07	0.0132191	-9.75774e-05	
-1.41529e-05	0.00756877	0.000317432	
2.27264	0.00332192	0.177554	
0.861815	0.0128255	0.0681341	
0.0900326	0.00894771	0.00724699	
0.804891	0.00645508	0.0645559	
0.245729	0.0105776	0.0165242	
1.03863	0.00826086	0.0971028	
5.18955e-05	0.0104489	-0.000566981	
-0.846524	0.00928291	-0.0627227	
-0.442837	0.00658736	-0.0351788	
-0.0769945	0.00787191	-0.00636742	
1.66809	0.00463109	0.134348	
3.38124	0.00915991	0.239907	
0.311659	0.00946618	0.0244957	
0.751561	0.00966722	0.0601368	
5.66191e-06	0.00728	-9.60907e-05	
0.520584	0.00994719	0.0410346	
0.173191	0.0106436	0.0130791	
-0.591104	0.00939582	-0.0488219	
0.721328	0.00970309	0.0617992	
0.189997	0.0108359	0.0145374	
2.73894e-05	0.0109011	-0.000376251	
1.87978e-05	0.00936776	-0.000232388	
2.76132e-05	0.0106252	-0.000510631	
2.63807e-05	0.00998763	-0.00029278	
-0.00196463	0.00892304	-0.000128979	
1.01686e-05	0.00941469	-0.00017421	
3.14163e-07	0.00530698	-2.65862e-05	
1.18976e-05	0.00862052	-0.000181749	
-3.48166	-6.78412e-06	-0.249045	
0.0675032	0.00990076	0.00582705	
-1.01379	0.0124002	-0.0749863	
0.00806838	0.0105287	0.00165562	
0.0178211	0.00985315	0.00197627	
-0.517726	0.0103275	-0.0408152	
-1.72727	0.00512809	-0.139368	
-1.23867	0.00933666	-0.103626	
-0.222769	0.0100485	-0.0177368	
-0.047048	0.0101103	-0.00376282	
-6.06417e-05	0.00954147	0.000682137	
-0.251351	0.0090532	-0.0191269	
-0.484248	0.0103946	-0.0396315	
0.20533	0.0114031	0.0172721	
-0.00570782	0.0120933	-0.000485766	
0.183351	0.0101874	0.0151048	
-0.847097	0.011509	-0.0660803	
0.106109	0.0124842	0.00860774	
-1.71225e-05	0.0115288	0.000184431	
-6.87141e-06	0.0100945	9.83686e-05	
-1.89109e-05	0.00895726	0.000356331	
-2.55522e-05	0.0111805	0.000412859	
6.92109e-07	0.0111438	1.80449e-05	
0.917631	-0.00348304	0.0687224	
-0.9733	0.00976112	-0.0799351	
-3.20199e-05	0.00945963	0.000396526	
-1.97772e-06	0.0109471	-5.431e-05	
-1.07225e-05	0.00624973	0.000219526	
2.32546	0.00279056	0.182962	
0.905143	0.0100935	0.071414	
0.0783694	0.00755283	0.00640829	
0.818008	0.00520461	0.0657342	
0.237633	0.008607	0.0172043	
1.13692	0.00177966	0.120487	
6.06221e-05	0.00877233	-0.000446535	
-0.902939	0.00804007	-0.0626456	
-0.487377	0.00569361	-0.0387522	
-0.101018	0.00667842	-0.00818377	
1.75498	0.00392101	0.142076	
3.61093	0.00369574	0.249733	
0.308873	0.00781792	0.0248545	
0.799631	0.00771705	0.0632433	
3.89556e-06	0.00617091	-5.65175e-05	
0.523082	0.00812919	0.0415274	
0.213484	0.00890555	0.0161679	
-0.613697	0.00788079	-0.0508274	
0.766037	0.00784973	0.0631299	
0.202701	0.00895819	0.015672	
2.47053e-05	0.00915394	-0.000280363	
1.93607e-05	0.00787608	-0.000182086	
2.64121e-05	0.0089404	-0.000365468	
1.71842e-05	0.00841931	-0.0002121	
-0.00265294	0.00751022	-0.000169428	
8.20956e-06	0.0079326	-0.00013866	
6.13918e-07	0.00448451	-3.63265e-06	
1.10467e-05	0.00728247	-0.000124646	
-3.71867	-0.00943376	-0.270947	
0.0828749	0.00842121	0.0069688	
-1.05901	0.00990164	-0.0807711	
-0.0201883	0.00896611	-0.000714895	
0.0103709	0.00831264	0.00125023	
-0.539303	0.00838379	-0.0426983	