<VTKFile type="UnstructuredGrid" version="0.1" byte_order="LittleEndian">
	<UnstructuredGrid>
		<Piece NumberOfPoints="392" NumberOfCells="392">
			<CellData Scalars="scalars">
				<DataArray type="Float64" Name="Strength" NumberOfComponents="3" Format="ascii">
0.557688	-0.349123	-0.0961893	
0.0137296	-1.04356	-0.00420072	
0.0232518	-0.939325	0.00418229	
0.127322	-0.813889	0.00757868	
0.00299384	-1.06771	0.00497172	
-0.0195692	-1.00636	0.00411011	
0.000888543	-1.05348	-0.00136054	
-0.00376052	-1.04963	0.00622326	
0.0284493	-0.856484	0.0390163	
0.0333589	-0.91987	0.00500833	
0.152823	-0.567364	0.0204351	
0.0163273	-1.02631	-0.00672437	
0.00384262	-0.97302	0.0122526	
0.00390219	-1.04337	-0.00561124	
-0.00158138	-0.889785	0.0294128	
0.0698478	-0.963506	-0.0151537	
0.0112828	-1.04744	0.00212299	
-0.0175584	-1.01706	0.0130203	
0.0142454	-1.03535	-0.0130981	
-0.0133056	-1.02984	0.0117351	
0.00118918	-1.03088	0.00242874	
-0.00388503	-1.02982	-0.00428746	
0.00151354	-1.04762	0.013082	
0.00647559	-1.05522	0.00160547	
0.00059385	-1.05471	-0.00121563	
0.00301578	-1.0251	0.00273524	
0.0116628	-0.712375	0.0651297	
0.00112554	-0.957564	0.0113074	
-0.0161636	-1.05571	0.00400984	
-0.0285173	-0.94386	-0.00407903	
-0.0153113	-1.06855	0.00184334	
0.0329441	-1.05527	-0.0119988	
0.0074651	-1.03885	-0.00170991	
-0.0523089	-0.835636	-0.0314457	
-0.348053	-0.573933	0.0317657	
-0.0144612	-1.02678	0.00471311	
-9.58912e-05	-0.977081	-0.0141126	
0.030398	-1.03993	-0.000620575	
0.000621731	-1.00828	0.00213103	
-0.0373584	-0.878861	-0.0169974	
-0.0706502	-0.964585	0.0139755	
-0.0216044	-1.05665	0.00278369	
0.0133681	-1.10278	-0.00991312	
-0.0271551	-1.02535	0.0149855	
-0.0105461	-1.03174	-0.0060549	
0.00919659	-1.04649	-0.00734555	
0.00145185	-1.03569	-0.00278514	
0.00113486	-1.07012	0.00801173	
0.00238088	-0.917684	-0.0223265	
-0.00102711	-1.04913	-0.0172068	
-0.00597196	-1.07457	-0.0055458	
-0.336773	-0.352364	0.0320601	
-0.0887789	-0.814442	-0.0431062	
-0.000303126	-0.963083	-0.0124715	
-0.000520896	-1.05304	0.0033484	
-0.00810804	-0.704459	-0.0913416	
1.5041	-0.000593359	-0.040139	
0.049649	-0.192098	-0.00334871	
0.125689	-0.164477	-0.00524732	
0.520253	-0.11033	-0.0226581	
-0.0097486	-0.206444	0.00182495	
-0.0486371	-0.206423	0.00328337	
0.000147485	-0.204751	1.69931e-05	
-0.0147878	-0.208001	0.00229995	
0.156285	-0.131507	-0.00262858	
0.150751	-0.159329	-0.0064463	
0.512326	-0.0666484	-0.0145657	
0.0499201	-0.210469	-0.00446364	
0.0389144	-0.182332	8.35558e-05	
0.0259903	-0.205285	-0.0017354	
0.000471308	-0.150765	0.0043234	
0.24914	-0.186804	-0.0165581	
0.0440347	-0.192537	-0.00257215	
-0.071004	-0.203863	0.00643133	
0.0712254	-0.204249	-0.00679181	
-0.0290384	-0.194685	0.00380445	
0.000401623	-0.191202	0.000663943	
-0.00035737	-0.204889	-0.000393672	
-6.34053e-05	-0.18974	0.00216119	
0.000838092	-0.201638	0.000381503	
0.00517901	-0.209102	-0.000899604	
0.000370502	-0.204629	0.000372414	
0.00187062	-0.102249	0.00633388	
0.000342325	-0.177157	0.0037093	
-0.0491276	-0.209626	0.0031808	
-0.146854	-0.164821	0.00729412	
-0.0215707	-0.208744	0.00196587	
0.125713	-0.205824	-0.00938961	
0.0326959	-0.210132	-0.00184278	
-0.27022	-0.139291	0.0120535	
-1.2793	-0.0699724	0.0717373	
-0.0747939	-0.212041	0.0061674	
-0.0288264	-0.18304	-0.00128646	
0.0793993	-0.207744	-0.00477084	
-7.91654e-05	-0.205604	0.000436927	
-0.179976	-0.151828	0.00722096	
-0.249218	-0.187829	0.0161535	
-0.0907928	-0.1945	0.00685442	
0.0532125	-0.201893	-0.00538606	
-0.0878118	-0.20639	0.00760369	
-0.061144	-0.196008	0.00335157	
0.0279552	-0.193018	-0.00340968	
-5.24657e-05	-0.192293	-0.000890852	
6.11119e-05	-0.201003	0.000922142	
0.000152723	-0.160169	-0.00572773	
0.000188199	-0.190018	-0.00248948	
-0.00055788	-0.202835	-0.00101294	
-0.726266	-0.0349361	0.0338314	
-0.377036	-0.126066	0.023406	
-0.000324276	-0.177671	-0.00416047	
-0.000290609	-0.206191	-0.000179627	
-0.000814715	-0.103941	-0.0107702	
2.50395	0.0283186	0.0404208	
0.0865887	-0.0595705	0.00341216	
0.244885	-0.0453159	0.0113976	
0.906218	-0.0181877	0.0367964	
-0.0255675	-0.0693071	-0.000530878	
-0.0594441	-0.0706564	-0.00211304	
-2.27673e-05	-0.0688571	-0.000139097	
-0.0290131	-0.0706759	-0.000621168	
0.289941	-0.03219	0.0165378	
0.273143	-0.04372	0.0164084	
0.871312	-0.00877851	0.0218743	
0.0766809	-0.0731658	0.00219671	
0.087109	-0.0555397	0.00461974	
0.0409096	-0.0707037	0.0013683	
0.00021807	-0.0418512	0.00277433	
0.417117	-0.0562899	0.0162073	
0.0933435	-0.0603659	0.0033357	
-0.101547	-0.0699724	-0.00254542	
0.132352	-0.0682203	0.00373291	
-0.0392167	-0.0608417	-0.000519756	
2.99644e-05	-0.0605636	0.000418678	
3.92848e-05	-0.0710055	9.70808e-05	
0.000143171	-0.0590961	0.00123745	
2.37669e-05	-0.0658833	0.000223928	
0.00996884	-0.0724907	0.000191974	
3.60002e-05	-0.0693858	0.000357898	
0.000329566	-0.0268999	0.00255302	
0.000181837	-0.0538117	0.0018406	
-0.0728495	-0.0726795	-0.00222581	
-0.281378	-0.0449327	-0.00956056	
-0.0307382	-0.0696879	-0.000701994	
0.200943	-0.0691864	0.00558278	
0.0524372	-0.0702595	0.00190402	
-0.486029	-0.0337459	-0.0238284	
-2.1978	0.00517947	-0.0594448	
-0.138217	-0.0737372	-0.00369181	
-0.071598	-0.0557761	-0.00352748	
0.110892	-0.0689995	0.0040852	
2.37699e-05	-0.071002	0.000253867	
-0.318081	-0.039491	-0.0158042	
-0.416784	-0.0563071	-0.014795	
-0.166454	-0.0600162	-0.00559641	
0.0815464	-0.0634833	0.00206452	
-0.143673	-0.0669195	-0.00441923	
-0.110427	-0.0604469	-0.00449948	
0.0425723	-0.0598336	0.00077213	
-3.44815e-05	-0.060386	-0.000574661	
9.43833e-06	-0.0646286	0.000143587	
-0.000194804	-0.0458475	-0.00242278	
-0.000163288	-0.0591389	-0.00124422	
-5.06492e-05	-0.0646075	-0.00047932	
1.16848	0.0007984	-0.00430251	
-0.661956	-0.0255321	-0.0243811	
-0.000149739	-0.0537758	-0.0017597	
-2.2568e-05	-0.0660924	-7.69798e-05	
-0.000375628	-0.0287421	-0.00142075	
3.29627	0.0277091	0.150545	
0.13502	0.0835641	0.00332737	
0.32676	0.0831863	0.0102673	
1.12195	0.0751395	0.0347242	
-0.0208613	0.0768821	-0.00094196	
-0.0819978	0.0760221	-0.00438647	
3.82631e-05	0.0759906	-0.000182179	
-0.0348306	0.0781122	-0.000588782	
0.360844	0.0765329	0.00869463	
0.361732	0.0835344	0.00874102	
1.09422	0.0438344	0.0461664	
0.113591	0.0755562	0.00307981	
0.109509	0.0858041	0.00499737	
0.0587596	0.0782276	0.00345758	
-0.000291802	0.0794404	-0.00429987	
0.582916	0.0894004	0.0319254	
0.151967	0.0817814	0.00341406	
-0.128871	0.0809315	-0.00492758	
0.183207	0.0780285	0.00930087	
-0.0531139	0.0859012	-0.00544088	
0.000203938	0.0827322	-0.00263127	
-5.31245e-05	0.0781103	0.000634643	
-0.000135375	0.086414	-0.00164053	
2.74634e-05	0.081063	-0.000817833	
0.0171774	0.0755345	0.000512571	
-7.0468e-05	0.0790522	0.000398293	
-0.000446229	0.0518543	-0.0034493	
-0.00038469	0.0846771	-0.00089412	
-0.0980301	0.0750876	-0.00272368	
-0.379529	0.0849772	-0.0130627	
-0.0717467	0.0751563	-0.00441541	
0.281712	0.0738712	0.0151482	
0.065007	0.0779606	0.000958736	
-0.575495	0.0809677	-0.0282405	
-2.78764	0.0477522	-0.144008	
-0.193409	0.0737431	-0.00709394	
-0.0906654	0.0866355	-0.00381431	
0.151928	0.0782252	0.00318736	
-3.14095e-05	0.0738305	-9.4805e-05	
-0.423285	0.0844815	-0.0188507	
-0.579924	0.089826	-0.0318028	
-0.247785	0.0848609	-0.00696341	
0.0965389	0.0822187	0.00440016	
-0.214125	0.0810435	-0.0107289	
-0.15923	0.0878691	-0.00681781	
0.0566126	0.0853004	0.00516155	
-0.000189217	0.0849325	0.00258025	
-2.1092e-05	0.0784236	-0.000193766	
0.000330379	0.0829539	0.00244017	
8.31876e-05	0.0875136	0.00211687	
6.72371e-05	0.084209	0.000540663	
1.59187	-0.013384	0.0513857	
-0.806674	0.0745215	-0.0379431	
0.00034804	0.0858418	0.00116332	
3.43156e-05	0.0815468	-0.000206803	
0.000363361	0.0486969	0.00199677	
5.7036	-0.101417	0.298532	
-2.04184	-0.382437	-0.136294	
0.633439	-0.431361	0.0861988	
1.56632	-0.121421	0.0828363	
1.95377	-0.429927	0.11887	
-1.78513	-0.542305	-0.105667	
-0.00021514	-0.554173	-0.000617702	
-0.610966	-0.3309	-0.0159092	
0.62916	-0.0958495	0.0391013	
1.15178	-0.19058	0.0758318	
-0.252876	-0.267908	-0.0102698	
-0.106923	-0.365967	-0.0103486	
3.08187	-0.299823	0.201809	
0.774752	-0.39333	0.0636964	
-0.000717264	-0.113854	0.010298	
0.836384	-0.54674	0.0861997	
-0.987585	-0.224344	-0.0755678	
0.163204	-0.122068	0.011734	
1.45911	-0.238592	0.104204	
-0.338054	-0.524877	-0.0324169	
0.00238816	-0.271525	-0.0200888	
-0.00196778	-0.312474	0.0167002	
-0.000854979	-0.555575	0.00958801	
0.000509535	-0.14381	-0.00388834	
0.0182101	-0.340635	0.00378093	
-0.000714936	-0.180318	0.00763687	
-8.86109e-05	-0.081826	0.00337772	
-0.00248719	-0.214187	0.0255043	
0.0956334	-0.340292	0.0089891	
-0.472665	-0.533748	-0.0836446	
-2.35696	-0.411535	-0.151843	
0.404173	-0.53969	0.00978631	
-0.00189514	-0.286696	-0.0126695	
-1.04408	-0.203949	-0.0806218	
-3.64441	-0.441371	-0.243479	
1.30163	-0.362936	0.0754273	
-2.76246	-0.360765	-0.178202	
0.179545	-0.273832	0.00466491	
0.000172433	-0.534646	0.00249477	
-1.18057	-0.228765	-0.0920371	
-0.805498	-0.594708	-0.0703843	
0.687479	-0.254458	0.0517	
-1.22896	-0.400287	-0.0748676	
0.34602	-0.358281	0.013195	
1.47318	-0.561743	0.0900662	
1.00932	-0.408871	0.0820396	
-0.00191918	-0.301406	0.0141181	
0.000605681	-0.271243	-0.00551839	
0.00262083	-0.292884	-0.0286597	
0.00025689	-0.600228	-0.000121934	
-0.000322805	-0.193791	0.00155977	
2.12196	0.16231	0.0625666	
-1.25467	-0.19264	-0.0884899	
0.00304249	-0.294889	-0.0295119	
0.000483404	-0.344847	-0.00672845	
0.000662959	-0.16693	-0.00997744	
4.43017	0.24586	0.297161	
0.0485607	0.576668	-0.00863449	
0.552425	0.665391	0.0282761	
1.27854	0.413653	0.083101	
1.20493	0.715095	0.0677715	
-0.910415	0.768143	-0.0678474	
0.000660222	0.737602	-0.007886	
-0.291315	0.629551	-0.030341	
0.381035	0.419486	0.0152871	
0.662436	0.516531	0.0384975	
1.14919	0.493983	0.0768818	
0.810014	0.620987	0.0548973	
0.714599	0.602521	0.042254	
0.494817	0.663375	0.0287024	
0.000925195	0.454765	-0.0114919	
1.2595	0.823265	0.0711151	
-0.644808	0.524954	-0.0524302	
-0.270943	0.484788	-0.0182615	
0.803917	0.583227	0.0625309	
-0.176835	0.781005	-0.0316747	
0.000657942	0.539821	-0.00662457	
0.000380885	0.620033	-0.00596855	
0.0013681	0.804204	-0.0161043	
0.00044736	0.497189	0.0023834	
0.0115559	0.539324	0.000542949	
4.39895e-05	0.539533	-0.000253457	
0.000297352	0.360111	-0.00604144	
0.00187035	0.544037	-0.00660738	
-0.797829	0.540743	-0.0463707	
-0.457142	0.688382	-0.0225972	
-1.42994	0.700128	-0.0946236	
0.928895	0.728964	0.0598074	
0.0750233	0.596137	0.00625368	
-0.743638	0.403925	-0.0355049	
-2.89488	0.641432	-0.202606	
-0.037975	0.618961	0.0115886	
-0.44158	0.614486	-0.026826	
-0.167712	0.582272	-0.014207	
-0.00048915	0.767257	0.00569348	
-0.694559	0.479139	-0.027068	
-1.2032	0.82994	-0.0615991	
0.449624	0.541127	0.0315565	
-0.320656	0.640514	-0.0281414	
0.336455	0.657603	0.023477	
-0.550144	0.78648	-0.0169173	
0.85627	0.584979	0.0717644	
-0.000352644	0.551485	0.0028919	
-0.00042434	0.614956	0.00338948	
-0.00142385	0.542533	0.0135125	
-0.000709391	0.811214	0.0182674	
-8.50264e-05	0.524787	-0.00508997	
3.03202	-0.287378	0.20405	
-1.51034	0.429897	-0.100566	
-0.00198043	0.560292	0.00977148	
-0.000420817	0.632124	-0.00397817	
-0.00101241	0.427378	0.0121972	
2.95954	0.0843551	0.201164	
0.451247	0.32589	0.0330208	
0.376729	0.315996	0.0304525	
0.997817	0.185643	0.0726141	
0.68745	0.346857	0.0495745	
-0.313643	0.346799	-0.0212009	
5.0393e-06	0.38469	0.000736751	
-0.354171	0.327751	-0.026184	
0.147909	0.201048	0.0117052	
0.36798	0.253474	0.0274422	
1.10331	0.141341	0.0786261	
1.23049	0.325073	0.0898345	
0.547914	0.286237	0.0428465	
0.410012	0.323657	0.032014	
-0.000258155	0.22415	0.00178265	
0.862158	0.300766	0.0640016	
-0.44998	0.282612	-0.0342458	
-0.404735	0.267402	-0.0310858	
0.525176	0.294491	0.0407527	
0.0417416	0.329079	0.00462122	
0.00014471	0.294075	-0.000134065	
-9.0009e-05	0.309046	0.00152091	
-0.000172272	0.349168	0.00144078	
0.000117604	0.274714	-0.000744145	
0.00844267	0.306873	-4.99283e-05	
-9.17208e-05	0.280811	-0.000118823	
-0.000132484	0.160687	0.00104952	
-0.000160515	0.277352	0.00258339	
-1.23499	0.307366	-0.0889358	
-0.246838	0.355964	-0.0203094	
-0.937949	0.352749	-0.0676373	
0.589373	0.388977	0.0419935	
0.0984173	0.330925	0.00675932	
-0.562533	0.242534	-0.0416268	
-2.13334	0.169732	-0.153711	
-0.330258	0.327097	-0.0254267	
-0.363877	0.315733	-0.0292557	
-0.0975117	0.326599	-0.0100984	
1.72012e-05	0.348927	-0.000868211	
-0.396856	0.257109	-0.0296708	
-0.824373	0.324897	-0.0633502	
0.394511	0.302335	0.0315358	
-0.0635515	0.364936	-0.00390545	
0.324571	0.321574	0.0245751	
-0.968786	0.347622	-0.0702333	
0.60917	0.340646	0.0422719	
-0.000168205	0.309775	0.000654081	
1.15755e-05	0.317755	-0.00052686	
0.000244287	0.28644	-0.00131772	
0.000188917	0.371077	-0.00143482	
3.11669e-05	0.304301	0.000761451	
1.7872	-0.0978839	0.119206	
-1.32338	0.233089	-0.0997082	
8.19914e-05	0.31212	-0.00184887	
-7.62093e-05	0.328255	-0.000282184	
0.000177278	0.196402	-0.00150652	
				</DataArray>
				<DataArray type="Float64" Name="Time Step Shed" NumberOfComponents="1" Format="ascii">
3	
3	
3	
3	
3	
3	
3	
3	
3	
3	
3	
3	
3	
3	
3	
3	
3	
3	
3	
3	
3	
3	
3	
3	
3	
3	
3	
3	
3	
3	
3	
3	
3	
3	
3	
3	
3	
3	
3	
3	
3	
3	
3	
3	
3	
3	
3	
3	
3	
3	
3	
3	
3	
3	
3	
3	
4	
4	
4	
4	
4	
4	
4	
4	
4	
4	
4	
4	
4	
4	
4	
4	
4	
4	
4	
4	
4	
4	
4	
4	
4	
4	
4	
4	
4	
4	
4	
4	
4	
4	
4	
4	
4	
4	
4	
4	
4	
4	
4	
4	
4	
4	
4	
4	
4	
4	
4	
4	
4	
4	
4	
4	
5	
5	
5	
5	
5	
5	
5	
5	
5	
5	
5	
5	
5	
5	
5	
5	
5	
5	
5	
5	
5	
5	
5	
5	
5	
5	
5	
5	
5	
5	
5	
5	
5	
5	
5	
5	
5	
5	
5	
5	
5	
5	
5	
5	
5	
5	
5	
5	
5	
5	
5	
5	
5	
5	
5	
5	
6	
6	
6	
6	
6	
6	
6	
6	
6	
6	
6	
6	
6	
6	
6	
6	
6	
6	
6	
6	
6	
6	
6	
6	
6	
6	
6	
6	
6	
6	
6	
6	
6	
6	
6	
6	
6	
6	
6	
6	
6	
6	
6	
6	
6	
6	
6	
6	
6	
6	
6	
6	
6	
6	
6	
6	
7	
7	
7	
7	
7	
7	
7	
7	
7	
7	
7	
7	
7	
7	
7	
7	
7	
7	
7	
7	
7	
7	
7	
7	
7	
7	
7	
7	
7	
7	
7	
7	
7	
7	
7	
7	
7	
7	
7	
7	
7	
7	
7	
7	
7	
7	
7	
7	
7	
7	
7	
7	
7	
7	
7	
7	
8	
8	
8	
8	
8	
8	
8	
8	
8	
8	
8	
8	
8	
8	
8	
8	
8	
8	
8	
8	
8	
8	
8	
8	
8	
8	
8	
8	
8	
8	
8	
8	
8	
8	
8	
8	
8	
8	
8	
8	
8	
8	
8	
8	
8	
8	
8	
8	
8	
8	
8	
8	
8	
8	
8	
8	
9	
9	
9	
9	
9	
9	
9	
9	
9	
9	
9	
9	
9	
9	
9	
9	
9	
9	
9	
9	
9	
9	
9	
9	
9	
9	
9	
9	
9	
9	
9	
9	
9	
9	
9	
9	
9	
9	
9	
9	
9	
9	
9	
9	
9	
9	
9	
9	
9	
9	
9	
9	
9	
9	
9	
9	
				</DataArray>
			</CellData>
			<Points>
				<DataArray type="Float64" Name="Position" NumberOfComponents="3" Format="ascii">
1.15414	1.96127	0.0246505	
1.21663	1.03579	-0.0256438	
1.21287	1.46649	-0.0241745	
1.19709	1.74928	-0.000676665	
1.22059	0.321226	-0.0339928	
1.22214	0.176695	-0.0213995	
1.22241	0.251399	-0.0192235	
1.22168	0.391776	-0.0293967	
1.19946	1.67948	-0.00163227	
1.2093	1.53412	-0.0189657	
1.17331	1.89045	0.0179457	
1.22221	0.107766	-0.02718	
1.21464	1.32108	-0.022453	
1.22217	0.463502	-0.0274279	
1.20377	1.60762	-0.0128257	
1.21576	1.24952	-0.0184036	
1.21549	0.895229	-0.0370713	
1.2172	0.750274	-0.00763177	
1.21802	0.605136	-0.00850522	
1.21782	1.10764	-0.0316947	
1.2174	0.964357	-0.0362108	
1.22065	0.534046	-0.0138961	
1.21751	1.17936	-0.0303563	
1.21738	0.823106	-0.0148935	
1.22155	0.0361884	-0.0252153	
1.221	0.678271	-0.0255173	
1.1837	1.81934	0.0125042	
1.21408	1.39582	-0.023956	
1.22196	-0.0368729	-0.029324	
1.21427	-1.4662	-0.0211615	
1.21981	-0.323291	-0.0341209	
1.22325	-0.249819	-0.0203855	
1.22001	-0.394989	-0.0349428	
1.20403	-1.67919	0.00038293	
1.1778	-1.89124	0.023056	
1.22223	-0.109281	-0.0278457	
1.21677	-1.3236	-0.0219657	
1.22067	-0.465283	-0.0281177	
1.22151	-0.177246	-0.0178335	
1.2096	-1.60657	-0.014847	
1.2184	-1.25005	-0.0214156	
1.21694	-0.894261	-0.033635	
1.22079	-0.751569	-0.0201508	
1.21834	-0.608453	-0.0138658	
1.21934	-1.10637	-0.0284697	
1.21646	-1.03666	-0.0238937	
1.21903	-0.964652	-0.0345558	
1.22077	-0.535418	-0.0295491	
1.2096	-1.53514	-0.0322894	
1.21895	-1.17906	-0.0266554	
1.21923	-0.824288	-0.0235857	
1.15733	-1.96479	0.0295077	
1.19837	-1.74821	0.00437742	
1.2165	-1.39728	-0.0259904	
1.22005	-0.678749	-0.0328178	
1.19039	-1.82156	0.0132795	
1.0588	1.96282	0.0128402	
1.09071	1.03357	0.0486932	
1.08225	1.46307	0.0389467	
1.07066	1.74612	0.0234685	
1.09221	0.321903	0.0566558	
1.09204	0.177041	0.0544065	
1.09257	0.251251	0.0570083	
1.09153	0.392349	0.0555566	
1.06476	1.67548	0.00991995	
1.06935	1.53273	0.017468	
1.06298	1.88931	0.0143068	
1.09204	0.108325	0.0550099	
1.08203	1.31926	0.0400655	
1.08986	0.459657	0.0531961	
1.07767	1.60457	0.0307953	
1.08248	1.24707	0.0442414	
1.08832	0.896028	0.0479779	
1.08227	0.749535	0.045133	
1.08704	0.604991	0.0507703	
1.08986	1.10725	0.0494167	
1.08815	0.963213	0.047187	
1.08965	0.533164	0.0546004	
1.08751	1.17955	0.0484424	
1.08771	0.822856	0.0496498	
1.09005	0.038027	0.0523985	
1.09024	0.676612	0.0571288	
1.06373	1.81814	0.0123425	
1.08479	1.39164	0.0437149	
1.09246	-0.0370553	0.0572523	
1.07941	-1.4649	0.0362703	
1.09319	-0.32372	0.0580594	
1.09091	-0.2498	0.0573723	
1.09173	-0.39558	0.0566402	
1.07058	-1.67552	0.0256617	
1.06464	-1.8916	0.0259869	
1.09204	-0.108445	0.0554334	
1.08602	-1.32166	0.0482388	
1.08945	-0.467504	0.0548118	
1.09171	-0.176976	0.0554426	
1.07753	-1.60337	0.0353787	
1.08429	-1.25266	0.0479527	
1.08789	-0.894518	0.0488805	
1.08515	-0.750854	0.0492949	
1.08729	-0.60699	0.0498465	
1.08884	-1.10483	0.049883	
1.08809	-1.03422	0.047766	
1.08911	-0.962472	0.0515792	
1.08943	-0.533465	0.0541456	
1.08387	-1.53096	0.040404	
1.09158	-1.17769	0.0541161	
1.08762	-0.823884	0.0510689	
1.05938	-1.96648	0.0185938	
1.07112	-1.74625	0.0291536	
1.0844	-1.39337	0.045711	
1.09196	-0.678281	0.0576207	
1.06866	-1.81936	0.028695	
0.823162	1.96384	-0.0258962	
0.754319	1.03491	-0.0297826	
0.757498	1.46473	-0.0376239	
0.761175	1.74814	-0.0451129	
0.754479	0.318161	-0.0259476	
0.754236	0.178569	-0.0186782	
0.753031	0.249393	-0.0201059	
0.753226	0.39016	-0.0170388	
0.760263	1.67478	-0.0472391	
0.758589	1.53253	-0.042087	
0.764415	1.88961	-0.032797	
0.754072	0.105824	-0.0198736	
0.755933	1.32037	-0.0322783	
0.753834	0.464898	-0.0206395	
0.759404	1.60178	-0.0445684	
0.755256	1.24717	-0.0300578	
0.754233	0.893854	-0.0254102	
0.753654	0.748737	-0.0188974	
0.753848	0.602623	-0.019824	
0.755146	1.10682	-0.0322184	
0.754477	0.963982	-0.0277302	
0.754485	0.53552	-0.0225846	
0.753893	1.17849	-0.0302951	
0.753644	0.819767	-0.0216224	
0.754497	0.0344113	-0.0207959	
0.753844	0.678238	-0.0191195	
0.761983	1.81588	-0.0362634	
0.756968	1.39438	-0.0341386	
0.754275	-0.036777	-0.0219556	
0.756717	-1.46273	-0.0324508	
0.753533	-0.320227	-0.0192791	
0.7532	-0.251983	-0.0158315	
0.753397	-0.394104	-0.0181055	
0.759201	-1.67613	-0.033431	
0.762932	-1.89459	-0.019916	
0.753694	-0.1087	-0.0198102	
0.755299	-1.3225	-0.026991	
0.752076	-0.465991	-0.0184409	
0.753355	-0.177748	-0.0148592	
0.758754	-1.60373	-0.0344137	
0.755428	-1.24961	-0.0258783	
0.753166	-0.893273	-0.0244368	
0.753701	-0.751548	-0.0218581	
0.753328	-0.611677	-0.0204685	
0.754984	-1.10473	-0.0301527	
0.753651	-1.03423	-0.0258043	
0.753187	-0.965759	-0.0257296	
0.753557	-0.53808	-0.0243827	
0.758473	-1.53337	-0.0332842	
0.754053	-1.17784	-0.0262013	
0.753193	-0.82246	-0.0218767	
0.822635	-1.96565	-0.0201479	
0.759436	-1.74701	-0.0286896	
0.757427	-1.39174	-0.0281721	
0.753556	-0.68264	-0.021685	
0.760891	-1.82221	-0.0235718	
0.591293	1.9656	-0.0513685	
0.493813	1.03429	-0.0987063	
0.492512	1.4642	-0.100065	
0.489831	1.75014	-0.0958398	
0.494427	0.320897	-0.0914267	
0.491517	0.178034	-0.0856881	
0.493087	0.250012	-0.0894165	
0.493188	0.39315	-0.0906684	
0.490836	1.67669	-0.0989792	
0.492583	1.53487	-0.102088	
0.486425	1.89227	-0.0776539	
0.492296	0.104541	-0.0867183	
0.491647	1.32372	-0.0988695	
0.492927	0.463062	-0.0895683	
0.492176	1.60634	-0.102484	
0.491959	1.24962	-0.097951	
0.493543	0.892252	-0.0909053	
0.493029	0.751141	-0.088784	
0.492103	0.606475	-0.0868296	
0.492943	1.10572	-0.098702	
0.493529	0.964121	-0.094925	
0.494262	0.536033	-0.0887177	
0.49254	1.17867	-0.0991458	
0.494377	0.819808	-0.0936395	
0.493472	0.0332924	-0.0873983	
0.492937	0.677698	-0.086235	
0.488046	1.81915	-0.0859495	
0.491632	1.39424	-0.100071	
0.493878	-0.0363318	-0.0888192	
0.491831	-1.4614	-0.0937056	
0.492923	-0.322943	-0.0875187	
0.492325	-0.252585	-0.0861053	
0.49292	-0.397156	-0.0882651	
0.489547	-1.682	-0.0879185	
0.485391	-1.89355	-0.069888	
0.492751	-0.108968	-0.0873572	
0.490894	-1.32426	-0.092699	
0.492951	-0.466701	-0.0881161	
0.491679	-0.180048	-0.0847441	
0.491027	-1.60824	-0.0951013	
0.492377	-1.25023	-0.0954916	
0.493217	-0.892089	-0.0897289	
0.493813	-0.752678	-0.091425	
0.491304	-0.608031	-0.0872348	
0.492336	-1.11059	-0.094758	
0.493451	-1.03677	-0.0945187	
0.493279	-0.96444	-0.0926932	
0.493129	-0.539294	-0.08678	
0.491416	-1.53543	-0.0958432	
0.492467	-1.17939	-0.0944857	
0.493918	-0.821756	-0.0923794	
0.590777	-1.96584	-0.0462288	
0.490586	-1.74668	-0.0861063	
0.491376	-1.39474	-0.0935825	
0.493652	-0.680048	-0.0881139	
0.487493	-1.82368	-0.0743597	
0.360397	1.9673	-0.0769508	
0.206876	1.03597	-0.128048	
0.205892	1.46581	-0.124419	
0.203132	1.7514	-0.108666	
0.206689	0.322147	-0.125216	
0.206813	0.177705	-0.122738	
0.207898	0.250341	-0.127955	
0.205368	0.39468	-0.120949	
0.203285	1.67759	-0.1109	
0.204133	1.53846	-0.119466	
0.202807	1.89436	-0.104772	
0.205276	0.107246	-0.11399	
0.205498	1.32236	-0.127336	
0.205028	0.465296	-0.117996	
0.203787	1.60578	-0.114292	
0.207735	1.25107	-0.140087	
0.204091	0.891365	-0.10929	
0.202738	0.747339	-0.104014	
0.204347	0.607306	-0.108688	
0.208263	1.10547	-0.139479	
0.20525	0.96311	-0.119721	
0.20524	0.534354	-0.113521	
0.208721	1.17588	-0.14577	
0.203197	0.819897	-0.103419	
0.205534	0.0341655	-0.114255	
0.2036	0.677384	-0.103632	
0.203055	1.81841	-0.10233	
0.204903	1.39218	-0.121732	
0.205728	-0.0366832	-0.115819	
0.206356	-1.46744	-0.126077	
0.20622	-0.325107	-0.119444	
0.207881	-0.251691	-0.126634	
0.204704	-0.39915	-0.109329	
0.203909	-1.67847	-0.110628	
0.203018	-1.89438	-0.104817	
0.205556	-0.110295	-0.118506	
0.205301	-1.32209	-0.124042	
0.203901	-0.466768	-0.111748	
0.207218	-0.178679	-0.124547	
0.204489	-1.60677	-0.1156	
0.207224	-1.25236	-0.136187	
0.204471	-0.893653	-0.110127	
0.204992	-0.74979	-0.116132	
0.205163	-0.608264	-0.113011	
0.207772	-1.10728	-0.135068	
0.206618	-1.03686	-0.123408	
0.205766	-0.965633	-0.117783	
0.205007	-0.535314	-0.110149	
0.205188	-1.53627	-0.120447	
0.208473	-1.18134	-0.138995	
0.203869	-0.822257	-0.108382	
0.359963	-1.96653	-0.0741548	
0.203743	-1.74644	-0.10764	
0.205021	-1.39282	-0.120858	
0.205387	-0.679305	-0.115675	
0.202834	-1.82105	-0.101451	
0.129846	1.96563	-0.0986315	
-0.0791528	1.03348	-0.128788	
-0.0814067	1.46439	-0.126272	
-0.0830552	1.74905	-0.120739	
-0.0810952	0.322368	-0.124543	
-0.0815576	0.178691	-0.123344	
-0.0798761	0.250676	-0.127105	
-0.08178	0.394266	-0.123439	
-0.083104	1.67654	-0.121306	
-0.0821804	1.53402	-0.123749	
-0.0835574	1.89323	-0.11884	
-0.0812823	0.107504	-0.123351	
-0.0819149	1.32138	-0.126845	
-0.0824053	0.464217	-0.121085	
-0.0826937	1.60581	-0.12233	
-0.080932	1.24875	-0.12984	
-0.0818179	0.891757	-0.121293	
-0.0838151	0.749274	-0.115661	
-0.0825226	0.60841	-0.117134	
-0.0797358	1.10517	-0.131408	
-0.0799693	0.962858	-0.12827	
-0.0822509	0.536757	-0.11999	
-0.0799977	1.17606	-0.13239	
-0.0831278	0.820807	-0.118	
-0.0809318	0.0356551	-0.124582	
-0.0841124	0.675614	-0.115423	
-0.0836431	1.82066	-0.117235	
-0.0803999	1.38845	-0.125045	
-0.0808227	-0.0368521	-0.124224	
-0.0806027	-1.46556	-0.128649	
-0.0815338	-0.323785	-0.121714	
-0.080157	-0.252358	-0.125416	
-0.0819587	-0.39682	-0.120629	
-0.0821076	-1.67823	-0.123263	
-0.0836483	-1.89165	-0.11786	
-0.0814197	-0.109025	-0.122596	
-0.0817332	-1.32179	-0.125452	
-0.0827493	-0.467164	-0.119244	
-0.0813494	-0.178701	-0.122602	
-0.081963	-1.6063	-0.124823	
-0.0807684	-1.25013	-0.128307	
-0.0822335	-0.893683	-0.120681	
-0.0809343	-0.751	-0.123104	
-0.0824051	-0.608316	-0.118539	
-0.0793926	-1.10739	-0.132358	
-0.0789059	-1.03551	-0.129429	
-0.0801257	-0.96521	-0.127808	
-0.0824474	-0.537973	-0.118068	
-0.0817814	-1.5341	-0.126202	
-0.0796081	-1.18058	-0.130839	
-0.0823787	-0.821813	-0.119603	
0.129613	-1.96465	-0.0972894	
-0.0824408	-1.748	-0.121856	
-0.0815976	-1.39263	-0.123628	
-0.0819334	-0.678749	-0.121459	
-0.0835358	-1.82022	-0.117604	
-0.100788	1.96459	-0.121033	
-0.366959	1.03221	-0.153289	
-0.366902	1.4638	-0.14978	
-0.366889	1.74953	-0.149895	
-0.367092	0.322497	-0.148985	
-0.367119	0.179643	-0.149002	
-0.367068	0.251007	-0.15034	
-0.367175	0.393846	-0.149041	
-0.366923	1.67749	-0.148685	
-0.366829	1.53411	-0.148964	
-0.366987	1.89233	-0.147526	
-0.367055	0.107657	-0.149937	
-0.366947	1.31998	-0.149473	
-0.367233	0.463877	-0.14943	
-0.36691	1.60596	-0.148955	
-0.367031	1.24925	-0.149844	
-0.366933	0.892001	-0.15025	
-0.366891	0.751067	-0.148523	
-0.367216	0.606865	-0.147968	
-0.367041	1.10612	-0.151056	
-0.366955	0.964434	-0.152588	
-0.366808	0.537688	-0.148832	
-0.366998	1.17662	-0.150283	
-0.366982	0.821031	-0.148906	
-0.366803	0.0349485	-0.150835	
-0.367303	0.678674	-0.147709	
-0.366855	1.81939	-0.146911	
-0.366826	1.39245	-0.149727	
-0.366819	-0.0354227	-0.150907	
-0.366959	-1.46412	-0.151124	
-0.367127	-0.323329	-0.14849	
-0.367027	-0.251557	-0.150623	
-0.367014	-0.394689	-0.148127	
-0.366844	-1.6777	-0.149611	
-0.367072	-1.89163	-0.146604	
-0.367113	-0.107926	-0.149756	
-0.366927	-1.32176	-0.14964	
-0.367168	-0.465348	-0.148202	
-0.367075	-0.180515	-0.14833	
-0.366828	-1.60595	-0.150115	
-0.366924	-1.25043	-0.149797	
-0.367008	-0.893616	-0.149572	
-0.366982	-0.750919	-0.150158	
-0.36709	-0.606981	-0.147532	
-0.367061	-1.10856	-0.152782	
-0.366669	-1.03581	-0.15194	
-0.366967	-0.964762	-0.152022	
-0.366843	-0.537858	-0.147314	
-0.366604	-1.53335	-0.149713	
-0.366734	-1.17975	-0.151167	
-0.367184	-0.821554	-0.1489	
-0.100931	-1.96412	-0.12009	
-0.366869	-1.74939	-0.149426	
-0.367026	-1.39374	-0.149707	
-0.367129	-0.678845	-0.148241	
-0.367028	-1.82005	-0.147484	
				</DataArray>
			</Points>
			<Cells>
				<DataArray type="Int32" Name="connectivity" Format="ascii">
0	
1	
2	
3	
4	
5	
6	
7	
8	
9	
10	
11	
12	
13	
14	
15	
16	
17	
18	
19	
20	
21	
22	
23	
24	
25	
26	
27	
28	
29	
30	
31	
32	
33	
34	
35	
36	
37	
38	
39	
40	
41	
42	
43	
44	
45	
46	
47	
48	
49	
50	
51	
52	
53	
54	
55	
56	
57	
58	
59	
60	
61	
62	
63	
64	
65	
66	
67	
68	
69	
70	
71	
72	
73	
74	
75	
76	
77	
78	
79	
80	
81	
82	
83	
84	
85	
86	
87	
88	
89	
90	
91	
92	
93	
94	
95	
96	
97	
98	
99	
100	
101	
102	
103	
104	
105	
106	
107	
108	
109	
110	
111	
112	
113	
114	
115	
116	
117	
118	
119	
120	
121	
122	
123	
124	
125	
126	
127	
128	
129	
130	
131	
132	
133	
134	
135	
136	
137	
138	
139	
140	
141	
142	
143	
144	
145	
146	
147	
148	
149	
150	
151	
152	
153	
154	
155	
156	
157	
158	
159	
160	
161	
162	
163	
164	
165	
166	
167	
168	
169	
170	
171	
172	
173	
174	
175	
176	
177	
178	
179	
180	
181	
182	
183	
184	
185	
186	
187	
188	
189	
190	
191	
192	
193	
194	
195	
196	
197	
198	
199	
200	
201	
202	
203	
204	
205	
206	
207	
208	
209	
210	
211	
212	
213	
214	
215	
216	
217	
218	
219	
220	
221	
222	
223	
224	
225	
226	
227	
228	
229	
230	
231	
232	
233	
234	
235	
236	
237	
238	
239	
240	
241	
242	
243	
244	
245	
246	
247	
248	
249	
250	
251	
252	
253	
254	
255	
256	
257	
258	
259	
260	
261	
262	
263	
264	
265	
266	
267	
268	
269	
270	
271	
272	
273	
274	
275	
276	
277	
278	
279	
280	
281	
282	
283	
284	
285	
286	
287	
288	
289	
290	
291	
292	
293	
294	
295	
296	
297	
298	
299	
300	
301	
302	
303	
304	
305	
306	
307	
308	
309	
310	
311	
312	
313	
314	
315	
316	
317	
318	
319	
320	
321	
322	
323	
324	
325	
326	
327	
328	
329	
330	
331	
332	
333	
334	
335	
336	
337	
338	
339	
340	
341	
342	
343	
344	
345	
346	
347	
348	
349	
350	
351	
352	
353	
354	
355	
356	
357	
358	
359	
360	
361	
362	
363	
364	
365	
366	
367	
368	
369	
370	
371	
372	
373	
374	
375	
376	
377	
378	
379	
380	
381	
382	
383	
384	
385	
386	
387	
388	
389	
390	
391	
				</DataArray>
				<DataArray type="Int32" Name="offsets" Format="ascii">
1	
2	
3	
4	
5	
6	
7	
8	
9	
10	
11	
12	
13	
14	
15	
16	
17	
18	
19	
20	
21	
22	
23	
24	
25	
26	
27	
28	
29	
30	
31	
32	
33	
34	
35	
36	
37	
38	
39	
40	
41	
42	
43	
44	
45	
46	
47	
48	
49	
50	
51	
52	
53	
54	
55	
56	
57	
58	
59	
60	
61	
62	
63	
64	
65	
66	
67	
68	
69	
70	
71	
72	
73	
74	
75	
76	
77	
78	
79	
80	
81	
82	
83	
84	
85	
86	
87	
88	
89	
90	
91	
92	
93	
94	
95	
96	
97	
98	
99	
100	
101	
102	
103	
104	
105	
106	
107	
108	
109	
110	
111	
112	
113	
114	
115	
116	
117	
118	
119	
120	
121	
122	
123	
124	
125	
126	
127	
128	
129	
130	
131	
132	
133	
134	
135	
136	
137	
138	
139	
140	
141	
142	
143	
144	
145	
146	
147	
148	
149	
150	
151	
152	
153	
154	
155	
156	
157	
158	
159	
160	
161	
162	
163	
164	
165	
166	
167	
168	
169	
170	
171	
172	
173	
174	
175	
176	
177	
178	
179	
180	
181	
182	
183	
184	
185	
186	
187	
188	
189	
190	
191	
192	
193	
194	
195	
196	
197	
198	
199	
200	
201	
202	
203	
204	
205	
206	
207	
208	
209	
210	
211	
212	
213	
214	
215	
216	
217	
218	
219	
220	
221	
222	
223	
224	
225	
226	
227	
228	
229	
230	
231	
232	
233	
234	
235	
236	
237	
238	
239	
240	
241	
242	
243	
244	
245	
246	
247	
248	
249	
250	
251	
252	
253	
254	
255	
256	
257	
258	
259	
260	
261	
262	
263	
264	
265	
266	
267	
268	
269	
270	
271	
272	
273	
274	
275	
276	
277	
278	
279	
280	
281	
282	
283	
284	
285	
286	
287	
288	
289	
290	
291	
292	
293	
294	
295	
296	
297	
298	
299	
300	
301	
302	
303	
304	
305	
306	
307	
308	
309	
310	
311	
312	
313	
314	
315	
316	
317	
318	
319	
320	
321	
322	
323	
324	
325	
326	
327	
328	
329	
330	
331	
332	
333	
334	
335	
336	
337	
338	
339	
340	
341	
342	
343	
344	
345	
346	
347	
348	
349	
350	
351	
352	
353	
354	
355	
356	
357	
358	
359	
360	
361	
362	
363	
364	
365	
366	
367	
368	
369	
370	
371	
372	
373	
374	
375	
376	
377	
378	
379	
380	
381	
382	
383	
384	
385	
386	
387	
388	
389	
390	
391	
392	
				</DataArray>
				<DataArray type="Int32" Name="types" Format="ascii">
1	
1	
1	
1	
1	
1	
1	
1	
1	
1	
1	
1	
1	
1	
1	
1	
1	
1	
1	
1	
1	
1	
1	
1	
1	
1	
1	
1	
1	
1	
1	
1	
1	
1	
1	
1	
1	
1	
1	
1	
1	
1	
1	
1	
1	
1	
1	
1	
1	
1	
1	
1	
1	
1	
1	
1	
1	
1	
1	
1	
1	
1	
1	
1	
1	
1	
1	
1	
1	
1	
1	
1	
1	
1	
1	
1	
1	
1	
1	
1	
1	
1	
1	
1	
1	
1	
1	
1	
1	
1	
1	
1	
1	
1	
1	
1	
1	
1	
1	
1	
1	
1	
1	
1	
1	