<VTKFile type="UnstructuredGrid" version="0.1" byte_order="LittleEndian">
	<UnstructuredGrid>
		<Piece NumberOfPoints="1400" NumberOfCells="1400">
			<CellData Scalars="scalars">
				<DataArray type="Float64" Name="Strength" NumberOfComponents="3" Format="ascii">
0.52968	-0.383563	-0.120378	
0.00061672	-1.04351	0.0178958	
-0.0236629	-0.939198	0.0149875	
-0.0170613	-0.821825	0.0554042	
0.00158772	-1.06753	0.0204551	
-0.0214121	-1.00563	0.0377482	
0.00127496	-1.05324	0.0225554	
-0.0132839	-1.04935	0.0215946	
-0.0893231	-0.846384	0.107627	
-0.0356045	-0.919632	0.017291	
0.0894813	-0.578558	0.0542827	
0.0100125	-1.02633	0.0122986	
-0.024938	-0.972131	0.0356128	
-0.02129	-1.04316	0.00440525	
-0.0897341	-0.88275	0.0727087	
0.0254826	-0.965809	0.00244633	
0.0434264	-1.04657	-0.00750928	
0.0202514	-1.01708	-0.00219703	
-0.000968009	-1.03543	-0.0138724	
-0.0413815	-1.0278	0.0529888	
0.0126492	-1.03073	0.0131002	
-0.0300525	-1.02938	0.00626325	
-0.0372135	-1.04572	0.0525361	
0.0517735	-1.05371	-0.0230458	
0.00426569	-1.05469	0.00438266	
0.0165594	-1.02493	-0.00864872	
-0.101955	-0.69677	0.126674	
-0.0301886	-0.956803	0.02583	
0.00204194	-1.05572	-0.0161126	
0.0267786	-0.943735	-0.0186194	
-0.0269865	-1.06831	-0.00357565	
0.0258189	-1.05472	-0.0416097	
-0.00248844	-1.03887	-0.00365151	
0.10881	-0.822006	-0.120604	
-0.267582	-0.614567	-0.0470868	
0.00914913	-1.0264	-0.0305129	
0.0331923	-0.976079	-0.0324652	
0.0251018	-1.04006	-0.00457991	
0.0141469	-1.00774	-0.0299213	
0.0934867	-0.871521	-0.0762714	
-0.020639	-0.967033	0.00546717	
-0.0268437	-1.05649	0.00876843	
-0.0110748	-1.10285	-0.00214733	
-0.028376	-1.02516	0.0229835	
0.0307732	-1.03054	-0.0410395	
0.0351556	-1.04522	-0.0395491	
0.0111886	-1.0355	-0.016838	
0.00209221	-1.07008	0.0115534	
0.0852169	-0.912149	-0.0580982	
0.0456031	-1.04664	-0.0587203	
-0.0253826	-1.0743	0.00309612	
-0.308361	-0.377725	-0.028417	
0.0702873	-0.800205	-0.166878	
0.03878	-0.962001	-0.0270704	
-0.0146116	-1.05292	0.0075367	
0.0895438	-0.662601	-0.239997	
1.49682	0.0259465	-0.151524	
0.0478491	-0.192329	-0.00982273	
0.124629	-0.164034	-0.0209007	
0.505686	-0.14425	-0.0827678	
-0.00901425	-0.206396	0.00600303	
-0.0467221	-0.206192	0.0169857	
-0.000153281	-0.20474	0.0018552	
-0.0136989	-0.207939	0.00781264	
0.148739	-0.139464	-0.0123575	
0.145929	-0.16142	-0.0282998	
0.50669	-0.0731466	-0.07115	
0.0460054	-0.210728	-0.0168893	
0.0403971	-0.182006	7.27007e-05	
0.0243596	-0.205399	-0.0060973	
-0.00181366	-0.149759	0.0178322	
0.239218	-0.188389	-0.0672716	
0.0465763	-0.191482	-0.0134273	
-0.0618696	-0.205544	0.0238299	
0.0684259	-0.203935	-0.0237485	
-0.0282022	-0.193894	0.0192342	
0.00361112	-0.191143	0.00305141	
-0.000647971	-0.204883	0.00118514	
0.000222007	-0.189444	0.0107914	
0.00643173	-0.201532	-0.00114679	
0.00398969	-0.209088	-0.00408453	
0.00326818	-0.204601	-0.00021152	
-4.62703e-05	-0.101179	0.0161564	
0.00481255	-0.176479	0.0151666	
-0.0471292	-0.209745	0.0123098	
-0.141746	-0.167058	0.0279938	
-0.0193855	-0.208706	0.0103971	
0.120381	-0.205271	-0.04039	
0.031268	-0.21027	-0.00602125	
-0.252354	-0.163783	0.0454093	
-1.21302	-0.192663	0.37214	
-0.0700149	-0.212512	0.0230111	
-0.0308335	-0.182625	-0.00572368	
0.0751913	-0.208142	-0.0225481	
0.00139278	-0.205592	-0.00163136	
-0.169046	-0.162132	0.0251084	
-0.238812	-0.190796	0.0649318	
-0.088278	-0.193727	0.028211	
0.046638	-0.202667	-0.0193072	
-0.0849	-0.205447	0.0307907	
-0.0560064	-0.197309	0.00998898	
0.0274888	-0.192358	-0.0170774	
-0.000967117	-0.192226	-0.00497598	
-0.000755718	-0.200986	0.00250938	
0.000414403	-0.158538	-0.0234908	
0.000487794	-0.189651	-0.012029	
-0.00395407	-0.202791	-0.0016815	
-0.71635	-0.077029	0.103963	
-0.348567	-0.168221	0.0938929	
-0.00459857	-0.176785	-0.0176051	
-0.00311157	-0.206166	-0.000213739	
-0.00309538	-0.0962072	-0.0406705	
2.49623	0.203519	-0.00284123	
0.0870933	-0.0586407	0.00581252	
0.244131	-0.0427892	0.0268729	
0.90173	0.00109732	0.0991507	
-0.0256488	-0.069279	2.72041e-05	
-0.0595244	-0.0706073	-0.00147502	
-0.000132756	-0.0688556	-0.000178135	
-0.0289981	-0.0706848	-0.000213246	
0.285823	-0.0280472	0.0538137	
0.269987	-0.0393808	0.0483977	
0.87009	0.0521867	-0.000236716	
0.0766412	-0.0732409	0.000565548	
0.0877819	-0.053495	0.0112346	
0.0410983	-0.0705967	0.00115236	
-0.00105798	-0.0403211	0.0115006	
0.417508	-0.048416	0.0277495	
0.0938465	-0.0595516	0.00383161	
-0.101428	-0.0701992	0.000738654	
0.13254	-0.0679519	0.00132427	
-0.0386068	-0.0611916	0.00233105	
0.000520288	-0.0605265	0.00207348	
0.000281962	-0.0710012	0.000615331	
0.000855522	-0.0588665	0.00527434	
0.000423309	-0.0658761	0.000832175	
0.00985232	-0.0725042	-0.000454064	
0.000223076	-0.0693777	0.00102454	
0.00165369	-0.0246573	0.0109297	
0.000615068	-0.0533187	0.00746308	
-0.0731023	-0.0724501	-0.00131009	
-0.28231	-0.0397576	-0.0029092	
-0.0302324	-0.0699011	0.00118204	
0.201422	-0.068043	-0.000731971	
0.0528022	-0.0699518	0.00295057	
-0.484891	-0.0225372	-0.0480723	
-2.19413	0.120362	0.0738524	
-0.138407	-0.0734834	-0.000182303	
-0.0730085	-0.0536875	-0.00606398	
0.111044	-0.0687046	0.00503673	
0.000150033	-0.0709982	0.000636326	
-0.317664	-0.0320849	-0.0323669	
-0.41811	-0.046178	-0.0126756	
-0.166939	-0.0586752	-0.00549	
0.0812494	-0.0639054	-0.000100915	
-0.143828	-0.0666931	-0.00248131	
-0.111131	-0.0588943	-0.00703399	
0.0420289	-0.0601855	-0.00218312	
-0.000470837	-0.0603146	-0.00293838	
-5.18822e-05	-0.0646227	0.000811395	
-0.000295969	-0.0445404	-0.0111332	
-0.00116749	-0.0588577	-0.00577339	
-0.000425103	-0.0645869	-0.0016107	
1.16548	-0.045782	-0.0707917	
-0.662486	0.00273317	-0.0235455	
-0.00141186	-0.0532229	-0.00775806	
-0.0002615	-0.0660897	-0.000402596	
-0.00218614	-0.0280502	-0.00605439	
3.29314	0.0940598	0.189355	
0.137263	0.0780329	-0.0172552	
0.323979	0.092825	-0.0152072	
1.11738	0.123862	-0.0431796	
-0.0214208	0.0767223	0.00120667	
-0.0813832	0.0764417	-0.00747841	
0.000384317	0.0759729	-0.00152203	
-0.0365193	0.0768891	0.00830931	
0.358398	0.0840612	-0.0253466	
0.362159	0.0819726	-0.0060189	
1.09331	0.0774515	0.0117793	
0.115658	0.0713617	-0.0123943	
0.103789	0.0923453	0.00909187	
0.0573433	0.0787493	0.00974956	
0.000357645	0.0766084	-0.021448	
0.573961	0.121615	0.0680161	
0.153288	0.0768462	-0.0198681	
-0.128602	0.0812835	0.00607212	
0.183149	0.0782872	0.00851081	
-0.0511017	0.0842204	-0.0229014	
0.00216399	0.0804898	-0.019175	
0.000374002	0.0779113	0.00557226	
-0.00145917	0.0859572	-0.00889564	
-0.000135111	0.0808703	-0.00562076	
0.0180288	0.075324	-0.00135922	
4.12841e-05	0.078909	0.00474391	
-0.00381578	0.0476784	-0.0203254	
-0.0051615	0.0845092	0.00162988	
-0.0988714	0.0733356	0.0101417	
-0.375713	0.099653	0.0189395	
-0.0707245	0.0754306	-0.0111545	
0.281169	0.0739493	0.0230545	
0.0653474	0.0764504	-0.0137679	
-0.572667	0.098645	-0.0299386	
-2.7863	0.107021	-0.139729	
-0.195204	0.068687	0.00882387	
-0.0834368	0.0936706	-0.00268805	
0.151402	0.0761394	-0.0222056	
-0.000133108	0.073825	-0.000747197	
-0.421996	0.0867656	-0.0327361	
-0.573091	0.120164	-0.0505912	
-0.246626	0.0850275	0.0245513	
0.0970634	0.0817139	-0.000511267	
-0.2144	0.0799984	-0.013138	
-0.160635	0.084214	0.0152748	
0.0548574	0.0844637	0.0190598	
-0.0016855	0.0831981	0.0171707	
-0.00118206	0.0783983	0.00154855	
-0.000893466	0.082195	0.0114291	
0.00149329	0.0867386	0.0117094	
0.00108664	0.0841845	0.0017273	
1.59209	-0.0314185	0.0360429	
-0.803374	0.109288	-0.0203424	
0.0061478	0.0856087	0.00190547	
0.000219568	0.081522	-0.00194169	
0.00210097	0.0477454	0.00956422	
5.70504	-0.0713775	0.283549	
-1.96167	-0.636024	-0.286667	
0.550318	-0.368556	0.394647	
1.56357	-0.169792	0.0399864	
1.92796	-0.524177	0.157653	
-1.77255	-0.583685	-0.0987462	
-0.00415219	-0.553892	-0.0165763	
-0.642033	-0.251661	0.0873714	
0.623407	-0.11912	0.0612033	
1.10548	-0.290632	0.249575	
-0.254166	-0.265162	0.030656	
-0.0916505	-0.367821	-0.0421174	
2.98652	-0.778097	0.325628	
0.719376	-0.453531	0.189421	
-0.013036	-0.0873242	0.07261	
0.765561	-0.559164	0.327037	
-0.945162	-0.317484	-0.193356	
0.161967	-0.121992	0.0236005	
1.42721	-0.340976	0.209449	
-0.303938	-0.528784	-0.137329	
0.0498202	-0.222924	-0.14821	
-0.042344	-0.279145	0.135046	
-0.0306718	-0.54726	0.0914447	
0.0109892	-0.140806	-0.0273393	
0.0190403	-0.339573	0.0264381	
-0.0130947	-0.173156	0.0491294	
-0.000762797	-0.0775371	0.0263452	
-0.0380482	-0.129331	0.168401	
0.0845408	-0.34071	0.042289	
-0.334	-0.45975	-0.438345	
-2.30776	-0.607522	-0.231392	
0.434625	-0.508794	-0.0836399	
0.0287352	-0.272353	-0.0857111	
-1.01108	-0.289883	-0.178446	
-3.63362	-0.488468	-0.30726	
1.29265	-0.392144	0.0847542	
-2.68264	-0.738127	-0.230423	
0.202585	-0.254901	-0.0352231	
0.00778488	-0.533518	0.0337345	
-1.12222	-0.342809	-0.27867	
-0.756825	-0.636572	-0.171236	
0.661291	-0.303134	0.104516	
-1.22706	-0.398748	-0.107491	
0.361235	-0.342638	-0.0202892	
1.41999	-0.672504	0.160216	
0.927218	-0.524327	0.241102	
-0.0506577	-0.279614	0.101527	
0.0158797	-0.26841	-0.0360998	
0.0708489	-0.21669	-0.186139	
0.00751118	-0.600149	0.00482198	
-0.00803593	-0.193174	0.013223	
2.12204	0.17193	0.0249564	
-1.2358	-0.276534	-0.124583	
0.0579121	-0.220414	-0.189436	
0.0114165	-0.34026	-0.055244	
0.00795789	-0.155316	-0.0614584	
4.42966	0.25993	0.296228	
0.0574214	0.564878	-0.112158	
0.537866	0.674993	-0.0618111	
1.24481	0.476357	0.191407	
1.1689	0.768732	0.10423	
-0.889342	0.758464	-0.239304	
-0.0123343	0.734359	-0.0678984	
-0.305979	0.604698	-0.150736	
0.363432	0.432671	-0.0457593	
0.630365	0.555165	-0.0417742	
1.14713	0.499317	0.0752033	
0.783773	0.630475	0.181804	
0.701473	0.618541	0.0306087	
0.456031	0.689819	0.044463	
-0.0158135	0.434239	-0.13424	
1.22753	0.86832	0.0940337	
-0.603143	0.54242	-0.190064	
-0.250727	0.492673	-0.0560788	
0.775201	0.601498	0.166696	
-0.163	0.750514	-0.228601	
0.0244154	0.535853	-0.060903	
-0.0239473	0.614955	-0.0752307	
-0.00333768	0.785779	-0.171498	
0.0219044	0.49634	0.0187336	
0.0186324	0.538993	0.0110465	
0.00109479	0.539512	0.00145857	
-0.00352003	0.352165	-0.0751317	
0.00040052	0.534256	-0.102449	
-0.769119	0.574647	-0.0970972	
-0.431565	0.701164	0.0744621	
-1.39692	0.719982	-0.273212	
0.936025	0.709148	0.137061	
0.0757648	0.595139	0.0328561	
-0.721422	0.442399	-0.0358499	
-2.89045	0.633176	-0.279655	
-0.023075	0.610849	0.104615	
-0.426127	0.624803	-0.0375515	
-0.162527	0.583368	-0.0252002	
0.0163957	0.766261	0.0349584	
-0.668118	0.515398	0.0253945	
-1.17151	0.872875	-0.0795388	
0.410358	0.567675	0.0727759	
-0.335077	0.621501	-0.123901	
0.324781	0.66006	0.0705914	
-0.539155	0.79416	0.0130978	
0.823497	0.560111	0.297574	
-0.0210612	0.549688	0.039295	
5.49091e-05	0.611911	0.0610663	
0.0339475	0.51129	0.178526	
0.0114065	0.794889	0.161994	
-0.0252729	0.520707	-0.0602251	
3.03418	-0.275217	0.190602	
-1.46577	0.501256	-0.277389	
-0.00396631	0.550535	0.103788	
-0.0169011	0.631725	-0.0143371	
-0.00654124	0.41638	0.0961249	
2.95812	0.0902491	0.220135	
0.44344	0.32835	0.0806934	
0.377374	0.316752	0.00367625	
0.986322	0.202989	0.146345	
0.672247	0.362815	0.108787	
-0.303709	0.345734	-0.0855733	
-0.00253773	0.383276	-0.0330783	
-0.335149	0.323208	-0.129516	
0.147055	0.202018	-0.00400587	
0.365621	0.258395	0.00217927	
1.1011	0.143565	0.102495	
1.18376	0.32574	0.347323	
0.548722	0.279014	0.0712547	
0.400288	0.323793	0.094016	
0.000633741	0.221272	-0.0360105	
0.855856	0.296748	0.1319	
-0.432262	0.288288	-0.116313	
-0.389644	0.274155	-0.0962527	
0.51627	0.292646	0.109749	
0.0501746	0.326358	-0.0324642	
0.00520183	0.293617	-0.0156724	
0.0011487	0.308568	-0.0173518	
0.013637	0.345351	-0.0499852	
0.00415043	0.274683	-0.00172577	
0.0093328	0.306848	-0.00105324	
0.00356718	0.280777	-0.00286496	
0.0011118	0.159328	-0.0209417	
0.0116949	0.273243	-0.0464768	
-1.18881	0.341029	-0.313407	
-0.250298	0.352839	0.0312237	
-0.913184	0.369935	-0.195107	
0.574004	0.367936	0.188792	
0.0930308	0.330294	0.0386664	
-0.557417	0.247562	-0.0712138	
-2.12686	0.166156	-0.229505	
-0.318514	0.334071	-0.0604919	
-0.366665	0.311859	-0.0359602	
-0.0983322	0.324713	-0.0342728	
0.005287	0.348122	0.023308	
-0.393351	0.261808	-0.0356089	
-0.814235	0.317442	-0.159641	
0.378285	0.305491	0.107566	
-0.0665409	0.362425	-0.0383239	
0.311643	0.327007	0.0727156	
-0.951725	0.342278	-0.203725	
0.583706	0.335024	0.189656	
-0.00452018	0.309556	0.0108688	
-0.00124938	0.317756	-0.000112178	
-0.00225625	0.279346	0.0636155	
-0.0130885	0.36753	0.0498517	
-0.00581587	0.303584	-0.0202172	
1.78671	-0.0946417	0.129469	
-1.30171	0.243339	-0.249189	
-0.014022	0.304314	0.0682497	
-0.00461155	0.327777	-0.0172025	
-0.0043302	0.192388	0.0394993	
2.44035	0.0427336	0.188442	
0.596217	0.166802	0.0796457	
0.307301	0.139522	0.0190999	
0.850785	0.0938532	0.0905076	
0.446208	0.170376	0.0398162	
0.00649518	0.161837	-0.00900066	
-0.00170997	0.178103	-0.014824	
-0.419919	0.148733	-0.0861198	
-0.000825174	0.0937153	-0.0105388	
0.225367	0.119129	0.00490321	
1.10489	0.0643419	0.0935114	
1.52493	0.162706	0.287566	
0.492883	0.133745	0.0468911	
0.441299	0.156093	0.0618677	
6.05527e-05	0.105035	-0.0123181	
0.661149	0.141567	0.0646402	
-0.335882	0.147757	-0.0558745	
-0.499286	0.140915	-0.0778439	
0.444413	0.145166	0.0630627	
0.0858479	0.155887	-0.00660021	
0.00184986	0.149104	-0.00683414	
0.000343453	0.150294	-0.00650513	
0.00225035	0.157906	-0.0224844	
0.000999376	0.139742	-0.000929316	
0.00581632	0.146409	0.00116738	
0.000457446	0.142057	0.00104814	
0.00019328	0.0737881	-0.00645575	
0.0015388	0.126544	-0.016714	
-1.55689	0.173685	-0.268185	
-0.166448	0.154726	0.000144077	
-0.754489	0.178059	-0.0994436	
0.421949	0.171624	0.0927443	
0.101483	0.158106	0.0238683	
-0.449041	0.125855	-0.0423692	
-1.82461	0.0708207	-0.165364	
-0.489636	0.170726	-0.0487435	
-0.349561	0.144033	-0.0458893	
-0.089024	0.157904	-0.0131862	
0.00250745	0.162501	0.014868	
-0.277619	0.125667	-0.0182269	
-0.628737	0.147565	-0.0876516	
0.360327	0.157217	0.0639408	
0.0525683	0.17595	-0.000212305	
0.299057	0.160524	0.0444459	
-0.976645	0.164848	-0.135747	
0.436741	0.174989	0.0882924	
-0.00163993	0.158035	0.00391765	
-0.000671531	0.155866	0.000247023	
-0.00199907	0.130885	0.0251582	
-0.00284123	0.167665	0.0216415	
-0.000874139	0.154451	-0.0088848	
1.33712	-0.0420911	0.101475	
-1.16742	0.122341	-0.154909	
-0.00323261	0.13995	0.0279373	
-0.000737289	0.16271	-0.0101529	
-0.00106155	0.084504	0.0136323	
2.23876	0.022695	0.166786	
0.578896	0.0956778	0.0614294	
0.271597	0.0692194	0.0159444	
0.817452	0.0544137	0.0720891	
0.405966	0.0814501	0.027313	
0.188366	0.0792833	0.0101618	
-0.00132699	0.0837142	-0.00697752	
-0.459762	0.0728612	-0.0628304	
-0.066263	0.047717	-0.0110859	
0.172676	0.0577422	0.00639953	
1.12834	0.0338389	0.0878016	
1.71559	0.0827656	0.263273	
0.444754	0.0703947	0.0355339	
0.419876	0.081975	0.0446054	
-5.51259e-05	0.0521832	-0.00572779	
0.569323	0.0745486	0.0465365	
-0.216338	0.0812598	-0.0269958	
-0.478853	0.0721859	-0.0569445	
0.442602	0.0736906	0.0498861	
0.087595	0.0802583	0.000827122	
0.000455526	0.0844967	-0.00415043	
-0.00018751	0.07307	-0.00268702	
0.000148108	0.0791359	-0.00937383	
0.000696012	0.07599	-0.00207688	
0.00456992	0.0752395	0.000671439	
0.000135587	0.0705049	-0.000455737	
-5.14392e-05	0.0395834	-0.00299357	
0.000118064	0.0614593	-0.00798152	
-1.75836	0.115762	-0.228751	
-0.125825	0.0748881	-0.00138488	
-0.790592	0.0881824	-0.082191	
0.315925	0.0793772	0.0578712	
0.0811453	0.0801926	0.0138445	
-0.443696	0.0729205	-0.0366563	
-1.72419	0.0364154	-0.13797	
-0.583846	0.095756	-0.0545706	
-0.319095	0.0734549	-0.0249441	
-0.0185239	0.0821639	-0.00224685	
0.00175227	0.0747026	0.00760899	
-0.258309	0.0647526	-0.0173214	
-0.539879	0.0784295	-0.0569044	
0.289382	0.0866163	0.0340518	
0.044741	0.0911402	0.00214594	
0.29299	0.0784947	0.0333663	
-0.862013	0.0874639	-0.0983355	
0.354476	0.0964406	0.0495827	
-0.000594299	0.0879754	0.00184402	
-0.000227508	0.0769946	5.46396e-05	
-0.000578896	0.0629224	0.0105666	
-0.00019375	0.0829853	0.00844654	
-0.000319279	0.0820915	-0.00296073	
1.14473	-0.0219836	0.0813161	
-1.08649	0.0756486	-0.10872	
-0.000551794	0.0673194	0.0109281	
-0.000229917	0.0809639	-0.00408259	
-9.23157e-05	0.0422946	0.00621258	
2.1616	0.0153972	0.159997	
0.62102	0.0620192	0.0575224	
0.220149	0.0460411	0.0147525	
0.791009	0.0344816	0.0664468	
0.356508	0.0512817	0.033156	
0.351102	0.0547432	0.021212	
-0.000738718	0.0530447	-0.00448366	
-0.511628	0.0442879	-0.0577756	
-0.136635	0.0303878	-0.0142878	
0.114502	0.0392039	0.00532646	
1.19108	0.0223834	0.0922052	
1.96691	0.059675	0.242954	
0.400505	0.049653	0.0295958	
0.460671	0.0506973	0.0439812	
-2.59905e-05	0.0347053	-0.0027616	
0.54537	0.0528028	0.0409167	
-0.131016	0.0517965	-0.0148464	
-0.498259	0.0475244	-0.0504431	
0.46986	0.0480547	0.0475258	
0.107186	0.0533678	0.00553729	
0.000170647	0.0534748	-0.0028942	
-2.32438e-05	0.0470119	-0.0020494	
6.05061e-05	0.053153	-0.00616283	
0.000374115	0.0484904	-0.00149389	
0.00321995	0.0439822	0.000316552	
7.41522e-05	0.0464052	-0.000552174	
-2.49557e-05	0.0248473	-0.0015693	
4.50687e-06	0.0432116	-0.00390056	
-2.01855	0.0701774	-0.229322	
-0.0762937	0.0495397	-0.00104941	
-0.797874	0.0569596	-0.0767038	
0.247664	0.0503805	0.0364362	
0.0723662	0.0488442	0.0101162	
-0.43607	0.0494186	-0.0345065	
-1.67524	0.0248886	-0.132644	
-0.693802	0.0649666	-0.0569881	
-0.285808	0.0521346	-0.0181043	
-0.0172602	0.049814	-0.00112981	
0.000863119	0.0479222	0.00499095	
-0.237388	0.0437999	-0.0162878	
-0.509468	0.0558029	-0.0471668	
0.257678	0.0561442	0.0273491	
0.0435096	0.059169	0.00255369	
0.270016	0.0510405	0.0269388	
-0.838732	0.0603729	-0.0781953	
0.291107	0.0616513	0.035097	
-0.000254957	0.0562972	0.00139715	
-0.00017347	0.0494111	0.000343768	
-0.000373531	0.0429115	0.0060622	
-5.3107e-05	0.0558978	0.00551386	
-0.000108351	0.0536887	-0.00146626	
1.05952	-0.0151713	0.0744272	
-1.04138	0.052562	-0.0935827	
-0.000295677	0.0467664	0.00654985	
-0.000106499	0.0532156	-0.0021249	
4.25454e-05	0.0283252	0.00331452	
2.12792	0.0110087	0.157674	
0.663808	0.0422721	0.0508575	
0.18473	0.0318051	0.0128016	
0.774335	0.0228512	0.0634086	
0.318111	0.0358051	0.0188668	
0.486146	0.0360326	0.0512572	
-0.000134983	0.0365101	-0.00307117	
-0.567192	0.0311229	-0.0564837	
-0.198672	0.0222341	-0.0177843	
0.0710307	0.0275508	0.00380894	
1.26305	0.0160844	0.0976382	
2.21553	0.0413029	0.224039	
0.3688	0.0336547	0.0280613	
0.512393	0.0337121	0.0456299	
6.5803e-05	0.0250569	-0.00162488	
0.534719	0.0353306	0.0407394	
-0.0697732	0.0369205	-0.00787574	
-0.503805	0.0325452	-0.0476462	
0.508072	0.0330491	0.0398647	
0.123981	0.0372431	0.00643232	
0.000204346	0.0377016	-0.00209344	
9.10357e-05	0.0325058	-0.0015068	
0.000266961	0.0372811	-0.00407086	
0.000107711	0.0347452	-0.0013127	
0.00156752	0.030429	0.000177774	
3.20011e-05	0.0324301	-0.000592285	
3.6127e-05	0.0179413	-0.000974001	
0.000140296	0.0305075	-0.00225687	
-2.27413	0.0283316	-0.225995	
-0.0393653	0.0349568	0.000257063	
-0.813522	0.0370818	-0.0702534	
0.191365	0.0348514	0.0211439	
0.0618923	0.0336441	0.00800652	
-0.436154	0.0341141	-0.033393	
-1.65092	0.0175093	-0.129359	
-0.789596	0.0379944	-0.0751063	
-0.261655	0.0358365	-0.0201814	
-0.0264064	0.0343508	-0.00198014	
1.99793e-05	0.0329309	0.0035465	
-0.229106	0.0307677	-0.0158358	
-0.49872	0.0369493	-0.0438226	
0.24409	0.0392998	0.0270987	
0.0329456	0.0418171	0.00204037	
0.246466	0.0354367	0.0229303	
-0.829713	0.0394192	-0.0693019	
0.245182	0.0432704	0.0248842	
-0.000133297	0.0396842	0.00114397	
-6.41359e-05	0.0345577	0.000327446	
-0.00013499	0.0308574	0.00334144	
-0.000242927	0.0391901	0.00352767	
1.43238e-06	0.0383921	-0.000638872	
1.00486	-0.0112042	0.070773	
-1.01105	0.0332707	-0.0863914	
-0.000287297	0.0332919	0.00405425	
1.23911e-05	0.0375809	-0.0011755	
-8.78375e-05	0.0206111	0.00218609	
2.12485	0.00812451	0.159237	
0.702159	0.0325928	0.0530676	
0.156786	0.0229298	0.0113538	
0.768708	0.0173043	0.0624716	
0.293584	0.027082	0.0161813	
0.610128	0.0349572	0.0445341	
-0.000203772	0.026462	-0.00236422	
-0.624777	0.0213197	-0.0582955	
-0.253011	0.0159093	-0.0213427	
0.0348112	0.0198076	0.00181351	
1.34065	0.0117086	0.104241	
2.46017	0.0385547	0.191765	
0.346989	0.0246896	0.0262271	
0.562209	0.0258088	0.0488227	
3.76823e-05	0.0180896	-0.000987532	
0.526944	0.0261892	0.0405517	
-0.0150007	0.0268846	-0.0025291	
-0.515835	0.0239443	-0.0463409	
0.548887	0.0250697	0.0477269	
0.138112	0.0273903	0.00862825	
0.000104261	0.0275735	-0.00167969	
4.1766e-05	0.0236913	-0.0010937	
0.000115526	0.0269597	-0.00277783	
0.000116742	0.0253621	-0.00111375	
0.00112746	0.0221591	0.000144209	
2.75806e-05	0.0237534	-0.000508362	
1.12408e-05	0.0130417	-0.000569245	
7.37933e-05	0.0219306	-0.00152418	
-2.52423	0.0297536	-0.230881	
-0.0105177	0.0254084	0.00152504	
-0.844218	0.0295434	-0.0682585	
0.145757	0.0247799	0.0159933	
0.0520504	0.0246479	0.00641023	
-0.444253	0.026522	-0.0344401	
-1.64275	0.0130372	-0.128948	
-0.884455	0.0386382	-0.0618274	
-0.245512	0.0264445	-0.0184718	
-0.031729	0.0253806	-0.0023419	
0.000106372	0.0239658	0.00282734	
-0.228024	0.0231368	-0.016478	
-0.491635	0.0279318	-0.041671	
0.233228	0.0288401	0.0228708	
0.0242935	0.0305773	0.00153123	
0.228587	0.0259373	0.0205168	
-0.825789	0.0303889	-0.0657804	
0.20773	0.0314501	0.019682	
-7.90554e-05	0.0291338	0.000873245	
-4.55764e-05	0.0253529	0.000412281	
-7.65669e-05	0.022631	0.00221071	
-0.000103001	0.0285643	0.00239224	
5.34087e-06	0.028117	-0.000375098	
0.967362	-0.00827513	0.069022	
-0.99234	0.027072	-0.083407	
-0.000176177	0.0242608	0.00269391	
8.33036e-08	0.0275507	-0.000678495	
-3.80344e-05	0.0153672	0.00149027	
2.14492	0.00627478	0.162801	
0.739408	0.0248336	0.0586247	
0.136076	0.0172521	0.0101172	
0.774339	0.0134958	0.0630029	
0.279326	0.0198695	0.013017	
0.721036	0.022608	0.0871014	
-5.24836e-05	0.0197062	-0.00177993	
-0.67935	0.016845	-0.0574395	
-0.302879	0.0120063	-0.0250673	
0.00349646	0.0149582	-0.000515561	
1.41706	0.00887062	0.111434	
2.68801	0.0250798	0.215608	
0.333203	0.0185799	0.0255087	
0.608198	0.0192913	0.0516401	
2.6022e-05	0.0137432	-0.000640638	
0.522434	0.0197569	0.0404012	
0.0384074	0.0202665	0.00229406	
-0.531157	0.0181281	-0.0463009	
0.590241	0.0187684	0.0533267	
0.151749	0.0207008	0.0104551	
7.21804e-05	0.0208677	-0.0011911	
4.92518e-05	0.0177788	-0.000837232	
8.80541e-05	0.0202653	-0.00198666	
9.46196e-05	0.0190203	-0.000901767	
0.000309787	0.0169108	5.79415e-05	
3.39931e-05	0.0178085	-0.000467331	
7.39538e-06	0.0101323	-0.000353931	
4.63842e-05	0.0164921	-0.000973082	
-2.76148	0.0227025	-0.246185	
0.0127489	0.0191091	0.00265674	
-0.885153	0.0223918	-0.0678325	
0.10585	0.0188075	0.0110036	
0.0421143	0.0186209	0.00498082	
-0.458679	0.0206721	-0.0359631	
-1.65336	0.0097909	-0.130973	
-0.973999	0.029219	-0.0781711	
-0.236476	0.0198395	-0.0163584	
-0.0341942	0.0192437	-0.00250611	
2.93979e-05	0.0178655	0.00206862	
-0.231027	0.0177252	-0.0171506	
-0.486823	0.0211561	-0.0406229	
0.221963	0.0219697	0.0212603	
0.0147855	0.0231257	0.00092757	
0.213699	0.0195299	0.0187162	
-0.82443	0.0231827	-0.0655948	
0.177186	0.0238948	0.0159732	
-5.69845e-05	0.0221956	0.000667448	
-3.23435e-05	0.019101	0.000322855	
-5.88575e-05	0.0171642	0.00154621	
-7.32192e-05	0.0215226	0.0016846	
1.2818e-06	0.0212989	-0.000173674	
0.94416	-0.00647662	0.068408	
-0.978736	0.0212482	-0.0816805	
-0.000122415	0.0183007	0.00184987	
-5.19095e-06	0.0207944	-0.000392997	
-2.83812e-05	0.0116626	0.00100368	
2.18002	0.00494997	0.167093	
0.77766	0.0178948	0.0608561	
0.117464	0.0133471	0.00904754	
0.783102	0.00956435	0.063486	
0.265897	0.0160677	0.0103083	
0.828042	0.00631657	0.115148	
7.76619e-05	0.0155325	-0.00139495	
-0.73467	0.0142979	-0.0547643	
-0.351108	0.0096498	-0.0285677	
-0.0261286	0.011716	-0.00263466	
1.49758	0.0068837	0.119317	
2.91851	0.00756179	0.236072	
0.324238	0.0139514	0.0251473	
0.656146	0.0139527	0.0546748	
2.55233e-05	0.0107431	-0.000396251	
0.51995	0.0145894	0.0401654	
0.0870905	0.0159016	0.00636771	
-0.549046	0.0139555	-0.047037	
0.633419	0.013998	0.053118	
0.165696	0.0158578	0.0117206	
9.20666e-05	0.0163959	-0.000989853	
5.70765e-05	0.0139912	-0.000625144	
0.000112321	0.0159099	-0.00148049	
5.30576e-05	0.0149782	-0.000736792	
-0.000549885	0.0132196	-2.14815e-05	
2.93467e-05	0.0140441	-0.000404701	
1.23703e-05	0.00784215	-0.000208152	
4.98523e-05	0.0129477	-0.000623311	
-3.0016	-0.0032245	-0.256043	
0.0330546	0.014935	0.00393755	
-0.926897	0.01668	-0.0683673	
0.0706006	0.01488	0.00652176	
0.0331165	0.0147024	0.00395091	
-0.478534	0.015282	-0.0373871	
-1.67227	0.00766273	-0.133687	
-1.06013	0.00745273	-0.125566	
-0.230797	0.015256	-0.015624	
-0.0383938	0.015117	-0.00287817	
-0.000102342	0.014128	0.00167187	
-0.234201	0.0134365	-0.0174531	
-0.484707	0.0153933	-0.0399283	
0.214104	0.0170831	0.0196292	
0.0074195	0.0182003	0.000401784	
0.200811	0.0152808	0.0172046	
-0.827827	0.0165361	-0.0656135	
0.150903	0.0189524	0.013178	
-4.95243e-05	0.0174443	0.000521272	
-2.82794e-05	0.0150818	0.000328908	
-6.62149e-05	0.0135149	0.00108396	
-9.81444e-05	0.0168718	0.00121965	
5.37452e-06	0.0167812	-5.45939e-05	
0.929403	-0.00512531	0.0681134	
-0.971641	0.0145175	-0.0800768	
-0.000102295	0.0143658	0.00131204	
7.71255e-06	0.0164334	-0.000265614	
-4.10279e-05	0.00925714	0.000704807	
2.22286	0.00405473	0.17212	
0.819332	0.0162643	0.0628067	
0.103055	0.0108456	0.00769527	
0.792513	0.00819939	0.0641508	
0.255408	0.0131253	0.0133449	
0.93412	0.00868449	0.111695	
4.65955e-05	0.0125993	-0.00113078	
-0.790308	0.0109765	-0.0631201	
-0.397499	0.00779947	-0.0320345	
-0.0521023	0.00947928	-0.00450762	
1.58289	0.00567125	0.126895	
3.15323	0.0083438	0.197373	
0.316629	0.0117112	0.0240927	
0.703811	0.0120047	0.0585713	
1.58263e-05	0.00877323	-0.000255435	
0.519372	0.0124216	0.0404994	
0.130439	0.0129732	0.00960102	
-0.568978	0.0113508	-0.0479525	
0.677303	0.011948	0.0603871	
0.177741	0.0132838	0.0130674	
5.16704e-05	0.0132108	-0.000811819	
3.58484e-05	0.0113446	-0.000490418	
5.77356e-05	0.012845	-0.00111715	
5.33353e-05	0.012158	-0.000623892	
-0.00123413	0.0107582	-8.16479e-05	
2.39267e-05	0.0114257	-0.000346937	
4.28327e-06	0.00636057	-0.000130627	
2.48519e-05	0.0104032	-0.000417299	
-3.24273	0.00329295	-0.246197	
0.0514259	0.0120486	0.00510719	
-0.969739	0.0160215	-0.0741358	
0.037953	0.0122419	0.00491796	
0.0251938	0.0118703	0.00307299	
-0.496544	0.0131659	-0.0390772	
-1.69725	0.0063287	-0.136398	
-1.15159	0.0155308	-0.0926141	
-0.226588	0.0123527	-0.0170572	
-0.0422894	0.0122733	-0.00322906	
-5.52715e-05	0.0114557	0.00137668	
-0.2422	0.0112265	-0.0183135	
-0.483734	0.0129806	-0.039648	
0.20869	0.013886	0.0179438	
-0.000170967	0.0146679	-0.000172773	
0.191606	0.0123766	0.0162579	
-0.836428	0.0142798	-0.0653926	
0.127847	0.0151344	0.0110045	
-3.66854e-05	0.0140266	0.000411709	
-2.11149e-05	0.012194	0.000286737	
-4.04408e-05	0.0108804	0.000789824	
-5.49398e-05	0.013593	0.000910345	
-5.63452e-07	0.013523	-8.48445e-06	
0.921332	-0.00419953	0.0682718	
-0.971531	0.0131848	-0.0799246	
-7.1137e-05	0.0115401	0.000958592	
2.54945e-06	0.0132183	-0.000183841	
-2.14919e-05	0.00755668	0.000533518	
2.27262	0.0033644	0.177605	
0.861785	0.0135343	0.0682876	
0.0900461	0.00895455	0.00706087	
0.80483	0.00683145	0.0652423	
0.245913	0.0112897	0.0128084	
1.03768	0.00766553	0.106862	
6.14313e-05	0.0104258	-0.000895407	
-0.846411	0.00989406	-0.0640283	
-0.4428	0.00643054	-0.0356407	
-0.0769967	0.00786302	-0.00634497	
1.66812	0.00469055	0.13444	
3.38015	0.005477	0.25449	
0.311701	0.00966697	0.0238511	
0.75141	0.00959379	0.0619288	
9.77681e-06	0.0072788	-0.000166043	
0.520591	0.0102977	0.0408101	
0.173192	0.0106868	0.0130105	
-0.591042	0.0094405	-0.0494946	
0.721183	0.00989712	0.0633596	
0.190025	0.0110129	0.014021	
4.2629e-05	0.0108899	-0.000620822	
3.26785e-05	0.0093627	-0.000387336	
4.50628e-05	0.0106025	-0.000862271	
4.58953e-05	0.00997878	-0.000511979	
-0.00195165	0.00892583	-0.000136633	
2.10064e-05	0.00941202	-0.00028543	
2.33577e-06	0.0053065	-8.25936e-05	
1.72028e-05	0.00861744	-0.000295153	
-3.47987	0.00294454	-0.272594	
0.0674793	0.00985363	0.00616812	
-1.01362	0.0128715	-0.0770936	
0.0080512	0.010381	0.002478	
0.0178096	0.00981385	0.002255	
-0.517696	0.0109088	-0.0410146	
-1.72731	0.00517245	-0.139527	
-1.23873	0.0128477	-0.102396	
-0.222826	0.010163	-0.0169278	
-0.0470474	0.0101441	-0.00367281	
-6.41828e-05	0.00950367	0.00108783	
-0.251334	0.00926972	-0.0192359	
-0.484232	0.010691	-0.0396976	
0.205292	0.0114122	0.017692	
-0.00570511	0.0120914	-0.000559204	
0.183325	0.0102211	0.0153768	
-0.847033	0.0119155	-0.0667358	
0.106081	0.0124476	0.00899375	
-2.73667e-05	0.0115259	0.00032267	
-1.75018e-05	0.0100927	0.000221113	
-3.26746e-05	0.00894412	0.000602814	
-4.12728e-05	0.011167	0.000688319	
-4.00753e-07	0.0111439	9.92019e-06	
0.917647	-0.00348216	0.0686887	
-0.973255	0.0110121	-0.0802876	
-5.35588e-05	0.00944224	0.000697141	
6.0276e-07	0.0109466	-0.000120402	
-1.85875e-05	0.00624104	0.00039681	
2.32541	0.00282954	0.183072	
0.905133	0.0100551	0.0713983	
0.078369	0.00754466	0.00641465	
0.817955	0.00533564	0.0663213	
0.237932	0.0102734	0.010987	
1.13462	-0.00528234	0.140273	
8.56513e-05	0.00875096	-0.000755438	
-0.90322	0.00896927	-0.0581202	
-0.487341	0.00562777	-0.0391681	
-0.100945	0.00663128	-0.00906223	
1.75501	0.00397512	0.142112	
3.6097	-0.00677064	0.266157	
0.308889	0.00785489	0.0246033	
0.799462	0.00691618	0.0652973	
7.51875e-06	0.00617031	-0.000106045	
0.523092	0.00821068	0.0413163	
0.213492	0.00890312	0.0160272	
-0.613656	0.00787895	-0.051218	
0.76584	0.007439	0.0654123	
0.202738	0.00897198	0.0151432	
4.49665e-05	0.00914357	-0.000516977	
3.64937e-05	0.00787156	-0.000322437	
4.95487e-05	0.0089226	-0.000671815	
3.21362e-05	0.00841188	-0.000412633	
-0.00264648	0.00751228	-0.000181515	
1.82491e-05	0.00793028	-0.000238205	
3.44698e-06	0.00448473	-4.85441e-05	
1.7955e-05	0.0072804	-0.000214671	
-3.71705	-0.0167345	-0.291266	
0.0828504	0.00840307	0.00726484	
-1.05911	0.0106377	-0.0792474	
-0.020214	0.00893077	0.000223215	
0.0103545	0.0082914	0.00150129	
-0.539291	0.00855905	-0.0427667	
-1.75958	0.00438654	-0.142706	
-1.32294	-0.00310995	-0.137834	
-0.221618	0.00842156	-0.0163006	
-0.0516448	0.00853188	-0.00413141	
-9.14681e-05	0.00799651	0.000904299	