<VTKFile type="UnstructuredGrid" version="0.1" byte_order="LittleEndian">
	<UnstructuredGrid>
		<Piece NumberOfPoints="1568" NumberOfCells="1568">
			<CellData Scalars="scalars">
				<DataArray type="Float64" Name="Strength" NumberOfComponents="3" Format="ascii">
0.522851	-0.389986	-0.129281	
-4.83306e-05	-1.04339	0.0237798	
-0.0251178	-0.939179	0.0137891	
-0.0441271	-0.820276	0.0629091	
0.00464482	-1.0674	0.0257056	
-0.0174427	-1.00523	0.0488178	
0.00528902	-1.053	0.0317077	
-0.0116701	-1.04928	0.0252815	
-0.110101	-0.843315	0.112346	
-0.0422765	-0.919402	0.0141593	
0.0746803	-0.580368	0.0573293	
0.0123846	-1.0262	0.0196967	
-0.0260194	-0.971987	0.0386288	
-0.0229108	-1.04313	0.00511781	
-0.101062	-0.881432	0.0737949	
0.021287	-0.965902	0.00470394	
0.0491504	-1.04634	-0.00416718	
0.0274779	-1.01692	-0.00122474	
-0.00130412	-1.03544	-0.0135882	
-0.0438224	-1.02731	0.0600528	
0.0156877	-1.0306	0.0183899	
-0.0317539	-1.02932	0.00709635	
-0.0409371	-1.04528	0.0581533	
0.059363	-1.05334	-0.0218535	
0.00695009	-1.05466	0.00698279	
0.0200768	-1.02487	-0.00867238	
-0.123418	-0.691405	0.136555	
-0.030669	-0.956776	0.0262953	
0.00420005	-1.05563	-0.0210354	
0.033483	-0.94352	-0.0186118	
-0.0311967	-1.06814	-0.0117586	
0.0216345	-1.05426	-0.0539892	
-0.00618165	-1.03882	-0.00896831	
0.136336	-0.816113	-0.132072	
-0.253485	-0.619788	-0.0557909	
0.0101412	-1.02604	-0.0407173	
0.0371399	-0.975869	-0.0344551	
0.0226035	-1.0401	-0.00784093	
0.0134577	-1.00734	-0.0415111	
0.115356	-0.868369	-0.0820822	
-0.0130405	-0.967167	0.00501569	
-0.0284038	-1.05646	0.00749815	
-0.0155228	-1.10279	-0.00310376	
-0.0293273	-1.02513	0.0235227	
0.0367861	-1.03013	-0.0461437	
0.0382484	-1.04489	-0.0450468	
0.0116608	-1.03543	-0.0203355	
0.00122673	-1.07009	0.0111762	
0.0984939	-0.910619	-0.0610726	
0.0518312	-1.04603	-0.0640294	
-0.0293484	-1.0742	0.0019726	
-0.305428	-0.379818	-0.0318438	
0.0967245	-0.793446	-0.184921	
0.0424678	-0.961824	-0.0278327	
-0.0175052	-1.05288	0.0067378	
0.104557	-0.652414	-0.260905	
1.49361	0.0241818	-0.18072	
0.0476117	-0.192338	-0.0107649	
0.124608	-0.163635	-0.0239396	
0.501065	-0.153077	-0.0942449	
-0.00862037	-0.206389	0.00680216	
-0.0459478	-0.20613	0.0196461	
-3.36045e-05	-0.204735	0.00241262	
-0.0131071	-0.207945	0.00864692	
0.146549	-0.141521	-0.0148997	
0.144806	-0.161571	-0.0328484	
0.50432	-0.0774328	-0.0825649	
0.045005	-0.210793	-0.0186797	
0.0411419	-0.181839	-0.000440544	
0.0243275	-0.205373	-0.00702439	
-0.00222176	-0.149722	0.0180892	
0.236652	-0.188327	-0.0759635	
0.0468609	-0.191302	-0.014915	
-0.0596157	-0.205845	0.0268001	
0.0677274	-0.203796	-0.0267575	
-0.0272454	-0.193788	0.0215435	
0.00438505	-0.191116	0.00366638	
-0.000291173	-0.204884	0.00131048	
0.00093757	-0.189368	0.0120119	
0.00742167	-0.201498	-0.00110071	
0.0037275	-0.209085	-0.00447647	
0.00395623	-0.204589	-0.000218313	
-0.000941413	-0.101036	0.0169978	
0.00642896	-0.176347	0.0160731	
-0.0466143	-0.209756	0.0139734	
-0.140676	-0.167318	0.0316065	
-0.0186604	-0.208721	0.0113746	
0.118688	-0.205078	-0.0459918	
0.0309748	-0.210282	-0.00706091	
-0.247888	-0.168705	0.051586	
-1.19011	-0.218255	0.427854	
-0.0685305	-0.212702	0.0255797	
-0.0315474	-0.182493	-0.00603269	
0.0739011	-0.208264	-0.025493	
0.00162655	-0.205583	-0.00232052	
-0.166953	-0.163699	0.0287007	
-0.236153	-0.191146	0.0731147	
-0.087393	-0.193619	0.0315155	
0.0449543	-0.202808	-0.0216838	
-0.0838549	-0.205285	0.0345102	
-0.0552134	-0.197466	0.0112294	
0.0269022	-0.192236	-0.0192517	
-0.00143512	-0.192204	-0.00568415	
-0.00090796	-0.200984	0.00266827	
-9.04968e-05	-0.158213	-0.0255832	
7.63575e-05	-0.189553	-0.0135052	
-0.0046589	-0.202774	-0.00190199	
-0.712431	-0.0866913	0.121812	
-0.340761	-0.176726	0.106141	
-0.00593787	-0.176578	-0.0192071	
-0.00370068	-0.206156	-0.000328682	
-0.00461146	-0.0944413	-0.0444828	
2.49376	0.231841	-0.00488963	
0.087172	-0.0585035	0.00601283	
0.243829	-0.043113	0.0290171	
0.900352	-0.00236405	0.110991	
-0.0256597	-0.0692749	0.000132719	
-0.0595319	-0.0706044	-0.00130795	
-0.000128758	-0.0688556	-0.000224701	
-0.0289901	-0.0706883	-0.000145532	
0.284407	-0.0294263	0.0602105	
0.269183	-0.039599	0.0525249	
0.869496	0.0612668	-0.00212688	
0.0766221	-0.0732625	0.000340327	
0.087825	-0.053223	0.012153	
0.0411425	-0.0705728	0.00103606	
-0.00162326	-0.0399427	0.0126922	
0.417528	-0.0475374	0.0289479	
0.093955	-0.0593824	0.00380484	
-0.101364	-0.0702837	0.00132641	
0.132571	-0.0678991	0.000795397	
-0.0384892	-0.0612449	0.00282515	
0.000625033	-0.0605172	0.00230393	
0.00032865	-0.0710004	0.000679948	
0.000984751	-0.0588084	0.0058662	
0.000511071	-0.0658745	0.000908609	
0.00982256	-0.0725075	-0.000567994	
0.00026876	-0.0693764	0.00109815	
0.00173428	-0.0240442	0.0122084	
0.000581204	-0.0532057	0.00823255	
-0.0731327	-0.0724235	-0.0010705	
-0.282419	-0.0390689	-0.000975845	
-0.0301397	-0.0699351	0.00149955	
0.201459	-0.067911	-0.00193309	
0.0528691	-0.0698978	0.0030334	
-0.484469	-0.0233363	-0.0518092	
-2.19227	0.137601	0.095829	
-0.138398	-0.0735006	0.000440836	
-0.0732713	-0.0532965	-0.00633917	
0.111036	-0.0687161	0.00505735	
0.000151877	-0.0709975	0.000714323	
-0.317404	-0.0319505	-0.0349491	
-0.418317	-0.0444528	-0.0120189	
-0.167021	-0.0584605	-0.00529833	
0.0811659	-0.0640095	-0.000530713	
-0.143849	-0.0666667	-0.00196365	
-0.111275	-0.0585967	-0.00725051	
0.0419323	-0.0602305	-0.00273545	
-0.000565899	-0.0602931	-0.00333713	
-6.31062e-05	-0.0646214	0.000912673	
-0.00017172	-0.0441616	-0.0125542	
-0.00134384	-0.0587738	-0.00653965	
-0.000498234	-0.0645814	-0.00180105	
1.16441	-0.0533599	-0.0822393	
-0.662479	0.00445401	-0.0234938	
-0.00166869	-0.0530726	-0.0086823	
-0.000310312	-0.0660892	-0.000455772	
-0.00245381	-0.0278612	-0.00678078	
3.29234	0.102546	0.198668	
0.137761	0.0764085	-0.0202902	
0.323352	0.0941037	-0.0199587	
1.11585	0.131849	-0.0570211	
-0.0215161	0.0766906	0.00149748	
-0.0812497	0.0765453	-0.00786223	
0.000493763	0.0759675	-0.00174871	
-0.036835	0.0765903	0.00957771	
0.357784	0.0845404	-0.0316626	
0.362414	0.0805665	-0.00897148	
1.09306	0.0813017	0.00776134	
0.116035	0.0703194	-0.0146222	
0.102497	0.0936963	0.00989594	
0.0570974	0.0787963	0.0107618	
0.000655085	0.0757789	-0.0242106	
0.571655	0.128376	0.0746962	
0.153386	0.0757263	-0.0231423	
-0.128445	0.0813949	0.00769	
0.183201	0.0781826	0.00837939	
-0.0504398	0.0837861	-0.0257797	
0.00253487	0.0798765	-0.021546	
0.000573275	0.077845	0.00641917	
-0.00162073	0.0858139	-0.0101617	
-0.000176902	0.0808184	-0.00632251	
0.0182049	0.0752774	-0.00157646	
0.00014248	0.078865	0.00542462	
-0.00447249	0.0463807	-0.0230165	
-0.00613543	0.0844367	0.00197818	
-0.0990109	0.0728435	0.0121336	
-0.37487	0.101901	0.0232095	
-0.0704845	0.0755014	-0.0121502	
0.281104	0.0738914	0.0240233	
0.0653139	0.0760429	-0.0160016	
-0.572417	0.100319	-0.0291614	
-2.78596	0.112396	-0.142415	
-0.195552	0.0673483	0.011144	
-0.081698	0.0952014	-0.00231076	
0.151029	0.0756746	-0.0260073	
-0.000129108	0.0738228	-0.000944189	
-0.422001	0.0867488	-0.0327291	
-0.571284	0.127418	-0.0532274	
-0.246071	0.0851009	0.0293876	
0.0971297	0.0816264	-0.00129583	
-0.214511	0.0796265	-0.013573	
-0.160989	0.0827864	0.0189609	
0.0544671	0.084215	0.0211615	
-0.00184811	0.0827515	0.0191918	
-0.00149507	0.0783864	0.00185292	
-0.00147594	0.0820041	0.0126731	
0.00185783	0.0865079	0.0132615	
0.00133814	0.0841778	0.00187375	
1.59212	-0.0327854	0.0335326	
-0.802785	0.113978	-0.017721	
0.00738362	0.085506	0.00212554	
0.000216982	0.081515	-0.00222014	
0.00227953	0.0474524	0.0108907	
5.70515	-0.0655598	0.282842	
-1.93875	-0.693389	-0.308816	
0.536207	-0.351823	0.427892	
1.56245	-0.182758	0.0235942	
1.92092	-0.549749	0.156652	
-1.76933	-0.594845	-0.0897004	
-0.00527704	-0.553801	-0.0191336	
-0.648462	-0.22903	0.101125	
0.622305	-0.124817	0.0610717	
1.09209	-0.315961	0.276354	
-0.254542	-0.263973	0.0371178	
-0.087917	-0.368109	-0.0472531	
2.95367	-0.894847	0.325768	
0.703137	-0.470124	0.208982	
-0.0151039	-0.079946	0.0802958	
0.75207	-0.558205	0.358433	
-0.935871	-0.336367	-0.20621	
0.161576	-0.122192	0.0251953	
1.41773	-0.369336	0.225215	
-0.296667	-0.528841	-0.152182	
0.0572209	-0.208129	-0.165992	
-0.0519027	-0.267753	0.153512	
-0.0397111	-0.543137	0.110584	
0.0124949	-0.140055	-0.0303734	
0.0192641	-0.339222	0.0304689	
-0.0156463	-0.171279	0.0546509	
-0.000528388	-0.0762433	0.0298884	
-0.0401892	-0.106152	0.183433	
0.0814709	-0.340782	0.0474188	
-0.302934	-0.436954	-0.482024	
-2.29431	-0.657823	-0.227818	
0.440901	-0.500207	-0.100854	
0.0354212	-0.26851	-0.0948485	
-1.00357	-0.311056	-0.185059	
-3.63253	-0.497548	-0.305638	
1.28989	-0.400884	0.085879	
-2.65724	-0.829515	-0.213588	
0.208396	-0.249362	-0.0405892	
0.0102056	-0.533035	0.0401319	
-1.10613	-0.371043	-0.305586	
-0.748235	-0.64292	-0.184721	
0.656109	-0.313038	0.107897	
-1.2267	-0.399406	-0.109227	
0.365473	-0.337882	-0.0238545	
1.40663	-0.698646	0.166133	
0.905584	-0.552569	0.259587	
-0.0613246	-0.27275	0.11359	
0.0197954	-0.267562	-0.0402283	
0.0860668	-0.194533	-0.203398	
0.0119978	-0.600099	0.0010223	
-0.00974895	-0.193015	0.0143533	
2.12189	0.174581	0.0186257	
-1.23196	-0.295615	-0.118655	
0.0663933	-0.199569	-0.20876	
0.0145425	-0.338843	-0.0627148	
0.00839136	-0.151928	-0.0693626	
4.42955	0.261731	0.296272	
0.0588322	0.561488	-0.127404	
0.530179	0.67966	-0.0755757	
1.23505	0.490854	0.216452	
1.15784	0.783301	0.118368	
-0.882977	0.757369	-0.264986	
-0.0158516	0.733341	-0.0774972	
-0.310623	0.597422	-0.16914	
0.358393	0.436047	-0.0529023	
0.616918	0.568162	-0.0626801	
1.14697	0.499569	0.0759577	
0.778016	0.632125	0.199898	
0.693081	0.627896	0.0315303	
0.444667	0.696991	0.0477015	
-0.0215041	0.427947	-0.152422	
1.21332	0.8874	0.10029	
-0.592234	0.545068	-0.215144	
-0.245368	0.494589	-0.0625537	
0.767873	0.605367	0.185561	
-0.162307	0.740375	-0.259982	
0.0310153	0.534631	-0.0682144	
-0.0295934	0.613365	-0.085506	
-0.00839983	0.779073	-0.199622	
0.0262304	0.495999	0.0219407	
0.0211576	0.538869	0.0125045	
0.00374166	0.53947	0.00620063	
-0.00336707	0.349804	-0.0854551	
-0.00320739	0.530764	-0.119183	
-0.761234	0.584005	-0.103248	
-0.419849	0.706148	0.0922876	
-1.38679	0.724969	-0.309255	
0.937053	0.704245	0.154262	
0.0760021	0.594915	0.0362046	
-0.715959	0.450691	-0.0416834	
-2.89019	0.628495	-0.292716	
-0.018383	0.60827	0.119506	
-0.418326	0.629936	-0.0395454	
-0.160855	0.583687	-0.0283666	
0.0205533	0.765904	0.0402187	
-0.659619	0.525806	0.0331673	
-1.15928	0.888102	-0.0897274	
0.400224	0.573762	0.0810389	
-0.33915	0.616523	-0.136984	
0.322059	0.660454	0.0789014	
-0.534473	0.797228	0.0178512	
0.815493	0.554218	0.329017	
-0.0279016	0.549043	0.0438132	
0.00166647	0.610875	0.0706759	
0.0468172	0.499961	0.20565	
0.016005	0.789259	0.187189	
-0.0320796	0.519432	-0.0675491	
3.03472	-0.271388	0.187649	
-1.45291	0.51325	-0.319917	
-0.000547915	0.548157	0.115753	
-0.0214211	0.631601	-0.0138389	
-0.0110497	0.413233	0.108503	
2.95784	0.091139	0.223507	
0.44134	0.329417	0.0875612	
0.377115	0.317081	-0.001195	
0.983381	0.206054	0.161133	
0.66801	0.366436	0.122002	
-0.301219	0.346104	-0.0925964	
-0.00290109	0.383061	-0.0354221	
-0.329729	0.322338	-0.144709	
0.147039	0.201986	-0.0058375	
0.364745	0.25963	-0.00233824	
1.10073	0.143361	0.106697	
1.17084	0.324818	0.389445	
0.54945	0.276696	0.0746085	
0.397896	0.323173	0.105592	
0.000846784	0.220283	-0.0416279	
0.854541	0.294893	0.144042	
-0.427703	0.289459	-0.129513	
-0.38546	0.276032	-0.107123	
0.514621	0.291552	0.119934	
0.0521786	0.32525	-0.0396325	
0.00645209	0.293476	-0.017729	
0.00217299	0.308361	-0.0206331	
0.0175415	0.343897	-0.0581325	
0.00496062	0.27467	-0.00175865	
0.0094633	0.306839	-0.00219038	
0.00489341	0.280754	-0.00314211	
0.00161826	0.1588	-0.0246038	
0.0145917	0.271413	-0.0555079	
-1.1735	0.349997	-0.358079	
-0.250761	0.351526	0.0408634	
-0.906416	0.373875	-0.217857	
0.569764	0.361333	0.212849	
0.0914311	0.330178	0.0432172	
-0.556607	0.246714	-0.0799759	
-2.12576	0.163556	-0.241356	
-0.315706	0.335605	-0.0664354	
-0.367368	0.310991	-0.0363112	
-0.0987982	0.324227	-0.0373874	
0.00693407	0.347874	0.0263834	
-0.39279	0.262251	-0.0384487	
-0.811588	0.315613	-0.175919	
0.374289	0.306386	0.11845	
-0.0676699	0.361648	-0.0433536	
0.307715	0.328701	0.0813027	
-0.947178	0.342505	-0.223579	
0.577032	0.331493	0.21463	
-0.00537258	0.30948	0.0125202	
-0.00149203	0.317755	0.000755045	
-0.00252296	0.277077	0.0728573	
-0.0170097	0.366135	0.0582416	
-0.00729943	0.303443	-0.0217787	
1.78666	-0.0934286	0.131114	
-1.29599	0.241448	-0.279107	
-0.0170078	0.301457	0.0793542	
-0.00604666	0.32762	-0.0195976	
-0.00599295	0.190825	0.0462909	
2.44009	0.0429942	0.191762	
0.595105	0.167129	0.0869478	
0.307043	0.140277	0.0176762	
0.849926	0.0957957	0.0963626	
0.445294	0.172468	0.0410355	
0.00588311	0.161793	-0.0101437	
-0.00252105	0.177892	-0.0170737	
-0.418567	0.146524	-0.095932	
-0.000830846	0.0935178	-0.0121665	
0.225203	0.119506	0.00291826	
1.1047	0.0644191	0.0956357	
1.51733	0.164231	0.324536	
0.492441	0.134507	0.0493125	
0.440065	0.156889	0.0683125	
-3.50655e-06	0.104776	-0.0143548	
0.660446	0.142958	0.0686527	
-0.334596	0.148425	-0.0615324	
-0.497807	0.141969	-0.0850639	
0.443688	0.144816	0.0687177	
0.0863416	0.155529	-0.00836913	
0.00234475	0.14904	-0.00798081	
0.000441658	0.150233	-0.00778188	
0.00275819	0.157297	-0.0263636	
0.00125112	0.139739	-0.00103438	
0.00610589	0.146397	0.00116023	
0.000638328	0.142052	0.0014868	
0.000259299	0.0736864	-0.00752603	
0.00186071	0.1261	-0.0197639	
-1.55001	0.183107	-0.299921	
-0.166448	0.1547	0.0029701	
-0.752663	0.181799	-0.106285	
0.420388	0.168434	0.104882	
0.101327	0.15786	0.0260607	
-0.448434	0.126891	-0.0455989	
-1.82421	0.070527	-0.169865	
-0.487459	0.176242	-0.050915	
-0.349105	0.144019	-0.0492848	
-0.0889511	0.157805	-0.0147781	
0.00363125	0.162229	0.0173957	
-0.277267	0.126391	-0.018577	
-0.627703	0.14757	-0.0947692	
0.358967	0.157678	0.0701515	
0.0520985	0.176085	-0.00134257	
0.297922	0.161509	0.0483334	
-0.974551	0.165032	-0.149846	
0.434705	0.174404	0.0988631	
-0.0020152	0.158013	0.00458316	
-0.000855769	0.155865	0.000523628	
-0.00254545	0.130047	0.0291368	
-0.00358978	0.167146	0.0252505	
-0.00122399	0.15435	-0.0104552	
1.33698	-0.0415228	0.103527	
-1.16531	0.124874	-0.168246	
-0.00402986	0.138985	0.0323035	
-0.00105	0.162596	-0.0118191	
-0.00138372	0.0840868	0.0159815	
2.23865	0.0228162	0.168264	
0.578281	0.0961691	0.0662759	
0.271488	0.0697655	0.0154252	
0.817067	0.0564148	0.0748897	
0.405734	0.0822073	0.028524	
0.187828	0.0806623	0.00923714	
-0.00177989	0.0835971	-0.00817913	
-0.459296	0.0711329	-0.0680032	
-0.0662722	0.0474295	-0.0122091	
0.172646	0.0579474	0.00526816	
1.12827	0.0341052	0.0886942	
1.71053	0.0835226	0.294196	
0.44448	0.0716274	0.0364974	
0.419314	0.083055	0.0477902	
-0.000108072	0.0520697	-0.00667869	
0.568988	0.0761515	0.048028	
-0.215953	0.0815274	-0.0291864	
-0.478248	0.0727146	-0.0612076	
0.44219	0.0740432	0.0529357	
0.0876122	0.080243	0.000256478	
0.000555117	0.0844586	-0.00485579	
-0.000236888	0.0730489	-0.00320684	
0.000175809	0.0789203	-0.0110428	
0.000868533	0.075977	-0.00245496	
0.00482263	0.0752231	0.000741841	
0.0001817	0.0705048	-0.000469226	
-6.82039e-05	0.0395396	-0.0035263	
0.000105346	0.0612667	-0.00934198	
-1.75388	0.128725	-0.254833	
-0.125811	0.0749234	9.44923e-05	
-0.789919	0.0915415	-0.0849607	
0.315062	0.0775575	0.064646	
0.0811726	0.0799657	0.0149544	
-0.443254	0.0747365	-0.0383179	
-1.72406	0.0367654	-0.139546	
-0.582669	0.102883	-0.0542075	
-0.318827	0.073766	-0.0273446	
-0.018465	0.082171	-0.00246194	
0.00231622	0.0745376	0.00895764	
-0.258049	0.065722	-0.0175578	
-0.539314	0.079738	-0.0603493	
0.288852	0.0870942	0.0371922	
0.0445678	0.0912332	0.00176862	
0.292572	0.079108	0.0355235	
-0.860874	0.0885631	-0.106964	
0.353687	0.0963918	0.0550197	
-0.000751281	0.0879669	0.0021691	
-0.000315363	0.0769943	0.000137694	
-0.00073698	0.0625758	0.0124481	
-0.000256253	0.0828191	0.00994473	
-0.000444293	0.0820682	-0.00353816	
1.14468	-0.0217362	0.0820683	
-1.08551	0.0801637	-0.115163	
-0.000644771	0.0669722	0.0128824	
-0.000324879	0.0809234	-0.0048134	
-0.000115283	0.0421134	0.00734188	
2.16154	0.0155652	0.16079	
0.620597	0.0623879	0.0615524	
0.220108	0.0463782	0.014322	
0.790793	0.0359507	0.0682435	
0.35626	0.0513499	0.0356211	
0.350837	0.0572533	0.0188564	
-0.00102556	0.0529707	-0.00523993	
-0.511325	0.043023	-0.0613132	
-0.136617	0.0300603	-0.0151348	
0.114478	0.0393697	0.00457834	
1.19104	0.0226602	0.0927951	
1.96317	0.0625965	0.270888	
0.400397	0.0504228	0.0297753	
0.460364	0.0515207	0.046192	
-4.91933e-05	0.0346624	-0.00325575	
0.54523	0.0539206	0.0413343	
-0.130869	0.0518497	-0.0159211	
-0.49794	0.0479154	-0.053162	
0.469636	0.0483967	0.0493638	
0.107166	0.0534372	0.00523783	
0.000218028	0.0534461	-0.00338067	
-3.12318e-05	0.0469916	-0.00247238	
6.22151e-05	0.0530069	-0.00731351	
0.00046445	0.0484787	-0.00181315	
0.00331095	0.0439752	0.000362022	
9.61651e-05	0.0464043	-0.000622141	
-3.62048e-05	0.0248267	-0.00186809	
-1.28998e-05	0.0431397	-0.00462894	
-2.01562	0.0793427	-0.251092	
-0.0763075	0.0495294	-0.000234293	
-0.797502	0.0593365	-0.0787449	
0.2471	0.049569	0.0410801	
0.0723696	0.0486863	0.0108288	
-0.435816	0.0508834	-0.0355846	
-1.67514	0.025253	-0.133998	
-0.693345	0.0721601	-0.0538287	
-0.285683	0.0526265	-0.018653	
-0.0172376	0.0498211	-0.00116489	
0.00120664	0.0478182	0.00584466	
-0.237245	0.0445212	-0.0164273	
-0.509151	0.0569811	-0.0491505	
0.257413	0.0564293	0.0291953	
0.0434313	0.0592348	0.00235719	
0.269802	0.0514446	0.0282864	
-0.838124	0.0612783	-0.083835	
0.290687	0.0615973	0.0385101	
-0.000313626	0.0562899	0.0016563	
-0.000231225	0.0494097	0.000489606	
-0.000487003	0.0427273	0.00724086	
-6.32809e-05	0.0557863	0.00654733	
-0.000157032	0.0536795	-0.00176867	
1.0595	-0.0150913	0.0747872	
-1.04083	0.05633	-0.0974493	
-0.000344256	0.0465727	0.00780747	
-0.000141825	0.0531963	-0.002563	
6.34911e-05	0.0282449	0.00394096	
2.1279	0.0111179	0.158006	
0.663687	0.0425465	0.0522025	
0.18475	0.0318595	0.0123724	
0.77422	0.0235214	0.0645743	
0.31811	0.0362398	0.0180475	
0.486236	0.0388772	0.0483009	
-0.000259581	0.0364585	-0.00362583	
-0.566946	0.0301569	-0.0594059	
-0.198638	0.0220259	-0.0184246	
0.0710325	0.0275632	0.00368561	
1.26303	0.0162596	0.0980012	
2.21241	0.0438009	0.252586	
0.368761	0.0338831	0.0283106	
0.512181	0.0342235	0.0475971	
7.05334e-05	0.0250363	-0.00191685	
0.53467	0.0358097	0.0409848	
-0.0697114	0.0369091	-0.00845594	
-0.503618	0.0325358	-0.049598	
0.507953	0.0332659	0.0411894	
0.123994	0.0372685	0.00601505	
0.000236979	0.0376784	-0.00247423	
0.000101458	0.0324881	-0.00184956	
0.000311682	0.0371824	-0.00488759	
0.000137163	0.0347325	-0.0016138	
0.00159051	0.0304278	0.000192384	
3.96238e-05	0.0324281	-0.000692647	
4.04259e-05	0.0179296	-0.00117029	
0.000161343	0.0304703	-0.00271237	
-2.27238	0.0325477	-0.242428	
-0.0394052	0.0349049	0.00075141	
-0.81337	0.0382379	-0.0714017	
0.191282	0.0341039	0.0230273	
0.0618658	0.0335645	0.00852993	
-0.436059	0.0347963	-0.0339361	
-1.65087	0.0176855	-0.130171	
-0.789843	0.0442312	-0.0688164	
-0.261569	0.0358099	-0.0213181	
-0.026402	0.0343534	-0.00199602	
0.000137335	0.0328551	0.00418838	
-0.229062	0.0310976	-0.0158374	
-0.498583	0.0372871	-0.0450912	
0.243933	0.0393154	0.0284624	
0.0329274	0.0418378	0.00190686	
0.246351	0.0356092	0.0238832	
-0.829451	0.0398709	-0.0721429	
0.245039	0.0431687	0.0264302	
-0.000159764	0.039677	0.00136889	
-9.05121e-05	0.034556	0.000477309	
-0.000154546	0.0307767	0.00401629	
-0.000286702	0.0391204	0.00422808	
-6.4993e-06	0.0383889	-0.000807852	
1.00485	-0.0111814	0.0709045	
-1.0108	0.0350102	-0.0885584	
-0.000342045	0.0331793	0.00488732	
8.87616e-06	0.0375717	-0.0014385	
-9.94405e-05	0.0205599	0.00262399	
2.12483	0.00821784	0.159407	
0.702041	0.0332617	0.0542147	
0.156787	0.0230019	0.0111966	
0.768622	0.0179597	0.0633664	
0.293575	0.027477	0.0156895	
0.610171	0.0405798	0.0388159	
-0.000313524	0.0264148	-0.00283358	
-0.624581	0.0201943	-0.0607571	
-0.252982	0.0156915	-0.0218586	
0.0348357	0.0197983	0.00140893	
1.34065	0.0118392	0.10447	
2.45751	0.0453739	0.221985	
0.346977	0.0249875	0.0261171	
0.562024	0.0265288	0.0505442	
4.29612e-05	0.0180764	-0.00120428	
0.526909	0.0267403	0.040655	
-0.0149757	0.0268681	-0.0028347	
-0.515704	0.023952	-0.0477755	
0.548787	0.0255057	0.048648	
0.138106	0.0275211	0.00830207	
0.00011636	0.0275523	-0.00199766	
4.77872e-05	0.0236783	-0.00134613	
0.00013266	0.0268908	-0.00337931	
0.000146274	0.0253487	-0.00138153	
0.00113558	0.0221586	0.00015969	
3.50363e-05	0.0237511	-0.000607065	
1.23073e-05	0.0130354	-0.000699816	
8.21388e-05	0.0219078	-0.00182273	
-2.52243	0.0360137	-0.249061	
-0.0105546	0.0253534	0.00208592	
-0.844056	0.0309198	-0.0696586	
0.145681	0.0241545	0.0175628	
0.0520422	0.0245524	0.00683017	
-0.444168	0.0273059	-0.0349338	
-1.64272	0.0131455	-0.129457	
-0.884618	0.0464965	-0.0535625	
-0.245483	0.0266532	-0.0185707	
-0.0317182	0.0253954	-0.00232834	
0.000198208	0.0238941	0.00337573	
-0.227985	0.0234881	-0.0165331	
-0.491534	0.0284911	-0.0424877	
0.233129	0.0288809	0.0238125	
0.0242829	0.0305906	0.00143209	
0.228507	0.0260622	0.0212351	
-0.825587	0.0311215	-0.0679569	
0.207646	0.031319	0.0207557	
-9.54712e-05	0.0291275	0.00106234	
-6.63552e-05	0.0253501	0.000555879	
-8.95452e-05	0.0225775	0.00270196	
-0.000119393	0.0285171	0.00290117	
5.77399e-08	0.0281156	-0.000471262	
0.967368	-0.00826037	0.0690807	
-0.992151	0.0289871	-0.0850421	
-0.00020995	0.0241873	0.00328763	
-1.66976e-06	0.0275459	-0.000852467	
-4.26963e-05	0.0153318	0.00181854	
2.14489	0.00634144	0.163034	
0.739331	0.0253509	0.0593817	
0.136076	0.0172767	0.0100758	
0.774273	0.0140576	0.0637167	
0.279358	0.0197143	0.0125626	
0.720831	0.0258621	0.087894	
-0.000103648	0.019671	-0.00213223	
-0.679164	0.0164277	-0.0597235	
-0.30285	0.0117908	-0.0255277	
0.00350574	0.014948	-0.000712041	
1.41706	0.00897932	0.111502	
2.68668	0.0264218	0.231376	
0.333195	0.0187941	0.0254612	
0.608051	0.0196854	0.0532009	
3.01369e-05	0.0137357	-0.000785968	
0.522408	0.0201586	0.040543	
0.0384186	0.0202592	0.00216861	
-0.531073	0.0181872	-0.0472403	
0.590174	0.0190701	0.0539641	
0.151753	0.0208134	0.0101718	
8.61723e-05	0.0208512	-0.00145133	
6.03748e-05	0.0177684	-0.00103519	
0.000106795	0.020215	-0.00244547	
0.000118429	0.0190081	-0.00112662	
0.000317769	0.0169107	6.79358e-05	
4.39058e-05	0.0178056	-0.000565978	
8.51481e-06	0.0101286	-0.000448559	
5.3669e-05	0.0164789	-0.00117533	
-2.75987	0.0272507	-0.263178	
0.0127267	0.0190607	0.00307688	
-0.885025	0.0233008	-0.0691917	
0.105778	0.0184714	0.0122009	
0.0421055	0.0185506	0.00530743	
-0.458616	0.0213542	-0.0363737	
-1.65336	0.00987717	-0.131221	
-0.974565	0.0364968	-0.0672514	
-0.236459	0.0199793	-0.0164488	
-0.0341885	0.019259	-0.0024662	
8.0746e-05	0.0178131	0.00247789	
-0.230999	0.0180215	-0.0172313	
-0.486745	0.0216053	-0.0413204	
0.221889	0.0219988	0.0219858	
0.0147818	0.0231313	0.000842788	
0.213645	0.0196148	0.0192383	
-0.82428	0.0237595	-0.0672621	
0.177133	0.0238037	0.0166895	
-7.01198e-05	0.0221902	0.00082625	
-4.77036e-05	0.0190984	0.000453228	
-7.11089e-05	0.0171278	0.00190719	
-8.91389e-05	0.0214894	0.00206556	
-1.94871e-06	0.0212984	-0.000225237	
0.944169	-0.00647542	0.0685098	
-0.978608	0.0228491	-0.0828098	
-0.000148885	0.0182511	0.00228671	
-4.62677e-06	0.0207918	-0.0005113	
-3.27076e-05	0.0116392	0.00124674	
2.18001	0.00499671	0.167293	
0.777615	0.0178606	0.0614324	
0.117458	0.0133249	0.00915881	
0.783052	0.00979693	0.0640962	
0.265956	0.0154506	0.00972128	
0.826195	0.00367725	0.127825	
6.89263e-05	0.0155018	-0.00170299	
-0.734507	0.0146172	-0.0568262	
-0.35108	0.00953899	-0.0289628	
-0.0261154	0.0117059	-0.00280451	
1.4976	0.00697772	0.119328	
2.91732	0.00485738	0.25038	
0.324245	0.0139736	0.0250434	
0.656028	0.0138593	0.0560854	
2.89763e-05	0.0107402	-0.000467138	
0.519953	0.0146803	0.0400885	
0.0870919	0.0158916	0.00637347	
-0.548966	0.0138818	-0.0479778	
0.633399	0.0140149	0.0533558	
0.165716	0.0158438	0.0114646	
0.000113165	0.0163811	-0.00120915	
7.07133e-05	0.013983	-0.000786312	
0.000140542	0.0158709	-0.00185108	
6.68795e-05	0.0149669	-0.000937369	
-0.000552766	0.0132195	-1.68118e-05	
3.76236e-05	0.0140411	-0.000496513	
1.5745e-05	0.00784016	-0.000274325	
6.06377e-05	0.01294	-0.000764927	
-3.00045	-0.00676875	-0.269078	
0.0330088	0.0148925	0.00445345	
-0.926835	0.0164466	-0.0692484	
0.070529	0.0148126	0.00739113	
0.0330979	0.0146697	0.00421942	
-0.478506	0.0155722	-0.037636	
-1.67229	0.00772749	-0.133844	
-1.05814	0.00519642	-0.141506	
-0.230797	0.0152359	-0.0156422	
-0.0383933	0.0151257	-0.00283848	
-9.84749e-05	0.0140804	0.00203361	
-0.234191	0.0135563	-0.0174995	
-0.484671	0.0154459	-0.040338	
0.214051	0.017053	0.0202193	
0.00742251	0.0182005	0.000329331	
0.200774	0.0153038	0.0176061	
-0.827729	0.0165226	-0.0668478	
0.150857	0.0189383	0.0137162	
-6.16811e-05	0.0174398	0.000653501	
-3.81342e-05	0.0150788	0.000448157	
-8.28218e-05	0.0134895	0.00136281	
-0.00012288	0.0168472	0.00152034	
5.97666e-06	0.0167811	-8.79762e-05	
0.929409	-0.00511744	0.0681939	
-0.971579	0.0152344	-0.0807228	
-0.000127081	0.0143309	0.00164852	
1.1575e-05	0.0164318	-0.00035216	
-5.11614e-05	0.00924056	0.00089631	
2.22285	0.00411002	0.172141	
0.819278	0.0168705	0.0633347	
0.103055	0.0108691	0.00765803	
0.792462	0.00852212	0.06475	
0.255435	0.0127302	0.01319	
0.934113	0.0121915	0.111403	
3.55805e-05	0.0125713	-0.00140854	
-0.790108	0.0110055	-0.0655518	
-0.397473	0.00767067	-0.0323956	
-0.0520768	0.0094566	-0.00483626	
1.58293	0.00573947	0.126985	
3.15344	0.00668953	0.19385	
0.316652	0.0119002	0.0236817	
0.70369	0.012194	0.0599615	
1.8519e-05	0.00877148	-0.000310041	
0.519367	0.0127435	0.0404547	
0.130438	0.0130056	0.00956407	
-0.568918	0.0113174	-0.0486526	
0.677268	0.0122683	0.0607033	
0.177746	0.0134273	0.012843	
6.13761e-05	0.0131973	-0.00100637	
4.46874e-05	0.0113384	-0.000616373	
7.15372e-05	0.0128145	-0.00142474	
6.87419e-05	0.0121473	-0.000804254	
-0.00123636	0.0107579	-8.38489e-05	
3.1655e-05	0.0114227	-0.000435371	
5.91012e-06	0.00635938	-0.000181557	
2.96522e-05	0.0103983	-0.000526219	
-3.2414	0.00425667	-0.262928	
0.0513995	0.0120023	0.00547055	
-0.969577	0.0164128	-0.0761214	
0.037886	0.0120895	0.00574122	
0.0251844	0.0118272	0.00330692	
-0.496509	0.0136791	-0.0393512	
-1.69731	0.006379	-0.136556	
-1.15148	0.0191258	-0.0932407	
-0.226587	0.0124456	-0.0170023	
-0.0422869	0.0122932	-0.00318519	
-4.61634e-05	0.0114106	0.00171064	
-0.242183	0.0114251	-0.0184175	
-0.483707	0.0132757	-0.0398636	
0.208647	0.0138977	0.0184223	
-0.000169228	0.014667	-0.000240126	
0.191573	0.0124127	0.0166089	
-0.836346	0.0146603	-0.0663321	
0.127815	0.0150907	0.0114248	
-4.59307e-05	0.0140228	0.000525949	
-3.11862e-05	0.012191	0.000394947	
-5.20241e-05	0.0108615	0.00101732	
-6.75767e-05	0.0135745	0.00115399	
-1.65451e-06	0.013523	-2.81299e-05	
0.921341	-0.00420048	0.0682735	
-0.971472	0.0143205	-0.0804607	
-8.9165e-05	0.0115143	0.00122958	
4.59558e-06	0.0132173	-0.000248607	
-2.72406e-05	0.00754378	0.000693011	
2.27262	0.00340588	0.177573	
0.86175	0.0140786	0.0686142	
0.0900652	0.00896003	0.00680771	
0.804792	0.0071127	0.0657145	
0.245947	0.0107291	0.0126483	
1.03776	0.0100954	0.105863	
5.83527e-05	0.0104034	-0.00112586	
-0.846197	0.0104024	-0.066708	
-0.442776	0.00630669	-0.0359719	
-0.0769713	0.00784783	-0.00666649	
1.66816	0.00474776	0.134479	
3.37919	0.00414754	0.266895	
0.311727	0.00982116	0.023447	
0.751284	0.00965183	0.0634231	
1.25667e-05	0.0072775	-0.000216034	
0.520588	0.0105708	0.040776	
0.173192	0.0107213	0.0129756	
-0.590998	0.00945764	-0.0500061	
0.721173	0.0101291	0.0634311	
0.190043	0.0111396	0.0136634	
5.20617e-05	0.0108791	-0.000786437	
4.23794e-05	0.00935712	-0.000504048	
5.80932e-05	0.010578	-0.00112282	
6.01491e-05	0.00996926	-0.000671489	
-0.00194507	0.00892715	-0.000145364	
2.85063e-05	0.00940925	-0.000365587	
3.73444e-06	0.00530578	-0.00012264	
2.09883e-05	0.00861422	-0.000377845	
-3.4785	0.00408434	-0.289487	
0.0674601	0.00980838	0.00644413	
-1.01343	0.0130056	-0.0795525	
0.00799172	0.0102488	0.0031328	
0.0178001	0.00978112	0.00246229	
-0.517669	0.0113546	-0.0412414	
-1.72736	0.00520902	-0.13961	
-1.23864	0.0158432	-0.103061	
-0.222826	0.010237	-0.0168762	
-0.0470459	0.0101667	-0.00362923	
-6.29109e-05	0.00946737	0.0013678	
-0.25132	0.00943799	-0.0193352	
-0.484209	0.010943	-0.0399052	
0.20526	0.0114226	0.018048	
-0.0057031	0.0120895	-0.000617871	
0.183301	0.0102504	0.0156409	
-0.846964	0.0122627	-0.0675305	
0.106058	0.0124147	0.00930546	
-3.506e-05	0.0115227	0.000421299	
-2.64765e-05	0.0100899	0.000321149	
-4.32454e-05	0.00892957	0.000789258	
-5.24601e-05	0.0111526	0.000890748	
-1.52402e-06	0.0111439	-4.62507e-08	
0.91766	-0.00348188	0.0686775	
-0.973217	0.0119836	-0.080642	
-6.91053e-05	0.00942314	0.000918939	
2.53175e-06	0.010946	-0.000172286	
-2.41608e-05	0.00623128	0.00052898	
2.32539	0.0028662	0.183062	
0.905126	0.0099871	0.0714934	
0.0783806	0.00751316	0.00630923	
0.817923	0.00543989	0.0667455	
0.237962	0.00901317	0.0113675	
1.13347	-0.00907455	0.149029	
9.86935e-05	0.00872931	-0.000972853	
-0.903099	0.0106719	-0.059702	
-0.487318	0.0055574	-0.0394698	
-0.10089	0.00658222	-0.00969251	
1.75504	0.0040282	0.142067	
3.60864	-0.0154037	0.279732	
0.3089	0.0078734	0.0244557	
0.799353	0.00608941	0.066689	
8.62937e-06	0.00616993	-0.000126675	
0.523103	0.00826854	0.0411569	
0.213495	0.00890178	0.0159826	
-0.613608	0.0078868	-0.0517746	
0.765851	0.00707165	0.065313	
0.20277	0.00897654	0.0146942	
5.87765e-05	0.00913376	-0.000667061	
5.01077e-05	0.00786666	-0.000424603	
6.65642e-05	0.0089026	-0.000897785	
4.28211e-05	0.00840347	-0.000557692	
-0.00264537	0.00751248	-0.000189791	
2.65256e-05	0.00792768	-0.000312984	
5.4339e-06	0.00448434	-7.95097e-05	
2.27587e-05	0.0072783	-0.000276796	
-3.71596	-0.0244562	-0.304267	
0.0828223	0.00837858	0.00760789	
-1.05898	0.00989195	-0.0809424	
-0.0202704	0.00877088	0.000772776	
0.0103408	0.00827376	0.00168197	
-0.53928	0.00867214	-0.0428939	
-1.75961	0.00441754	-0.142787	
-1.32179	-0.00557656	-0.148221	
-0.221625	0.00837219	-0.0162205	
-0.0516457	0.00854421	-0.00409359	
-0.000102676	0.00796241	0.0011656	