<VTKFile type="UnstructuredGrid" version="0.1" byte_order="LittleEndian">
	<UnstructuredGrid>
		<Piece NumberOfPoints="280" NumberOfCells="280">
			<CellData Scalars="scalars">
				<DataArray type="Float64" Name="Strength" NumberOfComponents="3" Format="ascii">
0.557367	-0.350288	-0.0938599	
0.0149315	-1.04352	-0.00658107	
0.0299639	-0.939114	0.00383129	
0.135148	-0.812625	0.00434867	
0.00313273	-1.0677	0.00574178	
-0.0204456	-1.00634	0.00384577	
-0.000163253	-1.05348	-0.000721502	
-0.00164512	-1.04963	0.00679626	
0.0372356	-0.856407	0.0322652	
0.0416665	-0.919505	0.00480395	
0.152849	-0.567565	0.0141659	
0.0163103	-1.02631	-0.00606002	
0.00742436	-0.972998	0.0110591	
0.00869674	-1.04334	-0.00441877	
0.00767668	-0.889804	0.0268139	
0.0749646	-0.963106	-0.0150653	
0.00677001	-1.04746	0.000886448	
-0.021891	-1.01696	0.0127739	
0.0174484	-1.03531	-0.0115103	
-0.010708	-1.02989	0.008735	
-0.000264174	-1.03087	0.000115735	
0.00113823	-1.02982	-0.00338836	
0.00563768	-1.04761	0.0108038	
-1.83399e-05	-1.05522	0.00136755	
0.00031695	-1.05471	-0.00097247	
0.00200723	-1.02509	0.00379773	
0.0144606	-0.71292	0.0583255	
0.00588537	-0.957539	0.010406	
-0.0168053	-1.0557	0.00389278	
-0.0345204	-0.943643	-0.00321752	
-0.0123546	-1.06858	-0.000742517	
0.036388	-1.05514	-0.0125092	
0.0085475	-1.03883	-0.00359215	
-0.064449	-0.834993	-0.0240539	
-0.352437	-0.570343	0.0451669	
-0.0149787	-1.02677	0.00446173	
-0.0031091	-0.97708	-0.0126735	
0.0295762	-1.03995	-0.00130084	
0.0015791	-1.00827	0.00149214	
-0.0495091	-0.878279	-0.0134773	
-0.0749375	-0.964243	0.014074	
-0.0210229	-1.05664	0.00340912	
0.0150128	-1.10275	-0.00937629	
-0.0289683	-1.0253	0.0143922	
-0.0138538	-1.0317	-0.00330485	
0.0065388	-1.04651	-0.0041492	
0.000326218	-1.03568	-0.00054788	
-0.00124281	-1.07012	0.0072432	
-0.00625506	-0.91768	-0.0205316	
-0.00488118	-1.04914	-0.0142927	
-0.00396017	-1.07457	-0.00512032	
-0.338301	-0.350008	0.0404875	
-0.0995517	-0.813755	-0.0305853	
-0.00459047	-0.963071	-0.0111371	
-0.000358824	-1.05304	0.00363706	
-0.0131901	-0.706605	-0.0726971	
1.50434	-0.0138827	-0.0303231	
0.0498264	-0.192064	-0.00251697	
0.125983	-0.164296	-0.00368319	
0.520495	-0.110423	-0.0162246	
-0.00981613	-0.206443	0.00151116	
-0.0488043	-0.206401	0.00200531	
6.57722e-05	-0.204751	3.20834e-05	
-0.0147378	-0.20801	0.00171891	
0.156402	-0.131389	-0.00171223	
0.151179	-0.159003	-0.00411134	
0.51201	-0.0702113	-0.0084978	
0.0500048	-0.210478	-0.00281507	
0.038981	-0.182315	5.30142e-06	
0.0262893	-0.20525	-0.00129765	
0.000692667	-0.150788	0.00328295	
0.24964	-0.18657	-0.0107876	
0.0436256	-0.192641	-0.00140625	
-0.0715715	-0.203721	0.00423091	
0.0714897	-0.204214	-0.00478663	
-0.0287413	-0.19475	0.00215664	
0.000173771	-0.191201	0.000417881	
-7.06608e-05	-0.204888	-0.000534413	
0.000214865	-0.189745	0.00133449	
0.000253242	-0.201637	0.000455666	
0.00518617	-0.209104	-0.000461323	
0.000175123	-0.204628	0.000405497	
0.00135014	-0.102326	0.00513103	
0.000424842	-0.177179	0.00210814	
-0.0491487	-0.209638	0.00188681	
-0.147278	-0.164533	0.00498354	
-0.0214253	-0.208767	0.000897787	
0.126107	-0.205702	-0.00630361	
0.032938	-0.210096	-0.00151415	
-0.271136	-0.137825	0.00778456	
-1.28088	-0.0660267	0.0418474	
-0.0748765	-0.212068	0.00393251	
-0.0288102	-0.183043	-0.000771615	
0.079488	-0.207745	-0.00262209	
-1.80843e-05	-0.205605	0.000336683	
-0.180961	-0.15075	0.00503885	
-0.249708	-0.187586	0.0106882	
-0.0908325	-0.194554	0.00439119	
0.0535092	-0.201851	-0.0035994	
-0.0879666	-0.206406	0.00496795	
-0.0616692	-0.195855	0.00252166	
0.0277305	-0.193067	-0.00196072	
-0.0001441	-0.192292	-0.000392331	
3.55659e-06	-0.201002	0.00079983	
-0.000372809	-0.160224	-0.00364553	
-5.17375e-05	-0.190024	-0.00163803	
-0.000328467	-0.202833	-0.000839513	
-0.726514	-0.0346871	0.0289935	
-0.378191	-0.123929	0.0148734	
-0.000341102	-0.177699	-0.00247014	
-0.000137005	-0.206189	-4.70168e-05	
-0.000861394	-0.104244	-0.00724381	
2.50394	0.00850829	0.0504745	
0.0865269	-0.059673	0.00315127	
0.244813	-0.0461056	0.0094574	
0.906308	-0.0243228	0.0301649	
-0.0255569	-0.0693128	-0.000591276	
-0.0594348	-0.0706643	-0.00216769	
-1.52152e-05	-0.0688595	-0.000109423	
-0.0290133	-0.0706773	-0.000704661	
0.289945	-0.0339289	0.0122787	
0.273167	-0.044888	0.0121167	
0.871108	-0.0161518	0.0256821	
0.0766851	-0.0731536	0.00240667	
0.086977	-0.0558108	0.00373568	
0.0408839	-0.0707193	0.00136854	
8.52714e-05	-0.0419114	0.00166564	
0.417011	-0.0574222	0.0147097	
0.093308	-0.0604234	0.00324773	
-0.101542	-0.069964	-0.00290369	
0.132308	-0.0682794	0.00401634	
-0.0392848	-0.0607951	-0.000820778	
-8.74189e-06	-0.0605659	0.000228951	
5.76197e-06	-0.0710078	3.46812e-05	
4.2204e-05	-0.0591053	0.000767467	
-5.0038e-06	-0.0658851	0.000161559	
0.00998674	-0.0724902	0.000283199	
1.18223e-05	-0.0693879	0.000291193	
0.000112224	-0.0269801	0.00154562	
5.96947e-05	-0.0538345	0.00101276	
-0.0728117	-0.0727143	-0.00234532	
-0.281231	-0.0456996	-0.0100878	
-0.0307912	-0.0696642	-0.000910195	
0.20087	-0.0693165	0.00624956	
0.0523911	-0.0702984	0.00176123	
-0.485949	-0.0365981	-0.021012	
-2.19728	-0.00918955	-0.0758046	
-0.138169	-0.0737962	-0.00412647	
-0.0714612	-0.0559766	-0.00312134	
0.11086	-0.069055	0.00393639	
1.39742e-05	-0.0710047	0.000210208	
-0.317972	-0.0410197	-0.0139453	
-0.416622	-0.0574386	-0.0147963	
-0.166405	-0.0601467	-0.00555735	
0.0815606	-0.0634544	0.00230798	
-0.143642	-0.0669619	-0.00464977	
-0.110351	-0.0606117	-0.00410253	
0.0426332	-0.0597853	0.00107747	
4.04068e-07	-0.0603893	-0.000311087	
1.7792e-05	-0.0646309	6.50934e-05	
-7.3258e-05	-0.0458893	-0.00144072	
-4.8561e-05	-0.0591485	-0.000764004	
-1.55561e-05	-0.06461	-0.000360877	
1.16849	0.00599011	0.00316892	
-0.66174	-0.0304563	-0.0245939	
-4.44546e-05	-0.0537964	-0.000986885	
5.62727e-06	-0.0660941	-4.93827e-05	
-0.000153236	-0.0287638	-0.000926256	
3.29623	0.0193302	0.149384	
0.134845	0.083632	0.0063698	
0.326791	0.0821378	0.0150991	
1.12189	0.0691774	0.0453205	
-0.0208121	0.076894	-0.00131637	
-0.0820472	0.0759915	-0.00384214	
1.71555e-05	0.0759961	6.4467e-05	
-0.0346682	0.0781602	-0.00197317	
0.361041	0.0749578	0.0127337	
0.361701	0.0825568	0.0150524	
1.09388	0.0390431	0.0554873	
0.113366	0.0757349	0.00544459	
0.109844	0.0853982	0.00439273	
0.0588796	0.0781681	0.00270535	
-0.000138031	0.0795444	-0.00237874	
0.583327	0.0874923	0.0280945	
0.151697	0.0819754	0.00725296	
-0.128769	0.0809396	-0.00668223	
0.183239	0.0779146	0.00930291	
-0.0531846	0.085966	-0.00324549	
3.27477e-05	0.0827711	-0.000322186	
1.36255e-05	0.0781165	-9.42951e-05	
-3.9725e-05	0.0864335	-0.000975436	
1.74202e-05	0.0810723	-0.000158795	
0.0171134	0.0755511	0.000854474	
-3.66723e-06	0.0790578	-0.0002845	
-0.000189276	0.0519621	-0.0013773	
-3.74432e-05	0.0846833	-0.00153594	
-0.0979118	0.0751312	-0.00459955	
-0.379576	0.0836592	-0.0178858	
-0.0718108	0.0751411	-0.00347527	
0.281746	0.0738805	0.0138606	
0.0648909	0.0779948	0.00303863	
-0.57596	0.0778695	-0.0265167	
-2.78684	0.0371104	-0.158909	
-0.193207	0.0739193	-0.00957764	
-0.0910371	0.0862537	-0.00348265	
0.151735	0.0783046	0.00691465	
-2.08285e-05	0.0738355	-0.000166075	
-0.423663	0.0827009	-0.0173825	
-0.580279	0.0883583	-0.0279956	
-0.247575	0.0848297	-0.0116698	
0.0964404	0.0822831	0.00514081	
-0.214128	0.0810122	-0.0104505	
-0.159252	0.0877862	-0.00696117	
0.0567473	0.0853072	0.00316133	
-2.09193e-05	0.08497	0.000404806	
-2.73998e-05	0.0784287	-4.93571e-05	
8.92446e-05	0.0829837	0.00218934	
4.10833e-05	0.0875411	0.00109853	
9.20409e-06	0.0842155	0.00045375	
1.59175	-0.0100974	0.0542574	
-0.806897	0.0699292	-0.0405438	
2.97348e-05	0.0858517	0.00133856	
-2.4581e-05	0.0815524	8.22446e-05	
0.000100054	0.048737	0.00141377	
5.70298	-0.103532	0.304065	
-2.04328	-0.374726	-0.124635	
0.637404	-0.431619	0.0363691	
1.56567	-0.122064	0.0898632	
1.95364	-0.427406	0.117791	
-1.78458	-0.541128	-0.108781	
-0.000108418	-0.554232	-0.000418639	
-0.608844	-0.332779	-0.0353972	
0.629351	-0.0954463	0.0353833	
1.15256	-0.188287	0.0648803	
-0.252839	-0.267567	-0.016773	
-0.107626	-0.365886	-0.00553243	
3.08332	-0.286479	0.18662	
0.77659	-0.391452	0.04629	
0.000105819	-0.114184	-0.000556276	
0.83983	-0.545255	0.050978	
-0.989157	-0.220851	-0.0586499	
0.163285	-0.122068	0.00981831	
1.4602	-0.235487	0.0871834	
-0.339329	-0.524542	-0.0210193	
-3.80574e-05	-0.272112	-0.000409481	
-4.60102e-05	-0.312829	-0.000581617	
0.000228566	-0.55568	-0.000548993	
-2.19398e-05	-0.143863	-1.76155e-05	
0.0182346	-0.340691	0.0015082	
1.52312e-05	-0.180456	0.000292107	
9.25196e-05	-0.0818594	-0.000752708	
3.65649e-05	-0.215293	-0.000831518	
0.0960529	-0.340276	0.0051807	
-0.477895	-0.534062	-0.0277066	
-2.35749	-0.406272	-0.142635	
0.402436	-0.540312	0.0259171	
-0.00327483	-0.286927	-0.000616499	
-1.04577	-0.201547	-0.0592821	
-3.64504	-0.438835	-0.221891	
1.30121	-0.362069	0.0779552	
-2.76392	-0.350083	-0.166014	
0.17861	-0.274187	0.0117218	
0.000108431	-0.53471	0.000725392	
-1.18268	-0.225145	-0.0664797	
-0.808155	-0.592943	-0.0490159	
0.688526	-0.252848	0.0408767	
-1.22842	-0.400836	-0.0738025	
0.34539	-0.358447	0.0201495	
1.47376	-0.559145	0.0875186	
1.01166	-0.405429	0.0621736	
2.73505e-05	-0.30169	0.000514503	
4.27659e-05	-0.271312	0.000132473	
-0.000257143	-0.293913	0.000750839	
-0.000244618	-0.600265	0.000740811	
-3.56978e-05	-0.193815	-0.000290513	
2.12174	0.161942	0.0673841	
-1.25575	-0.190652	-0.0735312	
-3.11327e-05	-0.295971	0.00097744	
6.46051e-05	-0.344921	0.000481496	
-0.000153838	-0.167104	0.00122139	
				</DataArray>
				<DataArray type="Float64" Name="Time Step Shed" NumberOfComponents="1" Format="ascii">
3	
3	
3	
3	
3	
3	
3	
3	
3	
3	
3	
3	
3	
3	
3	
3	
3	
3	
3	
3	
3	
3	
3	
3	
3	
3	
3	
3	
3	
3	
3	
3	
3	
3	
3	
3	
3	
3	
3	
3	
3	
3	
3	
3	
3	
3	
3	
3	
3	
3	
3	
3	
3	
3	
3	
3	
4	
4	
4	
4	
4	
4	
4	
4	
4	
4	
4	
4	
4	
4	
4	
4	
4	
4	
4	
4	
4	
4	
4	
4	
4	
4	
4	
4	
4	
4	
4	
4	
4	
4	
4	
4	
4	
4	
4	
4	
4	
4	
4	
4	
4	
4	
4	
4	
4	
4	
4	
4	
4	
4	
4	
4	
5	
5	
5	
5	
5	
5	
5	
5	
5	
5	
5	
5	
5	
5	
5	
5	
5	
5	
5	
5	
5	
5	
5	
5	
5	
5	
5	
5	
5	
5	
5	
5	
5	
5	
5	
5	
5	
5	
5	
5	
5	
5	
5	
5	
5	
5	
5	
5	
5	
5	
5	
5	
5	
5	
5	
5	
6	
6	
6	
6	
6	
6	
6	
6	
6	
6	
6	
6	
6	
6	
6	
6	
6	
6	
6	
6	
6	
6	
6	
6	
6	
6	
6	
6	
6	
6	
6	
6	
6	
6	
6	
6	
6	
6	
6	
6	
6	
6	
6	
6	
6	
6	
6	
6	
6	
6	
6	
6	
6	
6	
6	
6	
7	
7	
7	
7	
7	
7	
7	
7	
7	
7	
7	
7	
7	
7	
7	
7	
7	
7	
7	
7	
7	
7	
7	
7	
7	
7	
7	
7	
7	
7	
7	
7	
7	
7	
7	
7	
7	
7	
7	
7	
7	
7	
7	
7	
7	
7	
7	
7	
7	
7	
7	
7	
7	
7	
7	
7	
				</DataArray>
			</CellData>
			<Points>
				<DataArray type="Float64" Name="Position" NumberOfComponents="3" Format="ascii">
1.14014	1.96288	0.0167916	
1.19133	1.03549	0.0250472	
1.19123	1.46635	0.020411	
1.16941	1.74935	0.022622	
1.20482	0.321753	0.0186094	
1.19528	0.176951	0.0279337	
1.19486	0.251683	0.0287102	
1.2044	0.392688	0.020237	
1.17046	1.67983	0.024716	
1.18552	1.53497	0.0214755	
1.14928	1.8921	0.0188512	
1.20113	0.107862	0.0232307	
1.19236	1.32104	0.0221167	
1.2035	0.46451	0.0220612	
1.17767	1.60839	0.0214333	
1.18796	1.24989	0.0252668	
1.20455	0.894986	0.0133638	
1.19105	0.75108	0.030549	
1.19004	0.60558	0.0314669	
1.19785	1.10737	0.0207836	
1.20478	0.963814	0.0157187	
1.19453	0.53464	0.029207	
1.19589	1.17918	0.0212479	
1.19357	0.823366	0.0276763	
1.19851	0.0357237	0.02556	
1.20533	0.678519	0.0191191	
1.15535	1.82059	0.0223653	
1.19413	1.39579	0.02019	
1.2026	-0.0367359	0.0221001	
1.18704	-1.46568	0.0238089	
1.20483	-0.323436	0.0179599	
1.19798	-0.250083	0.027971	
1.20829	-0.395027	0.0152569	
1.1718	-1.67874	0.0280324	
1.15054	-1.8913	0.023077	
1.20225	-0.109094	0.0221711	
1.19248	-1.32281	0.023217	
1.20494	-0.46536	0.0206839	
1.19372	-0.177367	0.0284688	
1.18299	-1.60647	0.0229604	
1.19231	-1.24968	0.0245808	
1.20167	-0.894172	0.0178082	
1.19664	-0.751583	0.0271406	
1.19091	-0.607723	0.0297374	
1.19627	-1.10649	0.0230927	
1.18829	-1.03698	0.0259058	
1.20455	-0.963943	0.0172011	
1.20579	-0.534664	0.0189821	
1.19108	-1.53514	0.01529	
1.19388	-1.17872	0.0238256	
1.19821	-0.824008	0.0242171	
1.14162	-1.9658	0.0202309	
1.16579	-1.74853	0.0255299	
1.19606	-1.39684	0.0200638	
1.20478	-0.678206	0.0184983	
1.15977	-1.82196	0.0250745	
1.05619	1.96392	0.00369297	
1.07298	1.03347	0.0362389	
1.06903	1.46507	0.0312135	
1.06301	1.74753	0.0192975	
1.07304	0.322433	0.0450403	
1.07232	0.1775	0.0416319	
1.07291	0.251034	0.0435206	
1.07301	0.392868	0.0435177	
1.05813	1.67822	0.0053758	
1.06038	1.53452	0.00933024	
1.05864	1.89088	0.00758915	
1.07268	0.108099	0.0420767	
1.06748	1.3166	0.0304916	
1.07191	0.461387	0.0421045	
1.0672	1.60576	0.0277136	
1.06751	1.24878	0.0311877	
1.07218	0.895497	0.0390289	
1.06801	0.750545	0.0336618	
1.07092	0.605751	0.0395754	
1.07193	1.10769	0.0380322	
1.07149	0.96399	0.0363707	
1.07248	0.534096	0.0433443	
1.07051	1.1807	0.036041	
1.07226	0.822999	0.0406448	
1.07119	0.0371193	0.0387018	
1.0745	0.677469	0.04808	
1.05841	1.81949	0.00680581	
1.07073	1.393	0.0345238	
1.07323	-0.0369249	0.0439819	
1.06559	-1.46504	0.0240888	
1.07432	-0.323546	0.0458399	
1.07187	-0.249989	0.043075	
1.07395	-0.395271	0.04444	
1.06126	-1.67788	0.0166758	
1.05909	-1.89172	0.0145399	
1.07277	-0.108658	0.0419498	
1.06977	-1.3219	0.0364035	
1.07274	-0.469695	0.0450797	
1.0723	-0.177622	0.0410101	
1.06568	-1.6047	0.0271752	
1.06784	-1.25417	0.0342036	
1.07123	-0.894595	0.0368988	
1.06857	-0.751412	0.0355338	
1.07057	-0.607481	0.037088	
1.07049	-1.10525	0.0359925	
1.07021	-1.03505	0.0339955	
1.07174	-0.962364	0.0384913	
1.07265	-0.534018	0.0424905	
1.06966	-1.53275	0.0304075	
1.07269	-1.17805	0.0415155	
1.07096	-0.823671	0.0382244	
1.05622	-1.96614	0.00669794	
1.06218	-1.74716	0.0200457	
1.06907	-1.39376	0.033535	
1.0742	-0.677988	0.0465844	
1.06123	-1.8206	0.0184868	
0.823097	1.96431	-0.0320387	
0.753415	1.0352	-0.0244499	
0.756573	1.46611	-0.0294866	
0.760607	1.74795	-0.0373882	
0.753492	0.318579	-0.0245088	
0.753441	0.178013	-0.0191347	
0.752239	0.249971	-0.0189872	
0.752359	0.391064	-0.0166578	
0.759496	1.67496	-0.0375959	
0.757669	1.53356	-0.0332191	
0.764274	1.89034	-0.0338229	
0.753211	0.105742	-0.0195029	
0.755135	1.32154	-0.0257867	
0.752922	0.46468	-0.0190309	
0.758544	1.60301	-0.0347628	
0.754408	1.24841	-0.0235537	
0.753309	0.893722	-0.0225833	
0.752843	0.749206	-0.0175904	
0.75296	0.605373	-0.0192901	
0.754227	1.10737	-0.0262952	
0.753602	0.964754	-0.0244148	
0.753659	0.536367	-0.0217642	
0.753061	1.17965	-0.0246151	
0.752852	0.820172	-0.0197004	
0.753749	0.0342001	-0.0206862	
0.752956	0.679053	-0.018116	
0.761655	1.8166	-0.032052	
0.756153	1.39495	-0.0270725	
0.753573	-0.0362867	-0.022426	
0.756023	-1.46387	-0.0282021	
0.752769	-0.319617	-0.0192854	
0.752529	-0.251595	-0.0159984	
0.752662	-0.393917	-0.0179309	
0.758724	-1.67639	-0.0319134	
0.763081	-1.89372	-0.0274821	
0.752961	-0.10866	-0.0202294	
0.754535	-1.32288	-0.023725	
0.751429	-0.465969	-0.0185335	
0.752698	-0.179069	-0.0176046	
0.758128	-1.60399	-0.0308434	
0.754556	-1.24945	-0.0222612	
0.752403	-0.894415	-0.0223363	
0.752984	-0.751119	-0.0208757	
0.752805	-0.610062	-0.018889	
0.75404	-1.10514	-0.0262552	
0.752854	-1.03481	-0.0228136	
0.752425	-0.965319	-0.0219685	
0.752921	-0.53769	-0.0241428	
0.757762	-1.5344	-0.030007	
0.753175	-1.17834	-0.0231369	
0.7525	-0.822472	-0.0208262	
0.822739	-1.96521	-0.028451	
0.759044	-1.74753	-0.0299303	
0.756695	-1.39209	-0.0245018	
0.7529	-0.681542	-0.0212953	
0.760962	-1.81947	-0.0271323	
0.591315	1.96551	-0.0577998	
0.4938	1.03441	-0.0908675	
0.49254	1.46343	-0.091704	
0.489804	1.74835	-0.0908622	
0.494534	0.321098	-0.0888046	
0.491689	0.177896	-0.083364	
0.49325	0.249632	-0.0870207	
0.493362	0.39396	-0.0887317	
0.490708	1.67544	-0.0905617	
0.492485	1.53398	-0.0929729	
0.486643	1.8918	-0.0815787	
0.492617	0.104641	-0.0855235	
0.491621	1.32314	-0.0892417	
0.493163	0.463296	-0.087889	
0.492045	1.60543	-0.0935857	
0.491794	1.25022	-0.0873663	
0.493504	0.891134	-0.0864694	
0.493109	0.751108	-0.0889364	
0.492296	0.606189	-0.0864242	
0.492846	1.10526	-0.0898056	
0.493517	0.964362	-0.0896099	
0.494217	0.535505	-0.0875175	
0.492527	1.17899	-0.0889545	
0.494609	0.821422	-0.0910886	
0.494013	0.0340294	-0.0876912	
0.493167	0.679407	-0.0870009	
0.48807	1.81726	-0.0864658	
0.491626	1.39394	-0.0910355	
0.494386	-0.0363056	-0.0898207	
0.491981	-1.46117	-0.0900982	
0.493263	-0.3227	-0.0865921	
0.492639	-0.252461	-0.086067	
0.493293	-0.397016	-0.0885644	
0.489814	-1.68104	-0.0876615	
0.485924	-1.89489	-0.078046	
0.49306	-0.108973	-0.0875276	
0.491019	-1.32305	-0.0871069	
0.493356	-0.466435	-0.0884465	
0.491966	-0.181652	-0.0853085	
0.49128	-1.60804	-0.0914	
0.492357	-1.24957	-0.0885961	
0.493426	-0.891539	-0.087004	
0.494042	-0.751426	-0.0906592	
0.491665	-0.607193	-0.0870625	
0.492221	-1.10985	-0.0880541	
0.493453	-1.03641	-0.0892654	
0.493381	-0.965038	-0.0893965	
0.493495	-0.538496	-0.0871792	
0.491665	-1.53544	-0.0904807	
0.492323	-1.1794	-0.0868353	
0.494134	-0.8214	-0.0919986	
0.590981	-1.96633	-0.0552772	
0.490916	-1.74617	-0.0891882	
0.491611	-1.39328	-0.088178	
0.493996	-0.679808	-0.088411	
0.488164	-1.82422	-0.0808396	
0.36111	1.96669	-0.083573	
0.205595	1.03568	-0.124615	
0.205326	1.4645	-0.125311	
0.203564	1.75109	-0.114475	
0.205555	0.322416	-0.123859	
0.20581	0.177868	-0.124447	
0.206385	0.250725	-0.126885	
0.204757	0.394851	-0.122013	
0.203563	1.67713	-0.114138	
0.203934	1.53789	-0.120389	
0.203424	1.89394	-0.113985	
0.205069	0.107655	-0.119907	
0.204823	1.32227	-0.120181	
0.204283	0.464908	-0.12284	
0.203996	1.6057	-0.115572	
0.205938	1.25017	-0.12698	
0.204354	0.892183	-0.117615	
0.203346	0.748197	-0.117521	
0.204744	0.608108	-0.119555	
0.206388	1.10633	-0.128046	
0.204769	0.96334	-0.122101	
0.205023	0.53435	-0.120966	
0.206439	1.17636	-0.130686	
0.203846	0.820834	-0.116744	
0.205251	0.0347407	-0.121476	
0.204226	0.67878	-0.117399	
0.203859	1.81828	-0.111207	
0.20458	1.3925	-0.119362	
0.20533	-0.0362984	-0.122351	
0.205413	-1.4654	-0.126997	
0.205541	-0.324545	-0.12354	
0.206492	-0.251168	-0.127177	
0.204999	-0.39852	-0.11821	
0.204045	-1.6784	-0.115634	
0.203817	-1.8944	-0.116195	
0.205024	-0.109325	-0.122027	
0.204616	-1.32148	-0.120308	
0.203681	-0.464956	-0.122001	
0.20603	-0.179029	-0.125783	
0.204366	-1.60556	-0.117139	
0.205395	-1.25096	-0.126292	
0.204663	-0.893209	-0.119276	
0.204635	-0.749404	-0.124235	
0.205208	-0.607985	-0.120958	
0.205929	-1.10676	-0.127388	
0.20549	-1.03564	-0.123951	
0.20529	-0.965522	-0.122514	
0.204992	-0.534541	-0.119954	
0.204795	-1.53613	-0.12078	
0.206352	-1.18034	-0.127885	
0.204213	-0.822199	-0.119296	
0.360858	-1.96689	-0.0825603	
0.203932	-1.74897	-0.11659	
0.204706	-1.39242	-0.120681	
0.205033	-0.678878	-0.123533	
0.203831	-1.82012	-0.114684	
				</DataArray>
			</Points>
			<Cells>
				<DataArray type="Int32" Name="connectivity" Format="ascii">
0	
1	
2	
3	
4	
5	
6	
7	
8	
9	
10	
11	
12	
13	
14	
15	
16	
17	
18	
19	
20	
21	
22	
23	
24	
25	
26	
27	
28	
29	
30	
31	
32	
33	
34	
35	
36	
37	
38	
39	
40	
41	
42	
43	
44	
45	
46	
47	
48	
49	
50	
51	
52	
53	
54	
55	
56	
57	
58	
59	
60	
61	
62	
63	
64	
65	
66	
67	
68	
69	
70	
71	
72	
73	
74	
75	
76	
77	
78	
79	
80	
81	
82	
83	
84	
85	
86	
87	
88	
89	
90	
91	
92	
93	
94	
95	
96	
97	
98	
99	
100	
101	
102	
103	
104	
105	
106	
107	
108	
109	
110	
111	
112	
113	
114	
115	
116	
117	
118	
119	
120	
121	
122	
123	
124	
125	
126	
127	
128	
129	
130	
131	
132	
133	
134	
135	
136	
137	
138	
139	
140	
141	
142	
143	
144	
145	
146	
147	
148	
149	
150	
151	
152	
153	
154	
155	
156	
157	
158	
159	
160	
161	
162	
163	
164	
165	
166	
167	
168	
169	
170	
171	
172	
173	
174	
175	
176	
177	
178	
179	
180	
181	
182	
183	
184	
185	
186	
187	
188	
189	
190	
191	
192	
193	
194	
195	
196	
197	
198	
199	
200	
201	
202	
203	
204	
205	
206	
207	
208	
209	
210	
211	
212	
213	
214	
215	
216	
217	
218	
219	
220	
221	
222	
223	
224	
225	
226	
227	
228	
229	
230	
231	
232	
233	
234	
235	
236	
237	
238	
239	
240	
241	
242	
243	
244	
245	
246	
247	
248	
249	
250	
251	
252	
253	
254	
255	
256	
257	
258	
259	
260	
261	
262	
263	
264	
265	
266	
267	
268	
269	
270	
271	
272	
273	
274	
275	
276	
277	
278	
279	
				</DataArray>
				<DataArray type="Int32" Name="offsets" Format="ascii">
1	
2	
3	
4	
5	
6	
7	
8	
9	
10	
11	
12	
13	
14	
15	
16	
17	
18	
19	
20	
21	
22	
23	
24	
25	
26	
27	
28	
29	
30	
31	
32	
33	
34	
35	
36	
37	
38	
39	
40	
41	
42	
43	
44	
45	
46	
47	
48	
49	
50	
51	
52	
53	
54	
55	
56	
57	
58	
59	
60	
61	
62	
63	
64	
65	
66	
67	
68	
69	
70	
71	
72	
73	
74	
75	
76	
77	
78	
79	
80	
81	
82	
83	
84	
85	
86	
87	
88	
89	
90	
91	
92	
93	
94	
95	
96	
97	
98	
99	
100	
101	
102	
103	
104	
105	
106	
107	
108	
109	
110	
111	
112	
113	
114	
115	
116	
117	
118	
119	
120	
121	
122	
123	
124	
125	
126	
127	
128	
129	
130	
131	
132	
133	
134	
135	
136	
137	
138	
139	
140	
141	
142	
143	
144	
145	
146	
147	
148	
149	
150	
151	
152	
153	
154	
155	
156	
157	
158	
159	
160	
161	
162	
163	
164	
165	
166	
167	
168	
169	
170	
171	
172	
173	
174	
175	
176	
177	
178	
179	
180	
181	
182	
183	
184	
185	
186	
187	
188	
189	
190	
191	
192	
193	
194	
195	
196	
197	
198	
199	
200	
201	
202	
203	
204	
205	
206	
207	
208	
209	
210	
211	
212	
213	
214	
215	
216	
217	
218	
219	
220	
221	
222	
223	
224	
225	
226	
227	
228	
229	
230	
231	
232	
233	
234	
235	
236	
237	
238	
239	
240	
241	
242	
243	
244	
245	
246	
247	
248	
249	
250	
251	
252	
253	
254	
255	
256	
257	
258	
259	
260	
261	
262	
263	
264	
265	
266	
267	
268	
269	
270	
271	
272	
273	
274	
275	
276	
277	
278	
279	
280	
				</DataArray>
				<DataArray type="Int32" Name="types" Format="ascii">
1	
1	
1	
1	
1	
1	
1	
1	
1	
1	
1	
1	
1	
1	
1	
1	
1	
1	
1	
1	
1	
1	
1	
1	
1	
1	
1	
1	
1	
1	
1	
1	
1	
1	
1	
1	
1	
1	
1	
1	
1	
1	
1	
1	
1	
1	
1	
1	
1	
1	
1	
1	
1	
1	
1	
1	
1	
1	
1	
1	
1	
1	
1	
1	
1	
1	
1	
1	
1	
1	
1	
1	
1	
1	
1	
1	
1	
1	
1	
1	
1	
1	
1	
1	
1	
1	
1	
1	
1	
1	
1	
1	
1	
1	
1	
1	
1	
1	
1	
1	
1	
1	
1	
1	
1	
1	
1	
1	
1	
1	
1	
1	
1	
1	
1	
1	
1	
1	
1	
1	
1	
1	
1	
1	
1	
1	
1	
1	
1	
1	
1	
1	
1	
1	
1	
1	
1	
1	
1	
1	
1	
1	
1	
1	
1	
1	
1	
1	
1	
1	
1	
1	
1	
1	
1	
1	
1	
1	
1	
1	
1	
1	
1	
1	
1	
1	
1	
1	
1	
1	
1	
1	
1	
1	
1	
1	
1	
1	
1	
1	
1	
1	
1	
1	
1	
1	
1	
1	
1	
1	
1	
1	
1	
1	
1	
1	
1	
1	
1	
1	
1	
1	
1	
1	
1	
1	
1	
1	
1	
1	
1	
1	
1	
1	
1	
1	
1	
1	
1	
1	
1	
1	
1	
1	
1	
1	
1	
1	
1	
1	
1	
1	
1	
1	
1	
1	
1	
1	
1	
1	
1	
1	
1	
1	
1	
1	
1	
1	
1	
1	
1	
1	
1	
1	
1	
1	
1	
1	
1	
1	
1	
1	
1	
1	
1	
1	
1	
1	
1	
1	
1	
1	
1	
1	
1	
1	
1	
1	
1	
1	
				</DataArray>
			</Cells>
		</Piece>
	</UnstructuredGrid>
</VTKFile>
