<VTKFile type="UnstructuredGrid" version="0.1" byte_order="LittleEndian">
	<UnstructuredGrid>
		<Piece NumberOfPoints="840" NumberOfCells="840">
			<CellData Scalars="scalars">
				<DataArray type="Float64" Name="Strength" NumberOfComponents="3" Format="ascii">
0.55021	-0.358853	-0.103198	
0.00735421	-1.04363	0.00299559	
-0.00217141	-0.939513	0.0140336	
0.0711406	-0.820298	0.0280876	
0.000317012	-1.06769	0.00804271	
-0.0220433	-1.00626	0.0102902	
-0.000280834	-1.05348	0.00154705	
-0.0104962	-1.04954	0.0108696	
-0.0199338	-0.854186	0.0768268	
-0.000547802	-0.920346	0.0163038	
0.133262	-0.571273	0.0395176	
0.011925	-1.02637	-0.00538639	
-0.0116374	-0.972738	0.0240144	
-0.0103747	-1.04334	-0.00139006	
-0.0428274	-0.887662	0.0531817	
0.047427	-0.964965	-0.00637628	
0.0270886	-1.04713	-0.00531908	
-0.000407691	-1.01727	0.00509484	
0.00524675	-1.03542	-0.0137689	
-0.0275216	-1.02923	0.0285533	
0.00627541	-1.03086	0.00430189	
-0.0188601	-1.02966	0.000755531	
-0.0177034	-1.04711	0.0303391	
0.0290787	-1.05477	-0.0119542	
0.000592073	-1.05471	-0.00114913	
0.00827575	-1.02507	-0.00282205	
-0.0293821	-0.709045	0.0911064	
-0.0169209	-0.957253	0.0208906	
-0.00854138	-1.05581	-0.000983313	
-0.00302148	-0.944193	-0.013926	
-0.0214211	-1.06841	0.00826947	
0.0289535	-1.05534	-0.0149165	
0.00339693	-1.03886	0.00287062	
0.014161	-0.834592	-0.0730325	
-0.316846	-0.592472	-0.010462	
-0.00420281	-1.02688	-0.0019535	
0.0148985	-0.976774	-0.0240504	
0.0294648	-1.03996	0.000149724	
0.00611309	-1.00826	-0.00221278	
0.0193892	-0.878383	-0.0467695	
-0.0493191	-0.965967	0.00924217	
-0.0237635	-1.05659	0.00572952	
0.0027596	-1.10288	-0.00587618	
-0.0262511	-1.02531	0.0184923	
0.00736704	-1.03157	-0.021344	
0.0210281	-1.04613	-0.0211409	
0.00610302	-1.03565	-0.00841369	
0.00339058	-1.07009	0.0100805	
0.039575	-0.916167	-0.0416636	
0.0195043	-1.04847	-0.0362254	
-0.0145381	-1.07451	-0.000485627	
-0.324723	-0.364876	0.000541673	
-0.0224702	-0.814123	-0.0991334	
0.0184689	-0.962737	-0.0219937	
-0.00585065	-1.05302	0.00547719	
0.031399	-0.69075	-0.16296	
1.50237	0.0246789	-0.0792601	
0.0488657	-0.192215	-0.00648781	
0.124852	-0.164774	-0.0117213	
0.516402	-0.120258	-0.0471979	
-0.00949651	-0.206433	0.003428	
-0.0479476	-0.206417	0.00890309	
0.000174251	-0.204748	0.000395457	
-0.0147103	-0.20796	0.00484611	
0.154092	-0.133959	-0.00596309	
0.148826	-0.160512	-0.0154375	
0.51153	-0.0636279	-0.0377399	
0.04883	-0.21051	-0.010447	
0.0389552	-0.182319	0.000636776	
0.0250155	-0.20538	-0.003513	
-0.00116576	-0.150404	0.0112595	
0.245836	-0.187832	-0.0390289	
0.045566	-0.192041	-0.0076924	
-0.0677631	-0.204558	0.0144081	
0.0701768	-0.204224	-0.0142474	
-0.0296563	-0.194329	0.010814	
0.0016432	-0.191188	0.00148889	
-0.00100214	-0.204885	0.000379068	
-0.000763432	-0.189652	0.00607178	
0.00340462	-0.201609	-0.000485979	
0.00485301	-0.209094	-0.0024996	
0.00144251	-0.204622	5.42515e-05	
0.00194533	-0.101818	0.0112987	
0.00109746	-0.176915	0.00989062	
-0.0484355	-0.209687	0.00715295	
-0.144727	-0.166048	0.0162987	
-0.0213347	-0.208684	0.0061753	
0.123926	-0.2059	-0.0224678	
0.0318446	-0.210245	-0.00324006	
-0.264083	-0.148679	0.0268358	
-1.26309	-0.112742	0.196794	
-0.0734757	-0.212119	0.0141191	
-0.0291546	-0.182955	-0.00357684	
0.0781965	-0.207861	-0.0128074	
0.000262141	-0.205602	0.000155909	
-0.175414	-0.156588	0.0142656	
-0.245764	-0.189284	0.0376901	
-0.0903002	-0.194126	0.0167407	
0.0510942	-0.202164	-0.0118543	
-0.0871515	-0.206019	0.018035	
-0.0587361	-0.19667	0.00617691	
0.0283778	-0.192749	-0.00956522	
-0.000120125	-0.192275	-0.00263701	
-0.000223479	-0.200996	0.00167292	
0.00136252	-0.159617	-0.0144061	
0.000914315	-0.189913	-0.0066933	
-0.00190159	-0.202823	-0.00126629	
-0.72405	-0.0481189	0.0574166	
-0.36816	-0.141708	0.0545726	
-0.00112384	-0.177378	-0.0109491	
-0.00135615	-0.206185	-0.000250195	
-0.000595164	-0.101472	-0.0249715	
2.50219	0.106617	0.0133764	
0.0868241	-0.0591478	0.00456397	
0.244796	-0.0431853	0.0190628	
0.904887	-0.00179341	0.0641688	
-0.0256012	-0.0692957	-0.000324095	
-0.0594718	-0.0706404	-0.0019214	
-5.24351e-05	-0.0688557	-0.000182915	
-0.0290034	-0.0706813	-0.000455388	
0.288963	-0.0277641	0.0332592	
0.272135	-0.0404594	0.033078	
0.871379	0.0195369	0.00948427	
0.0766616	-0.0732086	0.00135604	
0.0875026	-0.0545272	0.00798391	
0.0409914	-0.0706551	0.00135339	
0.000178283	-0.0413677	0.00691898	
0.417376	-0.0520977	0.0225622	
0.0935243	-0.060061	0.00374814	
-0.101531	-0.070042	-0.00120059	
0.132475	-0.0680316	0.00277166	
-0.0389758	-0.0609978	0.000652348	
0.000215388	-0.060553	0.00114204	
0.000153453	-0.0710034	0.00032962	
0.000510808	-0.0590305	0.00299116	
0.000172463	-0.0658805	0.000502056	
0.00990477	-0.0724983	-0.00012049	
0.000121368	-0.0693824	0.000647414	
0.00107431	-0.0262234	0.00643173	
0.000493763	-0.0536365	0.00467638	
-0.0729759	-0.0725645	-0.00187224	
-0.281833	-0.0423973	-0.00770388	
-0.0305361	-0.0697786	0.000157981	
0.201166	-0.0687303	0.00300398	
0.0525942	-0.0701251	0.00250787	
-0.485861	-0.0254897	-0.0350225	
-2.19786	0.0589611	0.00137323	
-0.138344	-0.0735674	-0.00223191	
-0.0721719	-0.0549165	-0.00497495	
0.11099	-0.0688112	0.00472364	
5.86835e-05	-0.0709995	0.00047635	
-0.318147	-0.0348707	-0.0235254	
-0.417389	-0.0517974	-0.014494	
-0.166657	-0.0594381	-0.00580246	
0.0814635	-0.0636209	0.00113364	
-0.143765	-0.0667658	-0.00379379	
-0.110704	-0.059813	-0.00593658	
0.0423391	-0.060005	-0.000471784	
-0.000196024	-0.0603654	-0.00163637	
-1.90808e-05	-0.0646262	0.000441576	
-0.000434253	-0.0454701	-0.00633662	
-0.000610425	-0.0590613	-0.00321036	
-0.00020632	-0.0646005	-0.000984227	
1.16785	-0.0201365	-0.0339964	
-0.662418	-0.00934346	-0.0237076	
-0.000635386	-0.0536045	-0.00458207	
-0.000130368	-0.066091	-0.000212544	
-0.00121799	-0.0285351	-0.00353863	
3.29528	0.0603486	0.163719	
0.135805	0.082124	-0.00634201	
0.325748	0.0877168	-0.00106167	
1.12079	0.0977179	0.0019709	
-0.0210807	0.0768259	0.000101645	
-0.081768	0.0761665	-0.00592037	
0.000135155	0.0759848	-0.000790546	
-0.035498	0.0777282	0.00359104	
0.359881	0.0813052	-0.00538306	
0.361583	0.084622	0.0029356	
1.09406	0.060973	0.0273965	
0.114431	0.0742357	-0.00414042	
0.107498	0.0882207	0.0065926	
0.0581734	0.07849	0.00631553	
-0.000379394	0.0786223	-0.0121386	
0.58001	0.101026	0.0471348	
0.152685	0.0801622	-0.00764242	
-0.128905	0.0810279	0.000213573	
0.183119	0.0782947	0.0090366	
-0.052602	0.0853645	-0.0132193	
0.00102366	0.0821036	-0.0104473	
-3.43981e-05	0.078061	0.00279942	
-0.000708383	0.0862913	-0.00481541	
-2.67495e-06	0.0810081	-0.0030508	
0.0174918	0.0754616	-0.000409538	
-0.000124737	0.0790156	0.0023795	
-0.001774	0.0507409	-0.0110923	
-0.00218951	0.0846537	9.4978e-05	
-0.0984069	0.0745824	0.00315002	
-0.378276	0.0913466	0.00323077	
-0.0714016	0.075238	-0.00755968	
0.281455	0.0739691	0.0191539	
0.0652601	0.0775389	-0.00577452	
-0.573907	0.0909125	-0.0306097	
-2.78746	0.0809087	-0.13359	
-0.194119	0.072233	0.000331304	
-0.0882724	0.0890948	-0.00355183	
0.152071	0.077556	-0.00849822	
-9.57227e-05	0.0738285	-0.000203297	
-0.422367	0.0867444	-0.0275756	
-0.577711	0.100009	-0.0408864	
-0.24776	0.0849442	0.00741744	
0.0968052	0.0819896	0.00225094	
-0.21416	0.0808508	-0.0117237	
-0.159837	0.0869887	0.00369353	
0.0559171	0.0851018	0.0117379	
-0.000902517	0.0844244	0.00956692	
-0.000378141	0.078419	0.000620317	
0.000318267	0.0827092	0.00682596	
0.000526645	0.0873002	0.00642805	
0.000405514	0.0842004	0.00114306	
1.592	-0.0236698	0.0441484	
-0.805309	0.0917016	-0.0287602	
0.00241503	0.085798	0.00175131	
0.000169329	0.0815396	-0.000958194	
0.00126672	0.0484319	0.00531377	
5.70446	-0.0889549	0.289335	
-2.01892	-0.463178	-0.209766	
0.603099	-0.41392	0.244148	
1.56593	-0.132446	0.0736369	
1.94575	-0.45735	0.146394	
-1.78083	-0.554553	-0.115842	
-0.00118072	-0.5541	-0.00777137	
-0.621881	-0.30868	0.0333524	
0.627078	-0.102007	0.0541756	
1.13878	-0.21988	0.153727	
-0.253046	-0.26784	0.00886849	
-0.10196	-0.366672	-0.0249282	
3.05802	-0.444697	0.283627	
0.758511	-0.410722	0.122475	
-0.00556573	-0.106508	0.0411809	
0.810571	-0.55468	0.202701	
-0.973167	-0.256468	-0.136714	
0.162729	-0.122007	0.0174983	
1.44997	-0.267673	0.15144	
-0.326034	-0.527415	-0.0799092	
0.0200359	-0.259114	-0.0812904	
-0.0146404	-0.305528	0.0661386	
-0.00849792	-0.554233	0.038871	
0.00428038	-0.142969	-0.0153887	
0.0184287	-0.340387	0.012924	
-0.00505323	-0.178207	0.0280448	
-0.000589278	-0.0806835	0.0140216	
-0.0182729	-0.190521	0.0995433	
0.0922498	-0.340495	0.0238948	
-0.42695	-0.515636	-0.258935	
-2.34193	-0.469792	-0.20696	
0.414651	-0.530952	-0.0300151	
0.00839302	-0.282616	-0.0491385	
-1.03308	-0.228734	-0.136252	
-3.63963	-0.455577	-0.285596	
1.2989	-0.370356	0.0869867	
-2.74119	-0.474976	-0.232418	
0.186651	-0.26871	-0.0144511	
0.00203816	-0.534471	0.0132498	
-1.16256	-0.263281	-0.183326	
-0.787261	-0.610097	-0.123852	
0.678797	-0.269865	0.0807328	
-1.22832	-0.398791	-0.0918123	
0.350402	-0.354253	-0.00451012	
1.45666	-0.596895	0.126875	
0.983507	-0.444507	0.166976	
-0.0180618	-0.296387	0.0537535	
0.00517153	-0.270485	-0.0202559	
0.0246861	-0.272602	-0.108174	
0.000903625	-0.600181	0.00621294	
-0.00286634	-0.193624	0.00756829	
2.12225	0.164736	0.0456153	
-1.24792	-0.217915	-0.119822	
0.023374	-0.274237	-0.109877	
0.00360966	-0.343663	-0.029016	
0.00384625	-0.1637	-0.0339413	
4.43005	0.253126	0.29573	
0.0516498	0.573672	-0.0566071	
0.551091	0.666973	-0.0126636	
1.26882	0.434534	0.119536	
1.19572	0.729983	0.073813	
-0.904364	0.764452	-0.145758	
-0.00234205	0.736795	-0.034262	
-0.293662	0.623	-0.0874926	
0.376235	0.423747	-0.0162057	
0.658667	0.522165	0.0261938	
1.14814	0.497146	0.0738437	
0.801193	0.624263	0.115082	
0.714223	0.60348	0.035572	
0.484211	0.670838	0.0359206	
-0.003111	0.449381	-0.0698491	
1.25466	0.82991	0.0814386	
-0.631712	0.532224	-0.108498	
-0.264536	0.487454	-0.0338141	
0.79526	0.58915	0.104707	
-0.171065	0.773812	-0.118537	
0.00797575	0.538803	-0.0327205	
-0.00697294	0.618592	-0.0412222	
0.00300913	0.800209	-0.0806373	
0.00843722	0.497067	0.00588696	
0.0132671	0.539237	0.00546205	
-0.000390457	0.539508	-0.00247202	
-0.00140481	0.358063	-0.0383272	
0.00467965	0.541942	-0.0468492	
-0.789303	0.550181	-0.0740184	
-0.453595	0.690894	0.0174411	
-1.42056	0.707955	-0.158332	
0.931329	0.722568	0.0911592	
0.0752927	0.595787	0.0195038	
-0.736994	0.416443	-0.0290274	
-2.89245	0.64183	-0.235458	
-0.0343457	0.616936	0.053162	
-0.440058	0.615349	-0.0324535	
-0.166343	0.582588	-0.0169288	
0.00501002	0.766978	0.0190973	
-0.687995	0.489174	-0.00144672	
-1.19699	0.839272	-0.0584981	
0.437624	0.549702	0.0473903	
-0.325085	0.634925	-0.0713306	
0.332271	0.658606	0.0444859	
-0.547893	0.78825	-0.00319962	
0.846103	0.577546	0.176191	
-0.00630301	0.551243	0.0153295	
-0.0014147	0.614225	0.0298246	
0.00511061	0.536503	0.0810855	
0.00146287	0.807362	0.0798126	
-0.00734497	0.523802	-0.0313058	
3.0328	-0.284871	0.19783	
-1.4973	0.456125	-0.162937	
-0.0061911	0.557406	0.0560951	
-0.00545562	0.631982	-0.011732	
-0.000918172	0.424264	0.0515521	
2.95896	0.0871125	0.209435	
0.449294	0.325795	0.0543461	
0.377149	0.316553	0.0173817	
0.993909	0.192828	0.101909	
0.683249	0.351274	0.0717737	
-0.310011	0.345835	-0.0583119	
-0.000247144	0.384315	-0.0174516	
-0.348567	0.325908	-0.076589	
0.147466	0.201736	0.00287584	
0.367446	0.255162	0.0179274	
1.10233	0.14308	0.0889445	
1.21647	0.326106	0.204605	
0.547541	0.285089	0.0542097	
0.406637	0.32464	0.0561888	
6.34882e-05	0.223548	-0.0168918	
0.859516	0.301184	0.0919322	
-0.444253	0.284919	-0.0703522	
-0.400138	0.26956	-0.0589133	
0.521481	0.294746	0.0734901	
0.0441368	0.328655	-0.0107899	
0.00202024	0.293967	-0.00793635	
-0.00036331	0.308988	-0.00654387	
0.00358936	0.348341	-0.0243593	
0.00172493	0.274714	-0.000675749	
0.00878994	0.306859	0.00202169	
0.000689003	0.280811	-0.00114049	
7.51166e-05	0.160431	-0.00931314	
0.00326492	0.276642	-0.0202905	
-1.22344	0.316034	-0.175954	
-0.248391	0.355545	0.00197072	
-0.930339	0.358563	-0.121282	
0.58542	0.383577	0.103111	
0.0970454	0.330599	0.0230654	
-0.560503	0.246347	-0.0469646	
-2.13039	0.170513	-0.190042	
-0.326027	0.32964	-0.0419128	
-0.364578	0.314958	-0.0295421	
-0.0972918	0.326208	-0.020135	
0.00142097	0.348706	0.01279	
-0.395551	0.259462	-0.027385	
-0.820744	0.323819	-0.103649	
0.389021	0.303671	0.0667048	
-0.0642308	0.364323	-0.0197979	
0.321078	0.322669	0.0461851	
-0.962456	0.346053	-0.135602	
0.601492	0.341961	0.101057	
-0.0018941	0.309732	0.00508469	
-0.000518755	0.317753	-0.00179067	
-0.00137898	0.284727	0.0318681	
-0.00329669	0.370325	0.0240949	
-0.00147424	0.304169	-0.0092039	
1.78695	-0.0973008	0.123826	
-1.31604	0.241483	-0.159469	
-0.00444775	0.310625	0.0308895	
-0.00123174	0.328165	-0.00784745	
-0.000825376	0.195629	0.0178727	
2.44115	0.0415303	0.177706	
0.599124	0.166399	0.05469	
0.307804	0.137977	0.0219239	
0.853039	0.0884766	0.0728982	
0.44833	0.165484	0.0364008	
0.00761424	0.161984	-0.00424883	
-9.4912e-05	0.17858	-0.00724653	
-0.423599	0.154045	-0.0519627	
-0.000836821	0.0941816	-0.00485086	
0.225606	0.118171	0.0119119	
1.10551	0.0637207	0.0861482	
1.54334	0.15679	0.167342	
0.493992	0.131942	0.0397201	
0.444317	0.153711	0.0434231	
0.000119833	0.105618	-0.00536822	
0.662822	0.138243	0.0536839	
-0.339239	0.146032	-0.0368731	
-0.503083	0.138404	-0.0543073	
0.446475	0.145703	0.0444613	
0.0845828	0.156715	5.33846e-05	
0.000643668	0.149238	-0.00309991	
0.000130568	0.150415	-0.00245582	
0.000759177	0.15921	-0.00982275	
0.000323999	0.139748	-0.000297863	
0.00522665	0.14643	0.00129117	
6.12942e-05	0.142061	0.000392174	
5.14226e-05	0.0740149	-0.00286518	
0.000575274	0.12744	-0.00733286	
-1.57203	0.151538	-0.177886	
-0.166282	0.154672	-0.00837204	
-0.759329	0.170033	-0.0730874	
0.42619	0.178041	0.0523674	
0.102084	0.158721	0.0159202	
-0.45063	0.1226	-0.0341839	
-1.82591	0.0709523	-0.14997	
-0.494398	0.158712	-0.0404782	
-0.350848	0.144187	-0.0340096	
-0.0893172	0.158049	-0.00866852	
0.000274286	0.163068	0.00652197	
-0.278553	0.123686	-0.0174354	
-0.631587	0.147625	-0.0637469	
0.364155	0.156364	0.0397344	
0.0537463	0.17557	0.00284931	
0.301935	0.158178	0.0315023	
-0.98154	0.165192	-0.0932477	
0.442206	0.17576	0.0521743	
-0.000561983	0.158084	0.0014886	
-0.000220382	0.155867	-0.000533932	
-0.000646432	0.132811	0.0113604	
-0.000903816	0.168804	0.00961845	
-0.000114084	0.154667	-0.00359651	
1.33757	-0.0433013	0.0945373	
-1.17296	0.114246	-0.113632	
-0.00114363	0.142228	0.0121227	
-0.00011268	0.162969	-0.0043831	
-0.00031721	0.0853939	0.0059643	
2.2391	0.022222	0.16182	
0.580458	0.0941921	0.0472887	
0.271793	0.0678502	0.0182643	
0.818439	0.0489585	0.0642851	
0.40648	0.0784837	0.0282727	
0.189652	0.0755771	0.0137745	
-0.000259738	0.0839621	-0.00296714	
-0.461273	0.0766959	-0.044467	
-0.066264	0.0484333	-0.00734456	
0.172673	0.0570721	0.0108549	
1.12854	0.0329499	0.0853763	
1.72801	0.0775904	0.16535	
0.445394	0.0672595	0.0334598	
0.421251	0.0792902	0.0355244	
2.88288e-05	0.052446	-0.00230345	
0.570132	0.0704843	0.0427344	
-0.217341	0.0806554	-0.019776	
-0.480394	0.0707537	-0.0443424	
0.443762	0.0725764	0.0402493	
0.087594	0.0801542	0.00415211	
0.000186548	0.0845826	-0.00169876	
-2.76083e-05	0.0731114	-0.00109897	
7.29959e-05	0.0795975	-0.00382371	
0.000217949	0.0760179	-0.000709527	
0.00400301	0.0752723	0.000601416	
2.06342e-05	0.0705061	-0.000262609	
-9.42152e-06	0.0396792	-0.00116983	
9.15252e-05	0.0618969	-0.00312003	
-1.76723	0.0843877	-0.165121	
-0.125793	0.0746027	-0.00718605	
-0.79282	0.0817532	-0.0656215	
0.318589	0.0827131	0.0333338	
0.0811703	0.0807472	0.00992634	
-0.444801	0.0678827	-0.032658	
-1.72457	0.0352561	-0.133236	
-0.586646	0.0788861	-0.0513609	
-0.319655	0.0717471	-0.0225623	
-0.0186981	0.0821396	-0.00159101	
0.000371339	0.075043	0.00313571	
-0.25895	0.0621854	-0.0171113	
-0.541407	0.0746593	-0.0464329	
0.290671	0.085081	0.0259399	
0.0451915	0.0908864	0.00321095	
0.294084	0.0770386	0.026391	
-0.864772	0.0847141	-0.0732278	
0.356418	0.0964823	0.0326674	
-0.000183896	0.0879933	0.000759114	
-1.23352e-05	0.0769947	-0.00022161	
-0.000180048	0.0636564	0.00435991	
-7.28374e-05	0.0833409	0.00349914	
-3.69836e-05	0.0821389	-0.00105032	
1.14488	-0.0225086	0.0787723	
-1.0889	0.062903	-0.0912255	
-0.000242973	0.0680643	0.0043418	
-4.22471e-05	0.0810516	-0.00158708	
-3.947e-05	0.0426742	0.00252025	
2.16174	0.0148379	0.157904	
0.621916	0.0604156	0.0488576	
0.220233	0.0451032	0.0163017	
0.791557	0.0304179	0.0616894	
0.357121	0.0503906	0.0273871	
0.351553	0.0490731	0.0268252	
-8.18131e-05	0.0532066	-0.00185181	
-0.512571	0.0472507	-0.04585	
-0.136699	0.0312297	-0.0116107	
0.114524	0.0387363	0.00771476	
1.19118	0.0215818	0.0908699	
1.97541	0.049726	0.163018	
0.400748	0.04753	0.0297647	
0.461496	0.0485399	0.0372383	
1.07803e-05	0.0347986	-0.00106834	
0.545677	0.0498133	0.0405389	
-0.131416	0.0516552	-0.0114058	
-0.499095	0.0464529	-0.0425614	
0.470583	0.0470639	0.0409056	
0.107245	0.0531032	0.00678377	
9.69266e-05	0.0535412	-0.00113924	
3.17378e-08	0.047051	-0.000708119	
3.74613e-05	0.0534606	-0.00227347	
0.000110696	0.0485128	-0.000411054	
0.00304567	0.043995	0.000237932	
1.44557e-05	0.0464076	-0.000273309	
-1.98393e-06	0.0248904	-0.000561387	
2.67702e-05	0.0433635	-0.00143323	
-2.02495	0.0496677	-0.170764	
-0.0762509	0.0494442	-0.00410818	
-0.799243	0.0524626	-0.0646868	
0.248712	0.0526951	0.0237942	
0.0724079	0.0492248	0.00768777	
-0.436679	0.045303	-0.0323476	
-1.6755	0.0238444	-0.129067	
-0.694585	0.0499563	-0.0622499	
-0.285968	0.0505795	-0.0198698	
-0.0173203	0.0497931	-0.0011196	
0.00011461	0.0481472	0.00200075	
-0.237737	0.0418318	-0.0163516	
-0.5103	0.052408	-0.041728	
0.258374	0.0553411	0.0218637	
0.043699	0.0589939	0.00327337	
0.270575	0.0500414	0.0229026	
-0.840001	0.056626	-0.0664753	
0.292121	0.0617557	0.0250332	
-8.78992e-05	0.0563124	0.000531069	
-2.83495e-05	0.0494125	-1.12548e-05	
-8.31064e-05	0.0432857	0.00214299	
-3.32712e-05	0.0561309	0.00206783	
-2.64293e-06	0.0537067	-0.000452726	
1.05957	-0.0153362	0.0735517	
-1.04266	0.0420938	-0.0840864	
-0.000124014	0.047167	0.00230815	
-2.57712e-05	0.0532532	-0.000712298	
-4.88323e-06	0.0284917	0.00123148	
2.12793	0.0107088	0.157405	
0.663881	0.0417375	0.0504253	
0.184666	0.0316603	0.0140331	
0.774634	0.0211414	0.0602879	
0.317885	0.0338938	0.0251798	
0.487178	0.0327166	0.0432183	
7.46575e-05	0.036622	-0.00110968	
-0.568069	0.0327173	-0.0458311	
-0.198783	0.0227372	-0.0158189	
0.0709924	0.027489	0.00483014	
1.26307	0.0155911	0.0970952	
2.22134	0.0327517	0.158348	
0.36885	0.0331703	0.0280139	
0.512895	0.0326802	0.0405296	
2.84543e-05	0.0251035	-0.000548586	
0.53481	0.0343924	0.0404022	
-0.0699526	0.0369337	-0.00600997	
-0.504304	0.0326373	-0.0420334	
0.508093	0.0324426	0.0401566	
0.123872	0.0371969	0.00847696	
7.192e-05	0.0377537	-0.000682032	
4.21973e-05	0.032537	-0.000475944	
9.11529e-05	0.0374798	-0.00132248	
2.94988e-05	0.0347682	-0.000330025	
0.00160031	0.0304271	0.000155043	
8.30524e-06	0.0324343	-0.000235754	
1.48883e-05	0.017965	-0.000301901	
5.31759e-05	0.0305827	-0.000710196	
-2.2785	0.027517	-0.17715	
-0.0392366	0.0350491	-0.0019236	
-0.814022	0.0352236	-0.0653421	
0.191299	0.0370059	0.0178114	
0.0620068	0.0338104	0.00623356	
-0.436351	0.0323434	-0.0325801	
-1.65101	0.0170024	-0.127649	
-0.790434	0.0317076	-0.0690049	
-0.261748	0.0355875	-0.019421	
-0.0264125	0.0343452	-0.00199302	
-0.000103084	0.0330962	0.00127905	
-0.229191	0.0299545	-0.0161708	
-0.499077	0.0362517	-0.0402239	
0.24477	0.0393371	0.0200087	
0.0329711	0.0417705	0.00252681	
0.246769	0.0350387	0.0201462	
-0.830185	0.0388287	-0.0638535	
0.245609	0.0433905	0.020027	
-4.47362e-05	0.039699	0.000346996	
-6.57097e-06	0.034559	-7.49035e-07	
-5.07695e-05	0.0310173	0.00113399	
-8.56611e-05	0.0393311	0.00118126	
9.966e-06	0.0383969	-0.000116101	
1.00485	-0.0112442	0.0707316	
-1.01164	0.0287364	-0.0808875	
-9.93413e-05	0.0335155	0.00124499	
1.95697e-06	0.0375976	-0.000311807	
-3.87278e-05	0.020714	0.000722834	
2.12485	0.00787279	0.159351	
0.702162	0.0306336	0.0543842	
0.156754	0.0227283	0.0122005	
0.768962	0.0153659	0.0599227	
0.29337	0.025046	0.0223571	
0.610418	0.0244413	0.0475648	
4.73808e-05	0.026558	-0.000718609	
-0.625252	0.0238935	-0.0520568	
-0.253108	0.0165037	-0.0197336	
0.0347893	0.0197808	0.00242583	
1.34067	0.0113155	0.104066	
2.46194	0.025194	0.170454	
0.347014	0.0238489	0.0267597	
0.56269	0.0239793	0.0441481	
1.30798e-05	0.0181144	-0.000259958	
0.527038	0.0247322	0.040376	
-0.015079	0.0269171	-0.00151393	
-0.516189	0.0239137	-0.0423878	
0.549139	0.0237544	0.0456167	
0.13809	0.0269937	0.0101429	
4.13014e-05	0.0276208	-0.000453388	
2.33548e-05	0.0237144	-0.000292212	
4.59272e-05	0.0270912	-0.000771612	
2.26103e-05	0.0253853	-0.000228753	
0.0011363	0.0221585	0.000111222	
4.6383e-06	0.0237579	-0.000169625	
5.40124e-06	0.0130534	-0.00011928	
3.08052e-05	0.0219796	-0.000415463	
-2.52791	0.020495	-0.188597	
-0.0104335	0.0254879	-0.000187721	
-0.844485	0.0260823	-0.0666058	
0.145728	0.0266935	0.0128917	
0.0520969	0.0248803	0.00499074	
-0.444452	0.0241785	-0.0336577	
-1.64281	0.0126543	-0.128048	
-0.884173	0.0233576	-0.0726868	
-0.245544	0.0258647	-0.0189203	
-0.0317589	0.0253323	-0.00246133	
-7.11427e-05	0.024116	0.000880651	
-0.228121	0.0221338	-0.0165585	
-0.491917	0.0264003	-0.0393984	
0.233615	0.028796	0.0186412	
0.0243113	0.0305427	0.00189993	
0.228797	0.025638	0.0185194	
-0.826122	0.0285171	-0.0625853	
0.207969	0.0317713	0.0164278	
-2.55391e-05	0.0291458	0.000217149	
-5.41846e-06	0.0253558	3.53804e-05	
-2.99237e-05	0.0227299	0.000626173	
-4.31692e-05	0.0286557	0.000692483	
1.00831e-05	0.028119	-5.26891e-05	
0.967324	-0.00830448	0.0690968	
-0.992808	0.0214384	-0.0795189	
-5.58046e-05	0.0244005	0.000690813	
-5.45243e-06	0.0275583	-0.000123052	
-1.92711e-05	0.0154342	0.000389892	
2.14495	0.00608173	0.162889	
0.739592	0.0232026	0.0573246	
0.136038	0.0171107	0.0108861	
0.774572	0.0118373	0.0606539	
0.278898	0.0184868	0.021709	
0.723847	0.0179939	0.0614494	
4.01347e-05	0.0197799	-0.000496684	
-0.679614	0.0179081	-0.0542482	
-0.30298	0.0125975	-0.0236122	
0.00346639	0.0149734	0.000109996	
1.41707	0.00858553	0.111123	
2.69017	0.0193998	0.18931	
0.33321	0.0178476	0.0260833	
0.608611	0.0181823	0.0473065	
6.90053e-06	0.0137573	-0.000135065	
0.522493	0.0185045	0.0404703	
0.0383724	0.0202824	0.00271863	
-0.531432	0.0179166	-0.0433903	
0.590763	0.0178658	0.0478513	
0.151732	0.0203135	0.0114952	
2.50055e-05	0.0208996	-0.000271885	
1.46322e-05	0.0177973	-0.000171944	
2.50956e-05	0.0203573	-0.000440962	
1.31923e-05	0.0190409	-0.000132416	
0.000291029	0.0169108	3.58024e-05	
2.27625e-06	0.0178138	-0.000120447	
-4.67525e-08	0.0101382	-1.88964e-05	
1.60949e-05	0.0165193	-0.000204024	
-2.7652	0.0150057	-0.202861	
0.0128184	0.0192019	0.0013106	
-0.885133	0.0194535	-0.0694753	
0.105809	0.0200183	0.00913802	
0.0421541	0.0187946	0.00389009	
-0.458844	0.0185706	-0.0351426	
-1.6534	0.00954679	-0.130356	
-0.973775	0.0170139	-0.0846131	
-0.236379	0.0193613	-0.0183472	
-0.0342086	0.0191918	-0.00271468	
-5.02119e-05	0.017976	0.000544581	
-0.231105	0.0168487	-0.01707	
-0.487029	0.0197777	-0.0390288	
0.22227	0.0218655	0.0180154	
0.0147963	0.0231075	0.00117358	
0.213858	0.0193018	0.0171792	
-0.824732	0.0215367	-0.0627006	
0.177346	0.024129	0.0137789	
-1.60113e-05	0.0222048	0.000127643	
-4.16881e-06	0.0191033	3.30077e-05	
-1.5646e-05	0.0172299	0.00034514	
-2.26154e-05	0.0215845	0.00038773	
4.46638e-06	0.0212991	2.04637e-06	
0.944111	-0.00647277	0.0684242	
-0.979097	0.0163627	-0.0786825	
-3.05218e-05	0.0183905	0.000356679	
-4.69114e-06	0.0207975	-5.1772e-05	
-8.48685e-06	0.0117039	0.000168738	
2.18005	0.00479111	0.167319	
0.777746	0.018037	0.0602142	
0.117415	0.0133554	0.00971188	
0.783291	0.00903767	0.0615133	
0.265128	0.0142996	0.0239309	
0.833398	0.0139518	0.0652286	
4.33814e-05	0.015595	-0.000343174	
-0.734418	0.0142699	-0.0585318	
-0.35122	0.00986978	-0.0272435	
-0.0261661	0.0117338	-0.002148	
1.49759	0.0066661	0.119098	
2.92238	0.0151344	0.184952	
0.324206	0.0138392	0.0258056	
0.656537	0.0141105	0.0501927	
3.41094e-06	0.0107501	-5.99705e-05	
0.51993	0.0143394	0.0408082	
0.0870905	0.0159335	0.00635357	
-0.549241	0.0141131	-0.0450187	
0.63357	0.0140214	0.0517038	
0.165623	0.0158852	0.0127909	
1.74197e-05	0.0164255	-0.000162248	
1.20821e-05	0.0140049	-0.000103743	
1.95013e-05	0.015978	-0.000267157	
7.52941e-06	0.0149957	-7.58984e-05	
-0.000542081	0.0132196	-2.70037e-05	
1.32897e-06	0.0140494	-7.89086e-05	
-2.58585e-07	0.00784721	4.19682e-06	
1.14431e-05	0.0129625	-0.000102183	
-3.00594	0.0108984	-0.20157	
0.0331383	0.01501	0.00279974	
-0.926348	0.0149312	-0.0763946	
0.0703458	0.0159509	0.00680506	
0.0331813	0.0147922	0.00297685	
-0.478618	0.0145258	-0.0368555	
-1.67228	0.00749384	-0.133222	
-1.06379	0.0122655	-0.0892547	
-0.23061	0.0151474	-0.0183941	
-0.0383849	0.0150888	-0.00315536	
-5.65152e-05	0.014227	0.000400289	
-0.234243	0.0131594	-0.0172377	
-0.484772	0.0153396	-0.0394451	
0.214359	0.01717	0.0166654	
0.00741099	0.0181981	0.00059475	
0.200919	0.0152107	0.0160948	
-0.828104	0.0167616	-0.0625466	
0.151052	0.0189427	0.0114664	
-9.73386e-06	0.0174516	6.4942e-05	
-3.6276e-06	0.015085	2.64548e-05	
-1.0356e-05	0.0135575	0.000194565	
-1.74635e-05	0.0169153	0.000236809	
5.42402e-06	0.0167809	6.75139e-06	
0.929375	-0.0051341	0.0681983	
-0.971784	0.0125949	-0.0790603	
-1.76639e-05	0.0144252	0.000171523	
-1.56044e-06	0.0164351	-4.07582e-05	
-6.94583e-06	0.00928492	8.85205e-05	
2.2229	0.00389132	0.172279	
0.819247	0.0145717	0.0648938	
0.103001	0.0108316	0.00846734	
0.792645	0.00738336	0.0629689	
0.254883	0.0117137	0.0220522	
0.937808	0.0113047	0.0745959	
-2.21458e-06	0.0126467	0.000110402	
-0.790347	0.01162	-0.0631148	
-0.397567	0.00807685	-0.0313277	
-0.0521286	0.00950354	-0.00416437	
1.58282	0.00549296	0.126761	
3.15171	0.0115855	0.224113	
0.316558	0.0111985	0.025435	
0.70414	0.0114423	0.0551634	
-1.19181e-06	0.00877666	-3.89812e-09	
0.519338	0.0115503	0.0415229	
0.130418	0.0129047	0.0100645	
-0.569161	0.0114583	-0.0461311	
0.677816	0.0113964	0.0549507	
0.177691	0.0128812	0.0142246	
-4.81005e-07	0.0132347	4.52012e-05	
-5.24041e-09	0.0113545	4.00937e-05	
-5.46065e-06	0.0128918	4.56884e-05	
2.21186e-06	0.0121735	-1.37734e-05	
-0.00123481	0.0107576	-9.99004e-05	
-2.51545e-06	0.0114306	-1.50055e-05	
-2.36762e-06	0.00636514	3.19227e-05	
-4.49732e-07	0.010411	3.66983e-05	
-3.24359	0.00959182	-0.237928	
0.0514989	0.0121424	0.00406978	
-0.969444	0.0121425	-0.0793094	
0.0379309	0.0128787	0.00311603	
0.0252495	0.0119784	0.00202437	
-0.496588	0.0117798	-0.0392316	
-1.69717	0.00618791	-0.13602	
-1.1515	0.0105798	-0.0950955	
-0.226521	0.0120847	-0.0182657	
-0.0422865	0.0122066	-0.00353718	
2.24764e-06	0.0115329	-0.000139653	
-0.2422	0.0107163	-0.01877	
-0.48381	0.0123401	-0.0392515	
0.208824	0.013841	0.0165019	
-0.000177648	0.0146683	2.35575e-05	
0.191696	0.0122881	0.0153826	
-0.836495	0.013515	-0.0653162	
0.127938	0.0152044	0.00987949	
-1.62433e-06	0.0140321	-2.15148e-05	
-2.37653e-07	0.0121969	-1.02267e-05	
4.56048e-06	0.0109081	-1.64137e-05	
5.46736e-06	0.0136222	-4.6942e-05	
2.15404e-06	0.0135225	3.38238e-05	
0.921315	-0.00419068	0.0683862	
-0.971702	0.0101498	-0.0787343	
-2.70869e-07	0.0115789	-3.60329e-05	
-2.83525e-06	0.0132191	-6.40086e-06	
4.3555e-06	0.00757581	-5.22168e-05	
				</DataArray>
				<DataArray type="Float64" Name="Time Step Shed" NumberOfComponents="1" Format="ascii">
3	
3	
3	
3	
3	
3	
3	
3	
3	
3	
3	
3	
3	
3	
3	
3	
3	
3	
3	
3	
3	
3	
3	
3	
3	
3	
3	
3	
3	
3	
3	
3	
3	
3	
3	
3	
3	
3	
3	
3	
3	
3	
3	
3	
3	
3	
3	
3	
3	
3	
3	
3	
3	
3	
3	
3	
4	
4	
4	
4	
4	
4	
4	
4	
4	
4	
4	
4	
4	
4	
4	
4	
4	
4	
4	
4	
4	
4	
4	
4	
4	
4	
4	
4	
4	
4	
4	
4	
4	
4	
4	
4	
4	
4	
4	
4	
4	
4	
4	
4	
4	
4	
4	
4	
4	
4	
4	
4	
4	
4	
4	
4	
5	
5	
5	
5	
5	
5	
5	
5	
5	
5	
5	
5	
5	
5	
5	
5	
5	
5	
5	
5	
5	
5	
5	
5	
5	
5	
5	
5	
5	
5	
5	
5	
5	
5	
5	
5	
5	
5	
5	
5	
5	
5	
5	
5	
5	
5	
5	
5	
5	
5	
5	
5	
5	
5	
5	
5	
6	
6	
6	
6	
6	
6	
6	
6	
6	
6	
6	
6	
6	
6	
6	
6	
6	
6	
6	
6	
6	
6	
6	
6	
6	
6	
6	
6	
6	
6	
6	
6	
6	
6	
6	
6	
6	
6	
6	
6	
6	
6	
6	
6	
6	
6	
6	
6	
6	
6	
6	
6	
6	
6	
6	
6	
7	
7	
7	
7	
7	
7	
7	
7	
7	
7	
7	
7	
7	
7	
7	
7	
7	
7	
7	
7	
7	
7	
7	
7	
7	
7	
7	
7	
7	
7	
7	
7	
7	
7	
7	
7	
7	
7	
7	
7	
7	
7	
7	
7	
7	
7	
7	
7	
7	
7	
7	
7	
7	
7	
7	
7	
8	
8	
8	
8	
8	
8	
8	
8	
8	
8	
8	
8	
8	
8	
8	
8	
8	
8	
8	
8	
8	
8	
8	
8	
8	
8	
8	
8	
8	
8	
8	
8	
8	
8	
8	
8	
8	
8	
8	
8	
8	
8	
8	
8	
8	
8	
8	
8	
8	
8	
8	
8	
8	
8	
8	
8	
9	
9	
9	
9	
9	
9	
9	
9	
9	
9	
9	
9	
9	
9	
9	
9	
9	
9	
9	
9	
9	
9	
9	
9	
9	
9	
9	
9	
9	
9	
9	
9	
9	
9	
9	
9	
9	
9	
9	
9	
9	
9	
9	
9	
9	
9	
9	
9	
9	
9	
9	
9	
9	
9	
9	
9	
10	
10	
10	
10	
10	
10	
10	
10	
10	
10	
10	
10	
10	
10	
10	
10	
10	
10	
10	
10	
10	
10	
10	
10	
10	
10	
10	
10	
10	
10	
10	
10	
10	
10	
10	
10	
10	
10	
10	
10	
10	
10	
10	
10	
10	
10	
10	
10	
10	
10	
10	
10	
10	
10	
10	
10	
11	
11	
11	
11	
11	
11	
11	
11	
11	
11	
11	
11	
11	
11	
11	
11	
11	
11	
11	
11	
11	
11	
11	
11	
11	
11	
11	
11	
11	
11	
11	
11	
11	
11	
11	
11	
11	
11	
11	
11	
11	
11	
11	
11	
11	
11	
11	
11	
11	
11	
11	
11	
11	
11	
11	
11	
12	
12	
12	
12	
12	
12	
12	
12	
12	
12	
12	
12	
12	
12	
12	
12	
12	
12	
12	
12	
12	
12	
12	
12	
12	
12	
12	
12	
12	
12	
12	
12	
12	
12	
12	
12	
12	
12	
12	
12	
12	
12	
12	
12	
12	
12	
12	
12	
12	
12	
12	
12	
12	
12	
12	
12	
13	
13	
13	
13	
13	
13	
13	
13	
13	
13	
13	
13	
13	
13	
13	
13	
13	
13	
13	
13	
13	
13	
13	
13	
13	
13	
13	
13	
13	
13	
13	
13	
13	
13	
13	
13	
13	
13	
13	
13	
13	
13	
13	
13	
13	
13	
13	
13	
13	
13	
13	
13	
13	
13	
13	
13	
14	
14	
14	
14	
14	
14	
14	
14	
14	
14	
14	
14	
14	
14	
14	
14	
14	
14	
14	
14	
14	
14	
14	
14	
14	
14	
14	
14	
14	
14	
14	
14	
14	
14	
14	
14	
14	
14	
14	
14	
14	
14	
14	
14	
14	
14	
14	
14	
14	
14	
14	
14	
14	
14	
14	
14	
15	
15	
15	
15	
15	
15	
15	
15	
15	
15	
15	
15	
15	
15	
15	
15	
15	
15	
15	
15	
15	
15	
15	
15	
15	
15	
15	
15	
15	
15	
15	
15	
15	
15	
15	
15	
15	
15	
15	
15	
15	
15	
15	
15	
15	
15	
15	
15	
15	
15	
15	
15	
15	
15	
15	
15	
16	
16	
16	
16	
16	
16	
16	
16	
16	
16	
16	
16	
16	
16	
16	
16	
16	
16	
16	
16	
16	
16	
16	
16	
16	
16	
16	
16	
16	
16	
16	
16	
16	
16	
16	
16	
16	
16	
16	
16	
16	
16	
16	
16	
16	
16	
16	
16	
16	
16	
16	
16	
16	
16	
16	
16	
17	
17	
17	
17	
17	
17	
17	
17	
17	
17	
17	