<VTKFile type="UnstructuredGrid" version="0.1" byte_order="LittleEndian">
	<UnstructuredGrid>
		<Piece NumberOfPoints="168" NumberOfCells="168">
			<CellData Scalars="scalars">
				<DataArray type="Float64" Name="Strength" NumberOfComponents="3" Format="ascii">
0.554726	-0.353698	-0.0969053	
0.0162305	-1.04346	-0.00605041	
0.0301268	-0.939109	0.00170785	
0.132457	-0.813197	-0.00666575	
0.00256782	-1.0677	0.00461648	
-0.0207928	-1.00638	0.00328133	
-0.000882541	-1.05352	-0.00187418	
-0.00133802	-1.04963	0.00653382	
0.0362754	-0.856861	0.0205624	
0.0422284	-0.919507	0.00283837	
0.147707	-0.569339	0.00306477	
0.0168211	-1.02634	-0.00441229	
0.00670159	-0.973003	0.00722144	
0.0103129	-1.04332	-0.00289738	
0.00776282	-0.889981	0.020644	
0.0755174	-0.963035	-0.0162817	
0.00547279	-1.04741	0.000104711	
-0.0244001	-1.01686	0.010383	
0.018318	-1.03528	-0.0103657	
-0.00992626	-1.02984	0.00778594	
-4.2156e-05	-1.03081	0.00015659	
0.0028408	-1.02981	-0.00184076	
0.00602627	-1.04757	0.00898515	
-0.00267592	-1.05515	-0.000697001	
0.000500241	-1.05474	-0.000173769	
0.000844879	-1.02503	0.0029992	
0.00918472	-0.714207	0.0449609	
0.0054656	-0.95755	0.00755721	
-0.0169054	-1.05573	0.0038468	
-0.0351005	-0.943655	-0.000148293	
-0.010357	-1.06858	0.000197992	
0.038393	-1.05509	-0.00999303	
0.00947653	-1.03878	-0.00376676	
-0.0650671	-0.835312	-0.0107879	
-0.351226	-0.569953	0.0597503	
-0.0151464	-1.0268	0.00413438	
-0.00234917	-0.977114	-0.00855835	
0.0293102	-1.03991	-0.00249827	
0.00208312	-1.00829	0.00183746	
-0.051022	-0.878321	-0.00728383	
-0.0752995	-0.964192	0.0157619	
-0.0209796	-1.05657	0.00291946	
0.0158587	-1.10269	-0.00848386	
-0.0303744	-1.02525	0.0117713	
-0.0150933	-1.03163	-0.00194794	
0.00511276	-1.04648	-0.00336872	
-0.000640621	-1.03562	-0.00104088	
-0.00263423	-1.07007	0.00421066	
-0.00718644	-0.917756	-0.016737	
-0.00527462	-1.04914	-0.0110565	
-0.00298509	-1.0745	-0.00438166	
-0.337607	-0.349706	0.0487855	
-0.0994158	-0.814468	-0.00919299	
-0.00429551	-0.963109	-0.00777216	
-0.000519779	-1.05298	0.00343313	
-0.0103469	-0.709005	-0.0465412	
1.50426	-0.0317639	-0.0184041	
0.0499272	-0.192055	-0.00125381	
0.125862	-0.164444	-0.00123911	
0.519967	-0.113935	-0.00884059	
-0.00982246	-0.206452	0.000994572	
-0.0488401	-0.206404	0.000422888	
2.678e-05	-0.204762	-7.24714e-05	
-0.014695	-0.208022	0.0010928	
0.155801	-0.132147	-0.000377326	
0.151053	-0.159198	-0.00120496	
0.511223	-0.0763772	-0.00195323	
0.0501115	-0.210481	-0.00105804	
0.0386647	-0.182381	0.000477941	
0.0264579	-0.205246	-0.00047802	
0.000207069	-0.15081	0.00254461	
0.249658	-0.186866	-0.00394893	
0.0434034	-0.192695	-0.000409803	
-0.071949	-0.203593	0.00179738	
0.0716121	-0.204237	-0.00235724	
-0.0287823	-0.194732	0.00105979	
8.94032e-05	-0.191192	0.000112613	
8.64718e-05	-0.204892	-0.000378549	
0.000103855	-0.189733	0.00095941	
-8.16398e-05	-0.201627	0.000123184	
0.00527471	-0.209116	-0.000213282	
1.82337e-05	-0.204623	0.000386714	
0.000224871	-0.102432	0.00353367	
4.73598e-05	-0.177183	0.00126848	
-0.0491109	-0.209667	0.000458558	
-0.147233	-0.164663	0.00187611	
-0.0213751	-0.208793	7.83351e-05	
0.126315	-0.205619	-0.00241283	
0.0329655	-0.210099	-0.000626768	
-0.270887	-0.138555	0.00234927	
-1.2812	-0.0724665	0.00826962	
-0.074929	-0.212092	0.0014789	
-0.0284618	-0.183108	-0.000735132	
0.0794819	-0.207745	-0.000532387	
1.78325e-05	-0.205616	0.000235771	
-0.180945	-0.150875	0.00113256	
-0.249651	-0.187947	0.00369508	
-0.0908722	-0.194597	0.00156828	
0.0537377	-0.201796	-0.00175744	
-0.0881341	-0.206417	0.00203597	
-0.0617792	-0.195848	0.000831212	
0.0276508	-0.193073	-0.000695889	
-0.000184134	-0.192289	-0.000127857	
-0.000126142	-0.201017	0.000570051	
-0.000204271	-0.160255	-0.00241121	
7.1832e-05	-0.190023	-0.00121743	
-0.000156375	-0.202832	-0.000627539	
-0.72655	-0.0382861	0.0228544	
-0.378028	-0.125237	0.00469594	
-2.9931e-05	-0.177716	-0.00131929	
-8.48264e-05	-0.206192	0.000116818	
-0.000175029	-0.104448	-0.00409789	
2.50309	-0.00677311	0.0666456	
0.0864954	-0.0597746	0.00286096	
0.244733	-0.046766	0.00856797	
0.906131	-0.0290421	0.0332436	
-0.0255225	-0.0693562	-0.000640724	
-0.0593706	-0.070709	-0.00225527	
-7.04128e-06	-0.0688999	-6.04244e-05	
-0.0289863	-0.0707106	-0.000751181	
0.289879	-0.0352845	0.0106702	
0.273142	-0.0458028	0.00979448	
0.870898	-0.0213261	0.0326102	
0.0766267	-0.0731881	0.00267051	
0.0868841	-0.0560416	0.00294591	
0.0408386	-0.0707784	0.00139868	
-1.29599e-05	-0.0419388	-1.70982e-05	
0.4169	-0.0583374	0.0143444	
0.0932751	-0.0604959	0.00320422	
-0.101481	-0.0699477	-0.00334089	
0.132235	-0.0683802	0.00421786	
-0.0393287	-0.0607512	-0.00134611	
-2.0314e-05	-0.0605825	-5.81028e-05	
-2.47852e-06	-0.0710461	-9.94842e-05	
-2.6275e-06	-0.0591233	2.70867e-05	
-4.86627e-07	-0.0659087	1.57117e-05	
0.0100032	-0.0725321	0.000395695	
2.11138e-05	-0.0694185	0.000133074	
1.08822e-05	-0.0270101	-0.000144999	
-2.76541e-05	-0.0538521	-9.84848e-05	
-0.0727249	-0.0727881	-0.00247151	
-0.28117	-0.0464699	-0.00980475	
-0.0308046	-0.069687	-0.0012473	
0.200656	-0.0694262	0.00679404	
0.0523001	-0.0703665	0.00157985	
-0.485889	-0.0390358	-0.0176847	
-2.19729	-0.020933	-0.0831258	
-0.138022	-0.0738763	-0.00453152	
-0.0713768	-0.056173	-0.00239121	
0.110744	-0.0691245	0.00386828	
1.33933e-05	-0.0710489	9.09627e-05	
-0.317948	-0.0424689	-0.011285	
-0.41652	-0.0584575	-0.014372	
-0.166346	-0.0602921	-0.00556076	
0.0815126	-0.0634188	0.00260074	
-0.143558	-0.0670474	-0.0048831	
-0.110278	-0.0607974	-0.00367564	
0.0426521	-0.0597476	0.00154227	
8.52904e-06	-0.0604105	4.89903e-05	
7.02661e-06	-0.0646667	1.47544e-05	
9.16393e-06	-0.0459104	-4.11663e-05	
9.05776e-06	-0.0591657	-1.7169e-05	
-1.73952e-05	-0.0646345	-0.000138031	
1.16829	0.0119105	0.0133168	
-0.661582	-0.0345311	-0.0234816	
2.52302e-05	-0.0538105	8.25667e-05	
1.91364e-07	-0.0661281	5.46309e-05	
-2.00643e-05	-0.0287732	0.000163964	
				</DataArray>
				<DataArray type="Float64" Name="Time Step Shed" NumberOfComponents="1" Format="ascii">
3	
3	
3	
3	
3	
3	
3	
3	
3	
3	
3	
3	
3	
3	
3	
3	
3	
3	
3	
3	
3	
3	
3	
3	
3	
3	
3	
3	
3	
3	
3	
3	
3	
3	
3	
3	
3	
3	
3	
3	
3	
3	
3	
3	
3	
3	
3	
3	
3	
3	
3	
3	
3	
3	
3	
3	
4	
4	
4	
4	
4	
4	
4	
4	
4	
4	
4	
4	
4	
4	
4	
4	
4	
4	
4	
4	
4	
4	
4	
4	
4	
4	
4	
4	
4	
4	
4	
4	
4	
4	
4	
4	
4	
4	
4	
4	
4	
4	
4	
4	
4	
4	
4	
4	
4	
4	
4	
4	
4	
4	
4	
4	
5	
5	
5	
5	
5	
5	
5	
5	
5	
5	
5	
5	
5	
5	
5	
5	
5	
5	
5	
5	
5	
5	
5	
5	
5	
5	
5	
5	
5	
5	
5	
5	
5	
5	
5	
5	
5	
5	
5	
5	
5	
5	
5	
5	
5	
5	
5	
5	
5	
5	
5	
5	
5	
5	
5	
5	
				</DataArray>
			</CellData>
			<Points>
				<DataArray type="Float64" Name="Position" NumberOfComponents="3" Format="ascii">
1.12814	1.96493	-0.00121251	
1.12857	1.03581	0.0205181	
1.13531	1.46758	0.0202201	
1.12988	1.75134	0.00661342	
1.14226	0.321601	0.0226549	
1.13369	0.177615	0.0267948	
1.13215	0.250631	0.0258953	
1.14216	0.393038	0.0265427	
1.12639	1.67985	0.00958822	
1.13239	1.53665	0.0156846	
1.12736	1.89402	2.25888e-05	
1.13917	0.10704	0.0261726	
1.13529	1.32248	0.0208506	
1.14065	0.464498	0.0263549	
1.13023	1.60967	0.00726922	
1.1303	1.24985	0.0182156	
1.14275	0.894113	0.0243537	
1.13011	0.750692	0.0247075	
1.12825	0.606493	0.0210984	
1.13658	1.107	0.0232097	
1.14319	0.964836	0.0256389	
1.13204	0.535671	0.0237096	
1.13538	1.1787	0.02219	
1.13204	0.822356	0.0248704	
1.13618	0.0348321	0.0253504	
1.14544	0.679184	0.0264083	
1.12498	1.82301	0.0012949	
1.13811	1.39435	0.0215169	
1.14051	-0.0358659	0.0261925	
1.13099	-1.4668	0.0187234	
1.14201	-0.322212	0.023298	
1.13643	-0.251123	0.0275766	
1.14759	-0.393636	0.0266318	
1.12708	-1.67915	0.0116351	
1.12703	-1.89457	0.00172736	
1.14033	-0.108921	0.0259167	
1.13543	-1.32235	0.0193777	
1.1429	-0.46372	0.0278984	
1.13196	-0.179911	0.0255812	
1.13366	-1.6078	0.016184	
1.13396	-1.25104	0.0222212	
1.13897	-0.894752	0.0232406	
1.13368	-0.750793	0.0267703	
1.12828	-0.607893	0.0229238	
1.13513	-1.10706	0.022924	
1.12621	-1.03804	0.0141017	
1.14324	-0.965344	0.0257224	
1.14384	-0.534936	0.028075	
1.13833	-1.53665	0.0122897	
1.13367	-1.17886	0.0213879	
1.1353	-0.823473	0.0259209	
1.12928	-1.965	0.0020004	
1.12667	-1.75146	0.00538299	
1.14071	-1.39574	0.0207377	
1.14226	-0.678998	0.0263047	
1.12816	-1.82286	0.00298267	
1.05429	1.96446	-0.0102409	
1.05619	1.03551	0.0200988	
1.05611	1.46519	0.0149411	
1.05527	1.74955	0.00648039	
1.05632	0.321795	0.0232006	
1.05549	0.178213	0.0214095	
1.05601	0.251038	0.0220441	
1.05615	0.393751	0.0215848	
1.05116	1.67853	-0.0064211	
1.05134	1.53516	-0.00476654	
1.05484	1.89248	-0.00374676	
1.05558	0.107363	0.0207197	
1.05475	1.32242	0.0137999	
1.05597	0.4652	0.0208501	
1.05639	1.60684	0.0156211	
1.05424	1.2497	0.0144708	
1.05615	0.893916	0.0196518	
1.05278	0.750604	0.0126734	
1.05461	0.606418	0.0175656	
1.05605	1.10635	0.0207091	
1.05539	0.965044	0.0165835	
1.05602	0.535275	0.021936	
1.05523	1.17808	0.0183766	
1.05601	0.822286	0.0207462	
1.05472	0.0355336	0.0177823	
1.05737	0.678671	0.0273416	
1.05352	1.82124	-0.00627986	
1.05679	1.39397	0.0196933	
1.05608	-0.0361872	0.0222812	
1.05386	-1.46539	0.00694439	
1.05714	-0.322101	0.0253533	
1.05534	-0.250841	0.0205011	
1.0569	-0.393852	0.022909	
1.05256	-1.67813	0.0020414	
1.05519	-1.89236	-0.000123592	
1.05563	-0.108473	0.0202035	
1.05553	-1.32143	0.0183514	
1.0556	-0.464402	0.0198584	
1.05549	-0.179734	0.0201381	
1.055	-1.60654	0.0111244	
1.05433	-1.25036	0.0151203	
1.05529	-0.894316	0.0188414	
1.05292	-0.750512	0.0143299	
1.05423	-0.606947	0.0150786	
1.05498	-1.10645	0.0178251	
1.05466	-1.03553	0.0160533	
1.05554	-0.965329	0.0182896	
1.05576	-0.534103	0.022324	
1.05706	-1.53489	0.0174156	
1.05717	-1.17811	0.0242241	
1.05479	-0.822672	0.0186189	
1.05416	-1.96589	-0.0104316	
1.05436	-1.74921	0.00405041	
1.05571	-1.39456	0.0157879	
1.05682	-0.679063	0.0242204	
1.0552	-1.82094	0.00294076	
0.823559	1.9642	-0.0397817	
0.754192	1.03528	-0.0272364	
0.757267	1.46533	-0.0299138	
0.761333	1.74844	-0.0360817	
0.754236	0.320405	-0.0322241	
0.754234	0.178591	-0.0272537	
0.753259	0.250276	-0.0268061	
0.753585	0.393549	-0.0264441	
0.760121	1.67713	-0.0338621	
0.758242	1.5347	-0.0312809	
0.765155	1.89094	-0.0379449	
0.753987	0.106677	-0.0267353	
0.756197	1.32215	-0.0290208	
0.753855	0.465659	-0.0272038	
0.759038	1.60445	-0.0329316	
0.755836	1.24733	-0.0265558	
0.754211	0.894132	-0.0276832	
0.753924	0.749828	-0.0268049	
0.754079	0.605422	-0.0276898	
0.755266	1.106	-0.0303479	
0.75432	0.964689	-0.0279645	
0.754484	0.536735	-0.0290474	
0.754235	1.17825	-0.0278208	
0.753781	0.821277	-0.0278409	
0.754529	0.0352827	-0.0288768	
0.754055	0.678937	-0.026735	
0.76238	1.81925	-0.0332819	
0.756804	1.39361	-0.028614	
0.754401	-0.036049	-0.0298666	
0.756684	-1.46385	-0.0309459	
0.753792	-0.319684	-0.0282359	
0.753636	-0.25164	-0.0259987	
0.753713	-0.393424	-0.0268461	
0.759538	-1.67802	-0.0327087	
0.76481	-1.89206	-0.0364483	
0.753567	-0.108382	-0.0274052	
0.755907	-1.32266	-0.0296995	
0.75256	-0.464725	-0.0260975	
0.753484	-0.179511	-0.0264322	
0.75892	-1.60459	-0.0314523	
0.756043	-1.24806	-0.0278514	
0.753404	-0.893458	-0.0269509	
0.753994	-0.749971	-0.0300399	
0.75396	-0.607251	-0.0260626	
0.754916	-1.10535	-0.0312376	
0.753606	-1.03547	-0.0265915	
0.753314	-0.965697	-0.0274545	
0.753846	-0.536568	-0.031698	
0.758197	-1.53485	-0.0308685	
0.754525	-1.17822	-0.027862	
0.753523	-0.821469	-0.028395	
0.823528	-1.96424	-0.0385957	
0.759786	-1.74966	-0.0358591	
0.757745	-1.39136	-0.0298288	
0.753717	-0.680374	-0.0288219	
0.761962	-1.82101	-0.0346248	
				</DataArray>
			</Points>
			<Cells>
				<DataArray type="Int32" Name="connectivity" Format="ascii">
0	
1	
2	
3	
4	
5	
6	
7	
8	
9	
10	
11	
12	
13	
14	
15	
16	
17	
18	
19	
20	
21	
22	
23	
24	
25	
26	
27	
28	
29	
30	
31	
32	
33	
34	
35	
36	
37	
38	
39	
40	
41	
42	
43	
44	
45	
46	
47	
48	
49	
50	
51	
52	
53	
54	
55	
56	
57	
58	
59	
60	
61	
62	
63	
64	
65	
66	
67	
68	
69	
70	
71	
72	
73	
74	
75	
76	
77	
78	
79	
80	
81	
82	
83	
84	
85	
86	
87	
88	
89	
90	
91	
92	
93	
94	
95	
96	
97	
98	
99	
100	
101	
102	
103	
104	
105	
106	
107	
108	
109	
110	
111	
112	
113	
114	
115	
116	
117	
118	
119	
120	
121	
122	
123	
124	
125	
126	
127	
128	
129	
130	
131	
132	
133	
134	
135	
136	
137	
138	
139	
140	
141	
142	
143	
144	
145	
146	
147	
148	
149	
150	
151	
152	
153	
154	
155	
156	
157	
158	
159	
160	
161	
162	
163	
164	
165	
166	
167	
				</DataArray>
				<DataArray type="Int32" Name="offsets" Format="ascii">
1	
2	
3	
4	
5	
6	
7	
8	
9	
10	
11	
12	
13	
14	
15	
16	
17	
18	
19	
20	
21	
22	
23	
24	
25	
26	
27	
28	
29	
30	
31	
32	
33	
34	
35	
36	
37	
38	
39	
40	
41	
42	
43	
44	
45	
46	
47	
48	
49	
50	
51	
52	
53	
54	
55	
56	
57	
58	
59	
60	
61	
62	
63	
64	
65	
66	
67	
68	
69	
70	
71	
72	
73	
74	
75	
76	
77	
78	
79	
80	
81	
82	
83	
84	
85	
86	
87	
88	
89	
90	
91	
92	
93	
94	
95	
96	
97	
98	
99	
100	
101	
102	
103	
104	
105	
106	
107	
108	
109	
110	
111	
112	
113	
114	
115	
116	
117	
118	
119	
120	
121	
122	
123	
124	
125	
126	
127	
128	
129	
130	
131	
132	
133	
134	
135	
136	
137	
138	
139	
140	
141	
142	
143	
144	
145	
146	
147	
148	
149	
150	
151	
152	
153	
154	
155	
156	
157	
158	
159	
160	
161	
162	
163	
164	
165	
166	
167	
168	
				</DataArray>
				<DataArray type="Int32" Name="types" Format="ascii">
1	
1	
1	
1	
1	
1	
1	
1	
1	
1	
1	
1	
1	
1	
1	
1	
1	
1	
1	
1	
1	
1	
1	
1	
1	
1	
1	
1	
1	
1	
1	
1	
1	
1	
1	
1	
1	
1	
1	
1	
1	
1	
1	
1	
1	
1	
1	
1	
1	
1	
1	
1	
1	
1	
1	
1	
1	
1	
1	
1	
1	
1	
1	
1	
1	
1	
1	
1	
1	
1	
1	
1	
1	
1	
1	
1	
1	
1	
1	
1	
1	
1	
1	
1	
1	
1	
1	
1	
1	
1	
1	
1	
1	
1	
1	
1	
1	
1	
1	
1	
1	
1	
1	
1	
1	
1	
1	
1	
1	
1	
1	
1	
1	
1	
1	
1	
1	
1	
1	
1	
1	
1	
1	
1	
1	
1	
1	
1	
1	
1	
1	
1	
1	
1	
1	
1	
1	
1	
1	
1	
1	
1	
1	
1	
1	
1	
1	
1	
1	
1	
1	
1	
1	
1	
1	
1	
1	
1	
1	
1	
1	
1	
1	
1	
1	
1	
1	
1	
				</DataArray>
			</Cells>
		</Piece>
	</UnstructuredGrid>
</VTKFile>
