<VTKFile type="UnstructuredGrid" version="0.1" byte_order="LittleEndian">
	<UnstructuredGrid>
		<Piece NumberOfPoints="560" NumberOfCells="560">
			<CellData Scalars="scalars">
				<DataArray type="Float64" Name="Strength" NumberOfComponents="3" Format="ascii">
0.556156	-0.351311	-0.0970484	
0.0114528	-1.0436	-0.0018186	
0.0133307	-0.939495	0.00810498	
0.109669	-0.816341	0.0164155	
0.00223585	-1.06771	0.00530279	
-0.0198409	-1.00635	0.00485618	
0.00105534	-1.05348	-0.00149584	
-0.00642754	-1.04961	0.00742367	
0.0118098	-0.856144	0.0529349	
0.0208434	-0.920211	0.00913204	
0.148386	-0.568169	0.028868	
0.0151316	-1.02632	-0.00758288	
-0.00203036	-0.972964	0.016556	
-0.0019314	-1.04338	-0.00457907	
-0.0166526	-0.889337	0.0374682	
0.06141	-0.964121	-0.0123882	
0.017742	-1.04735	2.71716e-05	
-0.0109172	-1.01717	0.0109775	
0.0104514	-1.03539	-0.013607	
-0.0185557	-1.02969	0.0171309	
0.00307992	-1.03088	0.00330043	
-0.0100138	-1.02979	-0.00288244	
-0.00582868	-1.04752	0.018801	
0.015637	-1.05512	-0.002426	
0.000613099	-1.05471	-0.0017009	
0.00491764	-1.02509	0.00100742	
0.000631225	-0.711484	0.0752849	
-0.00593357	-0.957495	0.0151325	
-0.0140272	-1.05575	0.00333644	
-0.0192063	-0.944073	-0.00803819	
-0.0184154	-1.06849	0.00530355	
0.0302853	-1.05535	-0.01157	
0.00580647	-1.03886	0.000604533	
-0.0294329	-0.836071	-0.0466353	
-0.338359	-0.580385	0.0141357	
-0.0117034	-1.02682	0.00414381	
0.00562291	-0.977004	-0.0179809	
0.0304187	-1.03993	-4.62212e-05	
0.00152233	-1.00827	0.00235545	
-0.0172993	-0.879236	-0.0274969	
-0.063121	-0.965132	0.0121869	
-0.0225779	-1.05663	0.00357673	
0.00955847	-1.10283	-0.0090654	
-0.0262168	-1.02536	0.0161353	
-0.00424154	-1.03175	-0.0111591	
0.0134506	-1.0464	-0.0121594	
0.00309817	-1.03568	-0.00493684	
0.00266933	-1.07011	0.00884511	
0.0159203	-0.917362	-0.029278	
0.00622259	-1.04899	-0.0236917	
-0.00927683	-1.07456	-0.00421611	
-0.332958	-0.356877	0.0191462	
-0.0671374	-0.815155	-0.0641309	
0.00645825	-0.963006	-0.0164014	
-0.00211495	-1.05304	0.00375016	
0.00424222	-0.700286	-0.119406	
1.50362	0.0129104	-0.0539732	
0.049378	-0.19214	-0.00460057	
0.125289	-0.164685	-0.00760804	
0.519285	-0.112606	-0.0318565	
-0.00966451	-0.206441	0.00237133	
-0.0483815	-0.20644	0.00531791	
0.00020434	-0.20475	7.39588e-05	
-0.014832	-0.207983	0.00330399	
0.155714	-0.132151	-0.00380322	
0.150022	-0.159835	-0.00990994	
0.512361	-0.0638617	-0.023218	
0.0496523	-0.210468	-0.00680687	
0.0388368	-0.182346	0.000304409	
0.0255867	-0.205327	-0.00240889	
-0.000230816	-0.150677	0.006785	
0.248098	-0.187235	-0.025089	
0.0446775	-0.192353	-0.00445199	
-0.0699382	-0.204114	0.00947059	
0.0708331	-0.204267	-0.00965815	
-0.0294023	-0.194563	0.00639789	
0.000836281	-0.191198	0.000976416	
-0.000692581	-0.204887	-0.000128509	
-0.000438838	-0.189718	0.0035627	
0.00180157	-0.201631	0.000124471	
0.00510992	-0.209098	-0.00151449	
0.000723486	-0.204626	0.00026244	
0.00218019	-0.102104	0.00827357	
0.000427578	-0.177091	0.00606551	
-0.0489407	-0.209638	0.00478137	
-0.146041	-0.165362	0.0105392	
-0.021619	-0.208716	0.00358638	
0.125095	-0.205926	-0.0142133	
0.0323407	-0.210182	-0.00231203	
-0.268318	-0.142305	0.0178682	
-1.27525	-0.082026	0.117106	
-0.0744724	-0.212039	0.00928684	
-0.0288704	-0.183024	-0.00212244	
0.0790724	-0.207776	-0.00782316	
-5.11409e-05	-0.205603	0.000472011	
-0.178417	-0.153518	0.0096218	
-0.248165	-0.188339	0.024322	
-0.0907061	-0.194371	0.0106016	
0.0525463	-0.201987	-0.00785799	
-0.0876166	-0.206289	0.0115264	
-0.0602803	-0.196249	0.00452268	
0.0282057	-0.192928	-0.00566713	
-3.23374e-05	-0.192288	-0.00150799	
9.46637e-06	-0.201	0.00117981	
0.000770108	-0.160021	-0.00893305	
0.000550755	-0.189991	-0.00397887	
-0.00101726	-0.202831	-0.00114544	
-0.725712	-0.0380863	0.041589	
-0.374446	-0.130901	0.0353742	
-0.000470087	-0.177593	-0.0067077	
-0.000628766	-0.206189	-0.000248605	
-0.000636154	-0.103249	-0.0161164	
2.50364	0.0577474	0.0285909	
0.0866792	-0.0594115	0.00383372	
0.244917	-0.0443128	0.0143127	
0.905874	-0.0105963	0.0470339	
-0.0255825	-0.069302	-0.000449331	
-0.0594575	-0.0706485	-0.00204501	
-3.46457e-05	-0.0688561	-0.000145396	
-0.0290111	-0.0706777	-0.000526697	
0.289742	-0.0300561	0.0228617	
0.272923	-0.0422343	0.0227438	
0.871479	0.00205791	0.0166829	
0.0766721	-0.073185	0.0018849	
0.0872804	-0.0551423	0.00593289	
0.0409439	-0.0706827	0.00136693	
0.000308527	-0.0417133	0.00437519	
0.417241	-0.0546409	0.0186274	
0.0934031	-0.0602644	0.00348622	
-0.101546	-0.0699976	-0.00203707	
0.132403	-0.0681435	0.00336786	
-0.0391315	-0.0609008	-6.05193e-05	
9.07359e-05	-0.0605604	0.000691349	
8.3904e-05	-0.0710044	0.00018679	
0.000286219	-0.0590769	0.00191435	
7.11762e-05	-0.0658821	0.000330991	
0.00993924	-0.072494	6.98677e-05	
6.7492e-05	-0.0693842	0.000470873	
0.000632248	-0.0267122	0.00403367	
0.000333179	-0.0537572	0.00302053	
-0.0729004	-0.0726337	-0.0020937	
-0.281558	-0.0439269	-0.00900414	
-0.0306604	-0.0697235	-0.000385102	
0.201036	-0.0690129	0.00456232	
0.0525028	-0.0702057	0.00212711	
-0.486054	-0.0300771	-0.0279457	
-2.19819	0.0257653	-0.0359899	
-0.138275	-0.0736611	-0.00310241	
-0.0718062	-0.0554654	-0.00411073	
0.110934	-0.068925	0.0043235	
3.57169e-05	-0.0710007	0.000337919	
-0.318167	-0.0375117	-0.0186692	
-0.417017	-0.0546124	-0.0147454	
-0.166527	-0.0598114	-0.00566353	
0.0815176	-0.0635361	0.0017234	
-0.143705	-0.0668673	-0.00419856	
-0.110538	-0.0602001	-0.00504368	
0.0424858	-0.0599016	0.000305593	
-9.13523e-05	-0.0603803	-0.000973236	
-4.31935e-08	-0.0646275	0.000253636	
-0.000331802	-0.0457447	-0.00389931	
-0.000330541	-0.0591179	-0.00197636	
-0.000105153	-0.064605	-0.000670238	
1.16838	-0.00715025	-0.0155736	
-0.662197	-0.0188505	-0.024106	
-0.000317342	-0.0537245	-0.00291672	
-6.20413e-05	-0.0660916	-0.000128258	
-0.000695707	-0.0286851	-0.00222351	
3.29599	0.0404879	0.154557	
0.135281	0.0832204	-0.000373082	
0.326436	0.0849227	0.00552191	
1.12166	0.083988	0.022479	
-0.0209337	0.0768647	-0.000537694	
-0.081916	0.076073	-0.00499791	
6.99294e-05	0.0759883	-0.00042527	
-0.0350628	0.0780021	0.00100379	
0.36049	0.0786508	0.00328037	
0.361596	0.0842977	0.00703575	
1.0943	0.0508659	0.0366477	
0.113888	0.0751771	0.0003312	
0.108867	0.0865994	0.00546656	
0.0585454	0.078335	0.00455133	
-0.000416115	0.0792081	-0.00742191	
0.582028	0.0931132	0.0374309	
0.152252	0.0813306	-0.000821632	
-0.128921	0.0809475	-0.00297216	
0.183163	0.0781675	0.00919436	
-0.0529683	0.0857498	-0.00838994	
0.000497824	0.08258	-0.00562546	
-8.55999e-05	0.0780981	0.00144569	
-0.000322685	0.0863817	-0.00283446	
2.97296e-05	0.0810487	-0.00167087	
0.0172799	0.0755117	0.000152172	
-0.00011335	0.0790435	0.00114741	
-0.000901218	0.0515745	-0.00633036	
-0.000986752	0.0846744	-0.000618172	
-0.0981716	0.0749542	-0.000502851	
-0.379193	0.0872719	-0.0063991	
-0.0716367	0.0751839	-0.00561616	
0.281631	0.0738968	0.016637	
0.0651218	0.0778533	-0.0015895	
-0.574859	0.0851511	-0.0291512	
-2.78805	0.0624325	-0.130667	
-0.193659	0.0733253	-0.00426238	
-0.0899362	0.0874026	-0.00376366	
0.152056	0.0780368	-0.00125043	
-5.99166e-05	0.0738292	-4.62106e-05	
-0.422853	0.0859705	-0.0218863	
-0.579241	0.0929846	-0.0353219	
-0.247872	0.0849141	-0.00148376	
0.0966486	0.082126	0.00360295	
-0.214132	0.081013	-0.0110199	
-0.159471	0.0876921	-0.00250338	
0.0563788	0.0852596	0.00770375	
-0.000447759	0.0848042	0.00529418	
-0.000130049	0.0784225	0.000161204	
0.000424439	0.0828839	0.0042038	
0.000212195	0.0874581	0.00374419	
0.000173019	0.0842058	0.000784277	
1.59194	-0.0175902	0.0484295	
-0.806213	0.0812684	-0.0340626	
0.000987051	0.0858309	0.00151465	
9.84929e-05	0.0815443	-0.000484847	
0.000716222	0.0486248	0.0032618	
5.70398	-0.0967135	0.294931	
-2.0351	-0.403529	-0.173048	
0.624847	-0.427543	0.146571	
1.56634	-0.122833	0.0807998	
1.95131	-0.437263	0.132863	
-1.78364	-0.545494	-0.115305	
-0.000438067	-0.554149	-0.00332002	
-0.614265	-0.325225	0.00295467	
0.628438	-0.0972105	0.046711	
1.14834	-0.198038	0.104192	
-0.252877	-0.268115	-0.00308262	
-0.105446	-0.366177	-0.0162353	
3.0755	-0.337587	0.237638	
0.770149	-0.397968	0.0867579	
-0.00214107	-0.112137	0.0221741	
0.828654	-0.549474	0.131327	
-0.98339	-0.233213	-0.100236	
0.162979	-0.122104	0.0141947	
1.45667	-0.246114	0.120239	
-0.334538	-0.525747	-0.0502383	
0.00753453	-0.268748	-0.0431517	
-0.0056443	-0.310887	0.0352168	
-0.00292271	-0.555301	0.0196166	
0.00159771	-0.143607	-0.00837174	
0.018196	-0.340565	0.00751509	
-0.00213668	-0.17973	0.0162853	
-0.000283565	-0.0815543	0.00746495	
-0.00737023	-0.208512	0.0549207	
0.0946584	-0.340362	0.0145913	
-0.45985	-0.529906	-0.151647	
-2.35248	-0.426811	-0.178006	
0.407232	-0.537469	-0.0046674	
0.00100567	-0.285742	-0.0266253	
-1.04076	-0.209808	-0.10461	
-3.64298	-0.44389	-0.25994	
1.30089	-0.36496	0.0793514	
-2.75662	-0.390314	-0.205115	
0.181496	-0.272582	-0.0026991	
0.000661315	-0.534614	0.00503207	
-1.17545	-0.237727	-0.127737	
-0.799863	-0.59908	-0.093309	
0.68496	-0.258608	0.0636033	
-1.2288	-0.399556	-0.0812634	
0.347169	-0.357389	0.00631467	
1.46869	-0.570982	0.105213	
1.00205	-0.4185	0.116112	
-0.00636669	-0.300419	0.027406	
0.00182279	-0.271059	-0.0111385	
0.00871446	-0.288186	-0.0590415	
0.000356118	-0.600211	0.00297361	
-0.00101165	-0.193757	0.00366906	
2.12213	0.162762	0.0561787	
-1.25256	-0.198722	-0.10369	
0.00908846	-0.289727	-0.0618208	
0.00133136	-0.344571	-0.0151687	
0.00173395	-0.166074	-0.0195648	
4.43017	0.248833	0.296664	
0.0492835	0.576064	-0.026365	
0.55249	0.665796	0.0127484	
1.27589	0.420328	0.0912278	
1.20265	0.718729	0.0710006	
-0.90894	0.76714	-0.0936873	
-7.40469e-05	0.737423	-0.0161239	
-0.291392	0.628098	-0.0510262	
0.379852	0.420804	0.00255744	
0.661779	0.517655	0.0350574	
1.14884	0.495447	0.0739246	
0.807264	0.622021	0.0791598	
0.714911	0.602371	0.0398181	
0.492222	0.665124	0.0329736	
0.000219447	0.453565	-0.0335756	
1.2586	0.824284	0.0770457	
-0.640995	0.527043	-0.0737825	
-0.26915	0.48555	-0.0231526	
0.80173	0.584537	0.0774603	
-0.175247	0.779399	-0.0626457	
0.00270602	0.539592	-0.0168043	
-0.00112937	0.619696	-0.0198496	
0.00215536	0.803341	-0.0384864	
0.00314864	0.497155	0.00350483	
0.0119952	0.539293	0.00251406	
8.51584e-05	0.539518	-0.000963047	
-0.000172034	0.359647	-0.018403	
0.00323635	0.543585	-0.0205848	
-0.795308	0.543383	-0.0580999	
-0.456714	0.688981	-0.00850854	
-1.42711	0.702206	-0.120171	
0.929388	0.727102	0.0730391	
0.0750023	0.596032	0.0118735	
-0.741773	0.407633	-0.031604	
-2.89387	0.642584	-0.214277	
-0.0367424	0.618503	0.0269365	
-0.441515	0.614506	-0.0280607	
-0.167378	0.582329	-0.0156821	
0.00122176	0.767152	0.0115941	
-0.692838	0.481975	-0.0166818	
-1.2016	0.832666	-0.0577485	
0.446303	0.543406	0.0382148	
-0.322166	0.638973	-0.0425041	
0.335043	0.657941	0.0318639	
-0.54926	0.787196	-0.0121636	
0.853261	0.583022	0.111852	
-0.00170692	0.551454	0.00582528	
-0.00106698	0.614792	0.0142175	
-0.00115988	0.541446	0.034795	
-0.000180957	0.810322	0.0398981	
-0.00198518	0.524574	-0.0149895	
3.0323	-0.287259	0.201408	
-1.50653	0.438107	-0.121602	
-0.00369604	0.559566	0.0278792	
-0.00178775	0.63208	-0.00682945	
-0.000664465	0.42652	0.0271887	
2.9593	0.085422	0.20464	
0.450706	0.325862	0.0403567	
0.376911	0.31643	0.0233791	
0.996572	0.188289	0.0823151	
0.6863	0.348046	0.0565896	
-0.312554	0.346515	-0.0367125	
0.000182056	0.384633	-0.00791031	
-0.352665	0.32724	-0.0459728	
0.147793	0.20139	0.0069086	
0.367804	0.254099	0.0242104	
1.10293	0.142144	0.0825083	
1.22649	0.325729	0.132665	
0.547687	0.2864	0.0448799	
0.408885	0.32417	0.040286	
-8.29627e-05	0.224079	-0.0069043	
0.861284	0.301448	0.0722382	
-0.448247	0.283425	-0.0473058	
-0.403332	0.268029	-0.0415807	
0.523891	0.294742	0.0536502	
0.0423014	0.329058	-0.00254397	
0.000777844	0.294069	-0.00271876	
-0.0001825	0.30905	-0.00239432	
0.000750897	0.34905	-0.0106924	
0.000652825	0.274721	6.14891e-05	
0.00860395	0.306873	0.000467435	
0.000122601	0.280815	-0.000816547	
-8.65994e-05	0.160659	-0.00368667	
0.00079956	0.277268	-0.00878432	
-1.23185	0.309595	-0.119542	
-0.247472	0.356024	-0.0101934	
-0.935716	0.354522	-0.0866372	
0.588074	0.387497	0.067004	
0.0980746	0.330814	0.0138598	
-0.561909	0.244241	-0.0405153	
-2.13205	0.17045	-0.170121	
-0.329001	0.327986	-0.0299359	
-0.364013	0.315795	-0.0273066	
-0.0971672	0.326642	-0.0119852	
0.000293167	0.348892	0.00607993	
-0.396584	0.258081	-0.0251791	
-0.823151	0.325402	-0.0756528	
0.39292	0.302807	0.0439118	
-0.0637651	0.364806	-0.00991821	
0.323477	0.321944	0.032483	
-0.9668	0.34776	-0.0938192	
0.606929	0.341145	0.0644636	
-0.000700185	0.309774	0.00204211	
-8.61595e-05	0.317757	-0.00160631	
-0.000743092	0.286122	0.0151119	
-0.000704922	0.370955	0.0111531	
-0.000281573	0.304293	-0.00361917	
1.78708	-0.097879	0.121112	
-1.32105	0.237013	-0.119555	
-0.00118343	0.311959	0.0117086	
-0.000419891	0.328251	-0.00278079	
-0.000160269	0.196288	0.00784366	
2.44152	0.0407105	0.172414	
0.599698	0.166922	0.0461645	
0.307878	0.137701	0.0225465	
0.853869	0.0866389	0.0649704	
0.448922	0.164439	0.033759	
0.00769406	0.16203	-0.0011511	
6.034e-05	0.178707	-0.00253622	
-0.424632	0.155364	-0.0376678	
-0.000903752	0.0942891	-0.00172339	
0.225553	0.117935	0.0148053	
1.10582	0.0632188	0.0824373	
1.54758	0.154671	0.125041	
0.494317	0.131521	0.0369545	
0.445216	0.153088	0.0357781	
3.77879e-05	0.105738	-0.00180772	
0.66333	0.137534	0.0490302	
-0.340352	0.145377	-0.0283207	
-0.504349	0.137715	-0.0432923	
0.447165	0.145494	0.0377407	
0.0841917	0.156867	0.00405956	
0.000189246	0.149267	-0.00104705	
6.00531e-05	0.150431	-0.000884455	
0.000165468	0.159475	-0.00343024	
0.000109121	0.139748	2.39179e-05	
0.00526664	0.146432	0.000535935	
-1.4044e-05	0.142061	2.15762e-05	
8.28231e-06	0.0740642	-0.000893032	
0.000181136	0.127624	-0.00264955	
-1.57694	0.14808	-0.131883	
-0.16614	0.154674	-0.0106822	
-0.760865	0.167928	-0.0610315	
0.426792	0.179912	0.0395404	
0.102444	0.158938	0.0105637	
-0.451116	0.121408	-0.03189	
-1.82681	0.0707738	-0.138727	
-0.495312	0.156357	-0.0385401	
-0.351273	0.144311	-0.0286256	
-0.0894963	0.157986	-0.0078942	
7.67865e-06	0.163178	0.00248671	
-0.278811	0.123036	-0.0178151	
-0.632616	0.147796	-0.0520708	
0.365413	0.155437	0.0309443	
0.0541036	0.175446	0.00368501	
0.302839	0.157588	0.0252154	
-0.982968	0.165619	-0.0759036	
0.443924	0.17527	0.0370817	
-0.000142014	0.158091	0.000199262	
-3.09754e-05	0.155867	-0.000484947	
-0.000180435	0.13324	0.00389855	
-0.000209778	0.16904	0.00355378	
2.86458e-05	0.154705	-0.00100171	
1.33778	-0.0435785	0.09113	
-1.17498	0.111116	-0.0941983	
-0.00033257	0.142691	0.0039576	
-2.59082e-05	0.16302	-0.00157924	
-8.46782e-05	0.0855747	0.0021555	
2.23927	0.0218866	0.159453	
0.580987	0.0934764	0.0423241	
0.271793	0.0674072	0.0199695	
0.81886	0.0469459	0.0606612	
0.406473	0.0769724	0.0325417	
0.190009	0.0747145	0.0137345	
6.50892e-05	0.0840117	-0.00104407	
-0.461781	0.077879	-0.0368509	
-0.0663003	0.0486426	-0.00543179	
0.172671	0.0568391	0.0121181	
1.12867	0.0324662	0.0842563	
1.73208	0.0740138	0.118462	
0.445616	0.0661754	0.0329335	
0.421764	0.0783926	0.0314851	
1.35079e-05	0.0524941	-0.000580444	
0.570421	0.0691309	0.0414548	
-0.217718	0.0804595	-0.0162638	
-0.480995	0.0702719	-0.0385939	
0.444296	0.0720902	0.0352207	
0.0876179	0.0800415	0.00562509	
5.96595e-05	0.0845968	-0.000411024	
2.85284e-05	0.0731173	-0.000314154	
4.46271e-05	0.0796843	-0.00116009	
3.67702e-05	0.0760187	-5.2942e-05	
0.00389281	0.0752768	0.000417494	
-6.51784e-06	0.0705039	-0.000152849	
2.98254e-06	0.0396957	-0.000263555	
4.82323e-05	0.061973	-0.000773556	
-1.77089	0.0759925	-0.126571	
-0.125803	0.0744209	-0.00876642	
-0.79352	0.0790376	-0.0609094	
0.318591	0.084935	0.0275295	
0.0812579	0.0809487	0.00728206	
-0.445185	0.0660058	-0.0313836	
-1.72487	0.0347156	-0.12987	
-0.588	0.0738901	-0.0429776	
-0.319768	0.0708913	-0.0237742	
-0.018759	0.0821223	-0.00162388	
-7.14229e-05	0.0751069	0.00114949	
-0.259164	0.0612988	-0.0172	
-0.541993	0.0731952	-0.0419939	
0.291144	0.0845639	0.0222835	
0.0453547	0.0908	0.00335095	
0.294504	0.0766203	0.0228915	
-0.865786	0.0836762	-0.0620343	
0.356946	0.0965456	0.0263084	
-4.49612e-05	0.0879941	0.000118813	
-8.21212e-07	0.0769924	-0.000148026	
-3.19971e-05	0.0637997	0.00109585	
-4.42681e-05	0.0834103	0.00113676	
2.32575e-05	0.0821434	-0.000171051	
1.14496	-0.0226021	0.0775211	
-1.08977	0.0579938	-0.0840486	
-7.82462e-05	0.0681984	0.00101576	
-9.28859e-06	0.0810638	-0.000406143	
-3.38358e-05	0.0427467	0.00071766	
2.16185	0.0145287	0.156983	
0.622226	0.0595786	0.0467552	
0.220267	0.0446934	0.0171891	
0.791814	0.0287826	0.0598463	
0.357264	0.0491519	0.028411	
0.351777	0.0477326	0.0269145	
-7.47161e-06	0.05323	0.000279125	
-0.513133	0.0480878	-0.0389175	
-0.136758	0.0315189	-0.0101795	
0.114528	0.0385405	0.00868477	
1.19127	0.021256	0.0902405	
1.97751	0.0460063	0.140417	
0.400828	0.0466194	0.0305955	
0.461821	0.0477489	0.0349061	
-1.16349e-05	0.0348122	7.72279e-05	
0.54579	0.0486329	0.0411494	
-0.131587	0.0515779	-0.00985212	
-0.499505	0.0460472	-0.0387412	
0.471052	0.0465914	0.0364757	
0.107241	0.0529207	0.00822176	
6.2419e-06	0.0535493	9.75878e-05	
1.97155e-06	0.0470524	0.000140468	
-1.99144e-05	0.0535014	0.000181999	
1.11621e-05	0.0485117	-8.89615e-05	
0.00301132	0.0439946	0.000147921	
-8.80433e-06	0.0464055	-7.93542e-05	
-8.28202e-06	0.0248951	0.00010348	
-6.68892e-06	0.0433822	0.000219451	
-2.02719	0.043783	-0.147637	
-0.0762049	0.0493265	-0.00598742	
-0.799728	0.0504951	-0.0615201	
0.248846	0.0539992	0.0193747	
0.0725152	0.0493595	0.00557825	
-0.436844	0.0436516	-0.0327889	
-1.67569	0.0233948	-0.127305	
-0.69577	0.0460684	-0.0522138	
-0.285936	0.0499943	-0.0220353	
-0.0173116	0.0497812	-0.0015755	
6.48975e-06	0.0481782	-0.000342268	
-0.237794	0.0410824	-0.0176058	
-0.510652	0.0510794	-0.0395934	
0.258635	0.0550903	0.0196535	
0.0437702	0.0589283	0.00351229	
0.270833	0.0497375	0.0208148	
-0.840509	0.0552737	-0.0621203	
0.292419	0.0618844	0.021348	
-1.11744e-05	0.0563118	-3.81889e-05	
-4.02236e-06	0.0494093	-1.1313e-05	
2.02772e-05	0.0433331	-9.00395e-05	
1.96513e-05	0.0561622	-0.000186197	
7.46414e-06	0.0537052	0.000154715	
1.05961	-0.0153377	0.0731072	
-1.04319	0.0379253	-0.080299	
1.24596e-06	0.0472169	-0.000180459	
-1.31003e-05	0.0532545	-6.42233e-06	
1.27938e-05	0.0285142	-0.000151616	
				</DataArray>
				<DataArray type="Float64" Name="Time Step Shed" NumberOfComponents="1" Format="ascii">
3	
3	
3	
3	
3	
3	
3	
3	
3	
3	
3	
3	
3	
3	
3	
3	
3	
3	
3	
3	
3	
3	
3	
3	
3	
3	
3	
3	
3	
3	
3	
3	
3	
3	
3	
3	
3	
3	
3	
3	
3	
3	
3	
3	
3	
3	
3	
3	
3	
3	
3	
3	
3	
3	
3	
3	
4	
4	
4	
4	
4	
4	
4	
4	
4	
4	
4	
4	
4	
4	
4	
4	
4	
4	
4	
4	
4	
4	
4	
4	
4	
4	
4	
4	
4	
4	
4	
4	
4	
4	
4	
4	
4	
4	
4	
4	
4	
4	
4	
4	
4	
4	
4	
4	
4	
4	
4	
4	
4	
4	
4	
4	
5	
5	
5	
5	
5	
5	
5	
5	
5	
5	
5	
5	
5	
5	
5	
5	
5	
5	
5	
5	
5	
5	
5	
5	
5	
5	
5	
5	
5	
5	
5	
5	
5	
5	
5	
5	
5	
5	
5	
5	
5	
5	
5	
5	
5	
5	
5	
5	
5	
5	
5	
5	
5	
5	
5	
5	
6	
6	
6	
6	
6	
6	
6	
6	
6	
6	
6	
6	
6	
6	
6	
6	
6	
6	
6	
6	
6	
6	
6	
6	
6	
6	
6	
6	
6	
6	
6	
6	
6	
6	
6	
6	
6	
6	
6	
6	
6	
6	
6	
6	
6	
6	
6	
6	
6	
6	
6	
6	
6	
6	
6	
6	
7	
7	
7	
7	
7	
7	
7	
7	
7	
7	
7	
7	
7	
7	
7	
7	
7	
7	
7	
7	
7	
7	
7	
7	
7	
7	
7	
7	
7	
7	
7	
7	
7	
7	
7	
7	
7	
7	
7	
7	
7	
7	
7	
7	
7	
7	
7	
7	
7	
7	
7	
7	
7	
7	
7	
7	
8	
8	
8	
8	
8	
8	
8	
8	
8	
8	
8	
8	
8	
8	
8	
8	
8	
8	
8	
8	
8	
8	
8	
8	
8	
8	
8	
8	
8	
8	
8	
8	
8	
8	
8	
8	
8	
8	
8	
8	
8	
8	
8	
8	
8	
8	
8	
8	
8	
8	
8	
8	
8	
8	
8	
8	
9	
9	
9	
9	
9	
9	
9	
9	
9	
9	
9	
9	
9	
9	
9	
9	
9	
9	
9	
9	
9	
9	
9	
9	
9	
9	
9	
9	
9	
9	
9	
9	
9	
9	
9	
9	
9	
9	
9	
9	
9	
9	
9	
9	
9	
9	
9	
9	
9	
9	
9	
9	
9	
9	
9	
9	
10	
10	
10	
10	
10	
10	
10	
10	
10	
10	
10	
10	
10	
10	
10	
10	
10	
10	
10	
10	
10	
10	
10	
10	
10	
10	
10	
10	
10	
10	
10	
10	
10	
10	
10	
10	
10	
10	
10	
10	
10	
10	
10	
10	
10	
10	
10	
10	
10	
10	
10	
10	
10	
10	
10	
10	
11	
11	
11	
11	
11	
11	
11	
11	
11	
11	
11	
11	
11	
11	
11	
11	
11	
11	
11	
11	
11	
11	
11	
11	
11	
11	
11	
11	
11	
11	
11	
11	
11	
11	
11	
11	
11	
11	
11	
11	
11	
11	
11	
11	
11	
11	
11	
11	
11	
11	
11	
11	
11	
11	
11	
11	
12	
12	
12	
12	
12	
12	
12	
12	
12	
12	
12	
12	
12	
12	
12	
12	
12	
12	
12	
12	
12	
12	
12	
12	
12	
12	
12	
12	
12	
12	
12	
12	
12	
12	
12	
12	
12	
12	
12	
12	
12	
12	
12	
12	
12	
12	
12	
12	
12	
12	
12	
12	
12	
12	
12	
12	
				</DataArray>
			</CellData>
			<Points>
				<DataArray type="Float64" Name="Position" NumberOfComponents="3" Format="ascii">
1.15931	1.95919	0.029075	
1.2041	1.03598	-0.0546281	
1.20567	1.46778	-0.0486446	
1.19988	1.75047	-0.0240196	
1.21013	0.321421	-0.0577732	
1.21391	0.176867	-0.0467831	
1.21482	0.25143	-0.0452791	
1.21261	0.391676	-0.0541709	
1.20093	1.6801	-0.0269861	
1.20359	1.53519	-0.0439945	
1.18184	1.88882	0.0116632	
1.21167	0.10776	-0.0539279	
1.20731	1.32172	-0.0464996	
1.21374	0.463668	-0.0533298	
1.20029	1.60851	-0.037911	
1.20882	1.25035	-0.0442721	
1.20195	0.895048	-0.0617633	
1.21418	0.75045	-0.0343661	
1.21501	0.605602	-0.035323	
1.20611	1.10795	-0.0577156	
1.20385	0.964325	-0.0621212	
1.21592	0.53419	-0.0410116	
1.2071	1.18057	-0.0556574	
1.2109	0.823079	-0.0428913	
1.20927	0.0359447	-0.0551565	
1.21458	0.678949	-0.0494162	
1.19218	1.81884	-0.00345953	
1.20692	1.39721	-0.0479406	
1.20899	-0.0374022	-0.0576837	
1.20709	-1.46672	-0.0453507	
1.20934	-0.322776	-0.0562103	
1.21602	-0.248368	-0.0444683	
1.21002	-0.394391	-0.0566896	
1.20621	-1.68116	-0.0233579	
1.18552	-1.89089	0.020176	
1.21192	-0.110009	-0.0541917	
1.20978	-1.32405	-0.045153	
1.21177	-0.464973	-0.0511983	
1.21464	-0.178011	-0.0434591	
1.20561	-1.60787	-0.0390068	
1.21143	-1.25071	-0.0454338	
1.20416	-0.894103	-0.0587655	
1.21264	-0.751555	-0.0458897	
1.21239	-0.608018	-0.0397336	
1.20891	-1.10664	-0.0540343	
1.20463	-1.03704	-0.05258	
1.20647	-0.964952	-0.0594654	
1.21182	-0.535825	-0.052484	
1.19987	-1.53691	-0.0539137	
1.20982	-1.17943	-0.0517157	
1.2096	-0.824208	-0.0496469	
1.16189	-1.96415	0.035132	
1.203	-1.7501	-0.0159068	
1.20884	-1.39759	-0.0487681	
1.2099	-0.678931	-0.0563386	
1.19782	-1.82203	0.00123258	
1.05915	1.96124	0.0168708	
1.09251	1.03286	0.0419778	
1.08248	1.46151	0.028426	
1.07181	1.74355	0.0126196	
1.09344	0.321842	0.0510318	
1.09417	0.176557	0.0499597	
1.09414	0.251062	0.0519522	
1.09279	0.391604	0.0500069	
1.06556	1.67394	-0.00257589	
1.06965	1.5315	0.00575718	
1.06378	1.88712	0.0101655	
1.09481	0.108958	0.052431	
1.08205	1.3196	0.0314965	
1.09144	0.459615	0.0470124	
1.07834	1.6022	0.0194725	
1.08253	1.24415	0.0348299	
1.09004	0.894461	0.0421688	
1.08362	0.74907	0.0395447	
1.08859	0.602275	0.0455187	
1.09085	1.10688	0.0424971	
1.08991	0.962276	0.040668	
1.09099	0.532158	0.0487131	
1.088	1.17783	0.0395571	
1.08928	0.822012	0.043615	
1.09395	0.0382599	0.0506099	
1.09112	0.676594	0.0507297	
1.06478	1.81644	0.0030777	
1.08472	1.38982	0.0345638	
1.09602	-0.0373594	0.0551591	
1.07995	-1.46201	0.0279647	
1.09364	-0.323227	0.0528522	
1.0918	-0.249456	0.0531185	
1.09175	-0.394675	0.0509096	
1.0718	-1.67426	0.0176069	
1.06521	-1.8914	0.0263432	
1.09465	-0.108076	0.0537717	
1.08611	-1.32122	0.0423961	
1.08924	-0.466966	0.0485916	
1.09343	-0.176515	0.0515915	
1.07852	-1.60164	0.0271118	
1.08435	-1.25143	0.0417127	
1.08901	-0.892474	0.0440914	
1.086	-0.750274	0.0443925	
1.08792	-0.604637	0.0443926	
1.08995	-1.10405	0.0428266	
1.08959	-1.03357	0.0417947	
1.09021	-0.962126	0.0455725	
1.08927	-0.532484	0.0482092	
1.08477	-1.52906	0.0327648	
1.09219	-1.17607	0.0469447	
1.08856	-0.823142	0.0448939	
1.05993	-1.96718	0.0240133	
1.07225	-1.74578	0.0229148	
1.08455	-1.39142	0.0389672	
1.09229	-0.67869	0.0519243	
1.06947	-1.81897	0.0241698	
0.823029	1.96316	-0.0213054	
0.755322	1.0344	-0.0478045	
0.7587	1.46429	-0.0582782	
0.762	1.74931	-0.0628863	
0.755064	0.317316	-0.036845	
0.754664	0.178398	-0.0300476	
0.753489	0.249271	-0.0312174	
0.753607	0.390126	-0.0291687	
0.76136	1.67584	-0.0679507	
0.759875	1.53239	-0.0637691	
0.764589	1.8888	-0.0369687	
0.754555	0.106134	-0.0317635	
0.756972	1.31882	-0.0513367	
0.754466	0.464797	-0.0341344	
0.760654	1.60201	-0.0664866	
0.756187	1.24644	-0.0488027	
0.754966	0.89282	-0.0406277	
0.754173	0.748698	-0.0310803	
0.754427	0.602598	-0.031944	
0.756206	1.10603	-0.0511485	
0.755432	0.963317	-0.0453808	
0.755168	0.534797	-0.0350445	
0.75499	1.17785	-0.0498463	
0.754262	0.81982	-0.0348974	
0.755067	0.0338854	-0.0327295	
0.754416	0.6787	-0.030924	
0.762458	1.81559	-0.0488205	
0.758038	1.39373	-0.0534187	
0.754832	-0.0368415	-0.0332648	
0.757578	-1.46091	-0.0473662	
0.753948	-0.319803	-0.0292055	
0.753479	-0.251987	-0.0251534	
0.75381	-0.393659	-0.0290608	
0.759732	-1.67687	-0.0429051	
0.76265	-1.89489	-0.014345	
0.75417	-0.109299	-0.0309679	
0.75603	-1.32144	-0.0411508	
0.752547	-0.465483	-0.0309894	
0.753609	-0.178179	-0.0244022	
0.759629	-1.60361	-0.0480022	
0.75607	-1.24865	-0.0397766	
0.753824	-0.89299	-0.0384079	
0.75421	-0.751326	-0.0337865	
0.753869	-0.611431	-0.0326953	
0.755922	-1.10399	-0.0459839	
0.754474	-1.03373	-0.0411978	
0.753922	-0.965276	-0.039939	
0.75417	-0.538127	-0.0369	
0.759343	-1.53246	-0.0475571	
0.754853	-1.1769	-0.0415802	
0.753748	-0.822099	-0.0346554	
0.822473	-1.9673	-0.0143847	
0.759646	-1.74721	-0.0334479	
0.758092	-1.39075	-0.0416872	
0.754099	-0.682762	-0.0334036	
0.760841	-1.82199	-0.022538	
0.591048	1.96478	-0.0451727	
0.494803	1.03457	-0.1152	
0.493281	1.46587	-0.117174	
0.49035	1.75366	-0.10611	
0.495087	0.319926	-0.100667	
0.49208	0.178145	-0.0947261	
0.493696	0.249857	-0.0989025	
0.493867	0.393741	-0.100423	
0.49152	1.68017	-0.114606	
0.493362	1.53719	-0.120017	
0.486433	1.89268	-0.0754115	
0.492866	0.104589	-0.0958318	
0.492624	1.32425	-0.117595	
0.493471	0.462964	-0.0982319	
0.492941	1.60969	-0.120188	
0.493158	1.25127	-0.118706	
0.49419	0.892427	-0.101901	
0.493561	0.751707	-0.0967694	
0.492651	0.60597	-0.0941765	
0.494071	1.10576	-0.118224	
0.494302	0.964394	-0.108557	
0.494837	0.536313	-0.0974118	
0.493756	1.17952	-0.120048	
0.494979	0.820795	-0.102707	
0.493931	0.0329702	-0.0950355	
0.493474	0.67847	-0.0941758	
0.488409	1.82075	-0.0902765	
0.492515	1.39543	-0.118028	
0.494392	-0.0367657	-0.0961719	
0.492478	-1.46116	-0.1045	
0.493484	-0.322854	-0.0943163	
0.492879	-0.251837	-0.093273	
0.49349	-0.396853	-0.0952959	
0.489717	-1.68357	-0.0917118	
0.484802	-1.89255	-0.0595225	
0.49329	-0.109814	-0.095446	
0.491754	-1.32486	-0.106105	
0.493401	-0.466346	-0.0951664	
0.492234	-0.17956	-0.0920879	
0.491543	-1.61017	-0.103364	
0.493266	-1.25047	-0.109633	
0.493787	-0.891845	-0.0986742	
0.494357	-0.752682	-0.099593	
0.491879	-0.607955	-0.0954265	
0.493279	-1.11027	-0.109226	
0.494236	-1.03673	-0.106575	
0.493868	-0.964633	-0.102104	
0.493752	-0.53824	-0.0956134	
0.492053	-1.53698	-0.105494	
0.493446	-1.17945	-0.109863	
0.494448	-0.822115	-0.100434	
0.590294	-1.96589	-0.0385254	
0.490556	-1.74763	-0.0848773	
0.492066	-1.39452	-0.104872	
0.494223	-0.680227	-0.0963084	
0.487158	-1.82243	-0.0671296	
0.360116	1.96695	-0.0709969	
0.208073	1.03612	-0.159148	
0.206061	1.46705	-0.143871	
0.202931	1.7523	-0.113108	
0.208273	0.322243	-0.152207	
0.208098	0.177746	-0.146962	
0.209667	0.250578	-0.155561	
0.206248	0.395122	-0.14279	
0.203193	1.67892	-0.122335	
0.20413	1.53946	-0.137081	
0.202446	1.89499	-0.100545	
0.205627	0.107605	-0.131741	
0.206773	1.32375	-0.161201	
0.205605	0.465558	-0.136266	
0.20373	1.607	-0.129696	
0.210283	1.25554	-0.183021	
0.203745	0.892571	-0.121086	
0.202171	0.748354	-0.108154	
0.204145	0.606831	-0.117939	
0.210672	1.1052	-0.180484	
0.2055	0.963791	-0.139685	
0.205422	0.533733	-0.128099	
0.211853	1.17893	-0.192194	
0.202561	0.820839	-0.10887	
0.205634	0.0343151	-0.127817	
0.20317	0.676586	-0.110746	
0.20275	1.81767	-0.100569	
0.205293	1.39217	-0.146171	
0.206011	-0.0373664	-0.130809	
0.207178	-1.4672	-0.144313	
0.207112	-0.325342	-0.139239	
0.209473	-0.252378	-0.151256	
0.204685	-0.398035	-0.121759	
0.203747	-1.679	-0.118543	
0.202267	-1.89357	-0.0959945	
0.206389	-0.110821	-0.139261	
0.206852	-1.3226	-0.153936	
0.203805	-0.466009	-0.12194	
0.20879	-0.179123	-0.1499	
0.204822	-1.60844	-0.130054	
0.209962	-1.25494	-0.174498	
0.204038	-0.894071	-0.120179	
0.205156	-0.749999	-0.128498	
0.205481	-0.607853	-0.126843	
0.209965	-1.10715	-0.169025	
0.207409	-1.03662	-0.147139	
0.205759	-0.966143	-0.132515	
0.205082	-0.533906	-0.121755	
0.20584	-1.53771	-0.137545	
0.211466	-1.1821	-0.179546	
0.203533	-0.822496	-0.118071	
0.359431	-1.96628	-0.0669302	
0.203137	-1.74601	-0.107038	
0.205847	-1.39185	-0.141697	
0.205808	-0.678916	-0.131067	
0.201847	-1.81895	-0.0934902	
0.12953	1.96534	-0.0933195	
-0.0794346	1.03438	-0.162095	
-0.0810866	1.46396	-0.145712	
-0.0825589	1.74859	-0.123638	
-0.081127	0.321027	-0.149706	
-0.0809919	0.178768	-0.150227	
-0.0804416	0.250393	-0.153232	
-0.0814287	0.39405	-0.145726	
-0.0822308	1.67729	-0.130664	
-0.0814528	1.5333	-0.141535	
-0.0835841	1.89339	-0.114173	
-0.0807519	0.107069	-0.149048	
-0.0806652	1.32108	-0.15489	
-0.0820922	0.462226	-0.139932	
-0.0819035	1.60547	-0.136528	
-0.080153	1.24901	-0.163709	
-0.0817819	0.889889	-0.142067	
-0.0826652	0.750347	-0.124056	
-0.0817813	0.607903	-0.127732	
-0.0797065	1.10565	-0.167655	
-0.0806749	0.960162	-0.156809	
-0.0820157	0.537844	-0.135455	
-0.0801562	1.17556	-0.169638	
-0.0823547	0.821326	-0.130023	
-0.0807862	0.0355109	-0.149672	
-0.083077	0.674845	-0.124461	
-0.0830813	1.81955	-0.114018	
-0.0797885	1.38807	-0.148495	
-0.0807666	-0.0372579	-0.147763	
-0.0805617	-1.46476	-0.15176	
-0.0812568	-0.322485	-0.1417	
-0.080571	-0.252329	-0.146886	
-0.0816044	-0.395553	-0.13646	
-0.0814223	-1.67792	-0.13422	
-0.083794	-1.89109	-0.111253	
-0.0808959	-0.109079	-0.14396	
-0.0803529	-1.32071	-0.151884	
-0.0823171	-0.465945	-0.132315	
-0.0809261	-0.178063	-0.144385	
-0.0811621	-1.60603	-0.143797	
-0.0798997	-1.24932	-0.159276	
-0.0808799	-0.896333	-0.139137	
-0.0813819	-0.751313	-0.13824	
-0.0816269	-0.608517	-0.132587	
-0.0797031	-1.10658	-0.166919	
-0.0796806	-1.03463	-0.161417	
-0.0807677	-0.963248	-0.153603	
-0.0817486	-0.53713	-0.131257	
-0.0808462	-1.53477	-0.147365	
-0.0794258	-1.17935	-0.165403	
-0.0817322	-0.822158	-0.135143	
0.129177	-1.96428	-0.0913685	
-0.0822139	-1.74715	-0.123701	
-0.0805419	-1.39098	-0.147679	
-0.0820104	-0.678131	-0.137121	
-0.0832149	-1.81805	-0.109937	