<VTKFile type="UnstructuredGrid" version="0.1" byte_order="LittleEndian">
	<UnstructuredGrid>
		<Piece NumberOfPoints="504" NumberOfCells="504">
			<CellData Scalars="scalars">
				<DataArray type="Float64" Name="Strength" NumberOfComponents="3" Format="ascii">
0.55684	-0.350447	-0.0962437	
0.012243	-1.04359	-0.00265334	
0.0166156	-0.939454	0.00679556	
0.116194	-0.815484	0.0137854	
0.00247669	-1.06771	0.00506438	
-0.0196349	-1.00636	0.00441619	
0.00104334	-1.05348	-0.00157861	
-0.00560248	-1.04962	0.00690269	
0.017727	-0.856303	0.048528	
0.0250311	-0.920119	0.00781066	
0.150341	-0.56777	0.0265922	
0.0156533	-1.02631	-0.00747115	
-7.55622e-05	-0.972991	0.0150762	
-7.339e-05	-1.04338	-0.00507554	
-0.011522	-0.889512	0.0351807	
0.0642505	-0.963923	-0.0134664	
0.0156457	-1.04739	0.000879407	
-0.0130749	-1.01714	0.0118439	
0.0116953	-1.03538	-0.0135166	
-0.0169963	-1.02974	0.0153257	
0.00247821	-1.03088	0.00306804	
-0.00809019	-1.0298	-0.00352244	
-0.00347059	-1.04757	0.0167054	
0.0126935	-1.05516	-0.000861379	
0.000681802	-1.05471	-0.00162909	
0.00431713	-1.0251	0.00163669	
0.00546016	-0.71175	0.0724762	
-0.00362162	-0.957527	0.0138806	
-0.0147887	-1.05574	0.00369172	
-0.0223791	-0.944015	-0.00668007	
-0.0174714	-1.06851	0.00422422	
0.0310113	-1.05533	-0.0115691	
0.00636817	-1.03886	-0.000125905	
-0.037595	-0.836019	-0.0412369	
-0.341967	-0.578096	0.0198835	
-0.012752	-1.0268	0.00452638	
0.00359196	-0.977038	-0.0166929	
0.0304856	-1.03993	-0.00020763	
0.00106784	-1.00827	0.00247634	
-0.024281	-0.879177	-0.0237423	
-0.065629	-0.964963	0.0124727	
-0.0222428	-1.05664	0.00320889	
0.010878	-1.10281	-0.00949726	
-0.026455	-1.02536	0.015718	
-0.00643802	-1.03175	-0.00934369	
0.0119905	-1.04644	-0.0105008	
0.00256015	-1.03569	-0.00424469	
0.00225827	-1.07011	0.00858396	
0.0112809	-0.917506	-0.0267765	
0.00367816	-1.04905	-0.0214044	
-0.00815933	-1.07457	-0.00477253	
-0.334376	-0.355294	0.0234139	
-0.0749707	-0.814999	-0.0568975	
0.00412829	-0.963041	-0.0150856	
-0.00154224	-1.05304	0.00352581	
-0.00035805	-0.701823	-0.11005	
1.5038	0.00888883	-0.0493592	
0.0494757	-0.192124	-0.00418898	
0.125401	-0.164636	-0.00679464	
0.519667	-0.111643	-0.0288538	
-0.00970048	-0.206442	0.00218286	
-0.0484686	-0.206436	0.00463347	
0.000187464	-0.20475	4.77739e-05	
-0.0148319	-0.207988	0.00296936	
0.15594	-0.131895	-0.00337724	
0.150261	-0.159679	-0.00872971	
0.512392	-0.0645746	-0.0203496	
0.0497614	-0.210466	-0.00603152	
0.0388468	-0.182344	0.000254118	
0.0257147	-0.205314	-0.00219167	
1.53766e-05	-0.150712	0.00599492	
0.248474	-0.187095	-0.0222448	
0.0444692	-0.192415	-0.00381495	
-0.0703192	-0.204028	0.00843249	
0.0709683	-0.204263	-0.00871722	
-0.0292814	-0.194608	0.00551955	
0.00068749	-0.191199	0.000873549	
-0.00059141	-0.204888	-0.000227129	
-0.000325386	-0.189726	0.0030959	
0.00147796	-0.201633	0.000212953	
0.0051435	-0.209099	-0.00131793	
0.00059976	-0.204627	0.00029426	
0.00211987	-0.10215	0.00770785	
0.000360479	-0.177115	0.00533926	
-0.0490128	-0.209632	0.00425989	
-0.146321	-0.165181	0.00945911	
-0.0216185	-0.208725	0.00304475	
0.125311	-0.205899	-0.0126055	
0.0324601	-0.210165	-0.00216473	
-0.269026	-0.141189	0.0159819	
-1.27685	-0.0772361	0.101745	
-0.0745938	-0.21204	0.00825214	
-0.0288525	-0.18303	-0.00182923	
0.0791998	-0.207763	-0.00681577	
-6.88359e-05	-0.205603	0.000471488	
-0.178975	-0.152915	0.0088444	
-0.248555	-0.188154	0.0216146	
-0.0907507	-0.194418	0.00924795	
0.052789	-0.201953	-0.00704075	
-0.0876883	-0.206328	0.0102213	
-0.0605795	-0.196166	0.00414722	
0.0281326	-0.19296	-0.00490833	
-3.04925e-05	-0.192289	-0.00130256	
3.61908e-05	-0.201001	0.00109182	
0.000571088	-0.16008	-0.00781242	
0.000434359	-0.190002	-0.00346412	
-0.000854866	-0.202832	-0.00111196	
-0.725928	-0.0367009	0.0389156	
-0.375428	-0.129078	0.0314319	
-0.000407873	-0.177624	-0.00582464	
-0.000506214	-0.206189	-0.000228964	
-0.000701153	-0.103516	-0.0142892	
2.5038	0.0478663	0.0322755	
0.0866498	-0.0594651	0.003666	
0.244916	-0.0446204	0.0133328	
0.906016	-0.0129333	0.0435551	
-0.0255778	-0.0693035	-0.000477191	
-0.0594535	-0.0706507	-0.00207245	
-3.15098e-05	-0.0688562	-0.000145545	
-0.0290118	-0.070677	-0.000559412	
0.289834	-0.030701	0.0207339	
0.27302	-0.0426942	0.0206299	
0.871445	-0.00153567	0.0183132	
0.076675	-0.0731789	0.00198849	
0.0872278	-0.0552717	0.00548883	
0.0409331	-0.070689	0.00136707	
0.000292638	-0.0417656	0.00384709	
0.417207	-0.0551772	0.017775	
0.0933824	-0.0603001	0.00342359	
-0.101548	-0.0699889	-0.00220325	
0.132387	-0.0681679	0.00348947	
-0.0391605	-0.0608816	-0.000188865	
6.89456e-05	-0.0605615	0.000604558	
6.93164e-05	-0.0710046	0.000155248	
0.000238053	-0.0590836	0.00171096	
5.37325e-05	-0.0658824	0.000294128	
0.00994944	-0.0724927	0.00011055	
5.67817e-05	-0.0693846	0.000431496	
0.000533953	-0.0267838	0.00354456	
0.000288132	-0.0537779	0.00263384	
-0.0728835	-0.072649	-0.00214145	
-0.2815	-0.0442482	-0.00922715	
-0.030686	-0.0697118	-0.000490273	
0.201008	-0.0690689	0.00490238	
0.052482	-0.0702231	0.00205289	
-0.486059	-0.0312208	-0.0265571	
-2.19811	0.0189928	-0.0436978	
-0.138256	-0.0736871	-0.00330483	
-0.0717371	-0.0555693	-0.00391687	
0.110921	-0.0689493	0.00424298	
3.2207e-05	-0.071001	0.000306958	
-0.318147	-0.0381331	-0.0177169	
-0.416941	-0.055171	-0.0147802	
-0.166503	-0.0598796	-0.00565906	
0.0815276	-0.0635189	0.00183903	
-0.143692	-0.0668893	-0.00429002	
-0.110502	-0.0602806	-0.00486799	
0.042514	-0.05988	0.000465584	
-7.21141e-05	-0.0603824	-0.000840031	
3.42259e-06	-0.0646278	0.000216298	
-0.00029281	-0.0457845	-0.00340435	
-0.00027522	-0.059126	-0.00172816	
-8.66269e-05	-0.0646058	-0.00060656	
1.16843	-0.00454029	-0.0118345	
-0.662129	-0.0209779	-0.0241638	
-0.000261678	-0.0537446	-0.00252794	
-4.86714e-05	-0.0660917	-0.000111438	
-0.000589889	-0.0287071	-0.00195409	
3.29611	0.0362705	0.153038	
0.135188	0.0833668	0.000833227	
0.326565	0.0843551	0.00658705	
1.12178	0.0810706	0.0266038	
-0.0209053	0.0768716	-0.000665543	
-0.0819407	0.0760582	-0.0048146	
6.00521e-05	0.0759889	-0.000340243	
-0.0349784	0.0780452	0.000479697	
0.360612	0.077983	0.00508686	
0.361629	0.0840707	0.00788692	
1.09429	0.0485691	0.0397784	
0.113785	0.0753225	0.00124015	
0.109106	0.0863074	0.00529194	
0.0586223	0.078297	0.00419452	
-0.000384805	0.0792987	-0.00638395	
0.58236	0.0917631	0.0355048	
0.152157	0.0815086	0.000563087	
-0.12891	0.0809387	-0.00359604	
0.183181	0.0781188	0.00921586	
-0.0530255	0.0858057	-0.00740403	
0.000394342	0.0826423	-0.00463419	
-7.87398e-05	0.0781027	0.00118926	
-0.000254903	0.0863941	-0.00243875	
2.84808e-05	0.0810543	-0.00138226	
0.0172444	0.0755196	0.000271769	
-0.000100235	0.0790468	0.000904125	
-0.000741983	0.0516856	-0.00537396	
-0.000767546	0.0846746	-0.000830746	
-0.0981226	0.0750091	-0.00123508	
-0.379332	0.0864574	-0.00861905	
-0.0716785	0.0751726	-0.00521441	
0.281661	0.0738843	0.0161411	
0.065084	0.0778977	-0.000743724	
-0.575068	0.0837987	-0.0288634	
-2.78794	0.0576495	-0.134989	
-0.193571	0.0734936	-0.00519198	
-0.0902044	0.0871223	-0.00380686	
0.152022	0.0781115	0.000212583	
-4.76369e-05	0.0738294	-5.87895e-05	
-0.422987	0.0855883	-0.0207238	
-0.579491	0.091822	-0.0341853	
-0.247857	0.0849001	-0.0032952	
0.0966115	0.0821575	0.00387617	
-0.214129	0.0810299	-0.010918	
-0.1594	0.0877728	-0.00376725	
0.0564635	0.0852761	0.00686257	
-0.000359175	0.0848553	0.0044184	
-9.29386e-05	0.0784228	6.78167e-05	
0.000400193	0.0829104	0.00365035	
0.000163375	0.08748	0.00319893	
0.000133283	0.0842067	0.000706156	
1.59192	-0.0162512	0.0493664	
-0.806375	0.0790405	-0.0353257	
0.000747439	0.0858352	0.00140538	
7.67395e-05	0.081545	-0.000392139	
0.000600075	0.0486535	0.00282961	
5.7039	-0.0982969	0.295798	
-2.03775	-0.395306	-0.160088	
0.628121	-0.429122	0.126656	
1.56637	-0.121965	0.0815055	
1.95221	-0.434131	0.129737	
-1.78404	-0.544344	-0.114395	
-0.000326919	-0.554155	-0.00243335	
-0.613022	-0.327547	-0.00324694	
0.628718	-0.0965796	0.0441692	
1.14972	-0.195017	0.094223	
-0.252874	-0.268076	-0.00542609	
-0.10602	-0.366096	-0.0142155	
3.078	-0.322441	0.225686	
0.77196	-0.396099	0.0788401	
-0.00160504	-0.112857	0.018194	
0.831582	-0.548442	0.116305	
-0.984998	-0.229717	-0.0920953	
0.163057	-0.122096	0.0133369	
1.45766	-0.243036	0.114238	
-0.335894	-0.525433	-0.0439996	
0.00557233	-0.269922	-0.035464	
-0.00423562	-0.311544	0.0290719	
-0.00211824	-0.555416	0.0161551	
0.00117613	-0.143689	-0.00691804	
0.0181793	-0.340589	0.00641441	
-0.00161015	-0.179966	0.0134931	
-0.000208273	-0.0816668	0.00611843	
-0.00553666	-0.210863	0.0453243	
0.0950215	-0.340338	0.0126966	
-0.464762	-0.531551	-0.12931	
-2.35422	-0.42066	-0.169247	
0.406059	-0.538372	0.000225449	
-0.000122633	-0.286142	-0.0219055	
-1.04187	-0.207387	-0.0983517	
-3.64353	-0.442602	-0.254323	
1.30118	-0.364231	0.0778401	
-2.7587	-0.378614	-0.198945	
0.18074	-0.273095	-0.000304538	
0.000424997	-0.534622	0.00427544	
-1.17741	-0.23407	-0.115862	
-0.802019	-0.597332	-0.0857645	
0.685912	-0.256984	0.0597271	
-1.22887	-0.399785	-0.0790376	
0.346715	-0.357769	0.00883421	
1.47043	-0.567338	0.100277	
1.00486	-0.414746	0.104657	
-0.00465425	-0.300823	0.0229603	
0.00134581	-0.271133	-0.00926142	
0.00635075	-0.29012	-0.0490178	
0.000295492	-0.600216	0.00204591	
-0.000748314	-0.193771	0.00297853	
2.12208	0.162518	0.0581545	
-1.25337	-0.196071	-0.098823	
0.0067892	-0.291859	-0.0511699	
0.00101319	-0.344684	-0.0123874	
0.0013211	-0.166426	-0.0163434	
4.4302	0.247877	0.296618	
0.0489926	0.576332	-0.0203602	
0.552459	0.665682	0.0182369	
1.27684	0.417923	0.0886628	
1.2033	0.717568	0.0715475	
-0.909567	0.76741	-0.0849457	
0.00011865	0.737488	-0.0129434	
-0.291353	0.628655	-0.0439436	
0.380281	0.420357	0.00701761	
0.662003	0.517245	0.0365974	
1.14897	0.494994	0.0746552	
0.808232	0.621618	0.0721527	
0.714758	0.602447	0.0411323	
0.493093	0.6645	0.032408	
0.000499462	0.454059	-0.0261322	
1.25889	0.823917	0.0759065	
-0.642375	0.526293	-0.0668059	
-0.269672	0.485327	-0.0218574	
0.802368	0.58415	0.0736424	
-0.175961	0.780028	-0.0519437	
0.0019022	0.539689	-0.0134792	
-0.000508649	0.619833	-0.015074	
0.00175524	0.80369	-0.030347	
0.00219631	0.497165	0.00303282	
0.0118589	0.539301	0.00192202	
9.52099e-05	0.53952	-0.000580603	
-2.40021e-05	0.359839	-0.014181	
0.00273636	0.543757	-0.015438	
-0.796187	0.542424	-0.0548196	
-0.456796	0.68885	-0.0130082	
-1.42809	0.701469	-0.112377	
0.929164	0.727733	0.0694664	
0.0750172	0.596067	0.0100123	
-0.742378	0.406343	-0.0336342	
-2.89419	0.642495	-0.20975	
-0.0371804	0.618695	0.0212826	
-0.441487	0.614519	-0.028044	
-0.167489	0.582309	-0.0152147	
0.000705264	0.767186	0.00933938	
-0.693397	0.480973	-0.0211793	
-1.20207	0.831814	-0.0597418	
0.447514	0.542539	0.0363837	
-0.32157	0.639573	-0.0376734	
0.335508	0.657826	0.029354	
-0.549463	0.787001	-0.014616	
0.854138	0.583923	0.100037	
-0.00119126	0.551466	0.00493204	
-0.000902569	0.614863	0.0108053	
-0.00136785	0.541889	0.0268337	
-0.000344	0.810679	0.0318909	
-0.00135023	0.524662	-0.0116562	
3.03221	-0.287366	0.202311	
-1.50792	0.435545	-0.11294	
-0.003022	0.559851	0.0215316	
-0.0012817	0.632093	-0.00574873	
-0.000557021	0.426796	0.022686	
2.95938	0.0850736	0.203525	
0.450909	0.325919	0.037525	
0.376835	0.316422	0.024566	
0.997011	0.187574	0.0785172	
0.686657	0.347731	0.0541082	
-0.313	0.346546	-0.0323626	
9.09178e-05	0.384669	-0.00579951	
-0.353247	0.32738	-0.0401591	
0.147844	0.201318	0.00772604	
0.36787	0.253967	0.0244984	
1.10305	0.141932	0.0812324	
1.22792	0.325831	0.118904	
0.547724	0.286605	0.0430055	
0.409243	0.324115	0.0369529	
-0.000117029	0.22413	-0.00496219	
0.861562	0.301547	0.0683478	
-0.448867	0.283194	-0.0426702	
-0.403811	0.267836	-0.0380756	
0.524304	0.294749	0.0493786	
0.0420354	0.329098	-0.00103473	
0.000558773	0.294076	-0.00187559	
-0.000159486	0.309056	-0.00162668	
0.000328119	0.349123	-0.007852	
0.00048564	0.274722	0.000344987	
0.00859308	0.306875	5.52308e-05	
5.53424e-05	0.280816	-0.000606142	
-0.000103613	0.16068	-0.00257196	
0.000404515	0.277338	-0.00608772	
-1.23307	0.308945	-0.108085	
-0.247221	0.356132	-0.01207	
-0.936475	0.353995	-0.0803042	
0.588599	0.387899	0.0593777	
0.0982164	0.33085	0.0118786	
-0.56215	0.243883	-0.0392408	
-2.13245	0.170347	-0.164996	
-0.329446	0.32782	-0.0265042	
-0.36394	0.315917	-0.0267629	
-0.0972628	0.326637	-0.011356	
0.000233041	0.348915	0.00465501	
-0.396714	0.257881	-0.0250692	
-0.823508	0.32564	-0.070473	
0.393487	0.302685	0.0395331	
-0.0636561	0.364859	-0.00868732	
0.323842	0.321815	0.0301322	
-0.967551	0.348039	-0.0846391	
0.607795	0.340889	0.0573502	
-0.000532268	0.309779	0.00130597	
-2.65112e-05	0.317759	-0.00161085	
-0.000440744	0.286308	0.0110489	
-0.000335545	0.371022	0.00872648	
-0.000157707	0.304305	-0.00246843	
1.78711	-0.0979088	0.120484	
-1.32187	0.236193	-0.111801	
-0.000696647	0.312065	0.00842113	
-0.000299683	0.328256	-0.00215639	
-8.2019e-05	0.196356	0.00592017	
2.44159	0.0405231	0.171296	
0.599882	0.166879	0.0439577	
0.307893	0.137635	0.0227797	
0.854043	0.0862741	0.0632851	
0.448963	0.164092	0.0349939	
0.00775058	0.162038	-0.000808705	
0.000145844	0.178724	-0.00213793	
-0.424819	0.155529	-0.0349293	
-0.000908789	0.0943013	-0.00119678	
0.225536	0.117891	0.0154303	
1.10591	0.063067	0.0818659	
1.54862	0.154361	0.111521	
0.494404	0.13141	0.0362761	
0.445408	0.152981	0.0338249	
3.24443e-05	0.105751	-0.00125306	
0.66347	0.137365	0.0477571	
-0.340566	0.14529	-0.026135	
-0.504567	0.137595	-0.0412522	
0.447319	0.145453	0.0361142	
0.0841884	0.156868	0.00437456	
0.000134571	0.149269	-0.000648432	
5.43327e-05	0.150434	-0.00060768	
0.000119186	0.159507	-0.00248058	
5.14584e-05	0.139747	0.000230991	
0.00523288	0.146433	0.000458084	
-2.69756e-05	0.14206	-5.52153e-05	
1.20898e-05	0.0740693	-0.000571172	
0.000135481	0.127651	-0.00177037	
-1.5781	0.147089	-0.118102	
-0.166138	0.154659	-0.0110055	
-0.761191	0.167487	-0.0582983	
0.426785	0.180357	0.038022	
0.102485	0.158977	0.00962727	
-0.451268	0.121125	-0.0308724	
-1.82698	0.070557	-0.137189	
-0.495673	0.155847	-0.0358986	
-0.351375	0.144307	-0.0273635	
-0.0895375	0.157975	-0.00763084	
-0.000133799	0.163197	0.00205704	
-0.278902	0.122903	-0.0174491	
-0.632854	0.147673	-0.049507	
0.365645	0.155321	0.0287446	
0.054168	0.175425	0.0037222	
0.303007	0.157486	0.023856	
-0.983356	0.165536	-0.0709148	
0.444204	0.175251	0.0336765	
-0.000103485	0.15809	0.000132922	
-1.78453e-05	0.155866	-0.00034145	
-8.90538e-05	0.133284	0.00237886	
-0.000152657	0.169072	0.00265952	
4.60514e-05	0.154707	-0.000561889	
1.33782	-0.0435947	0.0904316	
-1.17532	0.110244	-0.09105	
-0.000221639	0.142737	0.00244619	
-2.11695e-05	0.163024	-0.00100367	
-7.61837e-05	0.0855997	0.00150192	
2.23942	0.0219154	0.158556	
0.580983	0.0933332	0.043026	
0.271769	0.0673103	0.0207136	
0.818885	0.046602	0.0608999	
0.406593	0.0768273	0.0316622	
0.189988	0.0746101	0.0146813	
-3.22392e-06	0.0840043	0.000367635	
-0.461967	0.0779546	-0.0345326	
-0.0663327	0.0486675	-0.00476098	
0.172638	0.0567751	0.0129209	
1.1287	0.0324257	0.0840815	
1.73194	0.0733066	0.122594	
0.445601	0.0659676	0.0337598	
0.421801	0.0782667	0.0316115	
-1.86269e-05	0.0524918	0.000136632	
0.57039	0.0688846	0.042569	
-0.217758	0.0804073	-0.0161362	
-0.481152	0.0701708	-0.0370865	
0.444404	0.0720459	0.0342054	
0.0875649	0.0800069	0.00675777	
1.47653e-05	0.0845945	0.000124309	
4.05186e-06	0.0731143	0.000223478	
-2.40832e-05	0.0796787	0.000284354	
1.73164e-05	0.0760172	-0.000178026	
0.00390537	0.0752748	0.000165157	
-1.22573e-05	0.0705026	-0.000140245	
-1.56318e-05	0.0396935	0.000185922	
-6.78784e-06	0.0619668	0.000330274	
-1.77091	0.075127	-0.128489	
-0.125757	0.0743761	-0.00975421	
-0.793656	0.0787916	-0.0600009	
0.318811	0.0850785	0.0243999	
0.0813329	0.0809608	0.00617216	
-0.445131	0.0656802	-0.0329574	
-1.72495	0.0347367	-0.129006	
-0.588017	0.0735156	-0.0438844	
-0.319758	0.0707783	-0.0244015	
-0.0187504	0.0821188	-0.0018105	
2.32672e-06	0.0750964	-0.000458251	
-0.259082	0.0611435	-0.0189398	
-0.542077	0.0729395	-0.0416589	
0.291202	0.0844944	0.0219483	
0.0453583	0.0907829	0.00371148	
0.294568	0.0765541	0.0224756	
-0.865778	0.083385	-0.0630594	
0.357012	0.0965679	0.0255177	
-2.02011e-05	0.0879926	-4.0713e-05	
-6.31685e-06	0.0769909	-2.30617e-05	
2.99895e-05	0.0637962	-0.000163125	
2.56268e-05	0.0834045	-0.000314931	
1.03489e-05	0.0821406	0.000259476	
1.14505	-0.0226617	0.0771119	
-1.08994	0.0572585	-0.0828131	
7.79059e-07	0.0681921	-0.000295155	
-2.00927e-05	0.0810623	-3.38833e-08	
1.6837e-05	0.0427415	-0.000221231	
				</DataArray>
				<DataArray type="Float64" Name="Time Step Shed" NumberOfComponents="1" Format="ascii">
3	
3	
3	
3	
3	
3	
3	
3	
3	
3	
3	
3	
3	
3	
3	
3	
3	
3	
3	
3	
3	
3	
3	
3	
3	
3	
3	
3	
3	
3	
3	
3	
3	
3	
3	
3	
3	
3	
3	
3	
3	
3	
3	
3	
3	
3	
3	
3	
3	
3	
3	
3	
3	
3	
3	
3	
4	
4	
4	
4	
4	
4	
4	
4	
4	
4	
4	
4	
4	
4	
4	
4	
4	
4	
4	
4	
4	
4	
4	
4	
4	
4	
4	
4	
4	
4	
4	
4	
4	
4	
4	
4	
4	
4	
4	
4	
4	
4	
4	
4	
4	
4	
4	
4	
4	
4	
4	
4	
4	
4	
4	
4	
5	
5	
5	
5	
5	
5	
5	
5	
5	
5	
5	
5	
5	
5	
5	
5	
5	
5	
5	
5	
5	
5	
5	
5	
5	
5	
5	
5	
5	
5	
5	
5	
5	
5	
5	
5	
5	
5	
5	
5	
5	
5	
5	
5	
5	
5	
5	
5	
5	
5	
5	
5	
5	
5	
5	
5	
6	
6	
6	
6	
6	
6	
6	
6	
6	
6	
6	
6	
6	
6	
6	
6	
6	
6	
6	
6	
6	
6	
6	
6	
6	
6	
6	
6	
6	
6	
6	
6	
6	
6	
6	
6	
6	
6	
6	
6	
6	
6	
6	
6	
6	
6	
6	
6	
6	
6	
6	
6	
6	
6	
6	
6	
7	
7	
7	
7	
7	
7	
7	
7	
7	
7	
7	
7	
7	
7	
7	
7	
7	
7	
7	
7	
7	
7	
7	
7	
7	
7	
7	
7	
7	
7	
7	
7	
7	
7	
7	
7	
7	
7	
7	
7	
7	
7	
7	
7	
7	
7	
7	
7	
7	
7	
7	
7	
7	
7	
7	
7	
8	
8	
8	
8	
8	
8	
8	
8	
8	
8	
8	
8	
8	
8	
8	
8	
8	
8	
8	
8	
8	
8	
8	
8	
8	
8	
8	
8	
8	
8	
8	
8	
8	
8	
8	
8	
8	
8	
8	
8	
8	
8	
8	
8	
8	
8	
8	
8	
8	
8	
8	
8	
8	
8	
8	
8	
9	
9	
9	
9	
9	
9	
9	
9	
9	
9	
9	
9	
9	
9	
9	
9	
9	
9	
9	
9	
9	
9	
9	
9	
9	
9	
9	
9	
9	
9	
9	
9	
9	
9	
9	
9	
9	
9	
9	
9	
9	
9	
9	
9	
9	
9	
9	
9	
9	
9	
9	
9	
9	
9	
9	
9	
10	
10	
10	
10	
10	
10	
10	
10	
10	
10	
10	
10	
10	
10	
10	
10	
10	
10	
10	
10	
10	
10	
10	
10	
10	
10	
10	
10	
10	
10	
10	
10	
10	
10	
10	
10	
10	
10	
10	
10	
10	
10	
10	
10	
10	
10	
10	
10	
10	
10	
10	
10	
10	
10	
10	
10	
11	
11	
11	
11	
11	
11	
11	
11	
11	
11	
11	
11	
11	
11	
11	
11	
11	
11	
11	
11	
11	
11	
11	
11	
11	
11	
11	
11	
11	
11	
11	
11	
11	
11	
11	
11	
11	
11	
11	
11	
11	
11	
11	
11	
11	
11	
11	
11	
11	
11	
11	
11	
11	
11	
11	
11	
				</DataArray>
			</CellData>
			<Points>
				<DataArray type="Float64" Name="Position" NumberOfComponents="3" Format="ascii">
1.15801	1.95973	0.0279261	
1.20838	1.03594	-0.0470598	
1.20811	1.46744	-0.0415593	
1.19989	1.74987	-0.0165426	
1.21343	0.321124	-0.0511211	
1.21699	0.177062	-0.0399788	
1.21773	0.251395	-0.0384722	
1.21567	0.391601	-0.0473579	
1.20144	1.67962	-0.0190845	
1.20572	1.53486	-0.0365733	
1.17963	1.88917	0.0139543	
1.21544	0.107914	-0.0467207	
1.20996	1.32145	-0.0398652	
1.21667	0.463563	-0.0461632	
1.20197	1.6081	-0.0303462	
1.21155	1.2502	-0.0371936	
1.20615	0.895117	-0.0556277	
1.216	0.750353	-0.0267878	
1.21676	0.605354	-0.027768	
1.2099	1.1081	-0.0510241	
1.20807	0.964349	-0.0555144	
1.21811	0.534089	-0.0334373	
1.21051	1.1806	-0.0491016	
1.21369	0.823111	-0.0352778	
1.2139	0.0359837	-0.0469415	
1.21686	0.678629	-0.0427455	
1.19031	1.81879	0.00183827	
1.20942	1.39689	-0.0411119	
1.21364	-0.0373468	-0.0499441	
1.20949	-1.46671	-0.0383568	
1.21253	-0.323067	-0.0500281	
1.21869	-0.248953	-0.0377851	
1.21302	-0.394619	-0.050571	
1.2063	-1.68059	-0.0163217	
1.1835	-1.89132	0.0213106	
1.21555	-0.110047	-0.0467527	
1.21223	-1.324	-0.0386159	
1.21464	-0.465027	-0.0448492	
1.21737	-0.177951	-0.0363408	
1.20722	-1.60737	-0.0320122	
1.21395	-1.25057	-0.0387128	
1.20811	-0.894117	-0.0519052	
1.21559	-0.751522	-0.038996	
1.21482	-0.607886	-0.0324387	
1.2123	-1.10657	-0.0471084	
1.20867	-1.03704	-0.0449646	
1.21033	-0.964867	-0.052866	
1.21464	-0.535789	-0.0460445	
1.20271	-1.53649	-0.0476309	
1.21285	-1.1794	-0.0447946	
1.21296	-0.82417	-0.0428291	
1.16075	-1.96443	0.0339129	
1.20225	-1.74921	-0.0097225	
1.21133	-1.3977	-0.0426659	
1.21301	-0.678795	-0.049945	
1.19603	-1.82192	0.00508738	
1.05918	1.96165	0.0159166	
1.09278	1.03316	0.0447828	
1.08293	1.46214	0.0327564	
1.07178	1.74436	0.0168077	
1.09379	0.321929	0.0534923	
1.09422	0.176714	0.0520175	
1.09444	0.251215	0.0541501	
1.09312	0.39176	0.0524181	
1.06561	1.67435	0.00229671	
1.06998	1.53195	0.0103924	
1.0637	1.88769	0.0122072	
1.09468	0.10901	0.0538059	
1.08266	1.31952	0.0352045	
1.09165	0.459879	0.049393	
1.07857	1.6028	0.023995	
1.08321	1.24478	0.0385546	
1.0903	0.894653	0.0450312	
1.08395	0.749067	0.0421143	
1.08886	0.602806	0.0479187	
1.09124	1.10575	0.0448229	
1.09017	0.962444	0.0437303	
1.09131	0.532414	0.051141	
1.08858	1.1785	0.0428303	
1.08953	0.822148	0.0459733	
1.09344	0.0380907	0.0515413	
1.09157	0.676542	0.0532773	
1.06468	1.8168	0.00677118	
1.08535	1.39069	0.0381812	
1.09564	-0.037365	0.0560969	
1.08031	-1.46368	0.0322469	
1.09424	-0.323658	0.055406	
1.09229	-0.249738	0.0552881	
1.0925	-0.39498	0.0536204	
1.07181	-1.67463	0.0208644	
1.06519	-1.89173	0.0268633	
1.0946	-0.10878	0.0546829	
1.08678	-1.32128	0.0449261	
1.09006	-0.467199	0.0515379	
1.09361	-0.17703	0.0535572	
1.07868	-1.60216	0.0305839	
1.08502	-1.25171	0.0446435	
1.08952	-0.893514	0.046447	
1.08658	-0.750265	0.0469159	
1.08854	-0.604663	0.0469986	
1.09039	-1.1045	0.0457935	
1.08998	-1.0339	0.0446318	
1.09071	-0.96223	0.0485383	
1.0901	-0.53258	0.0509556	
1.08502	-1.52942	0.0357519	
1.09274	-1.17661	0.0499529	
1.08909	-0.823243	0.0478218	
1.05985	-1.96704	0.0228924	
1.07226	-1.74616	0.0256148	
1.08511	-1.39206	0.0419611	
1.09298	-0.678477	0.05446	
1.06949	-1.81925	0.0261682	
0.823099	1.96337	-0.0225079	
0.754961	1.03458	-0.0408974	
0.758278	1.46433	-0.0509816	
0.761732	1.74859	-0.0565181	
0.754827	0.317567	-0.0320882	
0.754507	0.178569	-0.0253541	
0.753324	0.249449	-0.0266954	
0.753443	0.389919	-0.0241364	
0.760972	1.67534	-0.0604985	
0.759434	1.53235	-0.0562407	
0.764561	1.8889	-0.0352896	
0.754373	0.106094	-0.0271795	
0.756598	1.3193	-0.0443948	
0.754245	0.464827	-0.0290549	
0.760232	1.60164	-0.0587738	
0.755808	1.24659	-0.0415882	
0.754699	0.893002	-0.0349786	
0.753988	0.748645	-0.0262113	
0.754242	0.602488	-0.0273672	
0.755768	1.1063	-0.0435464	
0.75509	0.963436	-0.0388162	
0.754955	0.534887	-0.0303932	
0.754577	1.17805	-0.0425209	
0.754047	0.819766	-0.0298079	
0.754877	0.0340582	-0.0281468	
0.754218	0.678448	-0.0261288	
0.762329	1.81536	-0.0443231	
0.757662	1.39405	-0.0463744	
0.754643	-0.0367442	-0.0288295	
0.757275	-1.46172	-0.041756	
0.753791	-0.320045	-0.0249584	
0.753371	-0.252274	-0.0211061	
0.753632	-0.393743	-0.0244403	
0.759569	-1.6766	-0.0392867	
0.762738	-1.89517	-0.0158013	
0.75401	-0.109253	-0.0266443	
0.755768	-1.32186	-0.0358388	
0.752377	-0.465661	-0.0260009	
0.75351	-0.178434	-0.0200501	
0.759369	-1.60336	-0.0432487	
0.755806	-1.24892	-0.0341964	
0.753556	-0.893057	-0.0327084	
0.754006	-0.751433	-0.0287525	
0.753659	-0.61142	-0.0277054	
0.755573	-1.10423	-0.0400032	
0.754204	-1.03385	-0.0355934	
0.753655	-0.965528	-0.0342417	
0.75392	-0.538236	-0.0318489	
0.759049	-1.5326	-0.0423945	
0.75455	-1.17735	-0.0355713	
0.753542	-0.822127	-0.0295527	
0.822548	-1.96704	-0.0163928	
0.759575	-1.74711	-0.0310509	
0.757825	-1.39099	-0.0363955	
0.75388	-0.682762	-0.0283263	
0.760855	-1.82242	-0.0223153	
0.591127	1.96491	-0.0468729	
0.494419	1.03457	-0.108938	
0.492973	1.46524	-0.110827	
0.490179	1.75236	-0.102376	
0.494816	0.320192	-0.0967776	
0.491847	0.178164	-0.0909307	
0.493455	0.250242	-0.0949431	
0.493574	0.393369	-0.0963379	
0.491282	1.67899	-0.109084	
0.493072	1.53632	-0.113603	
0.48643	1.89257	-0.0759203	
0.49263	0.10456	-0.0921691	
0.492337	1.32432	-0.111373	
0.493225	0.462742	-0.0945017	
0.492686	1.60849	-0.113978	
0.492741	1.25094	-0.111407	
0.493919	0.892452	-0.0971566	
0.493372	0.751544	-0.0936127	
0.492474	0.605925	-0.091157	
0.493684	1.10598	-0.11139	
0.493961	0.964413	-0.102822	
0.494611	0.535579	-0.093829	
0.493313	1.17915	-0.112698	
0.494783	0.82068	-0.0992493	
0.493683	0.0328428	-0.0916022	
0.493285	0.678091	-0.0911703	
0.48829	1.82015	-0.0885646	
0.4922	1.39497	-0.111616	
0.494141	-0.0366271	-0.0926264	
0.492257	-1.46133	-0.100665	
0.493243	-0.322858	-0.0910571	
0.49266	-0.252288	-0.0900761	
0.493261	-0.396866	-0.0921265	
0.489674	-1.68298	-0.0901454	
0.485021	-1.89269	-0.0625046	
0.493071	-0.109713	-0.0920285	
0.491388	-1.32445	-0.100781	
0.49317	-0.466346	-0.0917554	
0.492	-0.179668	-0.0884827	
0.491374	-1.60949	-0.10011	
0.492944	-1.25042	-0.10446	
0.493564	-0.891891	-0.0951817	
0.494138	-0.752695	-0.0960259	
0.491662	-0.60794	-0.0919645	
0.492924	-1.11035	-0.103789	
0.49391	-1.03663	-0.10163	
0.493576	-0.964532	-0.097624	
0.49351	-0.5379	-0.092004	
0.491812	-1.53655	-0.101659	
0.493094	-1.17935	-0.104264	
0.494225	-0.822196	-0.0968297	
0.590455	-1.96611	-0.04113	
0.490583	-1.74716	-0.0847895	
0.491821	-1.39464	-0.100732	
0.494007	-0.68022	-0.0928157	
0.487301	-1.82275	-0.0693438	
0.360216	1.96681	-0.0725837	
0.207541	1.03631	-0.147694	
0.205983	1.4667	-0.136598	
0.202968	1.75218	-0.110964	
0.207506	0.321469	-0.141496	
0.207507	0.177568	-0.137624	
0.208884	0.250152	-0.144765	
0.205768	0.394603	-0.133809	
0.203192	1.67879	-0.117924	
0.204112	1.53922	-0.130552	
0.202525	1.89489	-0.101515	
0.205347	0.10735	-0.124153	
0.206317	1.32335	-0.149622	
0.205295	0.465293	-0.128897	
0.203731	1.60672	-0.12388	
0.209306	1.254	-0.167965	
0.203814	0.892182	-0.115901	
0.202331	0.748066	-0.105609	
0.204153	0.606854	-0.113436	
0.209714	1.10549	-0.166288	
0.205338	0.963625	-0.131832	
0.205273	0.533706	-0.122204	
0.210626	1.17797	-0.175872	
0.202734	0.82045	-0.105854	
0.205459	0.0341852	-0.121678	
0.20328	0.676583	-0.107347	
0.202841	1.81795	-0.100569	
0.205119	1.39215	-0.137277	
0.205747	-0.0372078	-0.1241	
0.206829	-1.46727	-0.137397	
0.206715	-0.325395	-0.131565	
0.208772	-0.252151	-0.141361	
0.204617	-0.398294	-0.116278	
0.203777	-1.67875	-0.115309	
0.2025	-1.89391	-0.0985199	
0.205922	-0.110828	-0.13055	
0.206217	-1.32247	-0.143404	
0.203725	-0.466168	-0.117018	
0.208099	-0.178919	-0.140014	
0.204674	-1.60827	-0.124231	
0.208873	-1.25396	-0.16104	
0.204097	-0.893915	-0.115468	
0.205022	-0.75003	-0.123179	
0.205271	-0.607984	-0.120909	
0.209053	-1.10728	-0.156678	
0.207001	-1.03656	-0.138082	
0.205659	-0.96583	-0.126329	
0.204957	-0.534179	-0.116466	
0.205569	-1.53698	-0.131246	
0.210251	-1.18172	-0.165092	
0.203572	-0.822478	-0.113727	
0.359608	-1.96663	-0.0691574	
0.203327	-1.74617	-0.106537	
0.2055	-1.39219	-0.133881	
0.205568	-0.679069	-0.12476	
0.202208	-1.81937	-0.0956749	
0.129606	1.96511	-0.0946781	
-0.0796309	1.03423	-0.152023	
-0.0814097	1.46429	-0.139363	
-0.0827261	1.74841	-0.122699	
-0.0812837	0.321076	-0.141885	
-0.0812594	0.178615	-0.141719	
-0.0805594	0.250139	-0.144693	
-0.0817576	0.393142	-0.138155	
-0.0824728	1.6775	-0.127443	
-0.0817379	1.53369	-0.135961	
-0.0835577	1.8933	-0.11543	
-0.0810566	0.106963	-0.140513	
-0.0811414	1.32116	-0.145835	
-0.0823812	0.462123	-0.133882	
-0.0821485	1.60583	-0.132088	
-0.0805196	1.2486	-0.152935	
-0.0819541	0.889891	-0.136738	
-0.0830086	0.750108	-0.12142	
-0.0821268	0.607982	-0.12415	
-0.0799654	1.10568	-0.155887	
-0.0806017	0.962731	-0.147393	
-0.0822184	0.537072	-0.130647	
-0.0803664	1.1753	-0.157919	
-0.0826883	0.821196	-0.126216	
-0.0810472	0.035331	-0.141478	
-0.0834033	0.675074	-0.121559	
-0.0832411	1.81999	-0.115089	
-0.0801164	1.38868	-0.141752	
-0.0810297	-0.0370564	-0.140168	
-0.0808038	-1.46557	-0.14468	
-0.0814993	-0.322651	-0.135277	
-0.0807529	-0.252282	-0.139692	
-0.0818131	-0.395599	-0.131643	
-0.0817112	-1.67825	-0.130826	
-0.0837179	-1.89157	-0.113509	
-0.0812355	-0.109147	-0.136735	
-0.0808873	-1.32104	-0.143516	
-0.0826054	-0.466007	-0.128059	
-0.0812092	-0.178038	-0.137538	
-0.0814714	-1.6059	-0.137971	
-0.0803388	-1.24937	-0.149431	
-0.0812763	-0.896399	-0.132921	
-0.0815243	-0.751427	-0.133435	
-0.0819895	-0.608628	-0.127636	
-0.0798948	-1.10642	-0.155813	
-0.0798121	-1.03466	-0.151832	
-0.0808164	-0.964758	-0.145223	
-0.0820596	-0.537351	-0.127008	
-0.0812221	-1.53532	-0.140253	
-0.0797263	-1.17927	-0.154315	
-0.0820815	-0.822273	-0.13022	
0.129281	-1.96456	-0.092969	
-0.0823717	-1.74744	-0.123677	
-0.0809402	-1.39222	-0.141215	
-0.0822264	-0.678334	-0.131797	
-0.0833661	-1.81922	-0.112352	
-0.10116	1.96487	-0.118009	
-0.367006	1.03322	-0.159478	
-0.367646	1.46407	-0.150113	
-0.367806	1.74956	-0.147257	
-0.368241	0.322037	-0.148638	
-0.368164	0.179878	-0.150294	
-0.368054	0.250644	-0.151121	
-0.368366	0.393266	-0.148507	
-0.367772	1.67898	-0.147339	
-0.367565	1.534	-0.149079	
-0.368014	1.89395	-0.143852	
-0.367759	0.106095	-0.15248	
-0.36761	1.32051	-0.151676	
-0.368377	0.463031	-0.148277	
-0.367628	1.60595	-0.148776	
-0.367483	1.24929	-0.154473	
-0.367684	0.891648	-0.153101	
-0.368256	0.75131	-0.144885	
-0.368819	0.606449	-0.142938	
-0.367327	1.10606	-0.15758	
-0.367309	0.963123	-0.159455	
-0.368132	0.536464	-0.145733	
-0.367382	1.1753	-0.156153	
-0.368191	0.820593	-0.147742	
-0.367412	0.0348167	-0.157383	
-0.368856	0.678576	-0.142616	
-0.368136	1.81951	-0.14087	
-0.367491	1.39223	-0.150655	
-0.367554	-0.0356613	-0.155683	
-0.367535	-1.46377	-0.153086	
-0.368537	-0.322064	-0.145224	
-0.368197	-0.251565	-0.147929	
-0.368522	-0.394591	-0.143738	
-0.3675	-1.6777	-0.149922	
-0.368079	-1.892	-0.14123	
-0.368158	-0.106764	-0.148433	
-0.367648	-1.32186	-0.150518	
-0.368654	-0.464623	-0.142895	
-0.368427	-0.179741	-0.146122	
-0.367207	-1.60664	-0.15262	
-0.367511	-1.25022	-0.152476	
-0.367875	-0.893873	-0.151476	
-0.367965	-0.752154	-0.149301	
-0.368676	-0.607099	-0.141584	
-0.366889	-1.10898	-0.160587	
-0.366792	-1.0362	-0.158292	
-0.367498	-0.96362	-0.157701	
-0.368278	-0.537318	-0.142257	
-0.367009	-1.53251	-0.152994	
-0.366968	-1.17957	-0.156756	
-0.368327	-0.82214	-0.148115	
-0.10136	-1.96438	-0.117025	
-0.367725	-1.74889	-0.145637	
-0.367686	-1.39351	-0.151051	
-0.368395	-0.679827	-0.145959	
-0.368336	-1.82032	-0.138491	
-0.332008	1.96432	-0.140386	
-0.65114	1.03365	-0.182509	
-0.651495	1.46345	-0.176805	
-0.651445	1.7491	-0.177183	
-0.651778	0.322978	-0.175508	
-0.651857	0.17944	-0.176762	
-0.65181	0.250641	-0.17667	
-0.651795	0.392666	-0.176282	
-0.651503	1.6776	-0.176286	
-0.651275	1.533	-0.176221	
-0.651807	1.89256	-0.172485	