<VTKFile type="UnstructuredGrid" version="0.1" byte_order="LittleEndian">
	<UnstructuredGrid>
		<Piece NumberOfPoints="784" NumberOfCells="784">
			<CellData Scalars="scalars">
				<DataArray type="Float64" Name="Strength" NumberOfComponents="3" Format="ascii">
0.55166	-0.357092	-0.10154	
0.00809912	-1.04363	0.00194297	
0.000761889	-0.939527	0.0132472	
0.0794422	-0.819614	0.025578	
0.000547397	-1.0677	0.00734309	
-0.0215807	-1.00629	0.00875416	
-2.91248e-06	-1.05348	0.00053594	
-0.00978975	-1.04956	0.0100707	
-0.0134139	-0.854704	0.0723328	
0.00369815	-0.920359	0.01515	
0.136851	-0.570548	0.0376671	
0.0125767	-1.02636	-0.00620216	
-0.00977637	-0.972792	0.0226142	
-0.00885041	-1.04335	-0.00208362	
-0.0376351	-0.888074	0.0501597	
0.0501674	-0.964818	-0.00758095	
0.0253114	-1.04718	-0.00428088	
-0.00243868	-1.01727	0.00634085	
0.00616951	-1.03542	-0.0137525	
-0.0258507	-1.02934	0.0261768	
0.00560452	-1.03086	0.00402649	
-0.0172834	-1.02969	7.02182e-06	
-0.0153927	-1.04722	0.0279536	
0.02656	-1.05485	-0.0100363	
0.000496924	-1.05471	-0.00124595	
0.00750248	-1.02507	-0.00192318	
-0.0226619	-0.709684	0.0879653	
-0.0148422	-0.957307	0.0199773	
-0.00973427	-1.0558	0.000222049	
-0.00626231	-0.944192	-0.0129011	
-0.0209944	-1.06842	0.00811226	
0.0290072	-1.05536	-0.0136936	
0.00384535	-1.03886	0.00269283	
0.00499966	-0.83514	-0.0677547	
-0.321508	-0.59002	-0.00591081	
-0.00586863	-1.02687	-0.000183044	
0.0129591	-0.976829	-0.0229132	
0.0297341	-1.03995	0.000245891	
0.00500396	-1.00826	-0.000715415	
0.0119436	-0.878712	-0.042918	
-0.05218	-0.96581	0.00983578	
-0.023516	-1.05659	0.00531104	
0.00413292	-1.10288	-0.00654536	
-0.0261427	-1.02532	0.0180072	
0.00501063	-1.03162	-0.0192677	
0.0195395	-1.04619	-0.0193099	
0.00554047	-1.03565	-0.00772913	
0.00338631	-1.07009	0.00985981	
0.0348282	-0.916466	-0.0392453	
0.0167998	-1.0486	-0.0336921	
-0.0134839	-1.07452	-0.00125047	
-0.326473	-0.363292	0.00401321	
-0.0319358	-0.814619	-0.0921973	
0.0160424	-0.962802	-0.0210217	
-0.00504263	-1.05302	0.00511243	
0.0255846	-0.692929	-0.154503	
1.50266	0.0231561	-0.0738141	
0.0489664	-0.192202	-0.00611388	
0.12489	-0.164806	-0.0108432	
0.517098	-0.118438	-0.0440493	
-0.00953551	-0.206435	0.00320805	
-0.0480363	-0.206427	0.00816363	
0.000192798	-0.204749	0.000316797	
-0.0147598	-0.207964	0.004551	
0.154483	-0.133532	-0.00541698	
0.149062	-0.160394	-0.0143374	
0.511777	-0.0633251	-0.0347624	
0.0490292	-0.210498	-0.00973913	
0.038912	-0.182328	0.000638116	
0.0251154	-0.205372	-0.00328319	
-0.00111302	-0.150461	0.0105059	
0.246333	-0.187739	-0.0362416	
0.0454066	-0.192104	-0.00704105	
-0.0682333	-0.20447	0.0134105	
0.0703124	-0.20424	-0.0133291	
-0.0296488	-0.194377	0.0099294	
0.00146875	-0.191191	0.00137911	
-0.000966159	-0.204885	0.000284285	
-0.00073631	-0.189668	0.00556993	
0.00308682	-0.201614	-0.000364637	
0.00491507	-0.209095	-0.00230787	
0.00129006	-0.204623	9.77474e-05	
0.00204744	-0.101879	0.0107181	
0.000913265	-0.176956	0.00915643	
-0.0485603	-0.209673	0.00669154	
-0.144991	-0.165927	0.0151436	
-0.0214298	-0.208688	0.00568146	
0.124176	-0.205927	-0.0207758	
0.0319378	-0.210234	-0.00303649	
-0.26502	-0.147314	0.025068	
-1.26611	-0.105828	0.180445	
-0.0737165	-0.212096	0.013193	
-0.0290752	-0.182974	-0.00328083	
0.0784017	-0.207842	-0.011807	
0.000175435	-0.205602	0.000262007	
-0.176003	-0.156021	0.0131785	
-0.246306	-0.189091	0.0350251	
-0.0904009	-0.194178	0.0155464	
0.0514136	-0.202128	-0.011057	
-0.0872675	-0.20608	0.0167301	
-0.0590497	-0.196586	0.00586208	
0.0283732	-0.192787	-0.00878086	
-8.37859e-05	-0.192278	-0.00241523	
-0.00016877	-0.200997	0.00157048	
0.00129262	-0.159713	-0.0132993	
0.000871147	-0.189932	-0.00613922	
-0.00171352	-0.202825	-0.00124563	
-0.724472	-0.0457446	0.0538871	
-0.369601	-0.13935	0.0507635	
-0.000951275	-0.177429	-0.0101023	
-0.00120208	-0.206186	-0.000258453	
-0.000552761	-0.101887	-0.0232197	
2.50257	0.0968312	0.0160091	
0.086796	-0.0592003	0.00441535	
0.244838	-0.0433527	0.0181114	
0.905125	-0.00317103	0.0606683	
-0.0255979	-0.0692968	-0.000346086	
-0.0594697	-0.0706415	-0.00194399	
-4.90082e-05	-0.0688557	-0.000171601	
-0.0290049	-0.0706806	-0.000466679	
0.289164	-0.0280977	0.0311708	
0.272336	-0.0407379	0.0310204	
0.871433	0.0160988	0.0107861	
0.0766627	-0.0732052	0.00146596	
0.0874665	-0.0546443	0.00756894	
0.040983	-0.0706599	0.00135778	
0.000231667	-0.0414464	0.00642833	
0.417358	-0.0525829	0.0217556	
0.0934975	-0.0601061	0.00369179	
-0.101535	-0.0700323	-0.0013729	
0.132462	-0.0680525	0.00289777	
-0.0390204	-0.0609705	0.000503498	
0.000187985	-0.0605547	0.00105274	
0.000140315	-0.0710036	0.000301699	
0.000468313	-0.0590413	0.00277639	
0.000149796	-0.0658809	0.000467084	
0.00990998	-0.0724977	-8.07319e-05	
0.000110522	-0.0693828	0.000611763	
0.000991652	-0.0263363	0.0059674	
0.00047263	-0.0536636	0.00435687	
-0.0729606	-0.0725783	-0.00192817	
-0.281779	-0.0426889	-0.00805527	
-0.0305605	-0.0697682	4.80954e-05	
0.201141	-0.0687861	0.00331429	
0.0525775	-0.0701402	0.00243348	
-0.485921	-0.0262536	-0.0335867	
-2.19802	0.0524351	-0.00593492	
-0.138327	-0.0735927	-0.00243252	
-0.072089	-0.0550345	-0.0048735	
0.11098	-0.0688333	0.00464673	
5.36649e-05	-0.0709997	0.000449173	
-0.318161	-0.0353848	-0.0225393	
-0.417315	-0.0523605	-0.0145743	
-0.16663	-0.0595183	-0.00576718	
0.0814749	-0.0636038	0.00125548	
-0.143753	-0.0667867	-0.003882	
-0.110672	-0.0598876	-0.00576289	
0.0423675	-0.0599859	-0.000314454	
-0.000173775	-0.060369	-0.00150358	
-1.54231e-05	-0.0646265	0.000403908	
-0.000426208	-0.045535	-0.0058529	
-0.000554504	-0.0590748	-0.00296154	
-0.000184632	-0.0646015	-0.000920915	
1.16799	-0.0175448	-0.0303606	
-0.66239	-0.0110774	-0.0237305	
-0.000552421	-0.0536297	-0.00429226	
-0.000116529	-0.0660911	-0.000194966	
-0.00111492	-0.0285703	-0.00327922	
3.29545	0.0565253	0.161651	
0.135691	0.0823934	-0.00517407	
0.325893	0.0871772	0.00023091	
1.12099	0.0950822	0.00680339	
-0.0210484	0.0768348	-2.61022e-05	
-0.0817995	0.0761462	-0.00574366	
0.000120448	0.0759855	-0.000724799	
-0.0354055	0.0777923	0.00307999	
0.360003	0.0808595	-0.00362577	
0.361565	0.0846637	0.00375954	
1.09412	0.059045	0.029252	
0.114318	0.0744532	-0.00326444	
0.107797	0.0878719	0.00635661	
0.0582511	0.0784599	0.0059631	
-0.000411545	0.0787627	-0.0111888	
0.580466	0.099298	0.0451426	
0.152603	0.0804328	-0.00631994	
-0.128917	0.0810077	-0.000407696	
0.183125	0.0782773	0.00906531	
-0.052691	0.0854533	-0.012257	
0.000914946	0.0822199	-0.00950063	
-5.32823e-05	0.0780703	0.00252614	
-0.000629634	0.0863132	-0.00441541	
7.09984e-06	0.0810179	-0.00277672	
0.0174452	0.0754729	-0.000302803	
-0.000128696	0.0790226	0.00213632	
-0.00159025	0.0509452	-0.0101421	
-0.00193455	0.08466	-4.00509e-05	
-0.0983612	0.0746696	0.00242256	
-0.37848	0.0905372	0.00158508	
-0.0714536	0.0752258	-0.00717896	
0.281489	0.073959	0.0186759	
0.0652377	0.0776149	-0.00494985	
-0.574084	0.089888	-0.0303003	
-2.78757	0.0774765	-0.133265	
-0.194022	0.0724884	-0.000575049	
-0.0886474	0.0887192	-0.00360057	
0.152087	0.0776674	-0.00707159	
-9.00209e-05	0.0738286	-0.00016251	
-0.422442	0.0867309	-0.0264321	
-0.578056	0.0984387	-0.0397973	
-0.247808	0.0849408	0.00565146	
0.0967768	0.0820151	0.00252322	
-0.214148	0.0809013	-0.0115826	
-0.159761	0.0871702	0.00246807	
0.056015	0.0851425	0.0109509	
-0.000812071	0.0845157	0.00873403	
-0.000319773	0.07842	0.000528129	
0.000368629	0.0827495	0.00631766	
0.000455466	0.0873383	0.00589372	
0.000353806	0.0842016	0.0010752	
1.592	-0.0225602	0.0449408	
-0.8055	0.0897443	-0.0295375	
0.00209965	0.0858068	0.00172336	
0.000159641	0.0815407	-0.000863512	
0.00116328	0.048478	0.00490124	
5.70437	-0.0905038	0.290359	
-2.02283	-0.44921	-0.2022	
0.607974	-0.417419	0.225408	
1.56605	-0.129894	0.0756112	
1.94703	-0.452663	0.143943	
-1.78147	-0.552357	-0.116542	
-0.00100939	-0.554112	-0.00687831	
-0.620229	-0.312564	0.0273143	
0.627374	-0.100801	0.0529807	
1.14105	-0.214704	0.143839	
-0.252989	-0.267961	0.00639373	
-0.102757	-0.366565	-0.0231621	
3.06229	-0.419399	0.275822	
0.761189	-0.407728	0.115656	
-0.00479928	-0.107904	0.037472	
0.81456	-0.553709	0.188918	
-0.97549	-0.251158	-0.129847	
0.162774	-0.122038	0.0168496	
1.45153	-0.262512	0.145301	
-0.327916	-0.527106	-0.0740464	
0.0172537	-0.261539	-0.0738288	
-0.0126701	-0.307006	0.0592367	
-0.00714457	-0.554525	0.0347454	
0.00368181	-0.143123	-0.0140509	
0.0183706	-0.340429	0.0118697	
-0.00439276	-0.17857	0.0257481	
-0.000536858	-0.0809004	0.012709	
-0.0159733	-0.194874	0.0911473	
0.0928161	-0.340466	0.0220582	
-0.434561	-0.519306	-0.238111	
-2.34435	-0.459713	-0.201996	
0.412983	-0.532514	-0.0248493	
0.00670704	-0.283391	-0.0447296	
-1.03483	-0.224187	-0.130459	
-3.6404	-0.452607	-0.280543	
1.29939	-0.369032	0.0852624	
-2.74494	-0.454927	-0.228102	
0.185455	-0.269651	-0.0120845	
0.00170957	-0.534518	0.0112793	
-1.16517	-0.257856	-0.174423	
-0.790005	-0.607612	-0.118492	
0.680211	-0.267217	0.0775646	
-1.22844	-0.398885	-0.0896781	
0.349636	-0.355028	-0.00289632	
1.45948	-0.590793	0.122833	
0.987907	-0.43836	0.156921	
-0.0153634	-0.297469	0.0483453	
0.00437311	-0.270626	-0.0184868	
0.0210004	-0.276453	-0.0987626	
0.000741327	-0.600187	0.00574516	
-0.0024399	-0.193657	0.00685854	
2.12224	0.16425	0.0476954	
-1.24896	-0.213268	-0.117326	
0.0202144	-0.277936	-0.100835	
0.00305833	-0.343889	-0.0262774	
0.00337485	-0.164289	-0.0310151	
4.43007	0.252296	0.29597	
0.0511289	0.574283	-0.0505725	
0.551579	0.666644	-0.00794675	
1.27052	0.431238	0.11322	
1.19753	0.727106	0.0726636	
-0.90543	0.765131	-0.135189	
-0.0017031	0.736955	-0.0306895	
-0.293057	0.624297	-0.0799659	
0.377125	0.42307	-0.0128723	
0.659554	0.520951	0.0279175	
1.14828	0.496812	0.0738725	
0.802547	0.623783	0.108039	
0.714577	0.60303	0.0360412	
0.486228	0.669407	0.0353171	
-0.00250646	0.450339	-0.0635446	
1.25582	0.828242	0.0803666	
-0.633838	0.53114	-0.10114	
-0.265573	0.487033	-0.0316818	
0.796752	0.588053	0.0993878	
-0.171981	0.775235	-0.107394	
0.00684211	0.53899	-0.0297534	
-0.00549887	0.618848	-0.0373995	
0.00300752	0.801035	-0.0719517	
0.00728027	0.49709	0.00549397	
0.0129299	0.539251	0.00486335	
-0.000258823	0.539509	-0.00217584	
-0.00111244	0.358459	-0.0344606	
0.004549	0.542374	-0.0415728	
-0.79073	0.548544	-0.0708448	
-0.454573	0.690361	0.0122456	
-1.42202	0.706668	-0.150692	
0.930866	0.723628	0.0873817	
0.0752097	0.595842	0.0181089	
-0.73818	0.414311	-0.029307	
-2.89273	0.642102	-0.231115	
-0.0352414	0.617339	0.0475589	
-0.440569	0.615023	-0.0316446	
-0.166604	0.582516	-0.0168463	
0.00411457	0.767019	0.0176369	
-0.68927	0.487356	-0.00415903	
-1.19822	0.837531	-0.0582464	
0.439674	0.548225	0.0454647	
-0.32435	0.635899	-0.0657787	
0.33286	0.658474	0.0419762	
-0.548249	0.787992	-0.00476026	
0.847821	0.578859	0.163156	
-0.00520164	0.551321	0.0126169	
-0.00140825	0.614368	0.0267126	
0.00313545	0.537965	0.0707596	
0.000966158	0.808102	0.0719284	
-0.00605144	0.524	-0.0281063	
3.03269	-0.28549	0.19854	
-1.49948	0.45205	-0.153897	
-0.00580367	0.557916	0.0508407	
-0.00460486	0.632006	-0.0107798	
-0.000845985	0.424812	0.0468418	
2.95903	0.0867716	0.208548	
0.449627	0.32579	0.0515419	
0.37709	0.316549	0.0186387	
0.99448	0.191867	0.0980682	
0.684022	0.350492	0.0681328	
-0.310602	0.346003	-0.0540101	
-0.00010052	0.384395	-0.0155836	
-0.349627	0.326242	-0.0700641	
0.147522	0.201679	0.00373684	
0.367529	0.254932	0.0194074	
1.10244	0.142938	0.0877198	
1.21883	0.32604	0.190143	
0.547529	0.285438	0.0524592	
0.407111	0.324586	0.0529711	
2.54437e-05	0.223693	-0.0148421	
0.859882	0.301284	0.0880861	
-0.445155	0.28461	-0.0657555	
-0.40087	0.269208	-0.0554416	
0.521952	0.294789	0.0699006	
0.0436979	0.328777	-0.00845528	
0.00180734	0.293988	-0.0072647	
-0.000358985	0.309006	-0.00564542	
0.00289275	0.348508	-0.022006	
0.00150057	0.274716	-0.000517466	
0.00874843	0.306863	0.00171262	
0.000537358	0.280812	-0.00101998	
1.38437e-05	0.160495	-0.0081298	
0.00266436	0.276814	-0.0178884	
-1.22545	0.314417	-0.164478	
-0.248211	0.355668	-0.00106506	
-0.931501	0.357928	-0.113983	
0.586134	0.384512	0.0952072	
0.0973151	0.330638	0.021295	
-0.560776	0.245967	-0.0456603	
-2.13071	0.170629	-0.18619	
-0.326597	0.329356	-0.0396904	
-0.364408	0.315184	-0.0292031	
-0.0972114	0.326322	-0.0186293	
0.00115726	0.348756	0.0113703	
-0.39577	0.25918	-0.0268633	
-0.821243	0.324277	-0.0981083	
0.389925	0.303474	0.0621801	
-0.0641028	0.364445	-0.0178797	
0.321626	0.322496	0.0434966	
-0.963481	0.346508	-0.126892	
0.602864	0.342335	0.0908174	
-0.00161385	0.309743	0.00447207	
-0.000419555	0.317755	-0.00161103	
-0.00128323	0.285071	0.0286159	
-0.00264171	0.37049	0.0214895	
-0.00117819	0.304202	-0.00810406	
1.78698	-0.0974517	0.12331	
-1.31715	0.24071	-0.151248	
-0.00367754	0.310992	0.0270473	
-0.00102867	0.328188	-0.00688739	
-0.000635138	0.195809	0.015783	
2.44123	0.0413931	0.176676	
0.599264	0.166468	0.0529036	
0.307837	0.137899	0.0219348	
0.853215	0.0880534	0.0713134	
0.448476	0.165182	0.0359489	
0.00763735	0.161998	-0.00360986	
-1.16743e-05	0.178612	-0.00645148	
-0.423833	0.154426	-0.0488304	
-0.000845656	0.0942117	-0.00422219	
0.225608	0.118108	0.0124586	
1.10557	0.0636299	0.0854107	
1.54452	0.1563	0.156476	
0.494072	0.13181	0.0391351	
0.444517	0.153537	0.0419494	
0.00011105	0.105652	-0.00465293	
0.662944	0.13803	0.0527002	
-0.339478	0.145881	-0.0352329	
-0.503361	0.138231	-0.0521244	
0.446627	0.145647	0.0430793	
0.0845033	0.156756	0.000858024	
0.000546275	0.149246	-0.00270741	
0.000118971	0.15042	-0.00213072	
0.000638853	0.159285	-0.00853813	
0.000273319	0.139749	-0.000234838	
0.00521733	0.146432	0.00117802	
4.07265e-05	0.142061	0.000315188	
4.25223e-05	0.0740293	-0.00246253	
0.000496769	0.127491	-0.00639876	
-1.57299	0.150256	-0.170383	
-0.166259	0.154671	-0.00881877	
-0.759674	0.169484	-0.0707199	
0.426286	0.178551	0.0497894	
0.102157	0.158774	0.0148884	
-0.450744	0.122326	-0.0336368	
-1.82609	0.0709365	-0.147722	
-0.49463	0.15806	-0.0401906	
-0.350949	0.144199	-0.0328822	
-0.0893581	0.158034	-0.00852347	
0.000169791	0.163099	0.00570797	
-0.278627	0.123529	-0.0173455	
-0.631825	0.147636	-0.0613019	
0.364444	0.156121	0.0380028	
0.05384	0.175539	0.003019	
0.302148	0.158029	0.0301783	
-0.981851	0.165278	-0.0897348	
0.442686	0.175679	0.0481404	
-0.000459645	0.158086	0.00124886	
-0.000193167	0.155867	-0.000577773	
-0.000553231	0.13293	0.00986087	
-0.000746319	0.168869	0.00839904	
-6.80761e-05	0.154678	-0.00307032	
1.33762	-0.0433751	0.0938132	
-1.17341	0.113543	-0.109652	
-0.000969574	0.142358	0.0104946	
-8.25255e-05	0.162984	-0.00381928	
-0.000264344	0.0854438	0.00520873	
2.23913	0.0221551	0.161374	
0.580552	0.094055	0.0463982	
0.271795	0.0677498	0.0185973	
0.81852	0.0485138	0.0635799	
0.406517	0.0782873	0.0282886	
0.189721	0.0753907	0.0138476	
-0.000184127	0.0839752	-0.00257257	
-0.461366	0.0769811	-0.0429959	
-0.0662682	0.048484	-0.00696468	
0.172671	0.0570194	0.0111592	
1.12856	0.0328497	0.0851475	
1.72902	0.0768489	0.154667	
0.445434	0.0670116	0.0334193	
0.421352	0.0790848	0.0347813	
3.04748e-05	0.0524598	-0.00196655	
0.570181	0.0701724	0.0425854	
-0.217414	0.0806103	-0.0191467	
-0.480517	0.0706497	-0.0431637	
0.443862	0.072453	0.039358	
0.0875935	0.0801358	0.00449556	
0.000160872	0.0845875	-0.00143887	
-1.71909e-05	0.0731138	-0.000918422	
6.57654e-05	0.0796226	-0.00325773	
0.000179436	0.076019	-0.000587897	
0.00397462	0.0752738	0.000603342	
1.39123e-05	0.0705061	-0.000234409	
-6.07202e-06	0.0396841	-0.000989058	
8.4159e-05	0.0619198	-0.00262318	
-1.76794	0.0824791	-0.158294	
-0.125793	0.0745653	-0.00755529	
-0.79297	0.0811486	-0.0645531	
0.318596	0.0832111	0.0320062	
0.0811887	0.080795	0.0093741	
-0.444872	0.0674752	-0.0325264	
-1.72461	0.0351541	-0.132651	
-0.586898	0.0777669	-0.0501773	
-0.319677	0.0715416	-0.0228989	
-0.0187142	0.082136	-0.00158339	
0.000277908	0.0750607	0.00268581	
-0.258987	0.0619896	-0.0172575	
-0.541534	0.0743364	-0.0454644	
0.290748	0.084904	0.0256744	
0.0452294	0.0908662	0.00325226	
0.294178	0.0769434	0.0256066	
-0.864979	0.0845021	-0.0709964	
0.356532	0.0964867	0.0313907	
-0.00014944	0.0879943	0.000632922	
-9.88477e-06	0.0769947	-0.000198163	
-0.000147738	0.0636953	0.00376129	
-6.44853e-05	0.0833606	0.00299099	
-2.10984e-05	0.0821411	-0.000854037	
1.1449	-0.0225364	0.0785221	
-1.08908	0.0618577	-0.0897939	
-0.000210093	0.0681043	0.00365851	
-3.36715e-05	0.0810559	-0.00134708	
-3.22195e-05	0.042695	0.00213227	
2.16175	0.0147772	0.157731	
0.621973	0.0602674	0.0483598	
0.22024	0.0450215	0.0164356	
0.791609	0.0300735	0.0612156	
0.357142	0.0500996	0.0276749	
0.351584	0.0487305	0.0270571	
-4.43302e-05	0.0532151	-0.00158087	
-0.512677	0.0474596	-0.0444639	
-0.136707	0.0312947	-0.011342	
0.114528	0.0386933	0.0078726	
1.19119	0.021502	0.0907123	
1.97598	0.0491409	0.156338	
0.40077	0.0473465	0.0297884	
0.461562	0.0483685	0.0366705	
1.00804e-05	0.0348039	-0.000877522	
0.545706	0.0495704	0.0404845	
-0.13145	0.0516407	-0.0110862	
-0.499169	0.0463682	-0.0418207	
0.470674	0.0469669	0.039989	
0.107245	0.053083	0.00693879	
7.98288e-05	0.0535451	-0.000929881	
7.91081e-06	0.0470525	-0.000593639	
3.2381e-05	0.0534756	-0.00188381	
8.77583e-05	0.0485135	-0.000297139	
0.00303697	0.0439954	0.000234362	
9.65746e-06	0.0464077	-0.000238472	
-6.2853e-07	0.0248924	-0.000459905	
2.63821e-05	0.0433709	-0.00118577	
-2.02544	0.0483984	-0.165324	
-0.0762475	0.0494236	-0.00440488	
-0.799325	0.0520498	-0.0640474	
0.248712	0.052998	0.0231277	
0.0724231	0.049257	0.00733365	
-0.436726	0.0449602	-0.0322052	
-1.67553	0.023741	-0.128655	
-0.694642	0.0491342	-0.0623948	
-0.285968	0.0504525	-0.0202085	
-0.0173195	0.0497915	-0.00119519	
7.20306e-05	0.0481587	0.00170612	
-0.237761	0.0416757	-0.0164038	
-0.510378	0.0521348	-0.0411303	
0.258426	0.0552855	0.0214022	
0.0437163	0.05898	0.00329381	
0.270627	0.0499763	0.0224516	
-0.840165	0.0563001	-0.064686	
0.29218	0.0617777	0.0243025	
-7.14708e-05	0.0563132	0.000430866	
-1.47194e-05	0.0494123	-4.75196e-05	
-6.09043e-05	0.043303	0.00176439	
-2.85574e-05	0.0561425	0.00172123	
2.96199e-06	0.0537073	-0.000356009	
1.05957	-0.0153486	0.0734651	
-1.04277	0.0412173	-0.0832105	
-0.000104396	0.0471856	0.00188908	
-2.1527e-05	0.0532546	-0.000579049	
-7.21265e-06	0.0285	0.0010234	
2.12794	0.0106638	0.157377	
0.663852	0.0417891	0.0508282	
0.184658	0.031658	0.0141598	
0.774667	0.02105	0.0599694	
0.317864	0.0338761	0.025513	
0.487461	0.0330428	0.0395346	
6.2065e-05	0.0366273	-0.00091486	
-0.568151	0.0327623	-0.0448372	
-0.198797	0.0227628	-0.0156269	
0.0709857	0.0274865	0.0049463	
1.26308	0.0155479	0.0970046	
2.22145	0.0330328	0.157153	
0.36885	0.0331738	0.028052	
0.512937	0.0326701	0.0400683	
2.17774e-05	0.0251057	-0.000431932	
0.534815	0.0343965	0.0403908	
-0.0699707	0.0369289	-0.00583528	
-0.504357	0.0326451	-0.0414526	
0.508088	0.0324461	0.0402981	
0.123851	0.0372129	0.008719	
5.43444e-05	0.0377558	-0.000548602	
3.28822e-05	0.0325382	-0.000366777	
6.60751e-05	0.0374884	-0.00104728	
2.52472e-05	0.0347687	-0.000251045	
0.0016061	0.0304267	0.000150977	
4.98155e-06	0.0324344	-0.000195951	
1.13268e-05	0.0179659	-0.000233596	
4.10738e-05	0.0305858	-0.000556348	
-2.27886	0.0288475	-0.172529	
-0.0392198	0.0350544	-0.00215555	
-0.814062	0.035179	-0.0649859	
0.191326	0.0370411	0.0174828	
0.0620282	0.0338208	0.00596561	
-0.436363	0.032267	-0.0325313	
-1.65103	0.0169613	-0.127433	
-0.7907	0.0320458	-0.0657537	
-0.261712	0.0355708	-0.0199476	
-0.0264116	0.0343454	-0.00200138	
-8.46021e-05	0.0331041	0.00105903	
-0.229191	0.0299253	-0.0162376	
-0.499109	0.0363009	-0.0398428	
0.244805	0.0393176	0.0196479	
0.032973	0.0417683	0.00253954	
0.246795	0.0350228	0.0198878	
-0.830246	0.038929	-0.0630956	
0.245658	0.0433623	0.0195075	
-3.45184e-05	0.0396995	0.000264857	
-4.92603e-06	0.0345588	-1.2436e-06	
-3.98834e-05	0.0310254	0.00086922	
-6.20156e-05	0.0393374	0.000946647	
9.81747e-06	0.0383968	-7.44823e-05	
1.00485	-0.0112417	0.0706836	
-1.0117	0.0285193	-0.080356	
-7.69746e-05	0.0335247	0.000964754	
-1.1526e-06	0.037598	-0.000231307	
-3.10848e-05	0.0207186	0.000576909	
2.12486	0.00784113	0.159318	
0.702201	0.0305009	0.054106	
0.156744	0.0227194	0.0123759	
0.76899	0.0152351	0.0596921	
0.293249	0.0246644	0.0242903	
0.610445	0.0241255	0.0475212	
5.23963e-05	0.0265614	-0.000562787	
-0.625394	0.0240333	-0.0503825	
-0.25312	0.0165383	-0.0195897	
0.0347882	0.019779	0.00246146	
1.34068	0.0112717	0.103915	
2.46171	0.0245171	0.174699	
0.347024	0.0237914	0.0267446	
0.562747	0.0238868	0.0436065	
9.08031e-06	0.0181152	-0.000185571	
0.527058	0.024639	0.0402724	
-0.0150869	0.0269182	-0.00141166	
-0.516229	0.0239154	-0.0420097	
0.549243	0.0237004	0.0444901	
0.138089	0.026963	0.0102617	
3.35248e-05	0.0276223	-0.000324771	
2.01024e-05	0.023715	-0.000207524	
3.61738e-05	0.0270958	-0.00056805	
1.49731e-05	0.0253857	-0.000154867	
0.0011336	0.0221584	0.000116292	
2.50603e-06	0.0237579	-0.000133008	
3.1836e-06	0.0130519	-6.03884e-05	
2.37773e-05	0.0219814	-0.000287705	
-2.52816	0.0202504	-0.185987	
-0.0104218	0.0254904	-0.000378106	
-0.844431	0.0256897	-0.0676334	
0.145658	0.0269561	0.0131629	
0.0521099	0.0248938	0.00479424	
-0.44447	0.0240096	-0.0336109	
-1.64283	0.0126101	-0.127817	
-0.883932	0.0226295	-0.0760483	
-0.245547	0.025837	-0.0189613	
-0.031759	0.0253294	-0.00249599	
-6.91106e-05	0.0241224	0.000655226	
-0.228128	0.02207	-0.0165784	
-0.49195	0.0263131	-0.0391318	
0.233639	0.0287867	0.018408	
0.0243142	0.03054	0.00190745	
0.228821	0.0256179	0.0183032	
-0.826139	0.0284036	-0.0625873	
0.207993	0.0317858	0.016135	
-2.01625e-05	0.0291459	0.000150629	
-4.84564e-06	0.0253556	2.31057e-05	
-2.20582e-05	0.0227336	0.000460605	
-3.38086e-05	0.0286591	0.000514231	
1.0403e-05	0.0281188	-3.04022e-05	
0.967325	-0.00830323	0.0690782	
-0.992857	0.021025	-0.0791341	
-4.21414e-05	0.0244052	0.000484813	
-3.4609e-06	0.0275581	-0.000101266	
-1.47963e-05	0.0154353	0.000255404	
2.14497	0.00605957	0.162811	
0.739667	0.0230235	0.0566128	
0.136024	0.0170873	0.011118	
0.774613	0.0116942	0.0602834	
0.278667	0.0181758	0.024654	
0.724271	0.0177168	0.0562932	
4.9452e-05	0.0197861	-0.00040126	
-0.679548	0.0181745	-0.0551622	
-0.303006	0.0126438	-0.0233154	
0.00346436	0.0149734	0.000163992	
1.41707	0.00858505	0.111285	
2.69136	0.0185102	0.17268	
0.333208	0.0177469	0.0262437	
0.608698	0.0180246	0.0463976	
5.01388e-06	0.0137577	-8.71459e-05	
0.5225	0.0183414	0.0405626	
0.0383754	0.0202828	0.002689	
-0.53145	0.017909	-0.0433125	
0.590776	0.0177647	0.0478923	
0.151741	0.0202644	0.0114967	
2.07534e-05	0.0209011	-0.000188038	
1.42634e-05	0.0177981	-0.00012062	
2.3995e-05	0.0203612	-0.000328594	
8.06232e-06	0.019041	-7.92505e-05	
0.000290572	0.0169107	4.46144e-05	
3.67856e-07	0.0178139	-8.71299e-05	
1.06849e-06	0.0101406	-1.07831e-05	
1.51707e-05	0.0165205	-0.000138009	
-2.76629	0.0150081	-0.188327	
0.0128234	0.0192064	0.00120457	
-0.884944	0.0189264	-0.07217	
0.105706	0.0202169	0.00992166	
0.0421623	0.0188121	0.00373142	
-0.458878	0.0183677	-0.034904	
-1.65338	0.00953073	-0.130751	
-0.974291	0.0161953	-0.0787135	
-0.236321	0.0192998	-0.0191815	
-0.0342061	0.019187	-0.00278631	
-6.30308e-05	0.0179847	0.000461384	
-0.231134	0.0167712	-0.016819	
-0.487022	0.0196241	-0.0393097	
0.22234	0.0218432	0.0171989	
0.0147997	0.0231054	0.00117198	
0.213876	0.0192756	0.0170406	
-0.824824	0.0213877	-0.0617425	
0.177378	0.0241435	0.0133706	
-1.18682e-05	0.022205	7.64901e-05	
-3.94763e-06	0.0191031	2.25872e-05	
-1.34201e-05	0.0172325	0.000250944	
-2.18624e-05	0.0215874	0.000301681	
7.51367e-06	0.021299	6.62718e-07	
0.944113	-0.00647052	0.0683935	
-0.979096	0.0158558	-0.0789932	
-2.27364e-05	0.0183933	0.000223294	
-1.72494e-06	0.0207973	-5.30416e-05	
-9.80792e-06	0.0117066	0.000126148	
2.18006	0.00474978	0.167333	
0.777691	0.018058	0.0611084	
0.117428	0.0133535	0.00957213	
0.783279	0.00903957	0.0618053	
0.265244	0.0143971	0.0226411	
0.833366	0.013979	0.0658736	
-2.91941e-06	0.0155914	0.000126166	
-0.73446	0.0142682	-0.0582066	
-0.351207	0.00986317	-0.0274812	
-0.0261726	0.0117335	-0.00207254	
1.49761	0.00665203	0.119084	
2.9209	0.0140121	0.208147	
0.324208	0.0138336	0.0258497	
0.656476	0.0140947	0.0511778	
-1.8083e-06	0.01075	3.92529e-06	
0.519915	0.0143354	0.0411152	
0.0870672	0.0159388	0.00667112	
-0.549316	0.0141268	-0.0442213	
0.63364	0.0140151	0.0510086	
0.165597	0.0158866	0.0131494	
-8.65529e-08	0.0164247	5.21493e-05	
1.71933e-07	0.0140043	4.77198e-05	
-6.49303e-06	0.0159768	5.54762e-05	
2.75032e-06	0.0149956	-1.80649e-05	
-0.00053229	0.0132197	-5.51294e-05	
-3.05327e-06	0.0140493	-1.96515e-05	
-3.16668e-06	0.00784874	4.21197e-05	
-6.86522e-07	0.0129619	4.86936e-05	
-3.00471	0.0123987	-0.219974	
0.0331564	0.0150094	0.00257763	
-0.926475	0.0149385	-0.0750857	
0.0704404	0.0159032	0.00581453	
0.0332081	0.0147929	0.00264532	
-0.478574	0.0144883	-0.0375326	
-1.67232	0.00748838	-0.133115	
-1.06398	0.0132889	-0.0871038	
-0.230609	0.0151479	-0.0184591	
-0.0383821	0.0150878	-0.00320437	
3.3024e-06	0.0142213	-0.000158701	
-0.234187	0.0131458	-0.0180332	
-0.484812	0.0153693	-0.0390513	
0.21435	0.0171654	0.0168351	
0.00740821	0.0181977	0.000637043	
0.20093	0.0152044	0.0160201	
-0.827997	0.016778	-0.0641405	
0.151047	0.0189401	0.0115747	
-2.31797e-06	0.0174513	-2.47173e-05	
-5.23189e-07	0.0150848	-1.08017e-05	
5.73963e-06	0.0135571	-2.06049e-05	
6.49123e-06	0.0169143	-5.72644e-05	
2.58892e-06	0.0167806	4.29478e-05	
0.929376	-0.00512116	0.068199	
-0.971872	0.0125482	-0.0781558	
-3.13645e-07	0.0144244	-4.57405e-05	
-3.64371e-06	0.0164349	-6.80629e-06	
5.39535e-06	0.00928448	-6.53427e-05	
				</DataArray>
				<DataArray type="Float64" Name="Time Step Shed" NumberOfComponents="1" Format="ascii">
3	
3	
3	
3	
3	
3	
3	
3	
3	
3	
3	
3	
3	
3	
3	
3	
3	
3	
3	
3	
3	
3	
3	
3	
3	
3	
3	
3	
3	
3	
3	
3	
3	
3	
3	
3	
3	
3	
3	
3	
3	
3	
3	
3	
3	
3	
3	
3	
3	
3	
3	
3	
3	
3	
3	
3	
4	
4	
4	
4	
4	
4	
4	
4	
4	
4	
4	
4	
4	
4	
4	
4	
4	
4	
4	
4	
4	
4	
4	
4	
4	
4	
4	
4	
4	
4	
4	
4	
4	
4	
4	
4	
4	
4	
4	
4	
4	
4	
4	
4	
4	
4	
4	
4	
4	
4	
4	
4	
4	
4	
4	
4	
5	
5	
5	
5	
5	
5	
5	
5	
5	
5	
5	
5	
5	
5	
5	
5	
5	
5	
5	
5	
5	
5	
5	
5	
5	
5	
5	
5	
5	
5	
5	
5	
5	
5	
5	
5	
5	
5	
5	
5	
5	
5	
5	
5	
5	
5	
5	
5	
5	
5	
5	
5	
5	
5	
5	
5	
6	
6	
6	
6	
6	
6	
6	
6	
6	
6	
6	
6	
6	
6	
6	
6	
6	
6	
6	
6	
6	
6	
6	
6	
6	
6	
6	
6	
6	
6	
6	
6	
6	
6	
6	
6	
6	
6	
6	
6	
6	
6	
6	
6	
6	
6	
6	
6	
6	
6	
6	
6	
6	
6	
6	
6	
7	
7	
7	
7	
7	
7	
7	
7	
7	
7	
7	
7	
7	
7	
7	
7	
7	
7	
7	
7	
7	
7	
7	
7	
7	
7	
7	
7	
7	
7	
7	
7	
7	
7	
7	
7	
7	
7	
7	
7	
7	
7	
7	
7	
7	
7	
7	
7	
7	
7	
7	
7	
7	
7	
7	
7	
8	
8	
8	
8	
8	
8	
8	
8	
8	
8	
8	
8	
8	
8	
8	
8	
8	
8	
8	
8	
8	
8	
8	
8	
8	
8	
8	
8	
8	
8	
8	
8	
8	
8	
8	
8	
8	
8	
8	
8	
8	
8	
8	
8	
8	
8	
8	
8	
8	
8	
8	
8	
8	
8	
8	
8	
9	
9	
9	
9	
9	
9	
9	
9	
9	
9	
9	
9	
9	
9	
9	
9	
9	
9	
9	
9	
9	
9	
9	
9	
9	
9	
9	
9	
9	
9	
9	
9	
9	
9	
9	
9	
9	
9	
9	
9	
9	
9	
9	
9	
9	
9	
9	
9	
9	
9	
9	
9	
9	
9	
9	
9	
10	
10	
10	
10	
10	
10	
10	
10	
10	
10	
10	
10	
10	
10	
10	
10	
10	
10	
10	
10	
10	
10	
10	
10	
10	
10	
10	
10	
10	
10	
10	
10	
10	
10	
10	
10	
10	
10	
10	
10	
10	
10	
10	
10	
10	
10	
10	
10	
10	
10	
10	
10	
10	
10	
10	
10	
11	
11	
11	
11	
11	
11	
11	
11	
11	
11	
11	
11	
11	
11	
11	
11	
11	
11	
11	
11	
11	
11	
11	
11	
11	
11	
11	
11	
11	
11	
11	
11	
11	
11	
11	
11	
11	
11	
11	
11	
11	
11	
11	
11	
11	
11	
11	
11	
11	
11	
11	
11	
11	
11	
11	
11	
12	
12	
12	
12	
12	
12	
12	
12	
12	
12	
12	
12	
12	
12	
12	
12	
12	
12	
12	
12	
12	
12	
12	
12	
12	
12	
12	
12	
12	
12	
12	
12	
12	
12	
12	
12	
12	
12	
12	
12	
12	
12	
12	
12	
12	
12	
12	
12	
12	
12	
12	
12	
12	
12	
12	
12	
13	
13	
13	
13	
13	
13	
13	
13	
13	
13	
13	
13	
13	
13	
13	
13	
13	
13	
13	
13	
13	
13	
13	
13	
13	
13	
13	
13	
13	
13	
13	
13	
13	
13	
13	
13	
13	
13	
13	
13	
13	
13	
13	
13	
13	
13	
13	
13	
13	
13	
13	
13	
13	
13	
13	
13	
14	
14	
14	
14	
14	
14	
14	
14	
14	
14	
14	
14	
14	
14	
14	
14	
14	
14	
14	
14	
14	
14	
14	
14	
14	
14	
14	
14	
14	
14	
14	
14	
14	
14	
14	
14	
14	
14	
14	
14	
14	
14	
14	
14	
14	
14	
14	
14	
14	
14	
14	
14	
14	
14	
14	
14	
15	
15	
15	
15	
15	
15	
15	
15	
15	
15	
15	
15	
15	
15	
15	
15	
15	
15	
15	
15	
15	
15	
15	
15	
15	
15	
15	
15	
15	
15	
15	
15	
15	
15	
15	
15	
15	
15	
15	
15	
15	
15	
15	
15	
15	
15	
15	
15	
15	
15	
15	
15	
15	
15	
15	
15	
16	
16	
16	
16	
16	
16	
16	
16	
16	
16	
16	
16	
16	
16	
16	
16	
16	
16	
16	
16	
16	
16	
16	
16	
16	
16	
16	
16	
16	
16	
16	
16	
16	
16	
16	
16	
16	
16	
16	
16	
16	
16	
16	
16	
16	
16	
16	
16	
16	
16	
16	
16	
16	
16	
16	
16	
				</DataArray>
			</CellData>
			<Points>
				<DataArray type="Float64" Name="Position" NumberOfComponents="3" Format="ascii">
1.16176	1.95513	0.0327485	
1.18736	1.0359	-0.0722906	
1.19519	1.46949	-0.0666331	
1.19299	1.75319	-0.0469367	
1.19662	0.321828	-0.0733199	
1.1987	0.177171	-0.0648934	
1.20052	0.251765	-0.0633582	
1.19928	0.392289	-0.0708255	
1.19236	1.68236	-0.0503755	
1.1931	1.53693	-0.0632847	
1.18634	1.88819	0.00316415	
1.19402	0.107636	-0.0723055	
1.19576	1.32283	-0.0642423	
1.20064	0.464105	-0.0705948	
1.18983	1.61052	-0.0591655	
1.19641	1.25141	-0.0624681	
1.18681	0.895306	-0.0775049	
1.20216	0.750713	-0.0540397	
1.20345	0.60791	-0.0550415	
1.19208	1.10868	-0.0737686	
1.18881	0.964448	-0.0773863	
1.2034	0.534297	-0.0601778	
1.19453	1.18145	-0.0725694	
1.19649	0.823276	-0.0624318	
1.18687	0.0355397	-0.0753241	
1.20381	0.679747	-0.0656549	
1.19286	1.81994	-0.0224705	
1.19618	1.39876	-0.0653876	
1.18719	-0.0377682	-0.0768268	
1.19669	-1.46798	-0.0621159	
1.19645	-0.322486	-0.070367	
1.20275	-0.248202	-0.0605081	
1.19811	-0.394147	-0.0702625	
1.20102	-1.68385	-0.0428164	
1.18948	-1.89073	0.0175791	
1.19489	-0.110503	-0.071675	
1.19922	-1.32516	-0.0609017	
1.19957	-0.464899	-0.0658843	
1.2001	-0.178055	-0.0609607	
1.19717	-1.61025	-0.0570696	
1.20043	-1.25177	-0.0610452	
1.18976	-0.894284	-0.0736852	
1.19922	-0.751729	-0.0624087	
1.19972	-0.608653	-0.0568603	
1.19595	-1.10751	-0.0696169	
1.18887	-1.03766	-0.0695422	
1.1926	-0.965367	-0.0741992	
1.20008	-0.53574	-0.0669183	
1.18979	-1.53922	-0.0695168	
1.19794	-1.18046	-0.0672394	
1.19557	-0.824147	-0.0661665	
1.16338	-1.96195	0.0419745	
1.20083	-1.75316	-0.0334727	
1.1989	-1.3987	-0.0638986	
1.19801	-0.679057	-0.0706808	
1.20015	-1.82415	-0.0106167	
1.05801	1.95795	0.0189933	
1.08595	1.0315	0.0309416	
1.07667	1.45879	0.0113255	