<VTKFile type="UnstructuredGrid" version="0.1" byte_order="LittleEndian">
	<UnstructuredGrid>
		<Piece NumberOfPoints="1232" NumberOfCells="1232">
			<CellData Scalars="scalars">
				<DataArray type="Float64" Name="Strength" NumberOfComponents="3" Format="ascii">
0.536384	-0.376365	-0.11318	
0.00206812	-1.04358	0.0125676	
-0.019143	-0.939286	0.0159651	
0.00994235	-0.822456	0.0471402	
0.000111867	-1.06761	0.0156793	
-0.0230891	-1.00592	0.0276383	
-0.000582521	-1.05338	0.0144298	
-0.0135231	-1.04941	0.0179435	
-0.0680117	-0.849135	0.101369	
-0.0269115	-0.919893	0.019113	
0.103471	-0.576552	0.0506251	
0.00942463	-1.0264	0.00555917	
-0.0222937	-0.972305	0.0324569	
-0.0188926	-1.04321	0.00284946	
-0.0768868	-0.884198	0.0698082	
0.031005	-0.965651	-5.30002e-05	
0.0381497	-1.04676	-0.00898833	
0.0135412	-1.0172	-0.00162176	
0.000210839	-1.03543	-0.0140228	
-0.0379558	-1.02828	0.0456595	
0.0102461	-1.03079	0.00895717	
-0.027469	-1.02946	0.0049844	
-0.0322776	-1.04618	0.0462847	
0.044586	-1.05406	-0.0220513	
0.0025442	-1.0547	0.00207874	
0.0136229	-1.02498	-0.00783229	
-0.0802332	-0.701571	0.115269	
-0.0279831	-0.956896	0.0248428	
-0.000607703	-1.05578	-0.0113694	
0.0187633	-0.943935	-0.0182949	
-0.0244333	-1.06837	0.00251254	
0.0279814	-1.05502	-0.0310752	
-9.4979e-05	-1.03887	2.30903e-05	
0.0805127	-0.827031	-0.107801	
-0.282307	-0.608608	-0.0375998	
0.00636676	-1.02667	-0.0204115	
0.0282664	-0.976298	-0.0304958	
0.0268727	-1.04003	-0.00227523	
0.0129773	-1.00801	-0.0195878	
0.071829	-0.874146	-0.0694381	
-0.0289616	-0.966816	0.00602356	
-0.0257172	-1.05652	0.00870538	
-0.00671286	-1.10288	-0.00236798	
-0.0275098	-1.02521	0.0219	
0.0240246	-1.03092	-0.0356977	
0.0312839	-1.04553	-0.0342064	
0.0100136	-1.03555	-0.0140341	
0.00272183	-1.07008	0.0114026	
0.0723441	-0.913471	-0.0547138	
0.0382228	-1.04725	-0.0528393	
-0.0218191	-1.07438	0.00311151	
-0.312768	-0.374596	-0.0206557	
0.0427761	-0.805866	-0.147901	
0.0339531	-0.962206	-0.02628	
-0.0117453	-1.05295	0.00747639	
0.0729523	-0.672094	-0.218249	
1.49915	0.0273411	-0.125888	
0.0481233	-0.192307	-0.00886626	
0.124658	-0.164354	-0.0180107	
0.509652	-0.136093	-0.0714615	
-0.00922493	-0.206409	0.00517388	
-0.0472121	-0.206278	0.0143864	
-9.90197e-05	-0.204744	0.00134622	
-0.014131	-0.207941	0.00693876	
0.150648	-0.137578	-0.0101585	
0.14695	-0.161186	-0.0240179	
0.508622	-0.0693403	-0.0603319	
0.0470007	-0.210645	-0.0150835	
0.0397668	-0.182144	0.000431706	
0.0244581	-0.205411	-0.00524516	
-0.00159923	-0.149881	0.0168137	
0.241511	-0.188339	-0.0586627	
0.0462837	-0.191659	-0.0118092	
-0.0638882	-0.205235	0.0209904	
0.0690426	-0.204045	-0.0208414	
-0.0289625	-0.194004	0.0168363	
0.00294667	-0.191163	0.00247675	
-0.000893465	-0.204883	0.00096169	
-0.000319683	-0.189516	0.0094302	
0.00549867	-0.20156	-0.00106344	
0.00428304	-0.209089	-0.00367352	
0.00264938	-0.20461	-0.000189076	
0.00070593	-0.101361	0.0149548	
0.00343093	-0.176609	0.0139712	
-0.0475812	-0.20973	0.0107238	
-0.142719	-0.166789	0.0244207	
-0.0201491	-0.208686	0.00928827	
0.121718	-0.205501	-0.0348223	
0.03144	-0.210269	-0.00508655	
-0.256364	-0.159021	0.0394667	
-1.23212	-0.167437	0.317489	
-0.0712784	-0.212359	0.0203928	
-0.0301896	-0.182745	-0.00533105	
0.0762896	-0.208034	-0.0196612	
0.00108075	-0.205597	-0.00104384	
-0.171031	-0.160535	0.0216873	
-0.24115	-0.190418	0.0569054	
-0.0890511	-0.193837	0.0248212	
0.0481754	-0.202508	-0.0170597	
-0.0857728	-0.205618	0.0269953	
-0.0567876	-0.197144	0.00874978	
0.0279258	-0.192476	-0.0149089	
-0.000594464	-0.192244	-0.00430702	
-0.000595013	-0.200989	0.00228133	
0.000952134	-0.158896	-0.0209187	
0.000773683	-0.189741	-0.0105088	
-0.00328632	-0.202804	-0.00152599	
-0.719438	-0.0676853	0.0878304	
-0.355486	-0.159881	0.0817192	
-0.00337465	-0.176983	-0.0158039	
-0.00254104	-0.206173	-0.000185556	
-0.00192058	-0.0979352	-0.0363985	
2.49841	0.17468	0.000312558	
0.0870031	-0.0588047	0.00549486	
0.244384	-0.042653	0.0247013	
0.902815	0.00235376	0.0886951	
-0.0256326	-0.0692849	-0.000100883	
-0.0594953	-0.0706274	-0.00166894	
-9.30553e-05	-0.0688555	-0.000212645	
-0.0290058	-0.0706812	-0.000301136	
0.286972	-0.0272749	0.0477503	
0.270699	-0.0394196	0.0442115	
0.870602	0.0427342	0.00211277	
0.0766629	-0.0732158	0.000803921	
0.0877161	-0.053788	0.0103112	
0.0410547	-0.0706203	0.00125152	
-0.000560992	-0.040681	0.0101938	
0.417471	-0.0494143	0.0265089	
0.0937434	-0.0597121	0.00385389	
-0.101484	-0.0701222	0.000122217	
0.132502	-0.068012	0.00187513	
-0.0387237	-0.0611355	0.00180266	
0.000423464	-0.0605362	0.0017915	
0.000236448	-0.0710019	0.000535233	
0.000759231	-0.0589252	0.00458862	
0.000341558	-0.0658778	0.000727293	
0.0098838	-0.0725002	-0.000390254	
0.000177189	-0.069379	0.000939336	
0.00152827	-0.0252064	0.00961672	
0.000612381	-0.053425	0.00665939	
-0.0730841	-0.0724653	-0.00146926	
-0.282171	-0.0405165	-0.00502463	
-0.0303218	-0.0698671	0.000843925	
0.201358	-0.0682352	0.000465352	
0.0527317	-0.0700085	0.00286252	
-0.485252	-0.0225299	-0.0442832	
-2.19566	0.102589	0.0520378	
-0.138418	-0.0734578	-0.000791069	
-0.072746	-0.0540716	-0.00579875	
0.111046	-0.0687036	0.00498302	
0.000111907	-0.0709984	0.00061567	
-0.31787	-0.032543	-0.0297748	
-0.417893	-0.0479113	-0.0133361	
-0.16686	-0.0588852	-0.00563935	
0.0813277	-0.0638049	0.000274708	
-0.143807	-0.0667177	-0.00297673	
-0.110989	-0.0591901	-0.00678929	
0.042127	-0.0601334	-0.00166299	
-0.000379909	-0.0603326	-0.00255541	
-4.0291e-05	-0.064624	0.000697884	
-0.000379284	-0.0448775	-0.00968295	
-0.000993853	-0.0589297	-0.00502176	
-0.000355018	-0.0645914	-0.00143167	
1.16638	-0.0381404	-0.0595906	
-0.662488	0.000103498	-0.0236371	
-0.00116395	-0.0533577	-0.00681588	
-0.000214426	-0.0660901	-0.000364638	
-0.00190692	-0.0282197	-0.00531629	
3.29386	0.0848326	0.180879	
0.13675	0.0795593	-0.0140607	
0.324563	0.091433	-0.0104257	
1.11867	0.115986	-0.0293766	
-0.021319	0.0767547	0.000910894	
-0.0815099	0.0763463	-0.00705893	
0.000288419	0.0759775	-0.00129365	
-0.0362028	0.0771709	0.00697437	
0.358921	0.083455	-0.0191798	
0.361929	0.0831376	-0.00309951	
1.09355	0.0730881	0.0160872	
0.115279	0.0723398	-0.0100177	
0.10502	0.0910151	0.00834271	
0.0575941	0.0786826	0.00875878	
8.10849e-05	0.0773332	-0.0186693	
0.576031	0.115001	0.0617049	
0.153157	0.0779282	-0.0163525	
-0.12873	0.0811922	0.00433277	
0.183122	0.0783268	0.00872538	
-0.0517749	0.0845798	-0.0198592	
0.00182816	0.0810507	-0.0166873	
0.000213275	0.0779666	0.00474525	
-0.00126171	0.0860823	-0.00762405	
-8.96633e-05	0.0809191	-0.00486702	
0.0178581	0.0753688	-0.00109979	
-3.32755e-05	0.078947	0.00406121	
-0.00317241	0.0488	-0.0175887	
-0.00420723	0.0845688	0.0012233	
-0.0987308	0.0737789	0.00808553	
-0.376549	0.0972085	0.0145243	
-0.0709596	0.075355	-0.010124	
0.281238	0.0740055	0.0220004	
0.0653506	0.0768305	-0.0114401	
-0.572972	0.0966819	-0.0304952	
-2.78665	0.100491	-0.137433	
-0.19486	0.0699238	0.00636741	
-0.0850702	0.092179	-0.00300539	
0.1517	0.0766007	-0.0182306	
-0.000131726	0.0738265	-0.000563192	
-0.422062	0.0864737	-0.032647	
-0.574708	0.113377	-0.0478162	
-0.247093	0.0849666	0.0195475	
0.0969888	0.081803	0.0003104	
-0.214306	0.0803185	-0.0127049	
-0.160394	0.0852035	0.0119533	
0.0552132	0.0846835	0.0169364	
-0.00148796	0.0836147	0.0150341	
-0.000897594	0.078407	0.00126403	
-0.000412228	0.0823661	0.010154	
0.00115939	0.0869402	0.0101473	
0.000849351	0.0841902	0.00157376	
1.59206	-0.0296356	0.0385441	
-0.803964	0.104326	-0.0228785	
0.0049425	0.0856892	0.00178577	
0.000211364	0.0815287	-0.00163613	
0.00188603	0.0479956	0.00826863	
5.70487	-0.0768832	0.285211	
-1.98208	-0.579872	-0.264457	
0.565395	-0.383958	0.356904	
1.56448	-0.157137	0.0535977	
1.93421	-0.500809	0.156962	
-1.77537	-0.573697	-0.106292	
-0.00306887	-0.553969	-0.0140473	
-0.635614	-0.271924	0.0721983	
0.62454	-0.113468	0.0603714	
1.11699	-0.266792	0.223516	
-0.253776	-0.266211	0.0240661	
-0.0951106	-0.367488	-0.037045	
3.01379	-0.66677	0.320965	
0.733433	-0.43853	0.169787	
-0.0108151	-0.0940601	0.0640616	
0.779084	-0.559628	0.29253	
-0.953531	-0.299787	-0.18012	
0.162273	-0.121907	0.0218778	
1.43539	-0.315273	0.193158	
-0.311227	-0.528502	-0.121147	
0.0410806	-0.23583	-0.12978	
-0.0332357	-0.289073	0.11526	
-0.0217851	-0.550468	0.0727255	
0.00894879	-0.141551	-0.0240423	
0.0188533	-0.339888	0.0221821	
-0.0106884	-0.174799	0.0435983	
-0.000828767	-0.0786803	0.0227013	
-0.0336829	-0.150679	0.150655	
0.0872697	-0.340647	0.0369019	
-0.363808	-0.47996	-0.390359	
-2.31975	-0.560608	-0.229851	
0.428308	-0.516556	-0.0669416	
0.0222699	-0.275759	-0.0762138	
-1.0183	-0.269427	-0.169185	
-3.63482	-0.479527	-0.307009	
1.295	-0.384394	0.0843718	
-2.70441	-0.650245	-0.2401	
0.197187	-0.259814	-0.0294754	
0.00565865	-0.533901	0.0275086	
-1.13659	-0.315796	-0.250953	
-0.765889	-0.629775	-0.155309	
0.667019	-0.29227	0.098904	
-1.22747	-0.398469	-0.103817	
0.357443	-0.34682	-0.0158789	
1.4323	-0.648004	0.151365	
0.94675	-0.497628	0.220899	
-0.0402143	-0.285701	0.0884144	
0.0124526	-0.269152	-0.0316447	
0.0558444	-0.236554	-0.16597	
0.00459248	-0.600166	0.00615187	
-0.00638516	-0.193328	0.0118066	
2.12214	0.169479	0.0313674	
-1.23959	-0.257667	-0.127321	
0.0479705	-0.239433	-0.167924	
0.00864139	-0.341493	-0.0476095	
0.00703249	-0.158306	-0.0534202	
4.42975	0.258064	0.296405	
0.0558752	0.567941	-0.0963544	
0.543714	0.671471	-0.0472309	
1.25332	0.462469	0.168526	
1.17833	0.755747	0.0921561	
-0.89493	0.759473	-0.213921	
-0.00898892	0.735253	-0.0580293	
-0.301784	0.611122	-0.132139	
0.367992	0.429581	-0.0377156	
0.641506	0.543459	-0.0204596	
1.14735	0.49889	0.0746928	
0.789445	0.628606	0.162751	
0.70739	0.61171	0.0315501	
0.465813	0.683418	0.0417702	
-0.0109322	0.439762	-0.115432	
1.23913	0.852167	0.0893464	
-0.61306	0.539558	-0.164796	
-0.255523	0.490936	-0.049246	
0.78179	0.597801	0.148199	
-0.164326	0.759509	-0.195548	
0.0184334	0.536903	-0.0532858	
-0.0187787	0.616325	-0.0647254	
0.000336011	0.7914	-0.143348	
0.0176103	0.496625	0.0154129	
0.0165952	0.539089	0.00945132	
-0.000197421	0.539511	-0.00165611	
-0.00318401	0.354283	-0.0644346	
0.00294592	0.537228	-0.0854412	
-0.776157	0.566162	-0.0906997	
-0.440813	0.697053	0.0566918	
-1.4053	0.716263	-0.237699	
0.934979	0.713326	0.121592	
0.0756714	0.595345	0.0291256	
-0.726624	0.43411	-0.0318336	
-2.89086	0.636955	-0.266449	
-0.0270371	0.613073	0.0895606	
-0.432286	0.620641	-0.0360827	
-0.163835	0.583128	-0.0220683	
0.0128469	0.766547	0.0297891	
-0.675438	0.506096	0.0173924	
-1.18154	0.859959	-0.0713638	
0.41958	0.561846	0.0649842	
-0.331506	0.626044	-0.109866	
0.327316	0.659614	0.0625881	
-0.543126	0.791508	0.00864907	
0.830198	0.566424	0.26528	
-0.0159865	0.55031	0.0323596	
-0.00110048	0.612776	0.0516479	
0.0231222	0.520886	0.15027	
0.00737174	0.799635	0.136918	
-0.0190361	0.52184	-0.0521771	
3.0337	-0.278651	0.193234	
-1.47704	0.487947	-0.238501	
-0.0062191	0.552784	0.0909345	
-0.012873	0.631822	-0.0142448	
-0.00356938	0.419168	0.0833132	
2.95837	0.0893563	0.216945	
0.445445	0.327329	0.0734771	
0.377392	0.316642	0.00822227	
0.988927	0.199924	0.132289	
0.676043	0.358912	0.0976274	
-0.305882	0.345507	-0.0784628	
-0.00173228	0.383634	-0.0286911	
-0.340008	0.323901	-0.114211	
0.147118	0.202002	-0.00204085	
0.366303	0.257349	0.00665378	
1.10147	0.143615	0.0983761	
1.1953	0.326139	0.304822	
0.547903	0.281575	0.0673794	
0.402419	0.324396	0.0820903	
0.000418402	0.222123	-0.0303233	
0.856916	0.298659	0.120173	
-0.436352	0.287254	-0.102817	
-0.393358	0.272508	-0.0851866	
0.517802	0.293666	0.0993112	
0.0482997	0.327262	-0.0254063	
0.00409676	0.293743	-0.0134829	
0.000313506	0.308731	-0.0141741	
0.0102145	0.346581	-0.0415521	
0.00340943	0.274695	-0.00150702	
0.00919146	0.306854	0.000162512	
0.00241898	0.280795	-0.00215996	
0.000713629	0.159767	-0.0172997	
0.00885073	0.274701	-0.0376507	
-1.20182	0.33249	-0.269889	
-0.249706	0.353946	0.0220598	
-0.91915	0.365935	-0.173435	
0.577922	0.373748	0.163778	
0.0945049	0.330356	0.0343146	
-0.558273	0.247816	-0.063147	
-2.12796	0.168161	-0.217549	
-0.321072	0.332578	-0.054926	
-0.36593	0.31283	-0.0350052	
-0.0978997	0.325199	-0.0307153	
0.00383666	0.348345	0.0200317	
-0.39395	0.261262	-0.0328917	
-0.816484	0.319548	-0.143093	
0.381806	0.304878	0.096279	
-0.065643	0.363115	-0.0329741	
0.31515	0.325426	0.0641877	
-0.955483	0.343283	-0.183438	
0.58978	0.337985	0.163866	
-0.00376685	0.30962	0.00917602	
-0.00102941	0.317756	-0.000906885	
-0.00201212	0.281325	0.0542114	
-0.00966187	0.368689	0.0413204	
-0.00424795	0.303808	-0.016987	
1.78677	-0.0956576	0.127798	
-1.3067	0.24414	-0.220653	
-0.0110343	0.306691	0.0572645	
-0.00335423	0.327922	-0.014541	
-0.00299418	0.193659	0.032847	
2.4406	0.0424286	0.185171	
0.59723	0.166546	0.0722433	
0.307495	0.13888	0.0205703	
0.851541	0.0920606	0.0850521	
0.44697	0.168555	0.0389983	
0.00702329	0.161875	-0.00785176	
-0.00104868	0.178281	-0.0125718	
-0.421189	0.150603	-0.0760837	
-0.000825084	0.0938894	-0.00885344	
0.225477	0.118815	0.00697971	
1.10506	0.0642356	0.091447	
1.53151	0.161	0.251228	
0.493265	0.1331	0.0446445	
0.442387	0.155444	0.055386	
9.86703e-05	0.10526	-0.0102147	
0.661749	0.140378	0.0609733	
-0.337045	0.147173	-0.0501124	
-0.500615	0.140012	-0.0705913	
0.445091	0.14546	0.0573346	
0.0854011	0.156198	-0.00478149	
0.00141115	0.149157	-0.00568305	
0.000257622	0.150344	-0.00522625	
0.0017591	0.158412	-0.0186354	
0.000773762	0.139744	-0.000762821	
0.00556415	0.146419	0.00114042	
0.000294208	0.142058	0.000867495	
0.000136136	0.073876	-0.00535659	
0.00121265	0.126893	-0.013849	
-1.56261	0.165361	-0.238465	
-0.166418	0.154736	-0.00258578	
-0.756135	0.174984	-0.0921163	
0.423508	0.174136	0.0800963	
0.101648	0.158312	0.0217013	
-0.449594	0.124825	-0.0394417	
-1.82501	0.0709606	-0.160824	
-0.491406	0.165905	-0.0475535	
-0.349998	0.144073	-0.0422883	
-0.0890951	0.157996	-0.0115024	
0.00159243	0.162722	0.012359	
-0.277932	0.125012	-0.0179386	
-0.629691	0.147581	-0.0804741	
0.361548	0.156874	0.0575692	
0.0529536	0.175832	0.000976719	
0.300068	0.159657	0.0405839	
-0.978568	0.164701	-0.121272	
0.438585	0.175442	0.0776029	
-0.00131078	0.158052	0.00330259	
-0.00050744	0.155867	-8.05322e-06	
-0.00150079	0.1316	0.0211382	
-0.00217181	0.168101	0.0180375	
-0.000583602	0.154535	-0.00728644	
1.33726	-0.0425534	0.0993664	
-1.16929	0.119748	-0.142324	
-0.00253978	0.140818	0.0232498	
-0.000483933	0.16281	-0.00842214	
-0.000794831	0.0848508	0.0112942	
2.23888	0.0225833	0.165118	
0.579444	0.0952182	0.0567972	
0.271691	0.0687367	0.0164269	
0.817792	0.0525643	0.0695404	
0.406166	0.0803268	0.0276536	
0.188835	0.0780228	0.0111555	
-0.000935011	0.0838102	-0.0057862	
-0.460227	0.074316	-0.0574878	
-0.0662557	0.0479717	-0.00997443	
0.172694	0.0575191	0.0077763	
1.12841	0.033573	0.0870338	
1.71997	0.0816478	0.233313	
0.444983	0.0693212	0.0347493	
0.420383	0.0810233	0.0414553	
-1.42467e-05	0.0522844	-0.00471592	
0.569614	0.0731414	0.0451721	
-0.21667	0.081041	-0.0249086	
-0.479381	0.0716958	-0.052972	
0.44298	0.0733616	0.0469244	
0.0875932	0.0802435	0.00181988	
0.00037101	0.0845293	-0.00343138	
-0.000142725	0.0730873	-0.00216731	
0.000123067	0.079315	-0.00771268	
0.000536481	0.0760012	-0.0016724	
0.00434888	0.0752529	0.00061835	
9.45944e-05	0.070505	-0.000449194	
-3.53811e-05	0.0396204	-0.00245603	
0.00011736	0.0616303	-0.0065307	
-1.7619	0.104258	-0.205782	
-0.125843	0.0748096	-0.00303451	
-0.791221	0.085509	-0.0788968	
0.316756	0.0808003	0.0509442	
0.0811345	0.0803832	0.0127591	
-0.444086	0.0712221	-0.0352307	
-1.72431	0.0360417	-0.136539	
-0.584951	0.0897982	-0.0528159	
-0.319312	0.0730082	-0.0234029	
-0.0185779	0.0821576	-0.00201745	
0.00125346	0.0748379	0.00625629	
-0.258541	0.0638653	-0.0171521	
-0.540397	0.0771885	-0.05357	
0.289854	0.0861897	0.0309743	
0.0448885	0.0910569	0.00255883	
0.293363	0.0779644	0.0312635	
-0.863047	0.0864111	-0.0898042	
0.355166	0.0964916	0.0442601	
-0.000457618	0.0879823	0.00152222	
-0.000150301	0.0769948	-2.39052e-05	
-0.000436157	0.0632104	0.00868803	
-0.000148636	0.0831225	0.00696864	
-0.000214758	0.0821107	-0.00238138	
1.14478	-0.0221884	0.0804812	
-1.08734	0.0713954	-0.102896	
-0.000461142	0.0676079	0.00897652	
-0.000154815	0.0809985	-0.00332971	
-7.71524e-05	0.0424431	0.00509979	
2.16165	0.0152255	0.159247	
0.621418	0.0616648	0.0534241	
0.220181	0.0457348	0.0152167	
0.791198	0.033128	0.0648482	
0.356741	0.0512474	0.030586	
0.351262	0.0523635	0.0243678	
-0.000487702	0.0531068	-0.00371743	
-0.511928	0.0453595	-0.0541687	
-0.136653	0.0306797	-0.0134619	
0.114514	0.0390534	0.00611192	
1.19112	0.0221336	0.0917194	
1.97009	0.0563824	0.21649	
0.400593	0.0489491	0.0295719	
0.460942	0.0499543	0.0419268	
-8.63662e-06	0.0347416	-0.00225954	
0.545482	0.0517829	0.0407062	
-0.131149	0.0517526	-0.0137875	
-0.498541	0.0471579	-0.0479231	
0.470041	0.0477393	0.0460234	
0.107214	0.0532804	0.00581356	
0.000143211	0.0535	-0.00238582	
-1.63891e-05	0.0470285	-0.00162227	
5.9897e-05	0.0532749	-0.00500123	
0.000287387	0.0485	-0.00116367	
0.0031457	0.0439878	0.000277848	
5.37958e-05	0.046406	-0.000488021	
-1.59967e-05	0.0248647	-0.00126337	
1.72199e-05	0.0432716	-0.00316792	
-2.0209	0.0621731	-0.210021	
-0.0762775	0.0495401	-0.00186934	
-0.798367	0.0553512	-0.0726148	
0.248192	0.0509805	0.0317027	
0.0723692	0.0489793	0.00941635	
-0.436292	0.0480347	-0.0336372	
-1.67533	0.0245532	-0.13145	
-0.694011	0.0587258	-0.0610435	
-0.285934	0.0516823	-0.0173898	
-0.0172804	0.0498077	-0.0010947	
0.000568965	0.0480103	0.0041075	
-0.237514	0.0431284	-0.0162311	
-0.509752	0.0546468	-0.0454043	
0.257906	0.0558641	0.0257376	
0.0435775	0.0591092	0.00277226	
0.270202	0.0506724	0.0257329	
-0.839181	0.0590232	-0.0742807	
0.291477	0.0617027	0.0317765	
-0.000204718	0.056303	0.00114744	
-0.000118845	0.0494121	0.000195605	
-0.00027325	0.0430633	0.00487502	
-5.28969e-05	0.0559898	0.00448366	
-6.87136e-05	0.0536962	-0.00115881	
1.05954	-0.0152332	0.0740932	
-1.04185	0.0490448	-0.0902323	
-0.000247295	0.0469266	0.00528339	
-7.65935e-05	0.0532315	-0.00168194	
2.21797e-05	0.0283917	0.00268692	
2.12793	0.0109187	0.15751	
0.663905	0.0420511	0.0497436	
0.184713	0.0317516	0.0131708	
0.774433	0.022254	0.0623868	
0.318099	0.035492	0.0196394	
0.486408	0.0346394	0.0497056	
-3.26165e-05	0.0365538	-0.00250048	
-0.567523	0.0317613	-0.0526715	
-0.198706	0.0224157	-0.0171669	
0.0710241	0.0275313	0.00406004	
1.26306	0.0159294	0.0973915	
2.21815	0.0379621	0.197019	
0.368831	0.0334608	0.027867	
0.512569	0.0332811	0.04392	
5.87546e-05	0.0250745	-0.0013256	
0.534751	0.0349247	0.0406617	
-0.0698284	0.0369316	-0.00731277	
-0.503958	0.0325824	-0.045964	
0.50812	0.0328143	0.0394249	
0.123961	0.0372213	0.00691137	
0.000175967	0.0377206	-0.0017224	
8.0195e-05	0.0325187	-0.00119594	
0.000220794	0.0373627	-0.00324053	
8.08413e-05	0.0347556	-0.00100326	
0.00156481	0.0304292	0.000164246	
2.61855e-05	0.0324317	-0.000490582	
3.07196e-05	0.0179511	-0.000772401	
0.000117621	0.0305384	-0.00179219	
-2.27555	0.0261942	-0.211446	
-0.0393278	0.0349985	-0.000325797	
-0.81365	0.0362802	-0.0691594	
0.19147	0.0353787	0.019228	
0.0619213	0.0337062	0.00750488	
-0.436232	0.0334899	-0.0329869	
-1.65095	0.0173465	-0.128711	
-0.789519	0.0341337	-0.0775885	
-0.261689	0.0357109	-0.0199554	
-0.0264093	0.0343489	-0.00197343	
-6.13658e-05	0.0329954	0.00288432	
-0.229141	0.0304728	-0.0158923	
-0.498836	0.0366191	-0.0427518	
0.244277	0.0393075	0.025353	
0.0329576	0.0418	0.00218903	
0.246569	0.0352832	0.0220384	
-0.829955	0.0389916	-0.0665701	
0.245311	0.0433606	0.0234083	
-0.000109538	0.0396902	0.000912526	
-3.92095e-05	0.0345589	0.000173002	
-0.000113817	0.0309239	0.00265594	
-0.000202404	0.0392474	0.00282138	
5.06368e-06	0.0383945	-0.000471621	
1.00486	-0.0112182	0.0707163	
-1.01126	0.0316563	-0.0845201	
-0.000233746	0.0333838	0.00321442	
1.2592e-05	0.0375882	-0.000911922	
-7.61655e-05	0.0206531	0.00174556	
2.12485	0.00805307	0.159185	
0.702281	0.0319859	0.0517948	
0.156785	0.0228641	0.0115021	
0.768783	0.0166714	0.0616868	
0.293578	0.0268057	0.0167356	
0.60981	0.0292548	0.0521977	
-0.000106293	0.0265011	-0.00188458	
-0.624979	0.0222336	-0.0557255	
-0.25304	0.0161114	-0.020844	
0.0348061	0.0198025	0.00196008	
1.34065	0.0115819	0.104176	
2.46148	0.0333544	0.174639	
0.347001	0.0244237	0.026312	
0.562371	0.0251968	0.0472469	
3.14238e-05	0.0181001	-0.000770069	
0.526978	0.0257027	0.0404157	
-0.0150238	0.0268986	-0.00222524	
-0.515947	0.0239443	-0.0450683	
0.548978	0.0246525	0.0468833	
0.138114	0.0272623	0.00898651	
9.1966e-05	0.0275914	-0.00135658	
3.50223e-05	0.0237017	-0.000838135	
9.66455e-05	0.0270148	-0.00217779	
8.81566e-05	0.0253726	-0.000842625	
0.00113184	0.0221589	0.000130768	
2.08249e-05	0.0237553	-0.000411428	
9.96236e-06	0.0130469	-0.000434916	
6.38224e-05	0.0219493	-0.00122609	
-2.5257	0.0255065	-0.214784	
-0.0104951	0.0254409	0.00107432	
-0.844353	0.0284746	-0.0670174	
0.145843	0.0252453	0.0143984	
0.0520591	0.0247309	0.00600618	
-0.444326	0.0257748	-0.0340465	
-1.64276	0.0129128	-0.128668	
-0.884033	0.0320495	-0.0709376	
-0.245537	0.0262584	-0.018404	
-0.0317386	0.0253655	-0.00237364	
3.47211e-05	0.0240266	0.0022561	
-0.228057	0.0228077	-0.0164741	
-0.491725	0.0274317	-0.0409396	
0.233319	0.0288028	0.0219725	
0.0243002	0.030566	0.00164738	
0.22865	0.0258333	0.01993	
-0.825932	0.0297598	-0.0642445	
0.207806	0.031568	0.0186688	
-6.27395e-05	0.029139	0.000678126	
-2.64516e-05	0.0253548	0.000266873	
-6.24819e-05	0.0226737	0.00171792	
-8.53675e-05	0.0286024	0.00188266	
8.43359e-06	0.0281181	-0.000278583	
0.967352	-0.00828801	0.0690194	
-0.992498	0.0252787	-0.0820534	
-0.000141281	0.0243197	0.0020991	
-4.20638e-07	0.0275545	-0.000500134	
-3.36051e-05	0.0153953	0.00116429	
2.14493	0.00621957	0.1627	
0.739484	0.0243362	0.0578873	
0.136063	0.0172188	0.0103471	
0.774406	0.0129676	0.0622762	
0.279287	0.0200965	0.0134956	
0.720948	0.0192443	0.0886853	
-1.07118e-05	0.0197358	-0.00141576	
-0.679532	0.0171019	-0.0551892	
-0.302909	0.0122022	-0.0246108	
0.00348789	0.0149655	-0.000325413	
1.41705	0.0087766	0.111358	
2.68912	0.0233731	0.201472	
0.333202	0.0183748	0.0256772	
0.608326	0.0189791	0.0502357	
2.08429e-05	0.0137494	-0.000490883	
0.522449	0.0193835	0.0403907	
0.0383967	0.0202734	0.00241081	
-0.531245	0.0180571	-0.0453259	
0.590284	0.0185	0.0529585	
0.151744	0.0205877	0.0107518	
5.85928e-05	0.020881	-0.000928796	
3.7849e-05	0.0177871	-0.000637894	
6.86657e-05	0.0203055	-0.00152191	
6.96415e-05	0.0190299	-0.000671226	
0.000304197	0.0169109	4.84203e-05	
2.3624e-05	0.0178108	-0.000365354	
5.65306e-06	0.0101352	-0.000254749	
3.84156e-05	0.0165031	-0.00076446	
-2.76285	0.0193434	-0.230699	
0.012768	0.0191461	0.00226947	
-0.885265	0.0217739	-0.0665736	
0.10593	0.0190365	0.00977428	
0.0421245	0.0186811	0.00465965	
-0.458734	0.0200088	-0.0356312	
-1.65337	0.00971373	-0.130818	
-0.973662	0.0241706	-0.0836711	
-0.236487	0.0197124	-0.01636	
-0.0341989	0.0192285	-0.00255928	
-7.94655e-06	0.0179103	0.00163562	
-0.231053	0.0174421	-0.0170941	
-0.48688	0.0207305	-0.0401657	
0.222027	0.0219448	0.0206065	
0.014788	0.0231202	0.00102008	
0.213746	0.0194496	0.018266	
-0.824552	0.0226305	-0.0642452	
0.177234	0.0239786	0.0153088	
-4.48939e-05	0.0221998	0.000507851	
-1.67813e-05	0.0191028	0.000186766	
-4.57112e-05	0.0171935	0.0011765	
-5.78901e-05	0.0215494	0.00129787	
3.04491e-06	0.0212992	-0.000119185	
0.944146	-0.00647612	0.0683702	
-0.978848	0.0196935	-0.080707	
-9.49972e-05	0.0183405	0.00140338	
-6.37149e-06	0.0207963	-0.000271376	
-2.30934e-05	0.0116812	0.000756873	
2.18002	0.00490017	0.167157	
0.777694	0.0179641	0.0604226	
0.117459	0.0133615	0.00908687	
0.783153	0.0093892	0.0628821	
0.265831	0.0163701	0.0115654	
0.829667	0.00877486	0.102629	
7.8468e-05	0.0155579	-0.0010757	
-0.73487	0.0138767	-0.0521572	
-0.351138	0.00973105	-0.0281783	
-0.0261421	0.0117237	-0.0024606	
1.49757	0.00681109	0.119211	
2.91964	0.010688	0.221729	
0.324232	0.0139308	0.0252497	
0.656251	0.0140831	0.0533921	
1.91521e-05	0.0107463	-0.00029526	
0.519949	0.0145185	0.040216	
0.0870861	0.015912	0.0064045	
-0.54911	0.0140006	-0.0462884	
0.63344	0.01404	0.0528857	
0.165674	0.015876	0.0120143	
6.92815e-05	0.0164086	-0.000753764	
4.20691e-05	0.0139976	-0.000460748	
8.29941e-05	0.0159405	-0.00110519	
3.88661e-05	0.0149869	-0.000530806	
-0.000548421	0.0132196	-2.64748e-05	
2.00531e-05	0.0140465	-0.00030958	
8.19685e-06	0.00784365	-0.000137484	
3.83242e-05	0.012954	-0.000473694	
-3.0027	0.000350027	-0.242996	
0.0330785	0.0149679	0.00359789	
-0.926957	0.0168833	-0.0675402	
0.0706393	0.0149899	0.00580154	
0.0331342	0.0147316	0.00368604	
-0.478557	0.0150342	-0.0372089	
-1.67226	0.0076038	-0.133505	
-1.06185	0.00951665	-0.109938	
-0.230782	0.0152606	-0.0158393	
-0.0383934	0.0151083	-0.00292879	
-9.95465e-05	0.0141682	0.0012875	
-0.234208	0.0133359	-0.0174483	
-0.484732	0.0153517	-0.0396552	
0.214147	0.0171154	0.0191292	
0.00741595	0.0181999	0.000476105	
0.200843	0.0152589	0.0168518	
-0.827903	0.016568	-0.0646736	
0.150945	0.0189598	0.0126894	
-3.73822e-05	0.0174478	0.00038355	
-1.74809e-05	0.0150841	0.000195237	
-4.9256e-05	0.0135343	0.000805695	
-7.35493e-05	0.0168911	0.000915751	
4.41442e-06	0.0167812	-2.55891e-05	
0.929391	-0.00512746	0.0681287	
-0.971692	0.0138961	-0.0795704	
-7.76644e-05	0.014393	0.000970967	
3.52773e-06	0.0164346	-0.00017916	
-3.03463e-05	0.00926968	0.000513625	
2.22286	0.00400741	0.172155	
0.819406	0.0156577	0.0620058	
0.103028	0.0108554	0.00802953	
0.79256	0.00789562	0.0636039	
0.255395	0.0138589	0.0129071	
0.934938	0.00823324	0.104746	
5.0646e-05	0.0126218	-0.000842373	
-0.790569	0.0106329	-0.0598432	
-0.397526	0.00791089	-0.0316788	
-0.0521133	0.00949081	-0.0043511	
1.58285	0.00561211	0.126797	
3.15286	0.0112085	0.203123	
0.316603	0.0115311	0.0245165	
0.70393	0.0118995	0.0571754	
1.14897e-05	0.008775	-0.000184095	
0.519373	0.0121174	0.0405854	
0.130436	0.0129416	0.00967999	
-0.569027	0.0113584	-0.0473783	
0.677362	0.0116964	0.0597965	
0.177734	0.0131346	0.0133138	
4.04941e-05	0.0132225	-0.000592752	
2.58787e-05	0.0113497	-0.000351811	
4.38887e-05	0.0128681	-0.000808139	
3.76748e-05	0.012166	-0.000441504	
-0.00123934	0.0107575	-8.12565e-05	
1.59145e-05	0.011428	-0.00026035	
2.40941e-06	0.00636138	-7.72399e-05	
1.97092e-05	0.010407	-0.000307857	
-3.24336	0.00251181	-0.237758	
0.051445	0.012089	0.00481224	
-0.969975	0.0158955	-0.0710447	
0.0380464	0.0123046	0.00392978	
0.0252022	0.0119118	0.00283454	
-0.496573	0.0126716	-0.0388769	
-1.69719	0.00627819	-0.136264	
-1.15163	0.0120626	-0.0926234	
-0.2266	0.0122843	-0.016965	
-0.0422917	0.012249	-0.00329165	
-6.33375e-05	0.0114928	0.00102221	
-0.242215	0.0110368	-0.0182388	
-0.483758	0.0127144	-0.0394499	
0.208727	0.0138752	0.0175268	
-0.000172936	0.0146684	-0.000106573	
0.191631	0.0123479	0.0159946	
-0.836487	0.0139373	-0.0647368	
0.127875	0.0151718	0.0106194	
-2.71873e-05	0.0140296	0.000291946	
-1.01474e-05	0.0121962	0.000166767	
-2.99812e-05	0.0108939	0.000573281	
-4.16876e-05	0.0136074	0.000661356	
4.45088e-07	0.0135229	5.39541e-06	
0.921322	-0.0042005	0.06831	
-0.971579	0.0120968	-0.079498	
-5.25147e-05	0.0115597	0.000683734	
1.4659e-07	0.013219	-0.000118367	
-1.5843e-05	0.00756625	0.000373395	
2.27263	0.00333118	0.177587	
0.861823	0.01294	0.0679663	
0.0900355	0.0089493	0.0072053	
0.804874	0.00653537	0.0647295	
0.245808	0.0109386	0.0150336	
1.03786	0.00673635	0.105383	
5.61836e-05	0.010444	-0.000650467	
-0.846543	0.0093614	-0.0623638	
-0.442827	0.00655435	-0.0352902	
-0.076993	0.00786874	-0.00638562	
1.66809	0.00464414	0.134377	
3.38102	0.00846249	0.242705	
0.311668	0.00950574	0.0243529	
0.751519	0.00963165	0.0606287	
6.72518e-06	0.00727977	-0.000113478	
0.520583	0.0100132	0.0410095	
0.173191	0.0106506	0.0130575	
-0.591086	0.00939935	-0.0489989	
0.721232	0.00972692	0.062872	
0.190006	0.0108661	0.0143952	
3.20582e-05	0.0108985	-0.000445122	
2.25764e-05	0.00936679	-0.000270081	
3.26759e-05	0.0106206	-0.000597971	
3.10101e-05	0.00998587	-0.000347805	
-0.00196131	0.00892376	-0.000131213	
1.27732e-05	0.00941416	-0.000201921	
8.91403e-07	0.00530692	-4.04371e-05	
1.33795e-05	0.00861991	-0.000209644	
-3.48107	0.000783014	-0.257132	
0.067497	0.00989136	0.00591189	
-1.01388	0.0129505	-0.0735826	
0.00808737	0.0104876	0.00181528	
0.0178179	0.00984457	0.00204647	
-0.517719	0.0104509	-0.0408604	
-1.72727	0.00513755	-0.139418	
-1.23884	0.0104381	-0.101476	
-0.222809	0.0100858	-0.0172107	
-0.0470479	0.0101181	-0.00373975	
-6.34613e-05	0.00953344	0.000785663	
-0.251348	0.00909736	-0.019143	
-0.484242	0.010443	-0.0396672	
0.205322	0.0114041	0.0173495	
-0.00570702	0.0120929	-0.000503804	
0.183344	0.0101935	0.0151733	
-0.84708	0.0115617	-0.0662471	
0.106101	0.0124801	0.00870772	
-1.99085e-05	0.0115283	0.000219489	
-9.83401e-06	0.0100942	0.000128987	
-2.23068e-05	0.00895474	0.000415142	
-3.00998e-05	0.0111778	0.000481146	
5.10659e-07	0.0111438	1.6044e-05	
0.917634	-0.00348287	0.0687178	
-0.973288	0.0100319	-0.0800186	
-3.73771e-05	0.00945633	0.00046865	
-1.02588e-06	0.010947	-7.17631e-05	
-1.29279e-05	0.00624805	0.000262931	
2.32545	0.0027988	0.182993	
0.90513	0.0102463	0.0715125	
0.0783731	0.00755219	0.0063611	
0.817996	0.00526907	0.0658436	
0.23772	0.00900375	0.0157156	
1.13718	0.00204736	0.117702	
6.73973e-05	0.00876777	-0.000528299	
-0.902884	0.00849135	-0.0632694	
-0.487369	0.00567204	-0.0388298	
-0.101	0.00666834	-0.00840113	
1.75499	0.00394071	0.142051	
3.61075	0.00212442	0.252099	
0.308877	0.00785117	0.0247767	
0.799589	0.00761426	0.0637275	
4.75352e-06	0.0061708	-6.79659e-05	
0.523079	0.00818912	0.0415232	
0.213484	0.00891651	0.0161528	
-0.613695	0.00786032	-0.0508087	
0.766026	0.00784976	0.0632152	
0.202698	0.00898829	0.0156725	
2.87075e-05	0.00915186	-0.000341737	
2.33183e-05	0.00787505	-0.000222831	
3.09616e-05	0.00893695	-0.000442161	
2.12847e-05	0.00841789	-0.000262494	
-0.00265013	0.00751119	-0.000171103	
1.02271e-05	0.00793214	-0.000162864	
1.09026e-06	0.00448486	-1.44796e-05	
1.2859e-05	0.00728195	-0.000152394	
-3.71832	-0.00934182	-0.275503	
0.0828693	0.00841372	0.00704043	
-1.05885	0.00982751	-0.0827893	
-0.0202099	0.00892421	-0.000565873	
0.0103679	0.00830659	0.0013138	
-0.539298	0.00849989	-0.0427188	
-1.75956	0.00436432	-0.142627	
-1.32555	0.00267648	-0.109551	