<VTKFile type="UnstructuredGrid" version="0.1" byte_order="LittleEndian">
	<UnstructuredGrid>
		<Piece NumberOfPoints="1120" NumberOfCells="1120">
			<CellData Scalars="scalars">
				<DataArray type="Float64" Name="Strength" NumberOfComponents="3" Format="ascii">
0.540664	-0.371308	-0.109443	
0.00335476	-1.04361	0.00947064	
-0.0150712	-0.939362	0.0158751	
0.0277792	-0.822359	0.0412841	
-0.000212091	-1.06764	0.0129305	
-0.0232798	-1.00606	0.0216199	
-0.000939533	-1.05344	0.00973956	
-0.0131173	-1.04945	0.0156529	
-0.0536049	-0.85075	0.0963506	
-0.0201082	-0.920062	0.0193999	
0.112556	-0.575104	0.0476124	
0.00974437	-1.02641	0.001576	
-0.0197149	-0.972437	0.0301151	
-0.0169255	-1.04325	0.00174354	
-0.0676587	-0.885222	0.0663408	
0.0353476	-0.9655	-0.0017841	
0.0348323	-1.04688	-0.00877178	
0.00939947	-1.01724	-0.00029385	
0.00132018	-1.03543	-0.0139714	
-0.0352473	-1.02859	0.0407572	
0.00889379	-1.03082	0.00703636	
-0.0254384	-1.02951	0.00398987	
-0.0284183	-1.04648	0.0418987	
0.0400328	-1.05428	-0.0201219	
0.00175921	-1.05471	0.000754984	
0.0119422	-1.02501	-0.00671282	
-0.0660851	-0.704262	0.107597	
-0.0256001	-0.956988	0.0238756	
-0.00265238	-1.05581	-0.00841313	
0.0128453	-0.944044	-0.0177886	
-0.0233598	-1.06839	0.00535795	
0.0285782	-1.05516	-0.0252046	
0.00110392	-1.03887	0.00157673	
0.061437	-0.829815	-0.0985854	
-0.292274	-0.604276	-0.030729	
0.00373147	-1.02679	-0.0143232	
0.0246011	-0.976442	-0.0290343	
0.0278138	-1.04	-0.00126135	
0.0113697	-1.00812	-0.0135858	
0.0569783	-0.875653	-0.0640465	
-0.0347359	-0.966622	0.00664151	
-0.0251042	-1.05654	0.00816657	
-0.00399297	-1.10289	-0.00310702	
-0.0270385	-1.02524	0.0209267	
0.0193517	-1.03114	-0.0318301	
0.0285055	-1.04572	-0.0305336	
0.00903555	-1.03558	-0.0123017	
0.00305908	-1.07008	0.0110478	
0.0632466	-0.914322	-0.0517081	
0.0330131	-1.04763	-0.0484739	
-0.0196637	-1.07442	0.00248888	
-0.316001	-0.37214	-0.0151561	
0.0241028	-0.808939	-0.13478	
0.0304463	-0.962344	-0.0255666	
-0.00998537	-1.05298	0.00703635	
0.0612655	-0.677936	-0.203276	
1.50033	0.027752	-0.110814	
0.0483141	-0.192289	-0.00819703	
0.124696	-0.164515	-0.0161872	
0.511943	-0.131054	-0.0641014	
-0.00929927	-0.206419	0.00460498	
-0.0474521	-0.206331	0.0127448	
-5.95732e-06	-0.204746	0.00100752	
-0.014343	-0.207947	0.00631686	
0.151768	-0.136429	-0.00887974	
0.147564	-0.161002	-0.0213373	
0.509672	-0.0671565	-0.0535337	
0.0475984	-0.210597	-0.0138276	
0.039426	-0.182218	0.000568899	
0.0245694	-0.20541	-0.00472188	
-0.00150856	-0.150046	0.0152812	
0.242903	-0.188228	-0.052992	
0.0461237	-0.191762	-0.0107158	
-0.0651204	-0.205032	0.0190998	
0.069416	-0.204104	-0.0189288	
-0.0294015	-0.194065	0.0153118	
0.00253814	-0.191172	0.00214528	
-0.000985621	-0.204884	0.000786959	
-0.000579428	-0.18956	0.00849739	
0.00490192	-0.201576	-0.000951548	
0.00447281	-0.20909	-0.00338284	
0.00226711	-0.204614	-0.000135057	
0.00113595	-0.101499	0.0139636	
0.0026589	-0.176701	0.0129405	
-0.0478493	-0.20972	0.00968132	
-0.143319	-0.166601	0.0220717	
-0.0205783	-0.208679	0.00847549	
0.122458	-0.205641	-0.0312067	
0.031529	-0.210269	-0.00450294	
-0.258767	-0.155968	0.0357856	
-1.24281	-0.15113	0.281992	
-0.0719889	-0.212282	0.0186175	
-0.0297837	-0.182822	-0.00495155	
0.0769359	-0.207966	-0.017771	
0.000826705	-0.2056	-0.000646319	
-0.172306	-0.15945	0.0194874	
-0.242615	-0.190139	0.0513367	
-0.0894976	-0.193911	0.022527	
0.0491112	-0.2024	-0.0156113	
-0.0862657	-0.205728	0.0244619	
-0.0572963	-0.197031	0.00794196	
0.0281465	-0.192551	-0.0134456	
-0.000371931	-0.192253	-0.00387693	
-0.000480608	-0.200991	0.00209511	
0.001183	-0.159112	-0.0191935	
0.000908984	-0.189794	-0.00948977	
-0.00286574	-0.20281	-0.00146683	
-0.721086	-0.0617444	0.0781106	
-0.359585	-0.154489	0.073742	
-0.00263469	-0.177108	-0.0144842	
-0.00217656	-0.206177	-0.000219536	
-0.00134211	-0.0990286	-0.033341	
2.49969	0.15528	0.00311307	
0.0869453	-0.0589103	0.00527524	
0.244523	-0.0426842	0.023226	
0.903478	0.00213431	0.0816593	
-0.0256183	-0.0692899	-0.000190215	
-0.0594804	-0.0706372	-0.00177453	
-7.18399e-05	-0.0688555	-0.00022797	
-0.0289982	-0.0706839	-0.000375083	
0.287642	-0.0271019	0.0436405	
0.271137	-0.039569	0.0412926	
0.87089	0.0362383	0.0039116	
0.0766614	-0.0732153	0.000960763	
0.0876624	-0.0539927	0.00967803	
0.0410298	-0.0706338	0.00130385	
-0.0002883	-0.0409012	0.00928343	
0.41744	-0.0501243	0.0256486	
0.0936762	-0.0598162	0.00387068	
-0.10151	-0.0700835	-0.000295285	
0.132497	-0.0680137	0.00214917	
-0.0387926	-0.0611017	0.00142129	
0.000362648	-0.0605421	0.00159369	
0.000211056	-0.0710024	0.000473055	
0.00069217	-0.0589606	0.00411967	
0.000289094	-0.0658787	0.000658084	
0.00988717	-0.0725001	-0.000319297	
0.000163985	-0.0693802	0.000843086	
0.00142031	-0.0255368	0.00871968	
0.000591245	-0.0534905	0.00611352	
-0.0730529	-0.0724941	-0.00158916	
-0.282083	-0.0410175	-0.00581054	
-0.030396	-0.0698367	0.000669991	
0.2013	-0.0683964	0.00121796	
0.052686	-0.070046	0.00278284	
-0.485462	-0.0229656	-0.0416784	
-2.19648	0.090375	0.0376474	
-0.138429	-0.0734329	-0.00115892	
-0.0725715	-0.0543257	-0.0056067	
0.111042	-0.0687159	0.00491861	
8.7834e-05	-0.0709985	0.000602518	
-0.317982	-0.0330297	-0.0279884	
-0.417748	-0.0490665	-0.0136706	
-0.166812	-0.0590139	-0.00569645	
0.0813773	-0.0637399	0.000502608	
-0.143794	-0.066731	-0.00330083	
-0.110897	-0.0593839	-0.00659367	
0.0421927	-0.0600956	-0.00132945	
-0.000322485	-0.0603431	-0.00230259	
-3.15183e-05	-0.0646248	0.000610002	
-0.000407032	-0.0450803	-0.00868631	
-0.000881623	-0.0589726	-0.00451448	
-0.000306415	-0.064594	-0.00132468	
1.16688	-0.0329519	-0.0522833	
-0.662485	-0.002147	-0.023632	
-0.00100576	-0.0534385	-0.00617905	
-0.000181537	-0.0660902	-0.000351369	
-0.00171467	-0.0283214	-0.00481734	
3.29432	0.0782509	0.175408	
0.136429	0.08046	-0.0118787	
0.324919	0.0904488	-0.00739272	
1.1194	0.11076	-0.0202995	
-0.0212502	0.076776	0.00069796	
-0.0815906	0.0762885	-0.00674424	
0.00023488	0.0759801	-0.00114085	
-0.0359933	0.0773468	0.0060496	
0.35923	0.082952	-0.0151413	
0.361796	0.083759	-0.00120598	
1.09371	0.0698952	0.0191131	
0.115029	0.0729422	-0.00839288	
0.105787	0.0901648	0.0078658	
0.0577639	0.0786314	0.00807355	
-8.05838e-05	0.0777627	-0.0167894	
0.577286	0.110752	0.0576177	
0.153042	0.0786182	-0.013947	
-0.128798	0.0811387	0.00313525	
0.183111	0.0783375	0.00885533	
-0.0520473	0.0848337	-0.0179751	
0.00159427	0.0813918	-0.0149629	
0.000121201	0.0779988	0.00418639	
-0.00111071	0.0861536	-0.00679524	
-5.92483e-05	0.0809482	-0.00435745	
0.0177476	0.0753974	-0.000912067	
-7.12188e-05	0.0789699	0.00358857	
-0.0027559	0.0494541	-0.0157329	
-0.00359606	0.0846005	0.000943734	
-0.0986366	0.0740421	0.00671174	
-0.377087	0.0955249	0.0114062	
-0.0711035	0.0753142	-0.00939048	
0.281293	0.0740135	0.021261	
0.0653361	0.0770624	-0.00985264	
-0.573207	0.0952101	-0.0307042	
-2.7869	0.0954823	-0.135929	
-0.194637	0.0706696	0.00471757	
-0.0860796	0.0912308	-0.00317596	
0.15185	0.0768975	-0.0155276	
-0.00012506	0.0738273	-0.000443261	
-0.422166	0.0858365	-0.0329911	
-0.575679	0.109175	-0.0458571	
-0.247344	0.084946	0.0161746	
0.0969374	0.08186	0.000855492	
-0.214255	0.0805035	-0.0123842	
-0.160226	0.0858002	0.00971751	
0.0554181	0.0848222	0.0155146	
-0.00133038	0.0838717	0.0135448	
-0.000728231	0.0784114	0.00108633	
-0.000143102	0.0824726	0.00925859	
0.000958694	0.0870588	0.00909733	
0.000706349	0.0841934	0.0014636	
1.59205	-0.0281691	0.0400738	
-0.804359	0.100852	-0.024483	
0.00417329	0.0857304	0.00176441	
0.000201783	0.0815325	-0.00143018	
0.00172458	0.0481401	0.0074197	
5.70478	-0.0803861	0.285914	
-1.99421	-0.543846	-0.249241	
0.575757	-0.393267	0.329135	
1.56499	-0.149134	0.0607826	
1.93798	-0.486634	0.154956	
-1.7771	-0.567615	-0.109878	
-0.00241753	-0.554013	-0.0122975	
-0.63141	-0.284034	0.0616301	
0.62531	-0.109826	0.0591205	
1.12393	-0.252068	0.205178	
-0.253525	-0.266805	0.0197304	
-0.0972725	-0.36725	-0.0336266	
3.02908	-0.596947	0.314039	
0.741706	-0.429463	0.156479	
-0.00927933	-0.098118	0.0579236	
0.788217	-0.55907	0.268141	
-0.959652	-0.286546	-0.168805	
0.162432	-0.121907	0.0206648	
1.44016	-0.299824	0.181836	
-0.315697	-0.528399	-0.109469	
0.0350115	-0.243514	-0.116721	
-0.0274858	-0.294798	0.101448	
-0.0173666	-0.551945	0.0618893	
0.00757093	-0.142007	-0.0217183	
0.0187403	-0.340073	0.0192486	
-0.00892328	-0.175932	0.0392169	
-0.000797238	-0.0793486	0.0202432	
-0.0297713	-0.163634	0.137384	
0.0888942	-0.340609	0.0331912	
-0.382937	-0.491946	-0.355672	
-2.327	-0.531536	-0.225428	
0.424147	-0.521238	-0.0562719	
0.018088	-0.277847	-0.0694738	
-1.0229	-0.256543	-0.161312	
-3.6355	-0.474595	-0.306703	
1.29635	-0.37983	0.0842969	
-2.71693	-0.594967	-0.241738	
0.193834	-0.262742	-0.0254851	
0.00441316	-0.534111	0.0233343	
-1.14514	-0.298992	-0.231915	
-0.772197	-0.623969	-0.147306	
0.670678	-0.285336	0.094294	
-1.22769	-0.398494	-0.101024	
0.355151	-0.349302	-0.0124716	
1.43997	-0.63233	0.144654	
0.958594	-0.480909	0.206333	
-0.0334397	-0.289287	0.0790865	
0.0100814	-0.269592	-0.0286007	
0.0461979	-0.248407	-0.150939	
0.00258868	-0.600174	0.00641806	
-0.00530971	-0.193423	0.0107243	
2.1222	0.167988	0.035408	
-1.24206	-0.245555	-0.127073	
0.0408474	-0.250915	-0.152327	
0.00698719	-0.342212	-0.0424408	
0.00620354	-0.160079	-0.0479613	
4.42984	0.256776	0.296034	
0.054562	0.569741	-0.0859501	
0.546657	0.669695	-0.0374141	
1.25836	0.453719	0.154071	
1.18394	0.747795	0.0848722	
-0.898151	0.75998	-0.198149	
-0.00678124	0.735774	-0.0513284	
-0.299232	0.614955	-0.11956	
0.370711	0.427708	-0.0319188	
0.647709	0.536397	-0.00631136	
1.14752	0.498514	0.0744311	
0.793169	0.62722	0.149458	
0.710234	0.608347	0.0325813	
0.471603	0.679538	0.0400292	
-0.00817621	0.442997	-0.102568	
1.24503	0.843786	0.0867807	
-0.619116	0.537563	-0.147813	
-0.258419	0.489845	-0.0447905	
0.785873	0.595412	0.135703	
-0.16604	0.764433	-0.173689	
0.0151893	0.537555	-0.0474043	
-0.0154026	0.617042	-0.0584854	
0.00178386	0.794525	-0.124827	
0.0148597	0.496784	0.0129791	
0.0154719	0.53914	0.00836966	
-0.000677675	0.539507	-0.00260469	
-0.00278508	0.355548	-0.0570679	
0.00399706	0.53889	-0.0741772	
-0.780433	0.560953	-0.086248	
-0.445789	0.694728	0.0450988	
-1.41027	0.713981	-0.213897	
0.933998	0.716133	0.112259	
0.0757384	0.595464	0.0263948	
-0.72989	0.428721	-0.0300282	
-2.89124	0.63893	-0.257409	
-0.0293479	0.614357	0.0794743	
-0.435503	0.618435	-0.035227	
-0.164549	0.583005	-0.0198962	
0.0104995	0.766706	0.0264327	
-0.679682	0.500534	0.0121038	
-1.18691	0.852894	-0.0668199	
0.425157	0.55821	0.0598482	
-0.329493	0.628912	-0.099009	
0.328919	0.659293	0.0573424	
-0.544869	0.790338	0.00509006	
0.83489	0.57011	0.241717	
-0.0129338	0.550648	0.0276199	
-0.00115954	0.613266	0.0454579	
0.0170318	0.526309	0.130939	
0.00531274	0.802309	0.120356	
-0.0153198	0.522501	-0.0464678	
3.03342	-0.280705	0.194528	
-1.48372	0.478702	-0.214506	
-0.007291	0.554123	0.0823422	
-0.0105021	0.631873	-0.0138904	
-0.00228323	0.420829	0.074522	
2.95855	0.0887569	0.214666	
0.446682	0.326733	0.0684422	
0.377316	0.316643	0.0111172	
0.990494	0.197873	0.123331	
0.678371	0.356447	0.0902253	
-0.307188	0.345535	-0.0730541	
-0.00132415	0.383805	-0.026318	
-0.342824	0.324366	-0.104024	
0.147185	0.201961	-0.000638442	
0.366677	0.25671	0.00991638	
1.10171	0.14357	0.095642	
1.2022	0.326191	0.276318	
0.54772	0.282748	0.0638562	
0.403844	0.324673	0.0735032	
0.000284699	0.222614	-0.0264821	
0.857531	0.299883	0.112476	
-0.438839	0.286579	-0.0937109	
-0.395575	0.271527	-0.0777245	
0.518823	0.29419	0.0921755	
0.0469353	0.327762	-0.0211557	
0.00341521	0.293817	-0.0119796	
-6.17742e-05	0.308815	-0.0122524	
0.00800919	0.347195	-0.036606	
0.00293249	0.274701	-0.00130563	
0.00908672	0.306856	0.00100179	
0.00177531	0.280802	-0.00179471	
0.000521412	0.160015	-0.0148221	
0.00699842	0.27544	-0.0322234	
-1.20929	0.327193	-0.24148	
-0.249313	0.354542	0.0161239	
-0.922776	0.363534	-0.158589	
0.580286	0.377188	0.146629	
0.0953663	0.330392	0.0314575	
-0.558877	0.247659	-0.0582023	
-2.12868	0.169153	-0.20958	
-0.322655	0.33161	-0.0513817	
-0.365459	0.313523	-0.0336828	
-0.0976902	0.325497	-0.0281192	
0.00302805	0.348459	0.0180944	
-0.394381	0.260816	-0.0312043	
-0.817817	0.320953	-0.131888	
0.383959	0.304539	0.088472	
-0.0651584	0.36352	-0.0292543	
0.317224	0.324483	0.0584993	
-0.957746	0.344079	-0.169614	
0.59351	0.33955	0.14622	
-0.00325626	0.309658	0.00800615	
-0.000922291	0.317754	-0.00142629	
-0.00182298	0.282484	0.0478204	
-0.00746788	0.369255	0.0364298	
-0.00333871	0.303935	-0.0147716	
1.78683	-0.0962259	0.126592	
-1.30967	0.243993	-0.202383	
-0.00906499	0.30805	0.0498595	
-0.00263502	0.328006	-0.0126503	
-0.00227375	0.194365	0.028441	
2.44077	0.0422242	0.182888	
0.597828	0.166424	0.0674118	
0.307606	0.138533	0.0212446	
0.85201	0.0909477	0.0814552	
0.447421	0.167497	0.0383715	
0.00732729	0.161897	-0.00707872	
-0.000691065	0.178383	-0.0110554	
-0.421975	0.151675	-0.0693018	
-0.000824437	0.0939867	-0.00775311	
0.22553	0.118633	0.00824431	
1.10519	0.0641266	0.090012	
1.53536	0.159829	0.22732	
0.493493	0.132723	0.0432139	
0.443045	0.154881	0.0515418	
0.000115597	0.105385	-0.00883561	
0.662088	0.139656	0.0588986	
-0.337743	0.146806	-0.0463467	
-0.50141	0.139485	-0.0658265	
0.445519	0.145588	0.0535608	
0.0851343	0.156376	-0.00355897	
0.001155	0.149189	-0.00483795	
0.000223903	0.150371	-0.0043833	
0.00144675	0.158692	-0.0161089	
0.000630701	0.139746	-0.000636902	
0.00542493	0.146424	0.00113637	
0.000207266	0.142059	0.000739206	
0.000106085	0.0739246	-0.00463763	
0.00100944	0.127086	-0.0119665	
-1.56589	0.160485	-0.219483	
-0.166391	0.154726	-0.00434532	
-0.757139	0.173265	-0.0869672	
0.424518	0.175465	0.0713838	
0.101758	0.158435	0.0202447	
-0.449937	0.124143	-0.0376272	
-1.82525	0.0709419	-0.158056	
-0.492461	0.163395	-0.0452521	
-0.350277	0.144105	-0.0397877	
-0.0891483	0.158045	-0.0103532	
0.00109659	0.162844	0.0106889	
-0.278126	0.124604	-0.01777	
-0.630289	0.147596	-0.0756061	
0.362322	0.15668	0.0530756	
0.053155	0.175763	0.00188131	
0.300672	0.159158	0.0379924	
-0.979575	0.164882	-0.112584	
0.439702	0.17566	0.0704608	
-0.00110402	0.158061	0.0028846	
-0.000414474	0.155867	-0.000179395	
-0.00120526	0.132007	0.0184528	
-0.00177081	0.168346	0.0156375	
-0.000423731	0.154583	-0.00622015	
1.33735	-0.0428131	0.0979263	
-1.17043	0.118035	-0.134117	
-0.00210889	0.141307	0.020116	
-0.000348461	0.162866	-0.00725052	
-0.000652301	0.0850441	0.00974066	
2.23895	0.022491	0.164138	
0.579797	0.0949162	0.0536006	
0.27173	0.0684547	0.0169392	
0.817996	0.0514359	0.0679468	
0.406276	0.079694	0.0278594	
0.189112	0.0772421	0.0118656	
-0.000706891	0.0838635	-0.00499189	
-0.460527	0.0751432	-0.0538942	
-0.0662543	0.0481223	-0.0092303	
0.172694	0.0573819	0.0087128	
1.12845	0.0334019	0.0865562	
1.72256	0.0807012	0.213723	
0.445116	0.0686801	0.0343105	
0.420709	0.0804488	0.039181	
5.41585e-06	0.0523418	-0.00402983	
0.569782	0.0723069	0.0443782	
-0.216873	0.0809101	-0.0235243	
-0.479682	0.0713822	-0.0506195	
0.443213	0.073143	0.045023	
0.0875931	0.0802257	0.00247811	
0.000321311	0.0845472	-0.002964	
-0.000116226	0.073097	-0.00180756	
0.000107081	0.0794149	-0.00660576	
0.000436815	0.0760075	-0.00139225	
0.00422271	0.0752603	0.000594642	
6.9577e-05	0.0705051	-0.000428639	
-2.65758e-05	0.0396414	-0.002091	
0.000112142	0.061726	-0.00555487	
-1.7637	0.0975417	-0.193237	
-0.125833	0.0747628	-0.00430273	
-0.791699	0.0841761	-0.0754369	
0.317286	0.0815623	0.0462096	
0.0811339	0.0804962	0.012029	
-0.444318	0.0701714	-0.0343918	
-1.72438	0.0358016	-0.135643	
-0.585557	0.0862285	-0.052014	
-0.319426	0.0726407	-0.0229704	
-0.0186135	0.0821531	-0.00186288	
0.000957803	0.074912	0.00535624	
-0.258678	0.0633272	-0.017077	
-0.540714	0.0764184	-0.0514204	
0.290145	0.0859219	0.0289205	
0.044976	0.0910054	0.00283959	
0.293589	0.0776532	0.0298776	
-0.863616	0.085849	-0.0846973	
0.355584	0.0965138	0.0407082	
-0.000373118	0.0879862	0.00130509	
-0.000104224	0.0769948	-7.44907e-05	
-0.00035001	0.0633701	0.00743632	
-0.00012355	0.0831992	0.0059844	
-0.000154778	0.0821211	-0.00199262	
1.14481	-0.022298	0.0799794	
-1.08784	0.0687438	-0.0992986	
-0.000399161	0.0677694	0.00766753	
-0.000113146	0.0810176	-0.0028281	
-6.52961e-05	0.0425249	0.00436633	
2.16168	0.0151214	0.158803	
0.621569	0.0612361	0.0521391	
0.220198	0.045545	0.0155353	
0.791309	0.032289	0.0638822	
0.35689	0.0512363	0.0288103	
0.351309	0.0510264	0.0263518	
-0.000345914	0.0531417	-0.00319876	
-0.512133	0.0459664	-0.0516494	
-0.136666	0.0308552	-0.0129228	
0.114515	0.0389616	0.00664524	
1.19113	0.0219767	0.0914516	
1.97193	0.0541679	0.199582	
0.40064	0.0485143	0.0296338	
0.461113	0.0495127	0.0405426	
-2.49011e-07	0.0347621	-0.00191818	
0.545542	0.0511598	0.0406754	
-0.131228	0.051727	-0.0131094	
-0.498708	0.046931	-0.0463846	
0.470159	0.0475351	0.0450034	
0.107234	0.0532198	0.00600304	
0.000130255	0.0535152	-0.00201792	
-4.83096e-06	0.0470359	-0.00139177	
5.68149e-05	0.053343	-0.00421215	
0.000233528	0.0485052	-0.000936688	
0.00310598	0.0439908	0.000257366	
4.28309e-05	0.0464063	-0.000460512	
-1.1533e-05	0.0248743	-0.00105904	
2.15199e-05	0.0433054	-0.00266417	
-2.02222	0.0576597	-0.198291	
-0.076269	0.0495293	-0.00243744	
-0.798676	0.054484	-0.0698104	
0.248521	0.0512776	0.0284927	
0.072375	0.0490583	0.0089484	
-0.43642	0.047187	-0.0331517	
-1.67538	0.0243456	-0.130745	
-0.694023	0.0551717	-0.0641341	
-0.285955	0.0513205	-0.018084	
-0.0172938	0.0498035	-0.00107273	
0.000404106	0.0480593	0.00351098	
-0.237587	0.0427202	-0.0162401	
-0.509917	0.0539278	-0.0443849	
0.258089	0.0557124	0.0241569	
0.0436173	0.0590725	0.00292356	
0.270317	0.0504568	0.0249394	
-0.839447	0.0582084	-0.0718669	
0.291701	0.0617201	0.029609	
-0.000171776	0.0563064	0.000976556	
-8.14148e-05	0.0494125	6.49865e-05	
-0.000210718	0.0431473	0.00406633	
-5.22589e-05	0.056041	0.00379078	
-4.58551e-05	0.0537002	-0.000955597	
1.05955	-0.0152688	0.0739282	
-1.04211	0.0468918	-0.0883023	
-0.000215028	0.0470149	0.00443146	
-6.09672e-05	0.0532401	-0.00138429	
1.18394e-05	0.0284284	0.002265	
2.12794	0.0108646	0.157434	
0.663978	0.0419918	0.0488018	
0.1847	0.0317218	0.0134139	
0.774493	0.0218927	0.0617466	
0.3181	0.0355528	0.0195542	
0.486555	0.0338278	0.0488161	
1.81659e-05	0.0365784	-0.00211194	
-0.567739	0.0320874	-0.0500843	
-0.198727	0.022523	-0.0167708	
0.0710181	0.0275188	0.00424448	
1.26306	0.0158261	0.0972945	
2.21966	0.0357868	0.17968	
0.36884	0.0333543	0.027879	
0.51268	0.0330662	0.0427749	
5.35851e-05	0.025084	-0.00113463	
0.53477	0.0347179	0.0405715	
-0.0698626	0.0369366	-0.00695264	
-0.504054	0.0326056	-0.0448748	
0.508113	0.0326706	0.0396365	
0.123944	0.0372121	0.00726305	
0.000145983	0.0377331	-0.0014243	
7.24131e-05	0.0325254	-0.000998212	
0.000186844	0.0374063	-0.00269292	
6.30737e-05	0.034761	-0.000794077	
0.00157009	0.030429	0.000157369	
2.2149e-05	0.0324327	-0.000423869	
2.68261e-05	0.0179563	-0.000638813	
0.000100923	0.0305549	-0.00148695	
-2.27637	0.0257321	-0.202426	
-0.0393032	0.0350195	-0.00075411	
-0.813731	0.035884	-0.0684084	
0.191482	0.0357773	0.0183317	
0.0619424	0.0337404	0.00716929	
-0.436279	0.0331166	-0.0327407	
-1.65097	0.0172396	-0.128404	
-0.789688	0.0328763	-0.0763933	
-0.26171	0.0356523	-0.0197768	
-0.0264103	0.0343483	-0.00196841	
-9.40108e-05	0.0330319	0.0024306	
-0.22916	0.0302989	-0.0159457	
-0.498911	0.036463	-0.041997	
0.244421	0.0393175	0.0239096	
0.0329628	0.0417902	0.00229572	
0.246629	0.0351971	0.0214991	
-0.830039	0.0388562	-0.0655845	
0.245399	0.0433925	0.0224129	
-9.08543e-05	0.0396936	0.000751607	
-2.37074e-05	0.0345592	7.4464e-05	
-9.80486e-05	0.0309589	0.00221299	
-0.000172018	0.0392782	0.00235662	
6.0198e-06	0.0383956	-0.000360114	
1.00486	-0.011228	0.0706941	
-1.01138	0.0307158	-0.0833943	
-0.000196874	0.0334332	0.00265498	
1.06375e-05	0.037592	-0.000734568	
-6.66215e-05	0.0206756	0.00145511	
2.12485	0.00800539	0.159212	
0.702255	0.0315474	0.0524224	
0.156783	0.0228234	0.0115991	
0.768835	0.0162822	0.061147	
0.293569	0.0266776	0.0170907	
0.609962	0.0276627	0.0512967	
-5.21613e-05	0.0265224	-0.00155859	
-0.625108	0.0227152	-0.0540865	
-0.25306	0.0162334	-0.0205076	
0.0348016	0.0197988	0.00207428	
1.34065	0.0115054	0.104105	
2.46178	0.0317787	0.170716	
0.347003	0.024265	0.0264344	
0.56247	0.0248407	0.0462549	
2.63538e-05	0.0181058	-0.000621555	
0.526992	0.0254172	0.0404192	
-0.0150401	0.026906	-0.00201577	
-0.516021	0.0239338	-0.0442291	
0.549029	0.0244082	0.0464201	
0.138118	0.0271857	0.00916405	
7.88561e-05	0.0276021	-0.00111953	
2.98039e-05	0.023707	-0.000671386	
8.16068e-05	0.0270447	-0.0017688	
6.84326e-05	0.0253781	-0.000658011	
0.0011332	0.0221589	0.000121993	
1.59914e-05	0.0237563	-0.00034705	
8.56653e-06	0.0130496	-0.00034276	
5.53932e-05	0.0219602	-0.00101454	
-2.52648	0.0232908	-0.205692	
-0.0104777	0.0254607	0.000711885	
-0.844447	0.0279232	-0.0660813	
0.14591	0.0254764	0.0132874	
0.0520671	0.0247782	0.00573685	
-0.444362	0.0252984	-0.0339294	
-1.64277	0.0128401	-0.128485	
-0.883644	0.0281929	-0.0772078	
-0.245549	0.0261475	-0.0184034	
-0.0317442	0.0253561	-0.0024001	
-2.73094e-06	0.0240601	0.00186415	
-0.228076	0.022602	-0.016493	
-0.491775	0.0271313	-0.0405352	
0.233375	0.0287795	0.0213936	
0.0243036	0.030559	0.0017242	
0.228689	0.0257695	0.0195682	
-0.825979	0.0293843	-0.0638202	
0.207851	0.0316384	0.0180359	
-5.20543e-05	0.0291417	0.000547413	
-1.13782e-05	0.0253557	0.000152125	
-5.27512e-05	0.0226956	0.00139791	
-7.35022e-05	0.0286227	0.00154375	
9.45694e-06	0.0281186	-0.000214232	
0.967342	-0.00829177	0.0690511	
-0.99259	0.0241362	-0.0812729	
-0.000117025	0.0243511	0.00169832	
-1.74948e-06	0.0275563	-0.000381646	
-2.95363e-05	0.0154104	0.000942821	
2.14493	0.00617583	0.162734	
0.739534	0.02404	0.0574028	
0.136055	0.0171933	0.0104867	
0.774455	0.0126414	0.0617502	
0.279249	0.0200271	0.0144282	
0.721785	0.0189185	0.0816814	
9.87312e-06	0.0197522	-0.00116508	
-0.67962	0.0172446	-0.0540613	
-0.30293	0.0123203	-0.0242919	
0.00348153	0.0149692	-0.000196385	
1.41706	0.00872349	0.111256	
2.68981	0.0223968	0.192321	
0.333207	0.0182352	0.0257264	
0.608402	0.0187814	0.0494131	
1.68407e-05	0.0137526	-0.000388207	
0.522464	0.0191407	0.0403302	
0.0383889	0.0202776	0.0024992	
-0.531301	0.0179961	-0.0447062	
0.590343	0.0183547	0.0523807	
0.15174	0.0205162	0.0109411	
4.917e-05	0.0208881	-0.000752541	
3.01764e-05	0.0177911	-0.000513209	
5.5401e-05	0.0203264	-0.00121074	
5.27141e-05	0.0190347	-0.000514462	
0.000299823	0.016911	4.21747e-05	
1.62461e-05	0.017812	-0.000298815	
4.1674e-06	0.0101366	-0.000186979	
3.36679e-05	0.0165087	-0.000632356	
-2.7637	0.0172593	-0.220583	
0.0127822	0.0191677	0.00199091	
-0.885401	0.0215754	-0.0648462	
0.106026	0.0190476	0.00863427	
0.0421314	0.0187184	0.00444405	
-0.458769	0.0195912	-0.0354214	
-1.65337	0.00965748	-0.130736	
-0.97374	0.0218581	-0.0834348	
-0.236485	0.0196203	-0.0165161	
-0.0342024	0.0192172	-0.0025969	
-2.72731e-05	0.0179352	0.00133496	
-0.231068	0.0172651	-0.0170671	
-0.486916	0.0204536	-0.0398794	
0.222069	0.0219282	0.0201783	
0.0147889	0.0231167	0.00108182	
0.213776	0.0194044	0.0179643	
-0.824623	0.0222877	-0.0634808	
0.177265	0.024028	0.0148723	
-3.72834e-05	0.0222019	0.000401887	
-6.56599e-06	0.0191034	9.59742e-05	
-3.6738e-05	0.0172083	0.000933581	
-4.78744e-05	0.0215633	0.00104114	
3.69699e-06	0.0212993	-8.49913e-05	
0.944136	-0.00647573	0.0683659	
-0.978914	0.0187145	-0.0801476	
-7.73374e-05	0.0183606	0.00111097	
-7.08978e-06	0.020797	-0.000194632	
-1.93652e-05	0.0116905	0.000594771	
2.18002	0.00486411	0.167174	
0.777722	0.0180096	0.0600783	
0.117449	0.0133655	0.00921796	
0.783187	0.00928365	0.0624796	
0.265728	0.0156375	0.0145768	
0.830713	0.0103467	0.0937228	
7.29133e-05	0.0155715	-0.000856939	
-0.734801	0.01394	-0.0531328	
-0.351157	0.00977646	-0.0279259	
-0.0261522	0.0117278	-0.00233087	
1.49756	0.00677504	0.119131	
2.92035	0.0125212	0.212226	
0.324225	0.0139187	0.0253551	
0.656315	0.0141494	0.0526027	
1.44152e-05	0.010748	-0.000224106	
0.519943	0.0144811	0.0403138	
0.0870845	0.0159192	0.00641195	
-0.549153	0.014024	-0.0457862	
0.633419	0.0140717	0.0531585	
0.165661	0.015886	0.0121863	
5.33655e-05	0.0164153	-0.00059146	
3.32763e-05	0.0140003	-0.000365666	
6.30492e-05	0.0159561	-0.000851483	
2.89378e-05	0.0149912	-0.000390789	
-0.000547496	0.0132196	-3.00708e-05	
1.41224e-05	0.0140477	-0.000248479	
5.13363e-06	0.00784433	-8.7326e-05	
3.0466e-05	0.0129573	-0.000372458	
-3.00345	0.00279667	-0.233702	
0.0330951	0.0149847	0.00336926	
-0.926949	0.0167283	-0.0677328	
0.0705538	0.0153279	0.0059588	
0.0331457	0.014751	0.00350192	
-0.478565	0.0148844	-0.0371674	
-1.67225	0.00756928	-0.133374	
-1.06294	0.0109911	-0.098722	
-0.230733	0.0152207	-0.016588	
-0.0383936	0.0151016	-0.00296258	
-9.29818e-05	0.01419	0.00102061	
-0.234211	0.0132782	-0.0174484	
-0.484746	0.0153437	-0.0394984	
0.214163	0.0171393	0.0189462	
0.00741313	0.0181996	0.000526162	
0.200862	0.0152482	0.0166352	
-0.827952	0.0166114	-0.0640678	
0.150972	0.0189612	0.0123674	
-2.96216e-05	0.0174496	0.000291974	
-1.23599e-05	0.0150847	0.000135044	
-3.81158e-05	0.0135437	0.000627501	
-5.69392e-05	0.0169009	0.000713857	
3.59638e-06	0.0167812	-7.64004e-06	
0.929384	-0.00512924	0.0681425	
-0.97172	0.0135209	-0.0793022	
-6.07048e-05	0.0144067	0.000741657	
2.55246e-07	0.016435	-0.00012049	
-2.27745e-05	0.00927593	0.000383905	
2.22286	0.00398396	0.172173	
0.819318	0.0152198	0.0633268	
0.103013	0.010855	0.00823084	
0.792592	0.00771283	0.0632499	
0.255283	0.0129682	0.0157629	
0.936072	0.00950362	0.0942077	
4.96412e-05	0.0126334	-0.00064488	
-0.790478	0.0109863	-0.0610315	
-0.397543	0.0079746	-0.0314603	
-0.0521174	0.00949532	-0.00429398	
1.58282	0.00558259	0.126727	
3.15247	0.0119471	0.209376	
0.316582	0.0114099	0.0248677	
0.704014	0.0117891	0.0562076	
8.25921e-06	0.00877587	-0.000133937	
0.519372	0.0119235	0.0406881	
0.130433	0.0129227	0.00975343	
-0.569063	0.0113789	-0.0469778	
0.677547	0.0116323	0.0577159	
0.177726	0.0130436	0.0135229	
3.14872e-05	0.0132286	-0.000431934	
2.01192e-05	0.011352	-0.000266442	
3.40253e-05	0.0128795	-0.000599915	
2.72286e-05	0.0121699	-0.000316629	
-0.00124188	0.0107572	-8.14916e-05	
1.07176e-05	0.0114292	-0.000199884	
8.83824e-07	0.00636168	-3.97028e-05	
1.60885e-05	0.0104089	-0.000233361	
-3.24345	0.00374177	-0.236821	
0.0514578	0.0121109	0.00461951	
-0.969817	0.0144937	-0.0735258	
0.0379802	0.0125455	0.00380934	
0.0252086	0.0119361	0.00267266	
-0.496587	0.0123666	-0.0388234	
-1.69716	0.00624906	-0.136162	
-1.15131	0.00972239	-0.0969496	
-0.226536	0.0121685	-0.0178849	
-0.0422931	0.012233	-0.00333611	
-6.2858e-05	0.0115119	0.000777512	
-0.24222	0.0109241	-0.0182464	
-0.483769	0.0125608	-0.0393931	
0.208737	0.0138649	0.0174328	
-0.000174485	0.0146686	-6.44709e-05	
0.191648	0.0123315	0.0158064	
-0.836534	0.0137459	-0.064226	
0.127892	0.0151918	0.0103963	
-2.10589e-05	0.014031	0.000211182	
-7.72997e-06	0.0121967	0.000114125	
-2.27891e-05	0.0109005	0.00043001	
-3.25298e-05	0.0136144	0.000497121	
4.71319e-07	0.0135229	1.53799e-05	
0.921317	-0.00419856	0.0683209	
-0.971607	0.0114298	-0.0792996	
-3.98586e-05	0.0115691	0.000499993	
-2.02174e-06	0.0132193	-7.43723e-05	
-1.22908e-05	0.00757085	0.000263018	
2.27264	0.00331425	0.177528	
0.861844	0.0124737	0.0678888	
0.0900291	0.00894304	0.00729976	
0.804907	0.00631684	0.0644045	
0.245647	0.0101128	0.0179817	
1.03872	0.00726592	0.0962128	
5.36155e-05	0.0104532	-0.000478644	
-0.846304	0.00958017	-0.065584	
-0.442845	0.00663604	-0.0350847	
-0.0769909	0.00787786	-0.00640877	
1.66808	0.00461144	0.134359	
3.3817	0.00765846	0.233673	
0.31165	0.00938599	0.0246625	
0.751609	0.00953394	0.0596169	
4.73305e-06	0.0072802	-7.92462e-05	
0.520583	0.00981072	0.0411046	
0.173193	0.0106236	0.0130733	
-0.591116	0.00939237	-0.0487139	
0.721432	0.00958782	0.0606446	
0.189997	0.0107513	0.014621	
2.44312e-05	0.0109033	-0.000303798	
1.82451e-05	0.00936843	-0.000206149	
2.48452e-05	0.0106291	-0.000421688	
2.08897e-05	0.00998908	-0.000237504	
-0.00196833	0.00892223	-0.000126668	
8.03385e-06	0.00941513	-0.000147603	
1.71674e-07	0.00530668	-1.06281e-05	
1.15236e-05	0.00862101	-0.000158376	
-3.4817	-0.000900518	-0.248871	
0.0675086	0.00991491	0.00574361	
-1.0137	0.0115422	-0.076382	
0.00804614	0.0105706	0.00148811	
0.0178231	0.0098641	0.00190284	
-0.517735	0.0100974	-0.0407868	
-1.72726	0.00511183	-0.139341	
-1.23852	0.00713312	-0.105725	
-0.222767	0.0100174	-0.0177921	
-0.0470489	0.0100975	-0.00378873	
-6.47188e-05	0.00954866	0.000570869	
-0.251356	0.00896748	-0.0191183	
-0.484254	0.0102662	-0.0396174	
0.205343	0.0113923	0.0171389	
-0.00570864	0.0120938	-0.000461553	
0.183357	0.0101763	0.0150514	
-0.847127	0.0113061	-0.0657831	
0.106116	0.0124992	0.00851431	
-1.47662e-05	0.0115293	0.000150019	
-7.70604e-06	0.0100946	8.76939e-05	
-1.66276e-05	0.00895941	0.000297477	
-2.30431e-05	0.0111828	0.000344703	
1.18937e-06	0.0111437	1.97491e-05	
0.917627	-0.00348231	0.0687391	
-0.973313	0.00929536	-0.0798756	
-2.72953e-05	0.00946239	0.000324343	
-1.85105e-06	0.0109471	-4.04336e-05	
-9.59461e-06	0.00625107	0.000170916	
2.32547	0.00278754	0.182946	
0.905154	0.0099897	0.0713613	
0.0783668	0.00755168	0.00644626	
0.818021	0.00515391	0.0655636	
0.237526	0.00835143	0.0187996	
1.13778	0.00342988	0.112135	
5.18574e-05	0.00877602	-0.000366948	
-0.902782	0.00792679	-0.0649741	
-0.487388	0.00571355	-0.0386299	
-0.101019	0.00667955	-0.00816649	
1.75498	0.00391288	0.142067	
3.61105	0.00531559	0.248297	
0.308868	0.00778262	0.0249499	
0.799673	0.00780033	0.0627573	
2.87527e-06	0.00617101	-4.25373e-05	
0.523083	0.00806948	0.0415542	
0.213481	0.00889745	0.0162338	
-0.613722	0.00788861	-0.0505626	
0.766055	0.00785585	0.0629623	
0.202692	0.00892694	0.0158089	
2.02192e-05	0.00915561	-0.000218089	
1.55132e-05	0.00787688	-0.000142286	
2.16967e-05	0.00894319	-0.000288459	
1.26795e-05	0.00842041	-0.000158319	
-0.00265438	0.00750975	-0.000167104	
5.92126e-06	0.00793301	-0.000111114	
-1.2777e-07	0.00448523	4.26929e-06	
9.07015e-06	0.00728291	-9.44979e-05	
-3.71898	-0.00801958	-0.267185	
0.0828813	0.00842688	0.00689002	
-1.05887	0.0093848	-0.0827245	
-0.0201872	0.00894208	-0.00101407	
0.0103741	0.00831761	0.00118958	
-0.539308	0.00828967	-0.0426752	