<VTKFile type="UnstructuredGrid" version="0.1" byte_order="LittleEndian">
	<UnstructuredGrid>
		<Piece NumberOfPoints="224" NumberOfCells="224">
			<CellData Scalars="scalars">
				<DataArray type="Float64" Name="Strength" NumberOfComponents="3" Format="ascii">
0.556203	-0.351784	-0.0952644	
0.0158335	-1.0435	-0.00627083	
0.0308878	-0.939069	0.00329147	
0.134638	-0.81275	0.000825897	
0.0028363	-1.06774	0.00524854	
-0.0206464	-1.00637	0.00356122	
-0.000652931	-1.05351	-0.00123856	
-0.00140128	-1.04965	0.00653929	
0.037913	-0.856567	0.0269333	
0.042954	-0.919433	0.00452763	
0.150587	-0.56829	0.00936985	
0.0166376	-1.02634	-0.00533203	
0.00746819	-0.972991	0.00968425	
0.00980648	-1.04335	-0.00370637	
0.00867388	-0.889856	0.0247629	
0.0756809	-0.963027	-0.0152049	
0.00600631	-1.04747	0.000555443	
-0.0234946	-1.01694	0.0116987	
0.0179315	-1.03532	-0.0109161	
-0.010009	-1.02988	0.00849708	
-4.21052e-05	-1.03087	0.000125832	
0.00221645	-1.02984	-0.00267413	
0.00625231	-1.0476	0.0103095	
-0.00170953	-1.05522	0.000466097	
0.000451288	-1.05474	-0.000712821	
0.00122251	-1.02509	0.00351877	
0.0123484	-0.713416	0.0529421	
0.00632979	-0.957527	0.00943753	
-0.0168381	-1.05574	0.00378701	
-0.0354699	-0.943597	-0.00229549	
-0.0110432	-1.06863	-0.000409703	
0.0376907	-1.05515	-0.0115531	
0.00910539	-1.03885	-0.00370546	
-0.0656209	-0.835048	-0.0191336	
-0.352149	-0.569931	0.0522538	
-0.0150509	-1.02681	0.00424463	
-0.00310925	-0.977085	-0.0112007	
0.0293162	-1.03998	-0.00176085	
0.00195375	-1.00831	0.00156782	
-0.0512669	-0.878208	-0.0112183	
-0.0754171	-0.96419	0.014555	
-0.0211328	-1.05665	0.00310406	
0.0154826	-1.10275	-0.00913923	
-0.0298213	-1.02531	0.0131883	
-0.0147885	-1.03168	-0.00300013	
0.00546526	-1.04651	-0.00396977	
-0.000448625	-1.03569	-0.000723542	
-0.00223679	-1.07014	0.00585619	
-0.00763971	-0.917679	-0.0196637	
-0.00541752	-1.04915	-0.0132363	
-0.00338042	-1.07458	-0.00484955	
-0.338067	-0.349723	0.0447554	
-0.100285	-0.813995	-0.0215126	
-0.00498226	-0.963068	-0.00990003	
-0.000410417	-1.05304	0.00355475	
-0.012642	-0.707894	-0.0586525	
1.50437	-0.0225181	-0.0252085	
0.0498898	-0.192057	-0.0019469	
0.126033	-0.164283	-0.0026165	
0.520347	-0.111752	-0.0126636	
-0.00981519	-0.206454	0.00126262	
-0.0488335	-0.206408	0.00127771	
3.86183e-05	-0.204761	1.35866e-05	
-0.0147038	-0.208022	0.00139732	
0.156194	-0.131648	-0.00115035	
0.151212	-0.159006	-0.00290433	
0.51167	-0.0730379	-0.0054277	
0.0500795	-0.210481	-0.00197532	
0.0388914	-0.182333	0.000113929	
0.0263969	-0.205248	-0.00093825	
0.000564764	-0.150796	0.00282002	
0.249743	-0.186621	-0.00762432	
0.0434973	-0.192676	-0.000923604	
-0.0718141	-0.203656	0.00304857	
0.071561	-0.204223	-0.00366387	
-0.0287313	-0.194756	0.00162432	
0.000124511	-0.191201	0.000258621	
2.49973e-05	-0.204894	-0.000502501	
0.000223785	-0.189744	0.00112682	
5.08094e-05	-0.20164	0.000308404	
0.00524303	-0.209113	-0.000327842	
6.38054e-05	-0.204631	0.000426619	
0.000841328	-0.102368	0.00436591	
0.000322484	-0.177181	0.00160323	
-0.0491337	-0.209657	0.0012296	
-0.147356	-0.164508	0.00357683	
-0.021365	-0.208786	0.000412512	
0.126264	-0.205656	-0.0045835	
0.0329703	-0.210101	-0.00114046	
-0.27121	-0.137835	0.00526651	
-1.28126	-0.0679318	0.0263659	
-0.074915	-0.212084	0.0027822	
-0.0286931	-0.183058	-0.000676994	
0.0794935	-0.207756	-0.00165809	
1.10406e-05	-0.205616	0.000257936	
-0.181129	-0.150609	0.00337357	
-0.249802	-0.187652	0.00749266	
-0.0908729	-0.194569	0.00309884	
0.0536664	-0.201826	-0.00277631	
-0.0880689	-0.206406	0.00359004	
-0.061779	-0.195832	0.00177478	
0.027667	-0.193079	-0.00135095	
-0.000186561	-0.192292	-0.000236175	
-6.89506e-05	-0.201011	0.000700611	
-0.000392478	-0.160232	-0.00314396	
-3.95631e-05	-0.190023	-0.00140055	
-0.000228354	-0.202838	-0.000756464	
-0.726571	-0.0360283	0.0265594	
-0.378329	-0.124069	0.010096	
-0.0002439	-0.177702	-0.00184802	
-8.33287e-05	-0.206195	2.48963e-05	
-0.000600073	-0.10435	-0.00547416	
2.50394	-0.000527401	0.0565967	
0.0864842	-0.0597504	0.00299362	
0.244725	-0.0466433	0.0088944	
0.906243	-0.0280471	0.0275039	
-0.0255524	-0.0693174	-0.000585976	
-0.059428	-0.0706732	-0.00216711	
-7.87127e-06	-0.0688644	-0.000113876	
-0.0290219	-0.0706776	-0.000663459	
0.289874	-0.0350364	0.010304	
0.273108	-0.0456446	0.0100588	
0.870871	-0.0199337	0.0287367	
0.0767038	-0.073145	0.00242728	
0.0868722	-0.0559913	0.00349468	
0.0408683	-0.070737	0.00136905	
-4.01579e-05	-0.0419383	0.0011574	
0.416937	-0.0581394	0.0142483	
0.0932942	-0.0604631	0.00317182	
-0.101554	-0.0699474	-0.00301691	
0.13231	-0.0683101	0.00404514	
-0.0393479	-0.0607579	-0.00086363	
-2.97906e-05	-0.0605702	0.0001542	
-1.4281e-05	-0.0710113	2.01023e-05	
-2.4448e-05	-0.059113	0.000578277	
-1.53527e-05	-0.0658896	0.000109606	
0.0100125	-0.0724922	0.000287243	
2.20947e-06	-0.069392	0.000236985	
-1.59422e-05	-0.0270165	0.000995541	
-4.82717e-05	-0.0538456	0.000712794	
-0.0727924	-0.0727388	-0.00239433	
-0.281139	-0.0463019	-0.00994917	
-0.0308302	-0.069653	-0.00100811	
0.200857	-0.0693751	0.00649203	
0.0523583	-0.0703285	0.00165621	
-0.485873	-0.0386141	-0.0187571	
-2.19671	-0.0177435	-0.0853627	
-0.13816	-0.0738249	-0.00427221	
-0.0713571	-0.0561219	-0.00296914	
0.110849	-0.0690937	0.00378307	
1.59086e-05	-0.0710097	0.000147073	
-0.317884	-0.0421957	-0.0119158	
-0.416561	-0.0582337	-0.0142696	
-0.166394	-0.060228	-0.00544008	
0.08159	-0.0634202	0.00234516	
-0.143661	-0.0669777	-0.00460548	
-0.110298	-0.0607455	-0.00384851	
0.0426901	-0.0597476	0.00112856	
2.77264e-05	-0.0603924	-0.000206911	
1.29883e-05	-0.0646337	5.02886e-05	
4.68909e-05	-0.0459075	-0.00110289	
3.39099e-05	-0.0591543	-0.000601314	
2.09487e-06	-0.064614	-0.000294084	
1.16848	0.00945292	0.0079543	
-0.661575	-0.0336636	-0.0238818	
5.5565e-05	-0.0538063	-0.000732954	
1.61671e-05	-0.0660974	-2.35158e-05	
-7.00349e-06	-0.0287787	-0.000805451	
3.29584	0.0160566	0.1478	
0.134764	0.0836054	0.00646081	
0.326551	0.0818258	0.0161718	
1.12109	0.0659408	0.0531293	
-0.0208087	0.0769143	-0.00123465	
-0.0820067	0.0760105	-0.00360463	
9.26207e-06	0.0760146	4.92721e-05	
-0.0346489	0.0781832	-0.00180832	
0.360801	0.0741209	0.0168617	
0.361417	0.0821294	0.0172603	
1.09344	0.0372116	0.0544568	
0.113293	0.0757519	0.00503122	
0.109763	0.0853344	0.00538075	
0.0588401	0.0781752	0.00263169	
-0.000128098	0.0795588	0.000148667	
0.582946	0.0871186	0.027452	
0.151611	0.0819858	0.0069614	
-0.128699	0.0809536	-0.0060951	
0.183132	0.0779069	0.00885364	
-0.0531452	0.0860084	-0.00241078	
2.54492e-05	0.0827851	8.22891e-05	
1.10242e-05	0.0781335	0.000106856	
-4.28385e-05	0.0864541	-6.22766e-06	
1.75456e-05	0.0810834	1.19105e-05	
0.0170982	0.0755697	0.000702515	
-3.7972e-06	0.0790702	-0.00013121	
-0.000120109	0.0519497	0.000441205	
-6.03064e-05	0.0846997	0.000185422	
-0.0978461	0.0751413	-0.00440473	
-0.37933	0.0833335	-0.0183568	
-0.071738	0.0751829	-0.00299738	
0.281538	0.0738424	0.0129533	
0.0648478	0.0780025	0.0030869	
-0.575689	0.0768493	-0.027337	
-2.7861	0.0359863	-0.140814	
-0.193097	0.0739183	-0.00892978	
-0.0909668	0.0862054	-0.00450489	
0.151622	0.0782995	0.00667093	
-2.18582e-05	0.0738546	-8.82186e-05	
-0.423412	0.0819928	-0.0193308	
-0.579877	0.0879221	-0.0270809	
-0.247396	0.0848028	-0.0113319	
0.0963711	0.0823146	0.0046165	
-0.213964	0.0810341	-0.00979902	
-0.159147	0.0877175	-0.00737609	
0.0567025	0.0853506	0.00237895	
-1.39877e-05	0.0849886	-9.32389e-05	
-2.34102e-05	0.0784525	-2.26934e-05	
0.000106739	0.0830023	-4.47273e-05	
4.79806e-05	0.087562	-9.62835e-06	
8.44559e-06	0.0842334	0.000148842	
1.59159	-0.00916023	0.0533115	
-0.806596	0.0684001	-0.0394033	
4.67311e-05	0.0858689	-0.00018711	
-2.12196e-05	0.0815722	-9.46653e-05	
0.000103673	0.0487279	-0.000316921	
				</DataArray>
				<DataArray type="Float64" Name="Time Step Shed" NumberOfComponents="1" Format="ascii">
3	
3	
3	
3	
3	
3	
3	
3	
3	
3	
3	
3	
3	
3	
3	
3	
3	
3	
3	
3	
3	
3	
3	
3	
3	
3	
3	
3	
3	
3	
3	
3	
3	
3	
3	
3	
3	
3	
3	
3	
3	
3	
3	
3	
3	
3	
3	
3	
3	
3	
3	
3	
3	
3	
3	
3	
4	
4	
4	
4	
4	
4	
4	
4	
4	
4	
4	
4	
4	
4	
4	
4	
4	
4	
4	
4	
4	
4	
4	
4	
4	
4	
4	
4	
4	
4	
4	
4	
4	
4	
4	
4	
4	
4	
4	
4	
4	
4	
4	
4	
4	
4	
4	
4	
4	
4	
4	
4	
4	
4	
4	
4	
5	
5	
5	
5	
5	
5	
5	
5	
5	
5	
5	
5	
5	
5	
5	
5	
5	
5	
5	
5	
5	
5	
5	
5	
5	
5	
5	
5	
5	
5	
5	
5	
5	
5	
5	
5	
5	
5	
5	
5	
5	
5	
5	
5	
5	
5	
5	
5	
5	
5	
5	
5	
5	
5	
5	
5	
6	
6	
6	
6	
6	
6	
6	
6	
6	
6	
6	
6	
6	
6	
6	
6	
6	
6	
6	
6	
6	
6	
6	
6	
6	
6	
6	
6	
6	
6	
6	
6	
6	
6	
6	
6	
6	
6	
6	
6	
6	
6	
6	
6	
6	
6	
6	
6	
6	
6	
6	
6	
6	
6	
6	
6	
				</DataArray>
			</CellData>
			<Points>
				<DataArray type="Float64" Name="Position" NumberOfComponents="3" Format="ascii">
1.13337	1.96388	0.00892869	
1.1614	1.03633	0.0338013	
1.16521	1.46652	0.0292974	
1.14811	1.7499	0.021368	
1.17794	0.321611	0.0336421	
1.16722	0.177596	0.0378782	
1.16628	0.251839	0.0377112	
1.17771	0.393012	0.0346437	
1.14736	1.67911	0.0224743	
1.1594	1.53544	0.0272891	
1.13706	1.89232	0.0112919	
1.17392	0.107955	0.0361616	
1.16581	1.32076	0.0316454	
1.17615	0.464305	0.0342299	
1.15229	1.60908	0.0228707	
1.16042	1.25041	0.032845	
1.17779	0.894089	0.0302991	
1.16277	0.750528	0.03805	
1.16088	0.606277	0.0374565	
1.17012	1.10705	0.0333132	
1.17837	0.964854	0.0312548	
1.16588	0.535481	0.0376332	
1.16811	1.17901	0.0325429	
1.16511	0.822668	0.0370301	
1.17051	0.0356108	0.0371404	
1.18001	0.678986	0.0342394	
1.13831	1.82125	0.0163879	
1.16859	1.39418	0.0300256	
1.17537	-0.036884	0.0355431	
1.16029	-1.46575	0.0296099	
1.17791	-0.322986	0.033446	
1.17056	-0.250225	0.0384345	
1.18337	-0.394277	0.0323284	
1.14887	-1.67672	0.025572	
1.13748	-1.89104	0.015798	
1.17531	-0.109412	0.0359415	
1.16586	-1.32297	0.032502	
1.17813	-0.464846	0.0341654	
1.16532	-0.179124	0.0381281	
1.15887	-1.60697	0.028421	
1.16532	-1.24854	0.0331272	
1.17378	-0.893515	0.0327652	
1.1682	-0.751661	0.03823	
1.16141	-0.608479	0.0370272	
1.1683	-1.10659	0.0345176	
1.1571	-1.0374	0.0316989	
1.17822	-0.965101	0.0327023	
1.17965	-0.534676	0.0346585	
1.165	-1.53623	0.0243766	
1.16592	-1.17833	0.033732	
1.16982	-0.823818	0.036282	
1.13449	-1.96565	0.012905	
1.1445	-1.74939	0.0226542	
1.17118	-1.39525	0.0300432	
1.1776	-0.678557	0.0329788	
1.14207	-1.82208	0.0188109	
1.05485	1.96465	-0.00283943	
1.0642	1.0356	0.0304017	
1.06238	1.46583	0.0255317	
1.0587	1.74799	0.0146677	
1.06426	0.321893	0.036174	
1.06357	0.178365	0.0330159	
1.06406	0.250999	0.0344693	
1.06404	0.393804	0.0349333	
1.05425	1.67781	0.000299798	
1.0556	1.53442	0.00278308	
1.05646	1.89096	0.0020228	
1.06376	0.108139	0.0332593	
1.06092	1.3201	0.0236101	
1.0631	0.46048	0.0300012	
1.06146	1.60628	0.021913	
1.06035	1.24986	0.0245927	
1.06394	0.89395	0.0307064	
1.05985	0.750623	0.0249735	
1.06238	0.605928	0.0297759	
1.06372	1.10741	0.0312315	
1.0633	0.964211	0.0281455	
1.06367	0.534908	0.0338009	
1.06263	1.18131	0.0301099	
1.06356	0.822772	0.0333253	
1.06248	0.0365713	0.0303169	
1.06551	0.678004	0.0406036	
1.05548	1.81974	0.00188937	
1.06361	1.39321	0.0287691	
1.06414	-0.0371896	0.0356071	
1.05932	-1.46558	0.016871	
1.06534	-0.323126	0.0374082	
1.06307	-0.249961	0.0341195	
1.065	-0.394542	0.035992	
1.05664	-1.67618	0.00996211	
1.05668	-1.89141	0.00771975	
1.06376	-0.108971	0.0335948	
1.06229	-1.32224	0.0300038	
1.06374	-0.468287	0.0373965	
1.0635	-0.178795	0.0326357	
1.05997	-1.60443	0.0227106	
1.06043	-1.25545	0.0269422	
1.06283	-0.894273	0.0292677	
1.06032	-0.751595	0.026466	
1.062	-0.607536	0.0282491	
1.06244	-1.10537	0.0285319	
1.06218	-1.03519	0.0252847	
1.06329	-0.963657	0.0311103	
1.06378	-0.533571	0.0341455	
1.06314	-1.53423	0.0234993	
1.06449	-1.17817	0.0349764	
1.06244	-0.823287	0.0304713	
1.05482	-1.96643	-0.000442514	
1.05781	-1.74796	0.0140079	
1.062	-1.39446	0.0261688	
1.06506	-0.678634	0.0390074	
1.05777	-1.81991	0.0132683	
0.822966	1.96422	-0.0354475	
0.752665	1.03537	-0.02211	
0.756116	1.4651	-0.0263636	
0.760082	1.74815	-0.0347202	
0.752924	0.318854	-0.0260401	
0.752815	0.178267	-0.0199848	
0.751606	0.248893	-0.0214858	
0.75193	0.393128	-0.0179915	
0.759187	1.67792	-0.0333016	
0.757196	1.53335	-0.0290227	
0.764026	1.8901	-0.0345714	
0.752489	0.106271	-0.0203633	
0.75446	1.32321	-0.0234101	
0.75242	0.465583	-0.0204923	
0.758099	1.60304	-0.0314529	
0.753876	1.25002	-0.0211969	
0.752692	0.894287	-0.0218656	
0.752304	0.74883	-0.0178719	
0.752632	0.606419	-0.0218475	
0.753519	1.10729	-0.0249133	
0.753032	0.965	-0.0236686	
0.753056	0.537213	-0.0227005	
0.752268	1.18015	-0.022568	
0.752261	0.820421	-0.021501	
0.753082	0.0346982	-0.0214455	
0.752389	0.678664	-0.0188121	
0.76121	1.81749	-0.029967	
0.755289	1.3945	-0.0240682	
0.752957	-0.036514	-0.0231559	
0.755523	-1.46325	-0.0263707	
0.752311	-0.319297	-0.021278	
0.752149	-0.251131	-0.0185186	
0.752125	-0.394254	-0.0193393	
0.758231	-1.68071	-0.0299641	
0.762895	-1.89479	-0.0317593	
0.752308	-0.1092	-0.0216359	
0.754074	-1.3231	-0.0237654	
0.750795	-0.465435	-0.018892	
0.752132	-0.17939	-0.0189536	
0.757614	-1.60508	-0.0297597	
0.75409	-1.24939	-0.0217369	
0.751806	-0.894169	-0.0224376	
0.752511	-0.751226	-0.0190236	
0.752327	-0.609079	-0.0205935	
0.753509	-1.10484	-0.0255502	
0.752118	-1.03515	-0.0217421	
0.751673	-0.966329	-0.0231511	
0.752139	-0.537823	-0.0236929	
0.757015	-1.5356	-0.0275515	
0.752639	-1.17835	-0.0221467	
0.752084	-0.821517	-0.0217986	
0.822703	-1.96537	-0.0327621	
0.758639	-1.74899	-0.0311672	
0.75612	-1.3922	-0.0245011	
0.752403	-0.682035	-0.0217391	
0.76098	-1.8192	-0.0293811	
0.592186	1.96557	-0.0620581	
0.49334	1.03427	-0.100015	
0.492009	1.46329	-0.0981173	
0.489818	1.74837	-0.0952782	
0.493866	0.321664	-0.10012	
0.491354	0.178139	-0.095673	
0.492703	0.249785	-0.0981873	
0.492853	0.393521	-0.0990003	
0.490595	1.67602	-0.0952207	
0.492175	1.53367	-0.0981333	
0.487105	1.89186	-0.0875024	
0.492096	0.105399	-0.0975348	
0.491402	1.32356	-0.0971005	
0.492779	0.463848	-0.0990716	
0.491807	1.6051	-0.0978246	
0.491503	1.24952	-0.0955979	
0.493087	0.8939	-0.0968461	
0.493047	0.751396	-0.0994592	
0.492068	0.606779	-0.0976967	
0.492713	1.10614	-0.0972436	
0.493116	0.964335	-0.0986292	
0.493744	0.536179	-0.0986787	
0.492216	1.17829	-0.0979547	
0.494238	0.822063	-0.101804	
0.493412	0.0342452	-0.0991726	
0.493016	0.679877	-0.0979231	
0.488405	1.81947	-0.0913488	
0.491206	1.39413	-0.0977113	
0.493758	-0.0356022	-0.100716	
0.491742	-1.46343	-0.0968581	
0.492786	-0.322537	-0.0985574	
0.492187	-0.252524	-0.0976192	
0.492695	-0.396133	-0.0986336	
0.489798	-1.68096	-0.0945027	
0.486806	-1.89346	-0.0856902	
0.492731	-0.107737	-0.0981291	
0.490776	-1.32291	-0.0964383	
0.492842	-0.465974	-0.0989598	
0.491674	-0.180397	-0.0967822	
0.490799	-1.60773	-0.0983984	
0.49211	-1.24872	-0.0984509	
0.493055	-0.893148	-0.0976244	
0.493799	-0.751321	-0.100628	
0.491401	-0.606968	-0.097672	
0.49208	-1.10985	-0.0968886	
0.493085	-1.03652	-0.0990113	
0.493044	-0.9647	-0.0988763	
0.493025	-0.537719	-0.0977428	
0.491251	-1.53521	-0.0976358	
0.492273	-1.17825	-0.09701	
0.49376	-0.822122	-0.101293	
0.592055	-1.96596	-0.060525	
0.490879	-1.74699	-0.0958029	
0.491271	-1.39381	-0.0967959	
0.493629	-0.679828	-0.0993694	
0.488326	-1.82425	-0.0919479	
				</DataArray>
			</Points>
			<Cells>
				<DataArray type="Int32" Name="connectivity" Format="ascii">
0	
1	
2	
3	
4	
5	
6	
7	
8	
9	
10	
11	
12	
13	
14	
15	
16	
17	
18	
19	
20	
21	
22	
23	
24	
25	
26	
27	
28	
29	
30	
31	
32	
33	
34	
35	
36	
37	
38	
39	
40	
41	
42	
43	
44	
45	
46	
47	
48	
49	
50	
51	
52	
53	
54	
55	
56	
57	
58	
59	
60	
61	
62	
63	
64	
65	
66	
67	
68	
69	
70	
71	
72	
73	
74	
75	
76	
77	
78	
79	
80	
81	
82	
83	
84	
85	
86	
87	
88	
89	
90	
91	
92	
93	
94	
95	
96	
97	
98	
99	
100	
101	
102	
103	
104	
105	
106	
107	
108	
109	
110	
111	
112	
113	
114	
115	
116	
117	
118	
119	
120	
121	
122	
123	
124	
125	
126	
127	
128	
129	
130	
131	
132	
133	
134	
135	
136	
137	
138	
139	
140	
141	
142	
143	
144	
145	
146	
147	
148	
149	
150	
151	
152	
153	
154	
155	
156	
157	
158	
159	
160	
161	
162	
163	
164	
165	
166	
167	
168	
169	
170	
171	
172	
173	
174	
175	
176	
177	
178	
179	
180	
181	
182	
183	
184	
185	
186	
187	
188	
189	
190	
191	
192	
193	
194	
195	
196	
197	
198	
199	
200	
201	
202	
203	
204	
205	
206	
207	
208	
209	
210	
211	
212	
213	
214	
215	
216	
217	
218	
219	
220	
221	
222	
223	
				</DataArray>
				<DataArray type="Int32" Name="offsets" Format="ascii">
1	
2	
3	
4	
5	
6	
7	
8	
9	
10	
11	
12	
13	
14	
15	
16	
17	
18	
19	
20	
21	
22	
23	
24	
25	
26	
27	
28	
29	
30	
31	
32	
33	
34	
35	
36	
37	
38	
39	
40	
41	
42	
43	
44	
45	
46	
47	
48	
49	
50	
51	
52	
53	
54	
55	
56	
57	
58	
59	
60	
61	
62	
63	
64	
65	
66	
67	
68	
69	
70	
71	
72	
73	
74	
75	
76	
77	
78	
79	
80	
81	
82	
83	
84	
85	
86	
87	
88	
89	
90	
91	
92	
93	
94	
95	
96	
97	
98	
99	
100	
101	
102	
103	
104	
105	
106	
107	
108	
109	
110	
111	
112	
113	
114	
115	
116	
117	
118	
119	
120	
121	
122	
123	
124	
125	
126	
127	
128	
129	
130	
131	
132	
133	
134	
135	
136	
137	
138	
139	
140	
141	
142	
143	
144	
145	
146	
147	
148	
149	
150	
151	
152	
153	
154	
155	
156	
157	
158	
159	
160	
161	
162	
163	
164	
165	
166	
167	
168	
169	
170	
171	
172	
173	
174	
175	
176	
177	
178	
179	
180	
181	
182	
183	
184	
185	
186	
187	
188	
189	
190	
191	
192	
193	
194	
195	
196	
197	
198	
199	
200	
201	
202	
203	
204	
205	
206	
207	
208	
209	
210	
211	
212	
213	
214	
215	
216	
217	
218	
219	
220	
221	
222	
223	
224	
				</DataArray>
				<DataArray type="Int32" Name="types" Format="ascii">
1	
1	
1	
1	
1	
1	
1	
1	
1	
1	
1	
1	
1	
1	
1	
1	
1	
1	
1	
1	
1	
1	
1	
1	
1	
1	
1	
1	
1	
1	
1	
1	
1	
1	
1	
1	
1	
1	
1	
1	
1	
1	
1	
1	
1	
1	
1	
1	
1	
1	
1	
1	
1	
1	
1	
1	
1	
1	
1	
1	
1	
1	
1	
1	
1	
1	
1	
1	
1	
1	
1	
1	
1	
1	
1	
1	
1	
1	
1	
1	
1	
1	
1	
1	
1	
1	
1	
1	
1	
1	
1	
1	
1	
1	
1	
1	
1	
1	
1	
1	
1	
1	
1	
1	
1	
1	
1	
1	
1	
1	
1	
1	
1	
1	
1	
1	
1	
1	
1	
1	
1	
1	
1	
1	
1	
1	
1	
1	
1	
1	
1	
1	
1	
1	
1	
1	
1	
1	
1	
1	
1	
1	
1	
1	
1	
1	
1	
1	
1	
1	
1	
1	
1	
1	
1	
1	
1	
1	
1	
1	
1	
1	
1	
1	
1	
1	
1	
1	
1	
1	
1	
1	
1	
1	
1	
1	
1	
1	
1	
1	
1	
1	
1	
1	
1	
1	
1	
1	
1	
1	
1	
1	
1	
1	
1	
1	
1	
1	
1	
1	
1	
1	
1	
1	
1	
1	
1	
1	
1	
1	
1	
1	
1	
1	
1	
1	
1	
1	
1	
1	
1	
1	
1	
1	
				</DataArray>
			</Cells>
		</Piece>
	</UnstructuredGrid>
</VTKFile>
