<VTKFile type="UnstructuredGrid" version="0.1" byte_order="LittleEndian">
	<UnstructuredGrid>
		<Piece NumberOfPoints="112" NumberOfCells="112">
			<CellData Scalars="scalars">
				<DataArray type="Float64" Name="Strength" NumberOfComponents="3" Format="ascii">
0.554107	-0.351669	-0.106937	
0.0157748	-1.04392	-0.00746556	
0.0279881	-0.939311	-0.00525325	
0.130291	-0.812915	-0.0262593	
0.00226136	-1.06787	0.00433867	
-0.0209641	-1.00639	0.00309621	
-0.0013058	-1.05361	-0.00219284	
-0.0014999	-1.04974	0.00672687	
0.0336437	-0.856971	0.00364823	
0.039718	-0.919627	-0.00505736	
0.145779	-0.569151	-0.0167448	
0.0172958	-1.02643	-0.00267548	
0.00529464	-0.97326	0.000744887	
0.00996776	-1.04349	-0.0023446	
0.00509182	-0.890016	0.00969277	
0.0750313	-0.963354	-0.0207895	
0.00495856	-1.04781	-0.000733952	
-0.0246916	-1.01729	0.00881486	
0.0180764	-1.03567	-0.0105742	
-0.0109191	-1.0303	0.00446477	
-0.000478411	-1.03125	-0.000517479	
0.00263623	-1.03008	-0.00176113	
0.00544381	-1.048	0.00466288	
-0.00323118	-1.05567	-0.00232619	
0.000687528	-1.05486	0.000947972	
0.000865115	-1.02537	0.00222548	
0.00657634	-0.714784	0.0210871	
0.00370219	-0.957718	0.00136111	
-0.0168834	-1.05582	0.00447678	
-0.0335201	-0.943791	0.00743531	
-0.0100722	-1.0688	-0.000311862	
0.0389709	-1.05529	-0.00905859	
0.00961029	-1.03894	-0.00467808	
-0.0627498	-0.835258	0.00718563	
-0.35021	-0.568185	0.0772102	
-0.015298	-1.02682	0.00423547	
-0.000743973	-0.977242	-0.0014846	
0.0295374	-1.04016	-0.00363711	
0.002214	-1.00836	0.00195362	
-0.0489298	-0.878235	0.00542982	
-0.0748895	-0.964405	0.0207739	
-0.0200627	-1.05705	0.00364932	
0.0165804	-1.10312	-0.00730127	
-0.0304145	-1.02572	0.0101708	
-0.0151266	-1.03203	0.00140161	
0.00533712	-1.04689	-0.000868956	
0.000290862	-1.0361	-2.78213e-05	
-0.00275134	-1.07048	0.00225015	
-0.00515199	-0.917788	-0.00818352	
-0.00504411	-1.04947	-0.00556593	
-0.00182894	-1.07502	-0.00287878	
-0.337163	-0.348703	0.0572042	
-0.0966897	-0.814307	0.0137788	
-0.00233118	-0.963246	-0.000934452	
-0.000613263	-1.0534	0.00327186	
-0.00743792	-0.709527	-0.0214345	
1.50508	-0.0358334	-0.0169646	
0.0499417	-0.192183	-0.000960648	
0.125818	-0.164833	-0.0012049	
0.520623	-0.114936	-0.00370995	
-0.00994556	-0.206504	0.000784104	
-0.0488759	-0.206462	-0.000217518	
-2.36392e-05	-0.204835	-0.000118604	
-0.01477	-0.208069	0.000912301	
0.155623	-0.132669	-0.000956168	
0.150919	-0.159725	-0.00116107	
0.511377	-0.0777762	9.67225e-05	
0.0502515	-0.210543	-8.68509e-05	
0.0385887	-0.182528	-0.000460462	
0.0264811	-0.205287	-0.000134235	
-0.000112553	-0.150813	-2.27341e-05	
0.250042	-0.187388	-0.00185524	
0.0434511	-0.192838	-0.00011313	
-0.0721544	-0.203674	0.000642623	
0.071697	-0.204302	-0.00141601	
-0.0289783	-0.194814	-7.93401e-05	
2.93146e-05	-0.191291	-0.000220899	
-2.77469e-05	-0.204968	-0.000499725	
-8.25461e-06	-0.189852	3.2636e-05	
-0.0001407	-0.201734	-0.000150345	
0.00533888	-0.209199	0.000117305	
-6.6803e-05	-0.204712	0.000212432	
-0.000195126	-0.10244	-7.77559e-05	
-0.000200354	-0.177259	-0.000380447	
-0.0491879	-0.209741	4.57693e-05	
-0.147203	-0.165051	0.00156048	
-0.0213554	-0.208817	-0.000518388	
0.126653	-0.205682	-0.000605751	
0.033082	-0.210112	-0.000627237	
-0.270885	-0.139374	0.00194207	
-1.28194	-0.0759815	-0.000913913	
-0.0751156	-0.212155	0.000516775	
-0.0283222	-0.183204	0.00047644	
0.0797089	-0.207792	0.000185139	
-1.31069e-05	-0.205676	0.000169745	
-0.180956	-0.151315	0.00141656	
-0.250076	-0.188401	0.00190243	
-0.0909452	-0.194823	0.000604618	
0.0539739	-0.201857	-0.000723227	
-0.0883034	-0.206451	0.000683069	
-0.0619091	-0.195942	0.000643802	
0.0277654	-0.193147	0.000303803	
-6.883e-05	-0.192388	0.000243842	
-7.25707e-05	-0.201061	0.00032353	
3.63531e-05	-0.160297	-0.000137816	
5.03532e-05	-0.190103	-0.000122291	
-4.00702e-05	-0.202925	-0.000310258	
-0.726921	-0.0399432	0.0234192	
-0.378153	-0.126263	0.00284586	
0.000232716	-0.177781	0.000406609	
-3.844e-05	-0.206262	0.000270615	
0.000175832	-0.104463	-2.01274e-05	
				</DataArray>
				<DataArray type="Float64" Name="Time Step Shed" NumberOfComponents="1" Format="ascii">
3	
3	
3	
3	
3	
3	
3	
3	
3	
3	
3	
3	
3	
3	
3	
3	
3	
3	
3	
3	
3	
3	
3	
3	
3	
3	
3	
3	
3	
3	
3	
3	
3	
3	
3	
3	
3	
3	
3	
3	
3	
3	
3	
3	
3	
3	
3	
3	
3	
3	
3	
3	
3	
3	
3	
3	
4	
4	
4	
4	
4	
4	
4	
4	
4	
4	
4	
4	
4	
4	
4	
4	
4	
4	
4	
4	
4	
4	
4	
4	
4	
4	
4	
4	
4	
4	
4	
4	
4	
4	
4	
4	
4	
4	
4	
4	
4	
4	
4	
4	
4	
4	
4	
4	
4	
4	
4	
4	
4	
4	
4	
4	
				</DataArray>
			</CellData>
			<Points>
				<DataArray type="Float64" Name="Position" NumberOfComponents="3" Format="ascii">
1.12538	1.96552	-0.0128607	
1.11952	1.0359	-0.0179722	
1.12192	1.46511	-0.00988837	
1.12205	1.7515	-0.0137408	
1.12234	0.322189	-0.00327217	
1.12031	0.179104	-0.010839	
1.11949	0.250544	-0.0132965	
1.12223	0.393781	-0.00319379	
1.12023	1.67932	-0.0180603	
1.12115	1.53602	-0.011959	
1.12341	1.89458	-0.0152925	
1.12163	0.108038	-0.0052422	
1.12136	1.32206	-0.00940589	
1.12136	0.465412	-0.00505949	
1.12093	1.6076	-0.0130962	
1.11988	1.25048	-0.0143193	
1.12275	0.893978	-0.00282073	
1.11945	0.75036	-0.0152938	
1.1189	0.607382	-0.0177933	
1.12095	1.10714	-0.00856271	
1.12229	0.964902	-0.00179688	
1.11994	0.536343	-0.0140776	
1.1208	1.17878	-0.00942846	
1.1197	0.822223	-0.0133956	
1.12087	0.0360895	-0.00897906	
1.12327	0.6789	0.00195941	
1.12131	1.82327	-0.0196464	
1.12199	1.39397	-0.00568517	
1.12196	-0.0362876	-0.00446228	
1.12051	-1.46522	-0.0144635	
1.12206	-0.322385	-0.00372786	
1.12038	-0.250513	-0.00887896	
1.12348	-0.394146	0.00323722	
1.12023	-1.67917	-0.0163525	
1.12335	-1.89442	-0.0153282	
1.12169	-0.108064	-0.00430452	
1.12135	-1.32226	-0.00873172	
1.12163	-0.465346	-0.00247393	
1.1194	-0.179124	-0.013002	
1.12174	-1.60762	-0.00880443	
1.12078	-1.25049	-0.0101794	
1.12143	-0.893934	-0.00687334	
1.11993	-0.750419	-0.0118232	
1.11873	-0.607325	-0.0174807	
1.12043	-1.10686	-0.00988371	
1.11848	-1.03587	-0.0190504	
1.12207	-0.964967	-0.0014418	
1.12258	-0.53635	-0.00148545	
1.12265	-1.5361	-0.00458815	
1.12037	-1.17861	-0.0113213	
1.11978	-0.822347	-0.00971369	
1.12609	-1.96539	-0.00909882	
1.12103	-1.75131	-0.0167516	
1.12244	-1.39412	-0.00244718	
1.12162	-0.678457	-0.00209252	
1.12234	-1.82321	-0.014224	
1.05417	1.96449	-0.0171721	
1.05451	1.03545	0.00440909	
1.05453	1.46435	0.00100182	
1.05474	1.74963	-0.00387997	
1.05444	0.322406	0.00566888	
1.05409	0.179252	0.00377931	
1.05408	0.250843	0.00363787	
1.05422	0.393963	0.00429527	
1.05119	1.67805	-0.0186885	
1.05098	1.53519	-0.0188648	
1.05473	1.89273	-0.0118393	
1.05415	0.107924	0.0035423	
1.05339	1.32159	-0.00204625	
1.05389	0.465311	0.00408682	
1.0551	1.60633	0.0032157	
1.05328	1.24986	-0.00153581	
1.05431	0.893786	0.00461272	
1.05198	0.75034	-0.00712391	
1.05322	0.60705	-0.000126225	
1.05443	1.10653	0.00402642	
1.05365	0.964837	0.000582438	
1.05426	0.536018	0.00350822	
1.0538	1.17816	0.00228819	
1.05439	0.822119	0.00435827	
1.05341	0.0360309	0.00113772	
1.05553	0.678657	0.0097505	
1.05343	1.82126	-0.0140466	
1.05516	1.3933	0.00455787	
1.05443	-0.0361461	0.00633361	
1.05263	-1.46443	-0.0074538	
1.05488	-0.322448	0.00737212	
1.05373	-0.250798	0.001959	
1.0548	-0.394016	0.00636902	
1.05244	-1.67801	-0.0109643	
1.05497	-1.8927	-0.0100696	
1.05405	-0.107913	0.00312221	
1.05438	-1.32167	0.00298354	
1.0538	-0.465304	0.00306153	
1.05383	-0.179263	0.00235632	
1.05416	-1.60635	-0.00109705	
1.05335	-1.24991	-0.000924447	
1.05375	-0.893687	0.00276614	
1.05214	-0.750378	-0.00510287	
1.05289	-0.607072	-0.00250942	
1.05361	-1.10644	0.00105342	
1.05334	-1.03543	2.92674e-05	
1.05389	-0.964829	0.0024115	
1.05433	-0.536032	0.00321673	
1.05551	-1.53502	0.00389531	
1.05534	-1.17805	0.00871769	
1.05335	-0.822098	0.00125169	
1.05459	-1.96453	-0.0171446	
1.05405	-1.74963	-0.00618887	
1.0542	-1.39334	0.000166653	
1.05497	-0.678669	0.00841918	
1.05489	-1.82114	-0.00505403	
				</DataArray>
			</Points>
			<Cells>
				<DataArray type="Int32" Name="connectivity" Format="ascii">
0	
1	
2	
3	
4	
5	
6	
7	
8	
9	
10	
11	
12	
13	
14	
15	
16	
17	
18	
19	
20	
21	
22	
23	
24	
25	
26	
27	
28	
29	
30	
31	
32	
33	
34	
35	
36	
37	
38	
39	
40	
41	
42	
43	
44	
45	
46	
47	
48	
49	
50	
51	
52	
53	
54	
55	
56	
57	
58	
59	
60	
61	
62	
63	
64	
65	
66	
67	
68	
69	
70	
71	
72	
73	
74	
75	
76	
77	
78	
79	
80	
81	
82	
83	
84	
85	
86	
87	
88	
89	
90	
91	
92	
93	
94	
95	
96	
97	
98	
99	
100	
101	
102	
103	
104	
105	
106	
107	
108	
109	
110	
111	
				</DataArray>
				<DataArray type="Int32" Name="offsets" Format="ascii">
1	
2	
3	
4	
5	
6	
7	
8	
9	
10	
11	
12	
13	
14	
15	
16	
17	
18	
19	
20	
21	
22	
23	
24	
25	
26	
27	
28	
29	
30	
31	
32	
33	
34	
35	
36	
37	
38	
39	
40	
41	
42	
43	
44	
45	
46	
47	
48	
49	
50	
51	
52	
53	
54	
55	
56	
57	
58	
59	
60	
61	
62	
63	
64	
65	
66	
67	
68	
69	
70	
71	
72	
73	
74	
75	
76	
77	
78	
79	
80	
81	
82	
83	
84	
85	
86	
87	
88	
89	
90	
91	
92	
93	
94	
95	
96	
97	
98	
99	
100	
101	
102	
103	
104	
105	
106	
107	
108	
109	
110	
111	
112	
				</DataArray>
				<DataArray type="Int32" Name="types" Format="ascii">
1	
1	
1	
1	
1	
1	
1	
1	
1	
1	
1	
1	
1	
1	
1	
1	
1	
1	
1	
1	
1	
1	
1	
1	
1	
1	
1	
1	
1	
1	
1	
1	
1	
1	
1	
1	
1	
1	
1	
1	
1	
1	
1	
1	
1	
1	
1	
1	
1	
1	
1	
1	
1	
1	
1	
1	
1	
1	
1	
1	
1	
1	
1	
1	
1	
1	
1	
1	
1	
1	
1	
1	
1	
1	
1	
1	
1	
1	
1	
1	
1	
1	
1	
1	
1	
1	
1	
1	
1	
1	
1	
1	
1	
1	
1	
1	
1	
1	
1	
1	
1	
1	
1	
1	
1	
1	
1	
1	
1	
1	
1	
1	
				</DataArray>
			</Cells>
		</Piece>
	</UnstructuredGrid>
</VTKFile>
