<VTKFile type="UnstructuredGrid" version="0.1" byte_order="LittleEndian">
	<UnstructuredGrid>
		<Piece NumberOfPoints="1288" NumberOfCells="1288">
			<CellData Scalars="scalars">
				<DataArray type="Float64" Name="Strength" NumberOfComponents="3" Format="ascii">
0.534176	-0.378816	-0.115429	
0.00150546	-1.04356	0.0141605	
-0.0208846	-0.939253	0.0156865	
0.000965827	-0.822353	0.0499049	
0.000481142	-1.06758	0.0171613	
-0.0227119	-1.00583	0.0308715	
-0.000134886	-1.05335	0.0169878	
-0.0135481	-1.04939	0.0190846	
-0.0751565	-0.848267	0.103564	
-0.0300259	-0.919806	0.0186127	
0.0988438	-0.577251	0.0519026	
0.00947605	-1.02638	0.00770286	
-0.0233892	-0.972245	0.0334914	
-0.0197669	-1.0432	0.0033499	
-0.0813245	-0.883711	0.0709329	
0.028982	-0.965713	0.000701545	
0.0398751	-1.0467	-0.00881499	
0.0157322	-1.01716	-0.0020543	
-0.000247497	-1.03543	-0.0140532	
-0.039212	-1.02813	0.0480108	
0.0109895	-1.03078	0.0100877	
-0.0283937	-1.02943	0.00539627	
-0.0340784	-1.04603	0.0483244	
0.0469533	-1.05394	-0.0227362	
0.00303502	-1.0547	0.002798	
0.0145569	-1.02497	-0.00827962	
-0.0874736	-0.70008	0.119014	
-0.0289387	-0.95686	0.0251568	
0.000318335	-1.05576	-0.0129302	
0.0215642	-0.943871	-0.0184881	
-0.025123	-1.06836	0.000723048	
0.027454	-1.05493	-0.0343645	
-0.00078343	-1.03887	-0.00103203	
0.0900016	-0.825458	-0.112252	
-0.277348	-0.610672	-0.0408756	
0.00744488	-1.0266	-0.0236721	
0.0300006	-0.976224	-0.0312045	
0.0263461	-1.04004	-0.00294121	
0.0135377	-1.00793	-0.0228754	
0.0791458	-0.873312	-0.0719131	
-0.0261277	-0.966899	0.00575543	
-0.0260321	-1.05651	0.00881842	
-0.00814368	-1.10287	-0.00217215	
-0.0278033	-1.02519	0.0223129	
0.0263344	-1.03079	-0.0375783	
0.0326474	-1.04542	-0.0360447	
0.0104806	-1.03554	-0.0149382	
0.0025186	-1.07008	0.0115069	
0.076753	-0.913032	-0.056008	
0.040758	-1.04704	-0.0549241	
-0.0229484	-1.07435	0.00323686	
-0.311229	-0.375719	-0.0233054	
0.0520322	-0.804107	-0.154363	
0.0356741	-0.962135	-0.0265929	
-0.0127019	-1.05294	0.00759164	
0.0786299	-0.669009	-0.225625	
1.49845	0.0269726	-0.134068	
0.0480267	-0.192316	-0.00919345	
0.124646	-0.164256	-0.0189621	
0.508399	-0.138726	-0.075239	
-0.00917873	-0.206404	0.00546502	
-0.0470709	-0.206248	0.0152535	
-0.00012254	-0.204743	0.00150184	
-0.0139951	-0.207941	0.00721382	
0.150043	-0.138184	-0.0108747	
0.146622	-0.16127	-0.0254239	
0.508025	-0.0705375	-0.0638822	
0.0466869	-0.210669	-0.0157151	
0.0399581	-0.182103	0.000320635	
0.0244222	-0.205407	-0.00553681	
-0.00166949	-0.149847	0.017092	
0.240775	-0.188371	-0.0615159	
0.0463958	-0.191596	-0.0123903	
-0.0632398	-0.205342	0.0218878	
0.0688487	-0.204009	-0.0218147	
-0.028733	-0.193969	0.0176195	
0.00315976	-0.191157	0.00263761	
-0.000822114	-0.204883	0.00102828	
-0.000162715	-0.189494	0.00987679	
0.00581052	-0.201551	-0.00113098	
0.00418448	-0.209089	-0.00381599	
0.00285023	-0.204607	-0.000219065	
0.000470493	-0.101298	0.0153843	
0.00384251	-0.176565	0.0144123	
-0.0474377	-0.209735	0.011254	
-0.142404	-0.166882	0.0255953	
-0.0198924	-0.208694	0.00966653	
0.121306	-0.205424	-0.0366625	
0.0313906	-0.210269	-0.00538841	
-0.255091	-0.160584	0.0413447	
-1.22616	-0.175798	0.335582	
-0.0708998	-0.212398	0.0212889	
-0.0304078	-0.182703	-0.00552053	
0.075942	-0.208069	-0.0206179	
0.00118359	-0.205596	-0.00122067	
-0.17038	-0.161073	0.0228033	
-0.240414	-0.190549	0.0595127	
-0.0888043	-0.193802	0.0259516	
0.047681	-0.202562	-0.0178008	
-0.0855028	-0.20556	0.0282662	
-0.0565289	-0.1972	0.00914948	
0.0277967	-0.192436	-0.0156388	
-0.000707581	-0.192238	-0.0045336	
-0.000654618	-0.200988	0.00236448	
0.000788924	-0.158776	-0.0218137	
0.00069226	-0.189711	-0.0110314	
-0.0035009	-0.2028	-0.00157581	
-0.718491	-0.0707702	0.0930283	
-0.353271	-0.162643	0.0857804	
-0.00377225	-0.176915	-0.0164607	
-0.00272842	-0.206171	-0.000186247	
-0.00227188	-0.0973664	-0.0378727	
2.49772	0.18438	-0.000941726	
0.0870332	-0.0587501	0.00560295	
0.244304	-0.0426772	0.0254387	
0.902465	0.00214678	0.0921909	
-0.0256402	-0.0692821	-5.509e-05	
-0.0595049	-0.0706208	-0.00160249	
-0.000105679	-0.0688556	-0.000203303	
-0.0290005	-0.0706835	-0.000284335	
0.28661	-0.0274656	0.0497727	
0.270472	-0.0393752	0.0456137	
0.870441	0.0459503	0.00125822	
0.0766535	-0.0732265	0.000722849	
0.0877391	-0.0536895	0.0106239	
0.0410697	-0.0706122	0.00121617	
-0.000714372	-0.0405661	0.0106324	
0.417486	-0.0490659	0.0269218	
0.0937773	-0.0596595	0.00384576	
-0.101466	-0.0701472	0.000317868	
0.132517	-0.067987	0.00168815	
-0.0386905	-0.061151	0.00198069	
0.000455045	-0.0605332	0.00188378	
0.000251727	-0.0710017	0.000554231	
0.000791833	-0.0589064	0.00481861	
0.000368453	-0.0658773	0.000757365	
0.00988309	-0.0725001	-0.000429484	
0.000194172	-0.0693787	0.000955678	
0.00157611	-0.0250317	0.010055	
0.000616459	-0.0533915	0.00692221	
-0.0730888	-0.0724617	-0.00141158	
-0.282223	-0.0402516	-0.00423526	
-0.0302945	-0.0698775	0.000964258	
0.201386	-0.0681526	4.75039e-05	
0.0527551	-0.0699896	0.00289336	
-0.48514	-0.0224414	-0.0455319	
-2.19518	0.108575	0.0593635	
-0.138416	-0.0734646	-0.000578026	
-0.0728332	-0.0539443	-0.00588956	
0.111046	-0.0687033	0.00500457	
0.000123863	-0.0709983	0.000623397	
-0.317809	-0.0323529	-0.0306245	
-0.417965	-0.0473341	-0.0131695	
-0.166886	-0.0588152	-0.00559402	
0.0813024	-0.0638376	0.000150264	
-0.143814	-0.0667103	-0.00281833	
-0.111037	-0.0590909	-0.00687737	
0.042094	-0.0601516	-0.00183479	
-0.000409742	-0.0603268	-0.00268463	
-4.4162e-05	-0.0646235	0.000736958	
-0.00035565	-0.0447696	-0.0101707	
-0.00105132	-0.0589068	-0.00527227	
-0.000378069	-0.06459	-0.00149232	
1.1661	-0.0407167	-0.0633176	
-0.662489	0.00107817	-0.0236011	
-0.00124487	-0.0533144	-0.00713351	
-0.000229518	-0.06609	-0.000378171	
-0.0020015	-0.0281653	-0.005564	
3.29363	0.0880453	0.183648	
0.13692	0.0790712	-0.0151196	
0.324373	0.0919136	-0.0120001	
1.11826	0.118633	-0.033935	
-0.021353	0.0767439	0.00101611	
-0.0814685	0.0763774	-0.00719972	
0.000318917	0.075976	-0.00136959	
-0.0363092	0.0770786	0.00742809	
0.358753	0.0836868	-0.0212121	
0.362001	0.0827832	-0.00404837	
1.09347	0.0746279	0.0146256	
0.115405	0.0720228	-0.010819	
0.104615	0.0914558	0.00859882	
0.0575105	0.0787052	0.00909885	
0.000168566	0.0771056	-0.0195869	
0.575361	0.117173	0.0638438	
0.153207	0.0775773	-0.0175074	
-0.12869	0.0812216	0.00491067	
0.18313	0.078313	0.00867706	
-0.0515321	0.0844748	-0.0209159	
0.00194316	0.0808713	-0.0175226	
0.000263907	0.0779488	0.00502715	
-0.00132974	0.0860434	-0.00804088	
-0.000104643	0.080904	-0.00511237	
0.0179143	0.0753541	-0.00118828	
-1.01635e-05	0.0789345	0.00429816	
-0.00338586	0.0484485	-0.018497	
-0.00452534	0.0845502	0.00137116	
-0.0987779	0.0736367	0.00877906	
-0.376266	0.0980501	0.0161151	
-0.0708827	0.07538	-0.0104703	
0.281217	0.073989	0.0223244	
0.0653526	0.0767077	-0.0122258	
-0.572864	0.0973762	-0.0303137	
-2.78653	0.102802	-0.138136	
-0.194974	0.069525	0.00720494	
-0.0845379	0.0926714	-0.00289303	
0.151609	0.0764484	-0.0195768	
-0.000133218	0.0738261	-0.000622056	
-0.422033	0.0866108	-0.0326712	
-0.574189	0.115588	-0.0487503	
-0.246949	0.0849847	0.0212229	
0.0970134	0.0817745	4.43212e-05	
-0.214335	0.0802154	-0.0128552	
-0.160473	0.0848895	0.0130687	
0.0551165	0.084606	0.0176238	
-0.00155853	0.0834792	0.0157617	
-0.000989536	0.0784044	0.00135909	
-0.000560923	0.0823102	0.0105905	
0.00126803	0.0868756	0.0106741	
0.000925571	0.0841883	0.00162789	
1.59207	-0.0302776	0.037714	
-0.803766	0.10603	-0.0220012	
0.00534067	0.0856647	0.00181739	
0.000214253	0.0815266	-0.00173784	
0.00196193	0.0479164	0.00869945	
5.70492	-0.0750315	0.284727	
-1.97554	-0.598329	-0.272177	
0.560258	-0.379037	0.370003	
1.5642	-0.161273	0.0494473	
1.93218	-0.508382	0.15764	
-1.77447	-0.576877	-0.104147	
-0.00342927	-0.553944	-0.0149066	
-0.637757	-0.265438	0.0772881	
0.624158	-0.115333	0.060793	
1.11334	-0.274561	0.232182	
-0.253903	-0.265888	0.0262162	
-0.0939879	-0.367602	-0.0387411	
3.00525	-0.70324	0.323378	
0.72895	-0.443369	0.176407	
-0.0115707	-0.091903	0.0669916	
0.7745	-0.559695	0.304319	
-0.950927	-0.305266	-0.184548	
0.162177	-0.121926	0.0224755	
1.43279	-0.323542	0.198732	
-0.308843	-0.528669	-0.126378	
0.0440661	-0.231691	-0.1361	
-0.036227	-0.285944	0.12197	
-0.0247495	-0.54948	0.0790761	
0.00963506	-0.141308	-0.025174	
0.0189106	-0.339788	0.0236178	
-0.011446	-0.174299	0.0453472	
-0.000822922	-0.0783209	0.0239118	
-0.0353695	-0.143812	0.156849	
0.0863978	-0.340668	0.0387193	
-0.35406	-0.473502	-0.406854	
-2.31589	-0.575866	-0.231026	
0.430419	-0.514057	-0.0724327	
0.0243986	-0.274671	-0.07943	
-1.01594	-0.27611	-0.172592	
-3.6344	-0.482489	-0.307392	
1.29426	-0.386853	0.0844859	
-2.69757	-0.678937	-0.237702	
0.198941	-0.258243	-0.0314401	
0.00633862	-0.533784	0.0295693	
-1.13201	-0.324583	-0.260287	
-0.762855	-0.631949	-0.161345	
0.665149	-0.295833	0.10089	
-1.22734	-0.398535	-0.10509	
0.35866	-0.345487	-0.0174342	
1.42829	-0.656102	0.154326	
0.94048	-0.506344	0.22778	
-0.0436572	-0.283765	0.0928978	
0.0135109	-0.268914	-0.0331903	
0.0607848	-0.230196	-0.173023	
0.00546352	-0.600161	0.00586128	
-0.00692726	-0.193278	0.0123019	
2.12211	0.170287	0.0292843	
-1.23833	-0.263891	-0.126794	
0.0514007	-0.233312	-0.175355	
0.00952829	-0.341101	-0.050184	
0.00738908	-0.157352	-0.0561191	
4.42971	0.258692	0.296489	
0.0564066	0.566971	-0.10161	
0.541972	0.672521	-0.0520882	
1.25061	0.466989	0.17599	
1.17532	0.759932	0.096145	
-0.893151	0.759118	-0.222453	
-0.0100964	0.734971	-0.0613235	
-0.303127	0.609074	-0.138375	
0.366535	0.430576	-0.040456	
0.638045	0.547214	-0.0275144	
1.14726	0.499048	0.0749103	
0.787541	0.629258	0.169321	
0.705659	0.613727	0.031173	
0.462693	0.685477	0.042711	
-0.0124583	0.438015	-0.121745	
1.23565	0.857059	0.0908225	
-0.609852	0.540544	-0.173254	
-0.253963	0.491515	-0.0514934	
0.779654	0.598991	0.154515	
-0.163858	0.756632	-0.206793	
0.0201052	0.536544	-0.0562198	
-0.0205424	0.615935	-0.0678238	
-0.000702116	0.789656	-0.15267	
0.0190274	0.496534	0.0166002	
0.0172225	0.53906	0.00999753	
0.000246414	0.539515	-0.000395905	
-0.00333569	0.353609	-0.068024	
0.00223853	0.536306	-0.0910757	
-0.773889	0.568904	-0.0929161	
-0.437995	0.698327	0.0625847	
-1.40264	0.717443	-0.249553	
0.935416	0.711922	0.126376	
0.0757051	0.595279	0.0303704	
-0.724926	0.436855	-0.0329874	
-2.8907	0.63579	-0.27097	
-0.0258785	0.612374	0.09454	
-0.430434	0.621903	-0.0365165	
-0.163415	0.583206	-0.0231041	
0.0140039	0.766458	0.031491	
-0.673129	0.509069	0.020063	
-1.17847	0.863947	-0.0738625	
0.416624	0.563742	0.0675369	
-0.332638	0.624602	-0.114526	
0.326511	0.659756	0.0652419	
-0.542054	0.792221	0.010567	
0.828002	0.564369	0.276288	
-0.0175891	0.550119	0.0346842	
-0.000999232	0.612502	0.0547977	
0.0265017	0.517884	0.159788	
0.00861431	0.798149	0.145264	
-0.0210446	0.52148	-0.0549278	
3.03385	-0.277543	0.192472	
-1.47346	0.492473	-0.251079	
-0.00560817	0.552054	0.0953007	
-0.0141543	0.631793	-0.0143116	
-0.00441263	0.41828	0.0876229	
2.95828	0.0896626	0.218118	
0.444794	0.327647	0.0759611	
0.377418	0.316645	0.00679995	
0.988089	0.200937	0.136946	
0.674809	0.36019	0.101395	
-0.305193	0.345574	-0.0808067	
-0.00199891	0.383519	-0.0301733	
-0.338461	0.323681	-0.11932	
0.147093	0.202012	-0.00269899	
0.366096	0.257676	0.00522414	
1.10134	0.143614	0.0997763	
1.19159	0.326062	0.31912	
0.548212	0.280614	0.0688619	
0.401717	0.324212	0.0861567	
0.000491755	0.221855	-0.0322229	
0.856578	0.298012	0.124129	
-0.435032	0.287597	-0.107353	
-0.392169	0.273033	-0.0889041	
0.517279	0.29335	0.102906	
0.0489202	0.326986	-0.0276931	
0.00445671	0.293704	-0.0142097	
0.00055819	0.308688	-0.0150789	
0.0112829	0.346191	-0.0444521	
0.00365024	0.274691	-0.00158265	
0.00923994	0.306853	-0.00024749	
0.00277742	0.28079	-0.00236883	
0.000836334	0.15963	-0.0185122	
0.00982929	0.274272	-0.0404338	
-1.19771	0.335276	-0.284342	
-0.249905	0.353605	0.0250839	
-0.917237	0.367189	-0.180759	
0.576653	0.371904	0.172227	
0.0940327	0.330339	0.0357422	
-0.557979	0.247796	-0.0657718	
-2.12759	0.167559	-0.221601	
-0.32024	0.333072	-0.0567583	
-0.366185	0.312465	-0.0355939	
-0.0980308	0.32504	-0.0319531	
0.00430868	0.348272	0.0211807	
-0.393745	0.261457	-0.0337856	
-0.815772	0.318832	-0.148645	
0.380675	0.305059	0.100104	
-0.0659153	0.362896	-0.0347886	
0.314039	0.325927	0.0670306	
-0.95427	0.342943	-0.190259	
0.587829	0.337059	0.172552	
-0.00401009	0.3096	0.00974869	
-0.00109046	0.317756	-0.000653248	
-0.00210655	0.280696	0.0573768	
-0.0107255	0.36832	0.0442771	
-0.00474094	0.303738	-0.0180738	
1.78675	-0.0953423	0.128424	
-1.30511	0.244009	-0.230032	
-0.0120239	0.305949	0.0609237	
-0.00374562	0.327876	-0.0154502	
-0.00340805	0.193264	0.0350653	
2.44051	0.0425315	0.186329	
0.596907	0.166617	0.0747097	
0.30744	0.139064	0.0201521	
0.851301	0.0926436	0.0868115	
0.446723	0.169137	0.0393114	
0.00685623	0.161863	-0.0082402	
-0.0012545	0.178225	-0.0133276	
-0.420776	0.150006	-0.0794756	
-0.000824346	0.0938336	-0.00942861	
0.225447	0.118914	0.00626209	
1.10501	0.0642672	0.0921211	
1.52941	0.161583	0.263355	
0.493145	0.133304	0.0453669	
0.442035	0.15564	0.0576099	
8.85872e-05	0.105188	-0.0109309	
0.661568	0.140772	0.0620306	
-0.336672	0.147365	-0.0520174	
-0.500188	0.1403	-0.0730034	
0.444869	0.145377	0.059237	
0.085545	0.1561	-0.00539282	
0.00155277	0.14914	-0.0060677	
0.000280935	0.150329	-0.00565321	
0.00192416	0.158256	-0.0199022	
0.000848087	0.139744	-0.000821082	
0.00564392	0.146416	0.00114282	
0.000344653	0.142058	0.000929901	
0.000155456	0.0738475	-0.00573667	
0.00131867	0.126783	-0.0148155	
-1.56082	0.168017	-0.248197	
-0.166429	0.154737	-0.0016979	
-0.755606	0.17594	-0.094612	
0.422993	0.173372	0.0843635	
0.101594	0.158248	0.0224142	
-0.449414	0.12517	-0.0403959	
-1.82487	0.0709347	-0.162368	
-0.490866	0.167469	-0.0476505	
-0.349853	0.144062	-0.0435082	
-0.0890695	0.157968	-0.0120722	
0.00187546	0.162654	0.0131872	
-0.27783	0.125226	-0.0180382	
-0.629385	0.147588	-0.0828173	
0.361159	0.156982	0.0596816	
0.0528331	0.17587	0.000579619	
0.299745	0.159931	0.0418761	
-0.977938	0.164784	-0.126169	
0.437996	0.175303	0.0811579	
-0.00141683	0.158046	0.00351139	
-0.000558999	0.155867	7.8327e-05	
-0.00165425	0.131377	0.0224711	
-0.00238179	0.167964	0.019248	
-0.000672846	0.154509	-0.00782188	
1.33721	-0.0424088	0.100107	
-1.16869	0.120623	-0.146461	
-0.00276345	0.140548	0.0248063	
-0.000561705	0.162779	-0.00900028	
-0.000876701	0.0847438	0.012065	
2.23884	0.022612	0.165684	
0.579274	0.095374	0.0582515	
0.271658	0.0688957	0.0163009	
0.817682	0.0531642	0.0703879	
0.406103	0.0806797	0.0275587	
0.188686	0.0784312	0.0108135	
-0.00105886	0.0837799	-0.00618988	
-0.460072	0.0738576	-0.0592905	
-0.0662577	0.0478904	-0.0103454	
0.17269	0.0575915	0.00731764	
1.12839	0.0336633	0.0872918	
1.71857	0.0820685	0.243271	
0.44491	0.0696619	0.0350027	
0.420222	0.0813317	0.0424707	
-2.67409e-05	0.0522528	-0.00505352	
0.569522	0.0735859	0.0456164	
-0.216565	0.0811099	-0.0255865	
-0.47922	0.0718585	-0.0542029	
0.442858	0.0734744	0.0478887	
0.0875935	0.0802499	0.00149953	
0.000397335	0.0845191	-0.00367109	
-0.000158112	0.0730819	-0.00234077	
0.000131756	0.0792595	-0.00826283	
0.000588056	0.0759977	-0.00180915	
0.00441882	0.0752488	0.000630825	
0.000107112	0.0705049	-0.00045128	
-4.07116e-05	0.0396089	-0.0026352	
0.000118592	0.0615771	-0.00701469	
-1.7609	0.107871	-0.21242	
-0.125844	0.0748302	-0.00239827	
-0.79097	0.0862517	-0.0805932	
0.316482	0.0803676	0.0532783	
0.0811369	0.080323	0.0131182	
-0.443962	0.0717721	-0.0356827	
-1.72427	0.0361669	-0.137021	
-0.584609	0.0917018	-0.0533399	
-0.319251	0.0732067	-0.0236229	
-0.0185598	0.0821597	-0.00209583	
0.00141222	0.0747964	0.00670282	
-0.258467	0.0641506	-0.0172025	
-0.540231	0.0775884	-0.0546592	
0.289701	0.0863284	0.032005	
0.044842	0.0910838	0.00241533	
0.293244	0.0781319	0.0319567	
-0.862709	0.0867574	-0.0926856	
0.354943	0.0964802	0.0460368	
-0.000501724	0.0879802	0.00162519	
-0.000174698	0.0769947	1.6058e-06	
-0.000482303	0.0631208	0.00931362	
-0.000162929	0.0830798	0.00746015	
-0.000247068	0.0821046	-0.00257927	
1.14476	-0.0221228	0.0807652	
-1.08707	0.0727761	-0.104798	
-0.000491432	0.0675181	0.0096274	
-0.000178	0.0809876	-0.00358266	
-8.38541e-05	0.0423977	0.0054645	
2.16163	0.0152813	0.159486	
0.621277	0.0617548	0.0549612	
0.220172	0.0458341	0.0150578	
0.791138	0.0335682	0.0653631	
0.356666	0.0512574	0.0314442	
0.351227	0.0531569	0.0231042	
-0.000566476	0.0530871	-0.00397915	
-0.511828	0.0450242	-0.0553827	
-0.136647	0.0305865	-0.0137367	
0.114511	0.0391024	0.00585001	
1.1911	0.0222172	0.0918782	
1.96908	0.0575188	0.225168	
0.400563	0.0491742	0.0296048	
0.460853	0.0501903	0.0426271	
-1.38055e-05	0.0347303	-0.00242652	
0.545444	0.0521095	0.040811	
-0.131106	0.0517659	-0.0141361	
-0.498448	0.0472759	-0.0487776	
0.469986	0.0478423	0.04647	
0.107204	0.0533114	0.00572154	
0.000149435	0.0534916	-0.00256676	
-1.75832e-05	0.0470232	-0.00177051	
6.08442e-05	0.0532368	-0.00539151	
0.000315447	0.0484971	-0.00127379	
0.00316842	0.0439862	0.000286436	
6.03706e-05	0.0464057	-0.00050851	
-1.8748e-05	0.0248595	-0.00136343	
1.34702e-05	0.043253	-0.00341096	
-2.02017	0.0646695	-0.216226	
-0.0762832	0.049541	-0.00159757	
-0.798207	0.0558429	-0.073992	
0.24802	0.0508036	0.0332873	
0.0723679	0.0489367	0.00964573	
-0.436221	0.0484833	-0.0339157	
-1.6753	0.0246646	-0.131848	
-0.693967	0.0606884	-0.0596098	
-0.285886	0.0518152	-0.0177864	
-0.0172736	0.0498098	-0.00110868	
0.000661189	0.0479831	0.00440127	
-0.237474	0.0433456	-0.0162465	
-0.509661	0.0550261	-0.0459655	
0.257841	0.0559603	0.026156	
0.0435563	0.0591283	0.00269695	
0.270142	0.0507882	0.0261329	
-0.839037	0.0594623	-0.0755561	
0.291359	0.0616871	0.0328716	
-0.000220778	0.0563012	0.00122938	
-0.000137231	0.0494118	0.000247191	
-0.000304787	0.0430165	0.0052704	
-5.18836e-05	0.0559616	0.00482294	
-8.09768e-05	0.0536939	-0.00126174	
1.05953	-0.0152141	0.0742147	
-1.0417	0.0501832	-0.0912687	
-0.000263713	0.0468769	0.00570693	
-8.53245e-05	0.0532266	-0.00183127	
2.86388e-05	0.0283711	0.00289592	
2.12793	0.0109485	0.157553	
0.663875	0.0421174	0.0500859	
0.184718	0.0317688	0.0130541	
0.774401	0.0224501	0.0627252	
0.318106	0.0355813	0.0193709	
0.486327	0.0350807	0.0501885	
-6.31068e-05	0.03654	-0.00269488	
-0.567414	0.0315692	-0.0539422	
-0.198695	0.0223571	-0.0173733	
0.0710263	0.0275377	0.00397909	
1.26306	0.015984	0.0974558	
2.21733	0.0390785	0.205862	
0.368819	0.0335225	0.0279652	
0.512515	0.0334111	0.0444542	
6.12866e-05	0.025069	-0.00142529	
0.534744	0.0350546	0.0406427	
-0.0698107	0.0369283	-0.00749669	
-0.503909	0.0325696	-0.0465025	
0.50812	0.0328967	0.0393654	
0.123969	0.0372283	0.00674044	
0.000183714	0.037715	-0.00183811	
8.38205e-05	0.0325148	-0.0012972	
0.000236224	0.0373374	-0.00351869	
8.95042e-05	0.0347525	-0.00110643	
0.00156446	0.0304293	0.000166614	
2.82042e-05	0.0324312	-0.000524681	
3.24512e-05	0.0179481	-0.000839315	
0.000125221	0.0305291	-0.00194489	
-2.2751	0.0267192	-0.216125	
-0.0393399	0.0349864	-0.000108307	
-0.813608	0.0365245	-0.0695307	
0.191433	0.0352213	0.0198727	
0.0619112	0.0336866	0.00767439	
-0.436207	0.0336906	-0.0331169	
-1.65094	0.0174001	-0.128941	
-0.789419	0.034914	-0.0782595	
-0.261677	0.0357504	-0.0200372	
-0.0264082	0.0343497	-0.00197478	
-3.78987e-05	0.0329754	0.00310545	
-0.22913	0.0305667	-0.0158728	
-0.498796	0.0367233	-0.0431303	
0.244201	0.0393013	0.0260893	
0.0329541	0.0418054	0.00213885	
0.246536	0.0353322	0.0223346	
-0.829862	0.0391285	-0.0676516	
0.245268	0.0433341	0.0239059	
-0.000118398	0.0396882	0.000995857	
-4.70546e-05	0.0345586	0.000223271	
-0.000121446	0.0309032	0.00288703	
-0.000216055	0.0392298	0.00305548	
4.2893e-06	0.0383937	-0.000527831	
1.00486	-0.0112136	0.0707329	
-1.01119	0.0321826	-0.0851188	
-0.000251749	0.0333556	0.00349399	
1.2924e-05	0.0375859	-0.00100043	
-7.99383e-05	0.0206401	0.00189242	
2.12485	0.00807845	0.159203	
0.702226	0.0321737	0.0524319	
0.156786	0.0228855	0.0114475	
0.76876	0.016877	0.061929	
0.293583	0.0268784	0.016532	
0.610013	0.0313279	0.0486573	
-0.000135981	0.0264889	-0.00204724	
-0.624916	0.0219593	-0.0565425	
-0.253031	0.0160463	-0.0210039	
0.0348079	0.0198043	0.00191014	
1.34065	0.0116236	0.104182	
2.46134	0.0342308	0.176419	
0.346999	0.0245096	0.0262666	
0.562324	0.0253888	0.0477014	
3.36305e-05	0.0180969	-0.000842716	
0.526969	0.0258595	0.0404296	
-0.0150157	0.0268943	-0.00232985	
-0.515909	0.023945	-0.0455054	
0.548951	0.0247889	0.0471215	
0.138114	0.0273051	0.00886507	
9.86385e-05	0.0275851	-0.00147774	
3.71958e-05	0.0236985	-0.000923406	
0.000102973	0.0269978	-0.00237899	
9.77712e-05	0.0253694	-0.000935047	
0.0011311	0.022159	0.000133826	
2.3238e-05	0.0237547	-0.00044511	
1.04692e-05	0.0130453	-0.000480152	
6.72485e-05	0.0219435	-0.00132604	
-2.52524	0.0268563	-0.219901	
-0.0105009	0.025432	0.00121425	
-0.844307	0.0287939	-0.0674608	
0.145813	0.0251074	0.0149376	
0.0520557	0.024705	0.00614064	
-0.444302	0.0260176	-0.0341753	
-1.64275	0.012951	-0.128754	
-0.884199	0.0341413	-0.0678229	
-0.245529	0.0263161	-0.0184276	
-0.0317355	0.0253703	-0.00236359	
5.67282e-05	0.0240077	0.00244793	
-0.228047	0.022914	-0.0164714	
-0.491696	0.0275878	-0.0411758	
0.233288	0.0288156	0.0222776	
0.0242981	0.0305697	0.00160978	
0.228629	0.0258667	0.0201292	
-0.8259	0.0299486	-0.064563	
0.20778	0.0315325	0.0190051	
-6.85224e-05	0.0291374	0.000744291	
-3.28755e-05	0.0253543	0.000316182	
-6.74685e-05	0.0226604	0.00188498	
-9.1873e-05	0.0285906	0.00205474	
7.63521e-06	0.0281177	-0.000311116	
0.967355	-0.00828323	0.0690213	
-0.992449	0.0258631	-0.0824769	
-0.000153263	0.0243016	0.00229868	
-8.214e-08	0.0275533	-0.000559493	
-3.55378e-05	0.0153866	0.00127434	
2.14492	0.00624046	0.162745	
0.739463	0.0245013	0.0580761	
0.136066	0.0172303	0.0102811	
0.774381	0.0131359	0.0625555	
0.279301	0.0200124	0.0133154	
0.721122	0.0205303	0.0869119	
-2.23726e-05	0.0197266	-0.00153917	
-0.679474	0.0170347	-0.0559054	
-0.302897	0.0121403	-0.0247787	
0.00349097	0.0149633	-0.000389215	
1.41705	0.00880498	0.111424	
2.68877	0.0237986	0.206034	
0.333203	0.0184424	0.0256131	
0.608285	0.019071	0.050694	
2.27732e-05	0.0137475	-0.000541417	
0.522446	0.019506	0.0403651	
0.0384003	0.0202716	0.0023671	
-0.53122	0.0180791	-0.0455958	
0.590273	0.0185925	0.0530477	
0.151746	0.0206259	0.0106472	
6.29956e-05	0.0208769	-0.00101739	
4.15865e-05	0.0177846	-0.000704547	
7.5182e-05	0.0202932	-0.00167848	
7.78464e-05	0.0190269	-0.000749371	
0.000306654	0.0169109	5.10601e-05	
2.70346e-05	0.0178101	-0.000399503	
6.34147e-06	0.0101343	-0.000288405	
4.13605e-05	0.0164996	-0.000836662	
-2.76241	0.020472	-0.23581	
0.0127631	0.0191354	0.00238349	
-0.885224	0.0219613	-0.0670541	
0.105902	0.0189697	0.0101959	
0.0421209	0.0186619	0.00476769	
-0.458714	0.0202264	-0.0357564	
-1.65336	0.00974082	-0.130887	
-0.973613	0.0254404	-0.0838518	
-0.236485	0.0197541	-0.0163372	
-0.0341971	0.0192336	-0.0025437	
3.44032e-06	0.0178964	0.00178176	
-0.231044	0.0175345	-0.0171209	
-0.486862	0.0208683	-0.0402983	
0.222006	0.0219525	0.0208225	
0.0147872	0.023122	0.000990068	
0.21373	0.0194751	0.0184191	
-0.824513	0.0228098	-0.0646795	
0.177218	0.0239527	0.0155257	
-4.88677e-05	0.0221985	0.000561142	
-2.19301e-05	0.0191023	0.000232411	
-5.02769e-05	0.0171845	0.00130183	
-6.30584e-05	0.0215412	0.00142715	
2.48325e-06	0.0212992	-0.000136077	
0.944151	-0.00647641	0.0683845	
-0.978809	0.0202042	-0.08105	
-0.000104266	0.0183283	0.00155418	
-5.95804e-06	0.0207957	-0.000310915	
-2.48499e-05	0.0116756	0.000838703	
2.18002	0.00491825	0.167118	
0.777682	0.0179436	0.0605702	
0.117464	0.0133589	0.0090265	
0.783136	0.00944567	0.0630923	
0.265866	0.0167836	0.0100741	
0.82915	0.00796797	0.106784	
7.95233e-05	0.01555	-0.00118387	
-0.734777	0.0140873	-0.0533948	
-0.351128	0.00970555	-0.0283062	
-0.0261376	0.0117214	-0.00251883	
1.49757	0.00683513	0.119251	
2.91927	0.00959418	0.226524	
0.324234	0.0139366	0.0252142	
0.65622	0.0140281	0.0537755	
2.12912e-05	0.0107453	-0.000328621	
0.51995	0.0145389	0.0401884	
0.0870885	0.0159093	0.00637831	
-0.549093	0.0139841	-0.0464856	
0.633438	0.0140232	0.052903	
0.165681	0.0158707	0.0119155	
7.72664e-05	0.0164046	-0.000836032	
4.73158e-05	0.0139956	-0.000517443	
9.26689e-05	0.0159314	-0.00122953	
4.35912e-05	0.0149843	-0.000599901	
-0.000548753	0.0132196	-2.48407e-05	
2.30262e-05	0.0140458	-0.000341069	
9.57821e-06	0.00784322	-0.000160966	
4.21085e-05	0.0129521	-0.000522505	
-3.00233	-0.00085363	-0.247424	
0.0330704	0.014958	0.00371164	
-0.926932	0.0168285	-0.0678772	
0.0706842	0.0148048	0.005729	
0.0331281	0.0147222	0.00377752	
-0.478548	0.0151135	-0.0372816	
-1.67226	0.00762372	-0.133573	
-1.06131	0.00884002	-0.115158	
-0.230803	0.0152872	-0.0155041	
-0.0383935	0.0151113	-0.00291157	
-0.000101435	0.0141558	0.00141788	
-0.234205	0.013368	-0.0174536	
-0.484721	0.0153609	-0.0397696	
0.214131	0.0171039	0.0193137	
0.0074172	0.0182	0.000451574	
0.200832	0.015266	0.0169673	
-0.827872	0.016552	-0.0650565	
0.15093	0.018958	0.012864	
-4.1341e-05	0.0174468	0.000428741	
-2.1382e-05	0.0150834	0.000244528	
-5.49363e-05	0.0135285	0.000897809	
-8.18871e-05	0.0168853	0.00101682	
4.81845e-06	0.0167812	-3.45733e-05	
0.929396	-0.00512668	0.0681115	
-0.971674	0.0140968	-0.0797512	
-8.59552e-05	0.0143849	0.00108384	
4.93824e-06	0.0164342	-0.0002078	
-3.39377e-05	0.00926594	0.0005773	
2.22285	0.00402556	0.172162	
0.819366	0.0158481	0.0624853	
0.103037	0.0108524	0.0079149	
0.792545	0.00799868	0.0637741	
0.255385	0.0134145	0.0134878	
0.934378	0.00763702	0.109666	
4.94303e-05	0.0126149	-0.000939933	
-0.790451	0.0108504	-0.0613331	
-0.397518	0.00787369	-0.0317825	
-0.0521147	0.00948855	-0.0043382	
1.58286	0.00563157	0.126824	
3.15305	0.0109197	0.200063	
0.316613	0.0115899	0.0243602	
0.703891	0.0119471	0.0576216	
1.29085e-05	0.00877448	-0.000207518	
0.519375	0.012217	0.0405314	
0.130437	0.0129522	0.00965111	
-0.569013	0.0113611	-0.0475434	
0.677282	0.0117114	0.0606865	
0.177737	0.0131854	0.0132212	
4.46443e-05	0.0132187	-0.000671999	
2.93402e-05	0.0113482	-0.000397643	
4.84701e-05	0.0128612	-0.000911246	
4.29709e-05	0.0121636	-0.000502966	
-0.0012377	0.0107577	-8.13856e-05	
1.87855e-05	0.0114273	-0.000289926	
2.98753e-06	0.00636116	-9.47611e-05	
2.14577e-05	0.0104058	-0.000344284	
-3.24332	0.00219148	-0.238251	
0.0514385	0.0120763	0.00491168	
-0.96985	0.0157281	-0.072756	
0.037997	0.012324	0.00434424	
0.0251994	0.0118982	0.00291559	
-0.496564	0.0128375	-0.0389319	
-1.69721	0.00629374	-0.136322	
-1.15162	0.0131347	-0.0925787	
-0.226589	0.0122961	-0.0170977	
-0.0422908	0.0122575	-0.00327059	
-6.11593e-05	0.0114814	0.00114254	
-0.242209	0.0111002	-0.0182706	
-0.483749	0.0128024	-0.0395219	
0.208714	0.0138794	0.0176742	
-0.000172321	0.0146683	-0.000127711	
0.191621	0.0123566	0.0161009	
-0.836464	0.0140488	-0.0649906	
0.127865	0.01516	0.0107533	
-3.02879e-05	0.0140287	0.00033109	
-1.459e-05	0.0121955	0.000212234	
-3.34019e-05	0.01089	0.000644601	
-4.61156e-05	0.0136031	0.000743993	
1.55075e-07	0.0135229	6.04115e-07	
0.921324	-0.00419997	0.0683071	
-0.971563	0.0124594	-0.079638	
-5.87491e-05	0.0115539	0.000775539	
9.12468e-07	0.0132188	-0.000139293	
-1.73424e-05	0.00756333	0.000428872	
2.27262	0.00334078	0.177624	
0.861819	0.0131371	0.0679589	
0.0900395	0.00895184	0.00714861	
0.80486	0.00663926	0.0648946	
0.245872	0.0113626	0.0135924	
1.03726	0.00584244	0.111105	
5.87335e-05	0.0104384	-0.000734034	
-0.846604	0.00934982	-0.061509	
-0.442818	0.00651096	-0.0354058	
-0.076992	0.00786465	-0.0064013	
1.6681	0.00466264	0.134398	
3.3807	0.00731482	0.247031	
0.311681	0.00956245	0.0241573	
0.751482	0.00962306	0.0610662	
7.6173e-06	0.00727951	-0.000129817	
0.520589	0.0101106	0.0408978	
0.173193	0.0106636	0.0130108	
-0.591078	0.00940831	-0.0490804	
0.72113	0.00977067	0.0640037	
0.190014	0.0109164	0.0142404	
3.59598e-05	0.0108959	-0.000504119	
2.58378e-05	0.00936561	-0.000308978	
3.67086e-05	0.0106153	-0.000686075	
3.58701e-05	0.00998381	-0.000402801	
-0.00195815	0.00892444	-0.000132915	
1.53712e-05	0.00941354	-0.000229399	
1.26927e-06	0.00530683	-5.36451e-05	
1.45783e-05	0.00861919	-0.000238026	
-3.48067	0.00153815	-0.262248	
0.0674909	0.00987937	0.0059989	
-1.01374	0.01275	-0.0755327	
0.00811095	0.0104404	0.00197501	
0.0178152	0.00983449	0.00211679	
-0.517711	0.010604	-0.0409153	
-1.72729	0.00514866	-0.139456	
-1.23875	0.0109843	-0.102404	
-0.222836	0.010127	-0.0168259	
-0.0470473	0.0101273	-0.00372089	
-6.40073e-05	0.00952439	0.000888623	
-0.251342	0.0091547	-0.0191838	
-0.484239	0.0105293	-0.0396654	
0.205312	0.0114074	0.017462	
-0.00570642	0.0120925	-0.000521616	
0.183337	0.0102012	0.0152486	
-0.847065	0.0116853	-0.0663868	
0.106095	0.0124694	0.00880044	
-2.24402e-05	0.0115276	0.000254185	
-1.17788e-05	0.0100938	0.000154383	
-2.53853e-05	0.00895184	0.000473676	
-3.37502e-05	0.0111746	0.000550526	
1.60375e-07	0.0111438	1.46466e-05	
0.917638	-0.00348363	0.0687139	
-0.973276	0.0103605	-0.0801149	
-4.27812e-05	0.0094522	0.000546124	
-4.76037e-07	0.0109469	-8.75915e-05	
-1.4787e-05	0.00624604	0.000307414	
2.32543	0.00280875	0.183024	
0.905134	0.01012	0.0714233	
0.078368	0.00754936	0.0064237	
0.817983	0.00528314	0.0659875	
0.237809	0.00939762	0.0140448	
1.13619	-0.000890802	0.12722	
7.38452e-05	0.00876282	-0.000603708	
-0.903116	0.00847078	-0.0599082	
-0.48736	0.00565822	-0.0389303	
-0.100981	0.00665681	-0.0086339	
1.755	0.00395549	0.142061	
3.61035	-0.00124083	0.257588	
0.308882	0.00783948	0.0247136	
0.799548	0.00742168	0.0642177	
5.54104e-06	0.00617068	-7.91801e-05	
0.523086	0.00817314	0.0414146	
0.213489	0.00890873	0.0160772	
-0.613679	0.00785667	-0.0509771	
0.765885	0.00770702	0.064905	
0.202715	0.00897179	0.015455	
3.44192e-05	0.00914943	-0.000401338	
2.72514e-05	0.00787408	-0.000253604	
3.76474e-05	0.00893289	-0.00051743	
2.4759e-05	0.00841618	-0.000312762	
-0.00264809	0.0075118	-0.000176714	
1.22007e-05	0.00793166	-0.000185596	
1.87483e-06	0.00448487	-2.55023e-05	
1.44506e-05	0.00728156	-0.000169402	
-3.7178	-0.0119281	-0.282139	
0.0828625	0.00841355	0.00711655	
-1.05909	0.0106124	-0.0795069	
-0.0201933	0.00898193	-0.000216403	
0.0103629	0.00830256	0.00137716	
-0.539296	0.00848954	-0.0427345	
-1.75956	0.00437055	-0.142654	
-1.32447	0.000227699	-0.122565	
-0.221598	0.0084361	-0.0165753	