<VTKFile type="UnstructuredGrid" version="0.1" byte_order="LittleEndian">
	<UnstructuredGrid>
		<Piece NumberOfPoints="56" NumberOfCells="56">
			<CellData Scalars="scalars">
				<DataArray type="Float64" Name="Strength" NumberOfComponents="3" Format="ascii">
0.544165	-0.358151	-0.144411	
0.0128872	-1.04453	-0.00886212	
0.0285629	-0.935788	-0.00749162	
0.120141	-0.812399	-0.0399544	
0.00363885	-1.06733	0.00325876	
-0.0193477	-1.00561	0.00722368	
-0.0016614	-1.05478	-0.00454097	
-0.000493877	-1.04754	0.00776813	
0.0336027	-0.85411	0.00387839	
0.0387362	-0.915923	-0.00730091	
0.145555	-0.572306	-0.0235987	
0.0118053	-1.02414	-0.00590609	
0.00977267	-0.971444	0.00160767	
0.00885548	-1.04125	-0.00340753	
0.00901507	-0.886502	0.0131511	
0.0694012	-0.961007	-0.0331306	
0.00295061	-1.04545	-0.00117456	
-0.0210357	-1.01411	0.0139096	
0.0163275	-1.03274	-0.0134252	
-0.00651222	-1.02951	0.00859606	
-0.00296806	-1.03002	-0.000300894	
0.00278025	-1.02686	-0.0010167	
0.00937972	-1.0488	0.00657647	
-0.00339211	-1.05402	-0.00219846	
-0.000649884	-1.0512	0.00199549	
0.00205571	-1.02302	0.00255358	
0.0138243	-0.715904	0.02947	
0.00797149	-0.955164	0.0022157	
-0.0127424	-1.05208	0.00798357	
-0.0334259	-0.940353	0.0103538	
-0.0109259	-1.06802	0.00211599	
0.0321174	-1.05633	-0.0144646	
0.00734959	-1.03581	-0.00748809	
-0.0579022	-0.833096	0.014028	
-0.336496	-0.574109	0.111027	
-0.0105524	-1.02489	0.00711089	
-0.00607207	-0.975591	-0.00304374	
0.0259172	-1.03837	-0.0100306	
0.00334271	-1.0072	0.00219031	
-0.0462775	-0.875888	0.0102091	
-0.068936	-0.962149	0.0342261	
-0.0162781	-1.05344	0.00592358	
0.0122352	-1.10211	-0.0108833	
-0.0262477	-1.02295	0.0151351	
-0.0147752	-1.03096	0.00304487	
0.00439637	-1.04721	-0.00332074	
0.00223201	-1.03414	-0.00110846	
-0.00227579	-1.07043	0.000653442	
-0.00950084	-0.914371	-0.012372	
-0.00955458	-1.05006	-0.00733684	
-0.00402507	-1.07174	-0.00494686	
-0.333328	-0.352645	0.0751334	
-0.0901855	-0.814717	0.0232692	
-0.00699227	-0.960772	-0.00219012	
0.000491569	-1.0517	0.00547068	
-0.0152099	-0.710755	-0.0290762	
				</DataArray>
				<DataArray type="Float64" Name="Time Step Shed" NumberOfComponents="1" Format="ascii">
3	
3	
3	
3	
3	
3	
3	
3	
3	
3	
3	
3	
3	
3	
3	
3	
3	
3	
3	
3	
3	
3	
3	
3	
3	
3	
3	
3	
3	
3	
3	
3	
3	
3	
3	
3	
3	
3	
3	
3	
3	
3	
3	
3	
3	
3	
3	
3	
3	
3	
3	
3	
3	
3	
3	
3	
				</DataArray>
			</CellData>
			<Points>
				<DataArray type="Float64" Name="Position" NumberOfComponents="3" Format="ascii">
1.12625	1.96497	-0.022591	
1.13133	1.03572	-0.038324	
1.12999	1.46471	-0.036998	
1.12842	1.75074	-0.0363944	
1.13105	0.322243	-0.0376224	
1.13014	0.179151	-0.0353575	
1.1307	0.250572	-0.0370556	
1.13065	0.393768	-0.0372984	
1.12863	1.67862	-0.0364744	
1.12955	1.53555	-0.0370765	
1.12653	1.89388	-0.0304421	
1.13013	0.108108	-0.0363186	
1.12975	1.32173	-0.036562	
1.13078	0.46537	-0.0377395	
1.12882	1.60701	-0.0365837	
1.12959	1.25023	-0.0356407	
1.13098	0.89382	-0.0377575	
1.13039	0.750226	-0.0362117	
1.13048	0.6073	-0.0368766	
1.13074	1.10692	-0.0376698	
1.13077	0.964832	-0.0381156	
1.1306	0.53628	-0.0375834	
1.13047	1.17857	-0.0385568	
1.13057	0.82205	-0.0379579	
1.13049	0.0360818	-0.037085	
1.13021	0.678826	-0.0365816	
1.12739	1.82248	-0.0345661	
1.12954	1.39363	-0.0367541	
1.13041	-0.036238	-0.0371738	
1.12985	-1.46482	-0.0370374	
1.13092	-0.322459	-0.037637	
1.13064	-0.250553	-0.0371709	
1.13037	-0.394028	-0.0367574	
1.12812	-1.6785	-0.0350348	
1.12647	-1.89376	-0.0299547	
1.12994	-0.108041	-0.0364461	
1.12966	-1.32186	-0.0365541	
1.13079	-0.465263	-0.0372957	
1.12961	-0.179169	-0.0356637	
1.1285	-1.60707	-0.0357633	
1.1295	-1.25025	-0.0355509	
1.13094	-0.893754	-0.0377723	
1.1314	-0.750276	-0.039134	
1.1304	-0.607226	-0.0360699	
1.13069	-1.10673	-0.0375334	
1.13092	-1.03571	-0.0385071	
1.13061	-0.964893	-0.0380984	
1.13113	-0.536285	-0.0385831	
1.12907	-1.53565	-0.036928	
1.13037	-1.1784	-0.0385041	
1.13078	-0.822253	-0.0384923	
1.12608	-1.96489	-0.0221919	
1.12792	-1.75058	-0.0365391	
1.12944	-1.39374	-0.0369352	
1.1304	-0.67844	-0.0373258	
1.12718	-1.82245	-0.0342644	
				</DataArray>
			</Points>
			<Cells>
				<DataArray type="Int32" Name="connectivity" Format="ascii">
0	
1	
2	
3	
4	
5	
6	
7	
8	
9	
10	
11	
12	
13	
14	
15	
16	
17	
18	
19	
20	
21	
22	
23	
24	
25	
26	
27	
28	
29	
30	
31	
32	
33	
34	
35	
36	
37	
38	
39	
40	
41	
42	
43	
44	
45	
46	
47	
48	
49	
50	
51	
52	
53	
54	
55	
				</DataArray>
				<DataArray type="Int32" Name="offsets" Format="ascii">
1	
2	
3	
4	
5	
6	
7	
8	
9	
10	
11	
12	
13	
14	
15	
16	
17	
18	
19	
20	
21	
22	
23	
24	
25	
26	
27	
28	
29	
30	
31	
32	
33	
34	
35	
36	
37	
38	
39	
40	
41	
42	
43	
44	
45	
46	
47	
48	
49	
50	
51	
52	
53	
54	
55	
56	
				</DataArray>
				<DataArray type="Int32" Name="types" Format="ascii">
1	
1	
1	
1	
1	
1	
1	
1	
1	
1	
1	
1	
1	
1	
1	
1	
1	
1	
1	
1	
1	
1	
1	
1	
1	
1	
1	
1	
1	
1	
1	
1	
1	
1	
1	
1	
1	
1	
1	
1	
1	
1	
1	
1	
1	
1	
1	
1	
1	
1	
1	
1	
1	
1	
1	
1	
				</DataArray>
			</Cells>
		</Piece>
	</UnstructuredGrid>
</VTKFile>
