<VTKFile type="UnstructuredGrid" version="0.1" byte_order="LittleEndian">
	<UnstructuredGrid>
		<Piece NumberOfPoints="1456" NumberOfCells="1456">
			<CellData Scalars="scalars">
				<DataArray type="Float64" Name="Strength" NumberOfComponents="3" Format="ascii">
0.527405	-0.385813	-0.123147	
0.000291168	-1.04347	0.0197535	
-0.0247158	-0.939179	0.0144777	
-0.0260718	-0.821407	0.0580344	
0.00243442	-1.06749	0.0221184	
-0.0203537	-1.00551	0.0413348	
0.0023701	-1.05317	0.0254915	
-0.0128861	-1.04933	0.0227922	
-0.0963016	-0.845388	0.109417	
-0.0380553	-0.91955	0.0163776	
0.0847969	-0.579164	0.055333	
0.0105944	-1.0263	0.0147042	
-0.0254952	-0.972078	0.0366302	
-0.0218219	-1.04315	0.00478069	
-0.0936756	-0.882291	0.073295	
0.0239215	-0.965846	0.00319069	
0.0452652	-1.0465	-0.00665245	
0.0226247	-1.01703	-0.00210432	
-0.0011028	-1.03543	-0.0138774	
-0.0423154	-1.02764	0.0553276	
0.0135708	-1.03069	0.0146868	
-0.0306592	-1.02936	0.00650741	
-0.0386042	-1.04557	0.0544425	
0.054251	-1.05359	-0.0229382	
0.00504837	-1.05468	0.00522412	
0.0177288	-1.02491	-0.00886454	
-0.10915	-0.694969	0.130519	
-0.0305595	-0.956788	0.0259614	
0.00282533	-1.05569	-0.0177363	
0.0291539	-0.943665	-0.0185883	
-0.0282104	-1.06827	-0.00608294	
0.0246544	-1.05458	-0.0455445	
-0.00355045	-1.03886	-0.00520738	
0.11807	-0.820136	-0.124542	
-0.262801	-0.61639	-0.0500624	
0.00964872	-1.0263	-0.033788	
0.0346287	-0.976009	-0.0330556	
0.0243307	-1.04008	-0.00553014	
0.0141351	-1.00762	-0.0336459	
0.100457	-0.870574	-0.078186	
-0.0180193	-0.967086	0.00535801	
-0.0273312	-1.05648	0.00849711	
-0.0125812	-1.10283	-0.00229672	
-0.0287171	-1.02515	0.0232648	
0.0328579	-1.03041	-0.042729	
0.036269	-1.04511	-0.0413276	
0.0114152	-1.03548	-0.0179043	
0.00180179	-1.07008	0.0115342	
0.0892207	-0.91171	-0.0589615	
0.0478667	-1.04643	-0.0605165	
-0.0266742	-1.07427	0.00277861	
-0.307039	-0.378606	-0.0308773	
0.0792265	-0.79807	-0.172979	
0.040141	-0.96194	-0.0272627	
-0.0156111	-1.05291	0.00740182	
0.0947466	-0.659279	-0.247037	
1.49585	0.025344	-0.160877	
0.0477661	-0.192333	-0.0101397	
0.124623	-0.16391	-0.0218892	
0.504221	-0.147122	-0.0865739	
-0.00890425	-0.206394	0.00626007	
-0.0465027	-0.206168	0.01786	
-0.000137334	-0.204739	0.00203296	
-0.0135182	-0.207941	0.00808395	
0.148042	-0.140132	-0.0131611	
0.145566	-0.161482	-0.0297823	
0.505953	-0.0745332	-0.0748697	
0.0456719	-0.210752	-0.0174912	
0.0406319	-0.181954	-7.50264e-05	
0.0243486	-0.205391	-0.00641078	
-0.00189261	-0.149722	0.018131	
0.238396	-0.188383	-0.0701455	
0.0466669	-0.191423	-0.0139391	
-0.061144	-0.205648	0.0247866	
0.0682145	-0.203886	-0.0247576	
-0.0279048	-0.193858	0.0200093	
0.00385382	-0.191135	0.00324901	
-0.000533267	-0.204883	0.00121973	
0.000441687	-0.189419	0.0112097	
0.00675349	-0.201521	-0.00116028	
0.00389895	-0.209087	-0.00421557	
0.00349657	-0.204597	-0.00023583	
-0.000327409	-0.101125	0.016484	
0.00533283	-0.176435	0.0154939	
-0.0469633	-0.209751	0.0128396	
-0.141405	-0.167142	0.0291897	
-0.0191377	-0.208712	0.0107389	
0.11986	-0.205199	-0.0422636	
0.0311859	-0.210273	-0.00634854	
-0.25092	-0.165404	0.0474442	
-1.20583	-0.201162	0.390568	
-0.0695381	-0.212575	0.0238614	
-0.0310646	-0.182583	-0.00582661	
0.0747836	-0.208183	-0.0235069	
0.00148363	-0.205589	-0.00185212	
-0.168367	-0.162651	0.0262905	
-0.237968	-0.19091	0.067636	
-0.0879997	-0.193689	0.0293175	
0.0460912	-0.202718	-0.02007	
-0.08458	-0.205388	0.0320379	
-0.0557471	-0.197361	0.0104043	
0.0273091	-0.192319	-0.0177931	
-0.00111402	-0.192219	-0.00520427	
-0.000809155	-0.200985	0.00257858	
0.000199387	-0.158417	-0.0242954	
0.000362736	-0.18962	-0.0125197	
-0.00418511	-0.202786	-0.00172688	
-0.715139	-0.0802261	0.109739	
-0.346068	-0.171038	0.0979644	
-0.00503017	-0.176719	-0.018139	
-0.00331093	-0.206163	-0.000231039	
-0.00356321	-0.0956207	-0.0419923	
2.49544	0.212942	-0.0036775	
0.0871226	-0.0585869	0.00591582	
0.24404	-0.0428644	0.0275766	
0.901336	0.000267636	0.102682	
-0.0256521	-0.0692778	5.8448e-05	
-0.0595337	-0.0706006	-0.00141789	
-0.000127044	-0.0688556	-0.000201149	
-0.0289949	-0.0706862	-0.000194066	
0.2854	-0.0284334	0.0558202	
0.269733	-0.0394079	0.0497711	
0.8699	0.0552646	-0.000916709	
0.0766349	-0.073248	0.000501714	
0.0877994	-0.0533999	0.0115462	
0.0411139	-0.0705883	0.00111456	
-0.00123168	-0.0401974	0.011908	
0.417515	-0.0481003	0.0281966	
0.0938824	-0.0594955	0.00382586	
-0.101407	-0.0702279	0.000925816	
0.132551	-0.0679325	0.00115014	
-0.0385666	-0.0612102	0.00250228	
0.000554088	-0.0605233	0.00215576	
0.000298181	-0.071001	0.000634593	
0.000903841	-0.0588477	0.00547189	
0.000452583	-0.0658756	0.000858134	
0.00984248	-0.0725053	-0.000495177	
0.000238825	-0.0693773	0.00104786	
0.00168624	-0.0244606	0.0113583	
0.000608647	-0.053281	0.00772849	
-0.073114	-0.0724398	-0.0012286	
-0.282349	-0.0395194	-0.00227467	
-0.0302017	-0.0699125	0.00128713	
0.201436	-0.0679989	-0.00110685	
0.0528242	-0.0699336	0.0029887	
-0.484754	-0.0227163	-0.0493583	
-2.19355	0.126233	0.0811252	
-0.138401	-0.0734956	-7.89292e-06	
-0.0730955	-0.0535581	-0.00616017	
0.11104	-0.0687078	0.0050638	
0.000146482	-0.0709979	0.000671507	
-0.31758	-0.0320063	-0.033252	
-0.418178	-0.0456014	-0.0125066	
-0.166966	-0.0586029	-0.00544794	
0.0812215	-0.0639405	-0.0002262	
-0.143836	-0.0666831	-0.00232397	
-0.111179	-0.0587949	-0.00711909	
0.0419962	-0.0602019	-0.00235487	
-0.000502138	-0.060308	-0.00306603	
-5.62595e-05	-0.0646222	0.000849247	
-0.000258431	-0.0444199	-0.0116055	
-0.00122574	-0.0588313	-0.00602497	
-0.000449569	-0.0645852	-0.00166907	
1.16514	-0.0483305	-0.0745593	
-0.662482	0.00341714	-0.023585	
-0.00149582	-0.0531753	-0.00806283	
-0.000278192	-0.0660896	-0.000415772	
-0.00227701	-0.0279901	-0.0062938	
3.29288	0.0970047	0.192489	
0.137432	0.0775041	-0.0182683	
0.323775	0.0932668	-0.016769	
1.11689	0.126521	-0.0477937	
-0.0214545	0.0767113	0.00130688	
-0.0813394	0.0764755	-0.00760882	
0.000418729	0.0759712	-0.00159861	
-0.036626	0.0767898	0.00874655	
0.358203	0.0842379	-0.0274346	
0.362242	0.0815302	-0.00697582	
1.09322	0.0788077	0.0104093	
0.115785	0.0710196	-0.013144	
0.103364	0.0927944	0.00936198	
0.0572597	0.0787672	0.0100914	
0.000453061	0.0763451	-0.0223653	
0.573215	0.123866	0.0702113	
0.153324	0.0764757	-0.0209862	
-0.128554	0.0813162	0.00662126	
0.183163	0.0782608	0.00846246	
-0.050883	0.0840837	-0.0238692	
0.00229568	0.0802909	-0.0199761	
0.000435628	0.07789	0.00585969	
-0.00151785	0.0859116	-0.00931644	
-0.000149558	0.0808535	-0.00585711	
0.0180869	0.0753087	-0.0014356	
7.11635e-05	0.0788946	0.00497676	
-0.00403454	0.0472664	-0.0212253	
-0.00548407	0.0844865	0.00175019	
-0.0989193	0.0731754	0.0108108	
-0.375431	0.100432	0.0203682	
-0.0706428	0.0754549	-0.0115031	
0.281146	0.0739303	0.0233957	
0.0653414	0.0763156	-0.014523	
-0.572576	0.0992526	-0.0296882	
-2.78618	0.108979	-0.140573	
-0.195322	0.0682481	0.00959294	
-0.0828669	0.0941787	-0.00256895	
0.151287	0.0759822	-0.0234864	
-0.00013248	0.0738243	-0.000812102	
-0.421988	0.0868083	-0.032732	
-0.57251	0.12254	-0.0514619	
-0.246454	0.0850515	0.0261427	
0.0970881	0.0816825	-0.000770406	
-0.214433	0.0798832	-0.0132994	
-0.160709	0.0838671	0.0163652	
0.0547215	0.0843881	0.0197704	
-0.00174801	0.0830536	0.0178499	
-0.00128269	0.0783948	0.00164323	
-0.00107607	0.0821325	0.0118557	
0.00161217	0.0866653	0.0122249	
0.00117	0.0841824	0.00177249	
1.59209	-0.0319468	0.0352581	
-0.803177	0.110888	-0.0194662	
0.00655777	0.085577	0.00196527	
0.000222284	0.0815196	-0.00204037	
0.00216551	0.0476526	0.0100031	
5.70509	-0.06943	0.283057	
-1.9543	-0.655027	-0.294205	
0.545463	-0.363128	0.406233	
1.56322	-0.174093	0.034842	
1.92574	-0.532394	0.157325	
-1.7715	-0.587352	-0.0958773	
-0.00450498	-0.553863	-0.0174516	
-0.644172	-0.244395	0.0921417	
0.623033	-0.121026	0.0612762	
1.10121	-0.298954	0.258451	
-0.254291	-0.264783	0.0328156	
-0.090432	-0.367923	-0.0438308	
2.9762	-0.816566	0.326114	
0.714231	-0.4589	0.195862	
-0.013749	-0.0849328	0.0752644	
0.760929	-0.559164	0.337657	
-0.942139	-0.3237	-0.197762	
0.161849	-0.122044	0.0241355	
1.42423	-0.350126	0.214623	
-0.301605	-0.528614	-0.143016	
0.0526027	-0.218257	-0.154078	
-0.0454732	-0.275515	0.141334	
-0.0338823	-0.546018	0.0975376	
0.0114481	-0.140564	-0.0283711	
0.0191145	-0.339461	0.0277935	
-0.0139353	-0.172558	0.0509675	
-0.000704442	-0.0771242	0.0275316	
-0.0390458	-0.121793	0.173707	
0.0835569	-0.340733	0.0440179	
-0.323753	-0.452437	-0.453373	
-2.30345	-0.623922	-0.230754	
0.436726	-0.506024	-0.0893216	
0.0309449	-0.271121	-0.0887935	
-1.00861	-0.296884	-0.180921	
-3.63323	-0.491493	-0.306975	
1.29178	-0.394955	0.0849595	
-2.67459	-0.768309	-0.225442	
0.20448	-0.253124	-0.0370516	
0.00855311	-0.533368	0.0358639	
-1.11704	-0.352121	-0.287731	
-0.753917	-0.638739	-0.175927	
0.659306	-0.306892	0.106083	
-1.22696	-0.398966	-0.107818	
0.362599	-0.341118	-0.0215352	
1.4157	-0.680838	0.163014	
0.920238	-0.533597	0.247435	
-0.0541964	-0.277402	0.105681	
0.0171397	-0.268139	-0.0375071	
0.075919	-0.209543	-0.192222	
0.00862559	-0.600141	0.00405289	
-0.00860334	-0.193121	0.0136408	
2.12199	0.172782	0.022772	
-1.23452	-0.282902	-0.122926	
0.060924	-0.213651	-0.196116	
0.0124124	-0.33981	-0.0577397	
0.00816339	-0.154233	-0.0641039	
4.42962	0.260553	0.296217	
0.0579105	0.563788	-0.117265	
0.535512	0.676417	-0.0665105	
1.24169	0.481162	0.199511	
1.16545	0.773344	0.108684	
-0.887294	0.758162	-0.247721	
-0.0134535	0.734039	-0.0710736	
-0.307459	0.602386	-0.156862	
0.3618	0.433765	-0.0482706	
0.626143	0.559357	-0.0487874	
1.14707	0.499427	0.0754131	
0.781874	0.631038	0.187928	
0.699051	0.621282	0.0305709	
0.452456	0.692105	0.0454941	
-0.017627	0.432221	-0.140388	
1.22293	0.874579	0.0959946	
-0.599606	0.543345	-0.198428	
-0.249054	0.493263	-0.058309	
0.772824	0.602787	0.172972	
-0.162681	0.747255	-0.239248	
0.0265709	0.535473	-0.0632988	
-0.0257696	0.614448	-0.0786915	
-0.00488362	0.783661	-0.180896	
0.0233368	0.496232	0.0198426	
0.0194209	0.538955	0.0115372	
0.00154199	0.539507	0.00247709	
-0.00353214	0.351398	-0.0786401	
-0.000692819	0.533147	-0.108071	
-0.766603	0.577663	-0.099088	
-0.427951	0.702724	0.0803972	
-1.39378	0.721436	-0.285155	
0.936317	0.707648	0.142709	
0.075821	0.59506	0.0341495	
-0.719621	0.445182	-0.0375963	
-2.89034	0.631728	-0.284051	
-0.0215504	0.610024	0.109634	
-0.42372	0.626405	-0.0381354	
-0.162036	0.583459	-0.0262459	
0.0176959	0.766151	0.0367078	
-0.66542	0.518744	0.0280081	
-1.16769	0.877699	-0.0826878	
0.407075	0.569688	0.07545	
-0.336372	0.619882	-0.128416	
0.323889	0.6602	0.073326	
-0.537648	0.795155	0.0146142	
0.821203	0.557913	0.307857	
-0.0229095	0.549446	0.041584	
0.00054017	0.611585	0.0642461	
0.0380057	0.507708	0.187697	
0.0128917	0.793115	0.170365	
-0.0274803	0.520296	-0.0627549	
3.03435	-0.273993	0.189658	
-1.46165	0.505454	-0.291196	
-0.00296139	0.549754	0.107879	
-0.0183474	0.631687	-0.0142773	
-0.00785739	0.41537	0.100307	
2.95802	0.0905532	0.221252	
0.44275	0.3287	0.0830222	
0.377312	0.31684	0.00208266	
0.985381	0.20402	0.15118	
0.670885	0.364195	0.112528	
-0.302919	0.345842	-0.0879073	
-0.00281745	0.383149	-0.0344929	
-0.333398	0.322932	-0.134626	
0.147044	0.202013	-0.00463917	
0.365351	0.258785	0.000680495	
1.10098	0.143516	0.103883	
1.17963	0.325497	0.361319	
0.54897	0.278231	0.0723957	
0.399516	0.323589	0.097925	
0.000705791	0.220956	-0.0378992	
0.855444	0.296124	0.135922	
-0.430799	0.288663	-0.120729	
-0.388302	0.27476	-0.0998789	
0.51573	0.292287	0.113188	
0.0508194	0.326011	-0.0348582	
0.00560041	0.293572	-0.0163606	
0.00147059	0.308503	-0.0184526	
0.0148866	0.344894	-0.0527055	
0.00441042	0.274679	-0.00174815	
0.00937598	0.306846	-0.00144696	
0.00398992	0.280768	-0.00312427	
0.00126803	0.159162	-0.0221646	
0.0126576	0.272672	-0.04948	
-1.18399	0.343966	-0.328113	
-0.250476	0.35242	0.0343807	
-0.91101	0.371103	-0.202924	
0.57262	0.365828	0.196915	
0.092517	0.330262	0.0401519	
-0.55714	0.247351	-0.0740628	
-2.1265	0.165364	-0.233481	
-0.317611	0.334574	-0.0624238	
-0.366898	0.311564	-0.0361447	
-0.0984828	0.32455	-0.0353581	
0.00580911	0.348043	0.0243424	
-0.39316	0.261967	-0.0365464	
-0.813391	0.316805	-0.165118	
0.377005	0.305761	0.11123	
-0.0668947	0.362173	-0.040055	
0.310374	0.327566	0.0755723	
-0.950396	0.341969	-0.210341	
0.581541	0.333917	0.198068	
-0.00479694	0.309532	0.0114217	
-0.00132894	0.317756	0.00017201	
-0.00231241	0.27862	0.0667222	
-0.014338	0.367097	0.0526228	
-0.00624716	0.303547	-0.0206195	
1.78669	-0.0942647	0.130021	
-1.29989	0.242838	-0.259022	
-0.0150217	0.303417	0.0719337	
-0.00507569	0.327726	-0.018034	
-0.00484531	0.191902	0.041747	
2.44026	0.0428255	0.189544	
0.595853	0.166909	0.0821108	
0.307222	0.13976	0.0186298	
0.850507	0.0944848	0.0924473	
0.445914	0.171031	0.0403071	
0.00630154	0.161823	-0.00938023	
-0.00195948	0.178035	-0.015589	
-0.419471	0.148032	-0.08945	
-0.000825611	0.0936516	-0.0110913	
0.225319	0.119245	0.00424264	
1.10483	0.0643725	0.0942435	
1.5225	0.163233	0.299894	
0.492741	0.133983	0.0477031	
0.4409	0.156349	0.064033	
4.35106e-05	0.104952	-0.0130083	
0.660922	0.142006	0.0659912	
-0.335464	0.147967	-0.0577988	
-0.498808	0.141243	-0.0802773	
0.444172	0.145063	0.0649714	
0.0860059	0.155774	-0.007193	
0.00200861	0.149084	-0.00722357	
0.000373304	0.150275	-0.00693406	
0.00241668	0.157715	-0.0237759	
0.00108008	0.139741	-0.000970734	
0.00591219	0.146405	0.00118092	
0.000511324	0.142055	0.00122459	
0.000214761	0.0737553	-0.00681874	
0.00165396	0.126414	-0.0176602	
-1.55473	0.176719	-0.27856	
-0.166452	0.154719	0.00107322	
-0.753897	0.179224	-0.101818	
0.421421	0.170645	0.0968606	
0.10143	0.15803	0.0245924	
-0.448843	0.126201	-0.0434318	
-1.82447	0.0707536	-0.166902	
-0.488954	0.172481	-0.0494193	
-0.349411	0.144024	-0.0470444	
-0.0889991	0.157872	-0.0137366	
0.00285714	0.162416	0.0157097	
-0.277506	0.1259	-0.0183384	
-0.628401	0.147562	-0.0900369	
0.359886	0.157359	0.0660379	
0.0524213	0.175993	-0.000592789	
0.298688	0.160841	0.0457642	
-0.975968	0.1649	-0.140469	
0.436084	0.174809	0.0918243	
-0.00176074	0.158028	0.00412883	
-0.000730013	0.155866	0.000332679	
-0.00217919	0.130619	0.0264884	
-0.00308319	0.167502	0.0228403	
-0.000988196	0.154418	-0.00941782	
1.33707	-0.041918	0.102183	
-1.16674	0.123199	-0.159312	
-0.00350163	0.139648	0.0293714	
-0.000833895	0.162673	-0.0107198	
-0.00116231	0.0843729	0.0144139	
2.23872	0.0227395	0.167328	
0.578693	0.0958346	0.0630852	
0.271565	0.0693924	0.0157446	
0.817328	0.0550682	0.0730092	
0.405889	0.0818778	0.0271927	
0.188194	0.0797311	0.00984993	
-0.00147096	0.083677	-0.00738486	
-0.459606	0.0723133	-0.0645769	
-0.0662658	0.0476244	-0.011462	
0.172665	0.0578223	0.00595303	
1.12832	0.0339291	0.0880771	
1.71396	0.0830606	0.273588	
0.444672	0.0707886	0.0357802	
0.419694	0.082321	0.0456715	
-7.10679e-05	0.0521451	-0.00606466	
0.569219	0.0750694	0.0469759	
-0.216214	0.0813397	-0.0277369	
-0.478656	0.0723576	-0.0583712	
0.44247	0.0738031	0.050886	
0.0875985	0.0802559	0.000632296	
0.000487146	0.0844844	-0.00439173	
-0.000203147	0.0730633	-0.00286218	
0.000155403	0.0790668	-0.0099403	
0.000752406	0.0759857	-0.00221001	
0.0046517	0.0752343	0.000693268	
0.000151004	0.0705048	-0.000463167	
-5.71457e-05	0.0395695	-0.00317225	
0.000116589	0.0613932	-0.00847557	
-1.75696	0.119961	-0.237221	
-0.125815	0.0749126	-0.000834472	
-0.790373	0.0892331	-0.0831671	
0.315633	0.0788165	0.0601828	
0.0811528	0.0801204	0.0142146	
-0.443555	0.0735189	-0.037171	
-1.72415	0.0365346	-0.138455	
-0.583502	0.0981046	-0.0540896	
-0.319008	0.0735581	-0.0257408	
-0.0185042	0.0821663	-0.00232096	
0.00193323	0.0746508	0.00806041	
-0.258226	0.0650689	-0.0173828	
-0.539695	0.0788667	-0.0580313	
0.289209	0.0867684	0.0351143	
0.0446861	0.0911701	0.00201912	
0.292853	0.0786906	0.0341026	
-0.861639	0.0878435	-0.101232	
0.35422	0.0964192	0.0514239	
-0.000643875	0.0879727	0.00195492	
-0.000255349	0.0769945	7.93556e-05	
-0.000630158	0.0628119	0.0112029	
-0.000211762	0.0829325	0.00895037	
-0.000358249	0.0820843	-0.00315221	
1.14471	-0.0219123	0.0815984	
-1.08618	0.0771402	-0.110783	
-0.000583028	0.067209	0.011587	
-0.000259083	0.080951	-0.00432883	
-9.91144e-05	0.0422368	0.00659477	
2.16158	0.0154404	0.160253	
0.620879	0.0621442	0.0588912	
0.220134	0.0461525	0.0146312	
0.790938	0.0349595	0.0670484	
0.356425	0.0513023	0.0340048	
0.35102	0.0555579	0.0204362	
-0.000829749	0.0530211	-0.00474076	
-0.511523	0.0438851	-0.059003	
-0.136629	0.0302822	-0.01457	
0.114495	0.0392582	0.00508036	
1.19107	0.0224804	0.0924083	
1.9657	0.0607029	0.252303	
0.400468	0.0499058	0.0296724	
0.460569	0.0509669	0.0447361	
-3.3135e-05	0.0346916	-0.00292798	
0.545322	0.053168	0.0410827	
-0.13097	0.0518122	-0.0151914	
-0.498153	0.047651	-0.0513652	
0.469784	0.0481704	0.0481569	
0.107179	0.053392	0.0054341	
0.000183835	0.0534661	-0.00304958	
-2.5836e-05	0.0470055	-0.00219297	
6.13264e-05	0.0531071	-0.00654685	
0.000403295	0.0484866	-0.00160382	
0.00324852	0.0439801	0.000331629	
8.16005e-05	0.0464049	-0.000578251	
-2.85405e-05	0.0248408	-0.00166966	
-9.6343e-07	0.043189	-0.00414393	
-2.01762	0.0731172	-0.236527	
-0.0762982	0.0495379	-0.000782143	
-0.797689	0.0575963	-0.078143	
0.247476	0.0501323	0.038022	
0.072366	0.0487937	0.0103589	
-0.435988	0.0499008	-0.0348644	
-1.6752	0.0250147	-0.133112	
-0.693672	0.0672621	-0.0559044	
-0.285766	0.0522993	-0.0182995	
-0.0172526	0.0498164	-0.00114329	
0.00097263	0.0478893	0.00527846	
-0.237341	0.0440361	-0.0163385	
-0.509361	0.056198	-0.0478501	
0.257594	0.0562335	0.027953	
0.043485	0.05919	0.00248707	
0.269945	0.0511684	0.0274045	
-0.83852	0.0606396	-0.0802564	
0.29097	0.0616301	0.0362544	
-0.000273365	0.0562948	0.00148844	
-0.000192181	0.0494107	0.000392764	
-0.000410296	0.0428536	0.00645661	
-5.53446e-05	0.0558627	0.00585919	
-0.000123357	0.0536858	-0.0015657	
1.05951	-0.0151458	0.0745467	
-1.04121	0.053802	-0.0948414	
-0.000311885	0.0467055	0.00697064	
-0.000117217	0.0532096	-0.00227077	
4.96838e-05	0.0283	0.00352349	
2.12791	0.0110549	0.157806	
0.663764	0.0423556	0.0513629	
0.184735	0.0318243	0.0126882	
0.774298	0.0230703	0.0637908	
0.318112	0.0359339	0.018605	
0.486045	0.0364964	0.0518882	
-0.000172994	0.0364937	-0.00325799	
-0.56708	0.0308645	-0.0577382	
-0.198661	0.0221665	-0.0179981	
0.071032	0.0275581	0.00373221	
1.26304	0.0161462	0.0977756	
2.21452	0.0422011	0.233617	
0.368789	0.0337273	0.028123	
0.512325	0.0338806	0.0462723	
6.75435e-05	0.0250504	-0.00172257	
0.534704	0.0354833	0.0408118	
-0.0697525	0.0369165	-0.00807505	
-0.503744	0.0325362	-0.0482947	
0.508032	0.0331224	0.0403205	
0.123985	0.0372504	0.00630181	
0.000215289	0.0376942	-0.00222119	
9.40485e-05	0.0325001	-0.00162473	
0.000282645	0.0372498	-0.00434665	
0.000117214	0.0347412	-0.0014137	
0.00157306	0.0304287	0.000182895	
3.41394e-05	0.0324294	-0.000625684	
3.76261e-05	0.0179376	-0.00104008	
0.000147488	0.0304959	-0.00240935	
-2.27357	0.0295053	-0.231456	
-0.0393783	0.0349407	0.000421475	
-0.813466	0.0374254	-0.0707261	
0.191333	0.0346273	0.0217941	
0.0618825	0.0336195	0.00818483	
-0.436124	0.0343357	-0.033569	
-1.6509	0.0175749	-0.129647	
-0.789698	0.0399286	-0.0729717	
-0.261641	0.0358791	-0.0202873	
-0.0264051	0.0343515	-0.00198457	
5.49789e-05	0.0329068	0.00376315	
-0.229092	0.0308742	-0.0158369	
-0.498673	0.0370611	-0.0442624	
0.244039	0.0393036	0.0275575	
0.0329403	0.0418235	0.00199439	
0.246431	0.0354922	0.0232284	
-0.829627	0.0395669	-0.0702513	
0.245136	0.0432369	0.0254011	
-0.000141823	0.0396819	0.00121884	
-7.26491e-05	0.0345572	0.000377469	
-0.000142021	0.030832	0.00356769	
-0.000257365	0.0391681	0.0037627	
-5.09196e-07	0.0383911	-0.000697083	
1.00486	-0.0112041	0.0708375	
-1.01097	0.0338375	-0.0871026	
-0.000305476	0.0332566	0.00433257	
1.18587e-05	0.037578	-0.0012642	
-9.17376e-05	0.020595	0.00233256	
2.12484	0.00816476	0.159311	
0.702123	0.0328117	0.0534115	
0.156788	0.0229523	0.0112873	
0.768681	0.017522	0.0627444	
0.293583	0.0271992	0.0160016	
0.610162	0.0367914	0.0425467	
-0.000239159	0.0264472	-0.0025218	
-0.624717	0.0209708	-0.0590676	
-0.253002	0.0158376	-0.0215045	
0.0348212	0.0198035	0.00166679	
1.34065	0.0117537	0.104304	
2.45934	0.040843	0.201604	
0.346987	0.0247846	0.0261758	
0.562153	0.0260317	0.0493493	
3.9783e-05	0.0180853	-0.00106351	
0.526936	0.0263641	0.0405487	
-0.0149925	0.0268794	-0.00263175	
-0.515794	0.0239528	-0.0467859	
0.54886	0.0252001	0.0479663	
0.13811	0.0274341	0.00851657	
0.000108086	0.0275668	-0.00178601	
4.41193e-05	0.0236872	-0.00117799	
0.000121307	0.026938	-0.00298057	
0.000126673	0.0253579	-0.00120483	
0.00112923	0.022159	0.000149347	
3.04507e-05	0.0237527	-0.000542114	
1.15293e-05	0.0130397	-0.000613236	
7.69354e-05	0.0219232	-0.00162729	
-2.52368	0.0316647	-0.23661	
-0.0105306	0.0253907	0.00172307	
-0.844169	0.029956	-0.0686981	
0.145731	0.0245901	0.0165102	
0.0520475	0.024618	0.00654758	
-0.444227	0.0267826	-0.0345802	
-1.64274	0.0130748	-0.129063	
-0.88454	0.0411282	-0.058941	
-0.245504	0.0265131	-0.0184822	
-0.0317257	0.0253853	-0.00233653	
0.00013499	0.023943	0.00301354	
-0.228012	0.0232523	-0.0164857	
-0.491607	0.0281156	-0.0418888	
0.233196	0.0288526	0.0231768	
0.0242903	0.0305816	0.0014977	
0.228562	0.0259772	0.0207445	
-0.825728	0.0306247	-0.0664488	
0.207703	0.031409	0.0200328	
-8.44436e-05	0.0291318	0.000937996	
-5.26063e-05	0.025352	0.000462176	
-8.08833e-05	0.0226142	0.00237649	
-0.000108539	0.0285494	0.0025644	
3.75477e-06	0.0281166	-0.000406126	
0.967363	-0.00827567	0.0690577	
-0.992283	0.0277134	-0.0838921	
-0.000187365	0.0242378	0.0028937	
-4.98609e-07	0.0275492	-0.000734829	
-3.95941e-05	0.015356	0.00160189	
2.14491	0.00630347	0.162894	
0.739383	0.0250094	0.0588709	
0.136079	0.0172635	0.0100478	
0.774319	0.0136784	0.0632163	
0.279337	0.0198069	0.0128661	
0.720983	0.0236773	0.0872538	
-6.87744e-05	0.0196951	-0.00189862	
-0.679285	0.0167332	-0.0582404	
-0.30287	0.0119369	-0.0252121	
0.00349986	0.014955	-0.000582756	
1.41706	0.00890634	0.11145	
2.6876	0.0255767	0.22056	
0.333201	0.0186503	0.0254898	
0.608148	0.0194077	0.0521813	
2.75121e-05	0.0137409	-0.000689581	
0.522426	0.0198878	0.0404435	
0.0384113	0.0202649	0.0022442	
-0.531137	0.0181452	-0.0465333	
0.590217	0.0188628	0.0535677	
0.15175	0.0207394	0.0103613	
7.65653e-05	0.0208626	-0.00127706	
5.31457e-05	0.0177756	-0.000902521	
9.4264e-05	0.0202498	-0.00213897	
0.000102253	0.0190165	-0.000977693	
0.000312367	0.0169108	6.14464e-05	
3.72679e-05	0.0178076	-0.00050043	
7.82773e-06	0.0101311	-0.000385853	
4.88622e-05	0.016488	-0.00104062	
-2.76098	0.0241706	-0.251634	
0.0127414	0.019094	0.00279743	
-0.885114	0.0226609	-0.0682532	
0.105826	0.0187065	0.0114003	
0.0421115	0.0185987	0.00508616	
-0.458659	0.0208975	-0.0360818	
-1.65336	0.00981908	-0.131047	
-0.974217	0.0315263	-0.0744137	
-0.236471	0.019886	-0.0163811	
-0.0341924	0.0192488	-0.00249137	
4.5539e-05	0.0178488	0.00220767	
-0.231019	0.0178226	-0.0171671	
-0.486798	0.0213055	-0.0408429	
0.22194	0.0219786	0.0214825	
0.0147843	0.0231275	0.000899658	
0.213681	0.0195577	0.0188897	
-0.82438	0.0233745	-0.066152	
0.17717	0.0238641	0.0161988	
-6.12111e-05	0.0221939	0.000722005	
-3.74917e-05	0.0191002	0.000366679	
-6.29498e-05	0.0171529	0.00166722	
-7.83886e-05	0.0215123	0.00181221	
1.28686e-07	0.0212988	-0.000188513	
0.944162	-0.00648044	0.0684531	
-0.978694	0.0217754	-0.082045	
-0.000131249	0.0182852	0.00199703	
-5.06141e-06	0.0207936	-0.000430649	
-2.97971e-05	0.0116553	0.0010851	
2.18002	0.00496274	0.16715	
0.777646	0.0178761	0.0610265	
0.117462	0.0133404	0.00907666	
0.783087	0.00963515	0.0636716	
0.265918	0.0158607	0.0100999	
0.827457	0.00545368	0.119317	
7.56979e-05	0.0155227	-0.00150017	
-0.734618	0.0144028	-0.0554239	
-0.351099	0.00961631	-0.0286898	
-0.0261242	0.011713	-0.0026908	
1.49759	0.00691431	0.11933	
2.91814	0.00660961	0.240707	
0.324242	0.013959	0.0250967	
0.65611	0.013933	0.0551041	
2.65894e-05	0.0107422	-0.000417755	
0.519953	0.0146188	0.0401079	
0.0870906	0.0158978	0.00637459	
-0.549013	0.0139252	-0.0474194	
0.633415	0.014018	0.0531585	
0.165703	0.0158522	0.0116308	
9.94378e-05	0.0163912	-0.00106425	
6.13289e-05	0.0139887	-0.000679504	
0.000121677	0.0158979	-0.00160358	
5.77318e-05	0.0149747	-0.000804295	
-0.000550767	0.0132196	-1.90525e-05	
3.18583e-05	0.0140432	-0.000434613	
1.35571e-05	0.00784154	-0.00023033	
5.33446e-05	0.0129453	-0.000670023	
-3.00124	-0.0044076	-0.260148	
0.0330401	0.0149228	0.00410362	
-0.926879	0.0166095	-0.0686263	
0.0705766	0.014862	0.0068155	
0.0331106	0.0146916	0.00403939	
-0.478526	0.0153743	-0.0374592	
-1.67227	0.00768089	-0.133768	
-1.05951	0.00673422	-0.130782	
-0.230797	0.0152492	-0.015617	
-0.0383939	0.0151201	-0.00286003	
-0.000101419	0.0141129	0.00179485	
-0.234198	0.0134742	-0.0174637	
-0.484697	0.0154101	-0.0400429	
0.214087	0.0170734	0.0198199	
0.00742061	0.0182004	0.00037641	
0.200801	0.0152879	0.0173117	
-0.827798	0.0165312	-0.0659765	
0.150888	0.0189482	0.013352	
-5.35961e-05	0.0174429	0.000566208	
-3.15932e-05	0.0150809	0.0003695	
-7.18343e-05	0.013507	0.00117819	
-0.000106307	0.0168642	0.00132019	
5.65351e-06	0.0167812	-6.59707e-05	
0.929406	-0.00512331	0.0681233	
-0.971622	0.0147465	-0.0802721	
-0.000110613	0.014355	0.00142492	
8.96903e-06	0.016433	-0.000294296	
-4.45075e-05	0.00925203	0.000768918	
2.22285	0.00407179	0.172129	
0.819315	0.0164608	0.0629753	
0.103052	0.0108564	0.00771417	
0.792495	0.00830406	0.0643641	
0.255418	0.0129925	0.0132747	
0.934136	0.00978556	0.11146	
4.32508e-05	0.0125904	-0.00122549	
-0.790247	0.0109955	-0.0638662	
-0.39749	0.00775857	-0.03216	
-0.0520937	0.00947236	-0.00461951	
1.5829	0.00569229	0.126917	
3.15333	0.00766253	0.195799	
0.316637	0.0117712	0.0239569	
0.70377	0.0120577	0.0590507	
1.72086e-05	0.00877251	-0.000279276	
0.519371	0.0125238	0.0404804	
0.130438	0.0129827	0.00959334	
-0.568959	0.0113474	-0.0481723	
0.677293	0.012039	0.0604736	
0.177743	0.0133304	0.0129894	
5.57571e-05	0.0132062	-0.000882986	
3.91156e-05	0.0113425	-0.000536298	
6.25824e-05	0.0128355	-0.00122147	
5.8649e-05	0.0121547	-0.000685148	
-0.00123422	0.0107582	-8.10288e-05	
2.67735e-05	0.0114247	-0.000377701	
4.88802e-06	0.0063602	-0.000148355	
2.66507e-05	0.0104016	-0.000455499	
-3.24232	0.00374323	-0.251404	
0.05142	0.0120331	0.00520265	
-0.969689	0.0161491	-0.074753	
0.0379308	0.0121951	0.00519658	
0.0251909	0.0118561	0.00314996	
-0.496534	0.0133379	-0.0391443	
-1.69727	0.00634289	-0.136448	
-1.15156	0.0167024	-0.0926762	
-0.22659	0.0123831	-0.017013	
-0.0422887	0.0122801	-0.00321187	
-5.23581e-05	0.0114414	0.00149091	
-0.242195	0.0112926	-0.0183342	
-0.48373	0.0130774	-0.0396616	
0.208678	0.0138888	0.0180843	
-0.000170464	0.0146676	-0.000194069	
0.191596	0.0123891	0.0163642	
-0.836408	0.0144038	-0.0656179	
0.127837	0.0151199	0.0111323	
-3.96726e-05	0.0140254	0.000450656	
-2.45806e-05	0.0121931	0.000324363	
-4.45007e-05	0.0108744	0.00086852	
-5.9149e-05	0.0135873	0.000992402	
-8.24648e-07	0.013523	-1.49499e-05	
0.921335	-0.00420029	0.0682691	
-0.971514	0.0135629	-0.0800663	
-7.71112e-05	0.0115321	0.00104975	
3.05421e-06	0.013218	-0.000203716	
-2.35056e-05	0.00755267	0.00058801	
2.27262	0.00337891	0.177594	
0.861776	0.013731	0.0683694	
0.0900491	0.00895583	0.00702113	
0.804818	0.00692462	0.0653983	
0.245925	0.011102	0.0127505	
1.03772	0.00841985	0.106434	
6.10518e-05	0.0104188	-0.000973001	
-0.846341	0.0100906	-0.0649117	
-0.442792	0.00638991	-0.0357541	
-0.0769985	0.00786145	-0.00632504	
1.66814	0.00470895	0.134452	
3.37985	0.00493275	0.258422	
0.311708	0.00971764	0.023733	
0.751368	0.00959637	0.0624364	
1.0767e-05	0.00727839	-0.000183407	
0.520588	0.0103874	0.0408274	
0.173192	0.0107009	0.0129957	
-0.591031	0.00944093	-0.0496251	
0.72118	0.00997447	0.0633835	
0.190031	0.0110598	0.0139019	
4.541e-05	0.0108866	-0.000674707	
3.59528e-05	0.00936102	-0.000425899	
4.93784e-05	0.010595	-0.000949146	
5.0488e-05	0.00997588	-0.000565291	
-0.00194915	0.00892635	-0.000138715	
2.3505e-05	0.00941115	-0.000312792	
2.8387e-06	0.00530629	-9.63916e-05	
1.84882e-05	0.00861645	-0.000322634	
-3.47944	0.003477	-0.278014	
0.0674737	0.00983962	0.00625124	
-1.01356	0.0129152	-0.0779148	
0.00803145	0.0103402	0.002702	
0.0178065	0.00980324	0.00232414	
-0.517688	0.0110539	-0.0410787	
-1.72733	0.00518715	-0.139552	
-1.23871	0.013839	-0.102506	
-0.222826	0.0101885	-0.0169059	
-0.047047	0.010152	-0.00365692	
-6.38418e-05	0.00949214	0.00118405	
-0.25133	0.00932457	-0.0192609	
-0.484225	0.0107763	-0.0397652	
0.205284	0.0114157	0.0177797	
-0.00570451	0.0120908	-0.000577546	
0.183317	0.0102297	0.0154586	
-0.847011	0.0120364	-0.0669949	
0.106074	0.0124364	0.00908863	
-2.99231e-05	0.0115249	0.000356865	
-2.04828e-05	0.0100918	0.000254858	
-3.62061e-05	0.00893968	0.000665273	
-4.49253e-05	0.0111626	0.000755846	
-8.12332e-07	0.0111439	7.43334e-06	
0.917651	-0.0034819	0.0686842	
-0.973243	0.0113258	-0.0804105	
-5.86977e-05	0.00943645	0.000771103	
1.22093e-06	0.0109464	-0.000136259	
-2.04396e-05	0.00623813	0.000440332	
2.3254	0.00284103	0.183096	
0.905125	0.0100345	0.0714894	
0.0783746	0.00753375	0.00635903	
0.817944	0.0053743	0.0664698	
0.237928	0.00960982	0.0115696	
1.13378	-0.0075985	0.146815	
9.05012e-05	0.00874419	-0.000829686	
-0.903291	0.0092243	-0.0569574	
-0.487333	0.00560297	-0.0392725	
-0.100927	0.00661585	-0.00927484	
1.75502	0.00399386	0.142089	
3.60934	-0.00968184	0.270827	
0.308893	0.00786423	0.0245484	
0.799436	0.00664568	0.0656201	
7.7728e-06	0.00617021	-0.000111665	
0.523096	0.00823473	0.0412564	
0.213492	0.008903	0.0160217	
-0.61364	0.00787962	-0.0514011	
0.765843	0.00732009	0.0653795	
0.202748	0.00897478	0.0150059	
5.01307e-05	0.00914032	-0.000571321	
4.09576e-05	0.00787009	-0.000356146	
5.51411e-05	0.00891661	-0.000746621	
3.56129e-05	0.00840939	-0.000460257	
-0.00264599	0.0075124	-0.000183684	
2.08138e-05	0.00792955	-0.000261188	
4.08244e-06	0.00448462	-5.88398e-05	
1.94656e-05	0.00727976	-0.000235031	
-3.71668	-0.0192662	-0.295793	
0.0828442	0.00839685	0.00734205	
-1.05906	0.0104217	-0.079811	
-0.0202328	0.00888168	0.000410929	
0.01035	0.00828574	0.00156222	
-0.539289	0.00859395	-0.0427937	
-1.75959	0.00439823	-0.142738	
-1.32211	-0.00491817	-0.145524	
-0.221621	0.00840696	-0.0162565	
-0.0516453	0.00853617	-0.00411537	
-9.548e-05	0.00798585	0.000993508	