<VTKFile type="UnstructuredGrid" version="0.1" byte_order="LittleEndian">
	<UnstructuredGrid>
		<Piece NumberOfPoints="1008" NumberOfCells="1008">
			<CellData Scalars="scalars">
				<DataArray type="Float64" Name="Strength" NumberOfComponents="3" Format="ascii">
0.544695	-0.36632	-0.106203	
0.00491334	-1.04362	0.00676799	
-0.0103114	-0.939431	0.0156648	
0.0453833	-0.821822	0.0359647	
-0.000198958	-1.06767	0.0106987	
-0.023053	-1.00616	0.0164499	
-0.000900014	-1.05346	0.00587579	
-0.0123158	-1.04949	0.0136423	
-0.0395239	-0.852166	0.090472	
-0.0126685	-0.920209	0.0187905	
0.121271	-0.573566	0.044643	
0.010363	-1.0264	-0.00168975	
-0.0166924	-0.972558	0.0279522	
-0.0145736	-1.04329	0.000593595	
-0.0580098	-0.88625	0.0616118	
0.0400261	-0.965314	-0.0034342	
0.0317937	-1.04699	-0.00780562	
0.00545973	-1.01727	0.00163633	
0.00267871	-1.03543	-0.0138227	
-0.0322575	-1.02886	0.0359393	
0.00783963	-1.03084	0.0056738	
-0.0230869	-1.02957	0.0028842	
-0.0242589	-1.04675	0.0374388	
0.0357161	-1.05449	-0.0172969	
0.00110157	-1.05471	-0.000183026	
0.0104	-1.02504	-0.00522642	
-0.0509515	-0.706499	0.100921	
-0.0225915	-0.957086	0.0230115	
-0.00494517	-1.05582	-0.0053649	
0.00661555	-0.944131	-0.0165637	
-0.0225677	-1.06839	0.00732452	
0.028788	-1.05526	-0.0202201	
0.00206216	-1.03887	0.00260519	
0.0423977	-0.832157	-0.0883288	
-0.302245	-0.599697	-0.0230578	
0.000645879	-1.02686	-0.0087331	
0.0207332	-0.976585	-0.0271673	
0.0285327	-1.03998	-0.000472565	
0.00934031	-1.0082	-0.00826294	
0.0419704	-0.876949	-0.0576048	
-0.0406055	-0.966386	0.00758104	
-0.0245316	-1.05656	0.0073524	
-0.00132867	-1.1029	-0.0040086	
-0.0267275	-1.02527	0.0199897	
0.0145817	-1.03134	-0.0277156	
0.0255853	-1.0459	-0.0267847	
0.00793189	-1.03561	-0.0106655	
0.00321352	-1.07008	0.0107093	
0.0538598	-0.915119	-0.048142	
0.0276478	-1.048	-0.0437278	
-0.0175797	-1.07446	0.00156894	
-0.319427	-0.369404	-0.00915376	
0.00539915	-0.81147	-0.120898	
0.0257146	-0.962513	-0.0243772	
-0.0083511	-1.05299	0.00652607	
0.0493119	-0.683428	-0.187536	
1.50127	0.0272404	-0.0972842	
0.0485375	-0.19226	-0.00752751	
0.12474	-0.16465	-0.0143772	
0.513935	-0.126431	-0.0570211	
-0.00938485	-0.206426	0.00412616	
-0.0476632	-0.206372	0.0111933	
7.84714e-05	-0.204747	0.000732417	
-0.0145203	-0.207951	0.00574089	
0.152776	-0.135375	-0.00764596	
0.148091	-0.160829	-0.018827	
0.510537	-0.0654089	-0.0470352	
0.0481341	-0.210558	-0.0125049	
0.0391566	-0.182275	0.000680843	
0.0247259	-0.205402	-0.00422062	
-0.00139702	-0.150196	0.0137386	
0.24415	-0.188114	-0.0473626	
0.0459595	-0.191861	-0.00960388	
-0.0662728	-0.204823	0.0172931	
0.0697268	-0.204165	-0.0170342	
-0.0295603	-0.194174	0.0135168	
0.00217203	-0.19118	0.00184814	
-0.00104165	-0.204884	0.000646537	
-0.000725633	-0.189599	0.00756888	
0.00432185	-0.20159	-0.000807416	
0.00463735	-0.209092	-0.00303668	
0.00190991	-0.204618	-6.76954e-05	
0.00150964	-0.101627	0.0129571	
0.00195107	-0.176792	0.0117833	
-0.0481004	-0.209706	0.00867608	
-0.143899	-0.166389	0.0197784	
-0.0209368	-0.208677	0.00759916	
0.123102	-0.205764	-0.027655	
0.0315867	-0.210273	-0.00386583	
-0.26101	-0.152982	0.032199	
-1.25197	-0.135182	0.247368	
-0.0726399	-0.212207	0.0168603	
-0.0294547	-0.182888	-0.00446326	
0.0775032	-0.207912	-0.0158281	
0.000572966	-0.205602	-0.00026778	
-0.173561	-0.158328	0.0173855	
-0.243956	-0.189835	0.0458001	
-0.0898704	-0.193988	0.0202678	
0.0499973	-0.202287	-0.0142047	
-0.086718	-0.205818	0.021989	
-0.0577634	-0.196927	0.00710295	
0.0283219	-0.192624	-0.0119574	
-0.000252563	-0.192264	-0.00333256	
-0.000380265	-0.200993	0.00193877	
0.00133013	-0.159324	-0.017338	
0.0009597	-0.189846	-0.00837261	
-0.00247543	-0.202816	-0.00136314	
-0.722453	-0.056008	0.0692573	
-0.36328	-0.14922	0.066075	
-0.00197899	-0.177226	-0.0130711	
-0.00184144	-0.206181	-0.000219934	
-0.000928292	-0.100072	-0.0300836	
2.50081	0.135808	0.00652819	
0.0869057	-0.0589934	0.00498977	
0.244636	-0.0427948	0.0217954	
0.90409	0.00114592	0.0745893	
-0.0256119	-0.0692921	-0.000238432	
-0.0594781	-0.0706377	-0.00182826	
-6.41453e-05	-0.0688556	-0.00020734	
-0.0290006	-0.0706828	-0.000400413	
0.288234	-0.0271751	0.03949	
0.271533	-0.0398302	0.0383306	
0.871127	0.0296339	0.00591929	
0.07666	-0.0732144	0.00112369	
0.0875979	-0.0542059	0.00905126	
0.0410142	-0.0706424	0.00132383	
-6.34996e-05	-0.0411014	0.00835768	
0.41742	-0.050832	0.0245521	
0.0936121	-0.0599183	0.00384037	
-0.101518	-0.070069	-0.000667893	
0.132491	-0.0680158	0.00239328	
-0.0388625	-0.0610637	0.0011028	
0.000301551	-0.0605468	0.00141465	
0.000192379	-0.0710029	0.000407027	
0.000622798	-0.0589909	0.00367292	
0.000241261	-0.0658795	0.000597143	
0.00989193	-0.0724997	-0.000238104	
0.000153315	-0.0693813	0.000748316	
0.00129487	-0.0258343	0.00781609	
0.000554482	-0.0535502	0.00556948	
-0.0730225	-0.0725222	-0.00169441	
-0.281987	-0.0415562	-0.00659409	
-0.0304627	-0.0698092	0.000493051	
0.201236	-0.0685624	0.00198776	
0.0526424	-0.0700814	0.00271491	
-0.485644	-0.0237443	-0.0390351	
-2.19715	0.0779763	0.023296	
-0.138395	-0.073488	-0.00157821	
-0.0724105	-0.0545654	-0.00535483	
0.111022	-0.0687506	0.00486721	
7.51272e-05	-0.0709989	0.000555617	
-0.318068	-0.0336667	-0.0261937	
-0.4176	-0.0501989	-0.0140473	
-0.166747	-0.0591898	-0.00577037	
0.0814311	-0.0636687	0.000738371	
-0.143784	-0.0667416	-0.00349878	
-0.110812	-0.0595669	-0.00636359	
0.0422567	-0.0600572	-0.000980248	
-0.000263311	-0.0603528	-0.00204255	
-3.11385e-05	-0.0646253	0.000558183	
-0.000431543	-0.0452497	-0.00775453	
-0.000773983	-0.0590123	-0.00398349	
-0.000271084	-0.0645971	-0.00117165	
1.16732	-0.0278321	-0.0450152	
-0.662471	-0.00476529	-0.0236184	
-0.000853856	-0.0535114	-0.00553673	
-0.000164642	-0.0660906	-0.000285633	
-0.00151887	-0.0284143	-0.00430934	
3.29474	0.0713213	0.170296	
0.136167	0.0811898	-0.00971722	
0.325267	0.0893623	-0.00487378	
1.12003	0.105542	-0.0114274	
-0.0211801	0.0767971	0.000465967	
-0.0816656	0.0762358	-0.00642215	
0.000189903	0.0759822	-0.00100182	
-0.0357871	0.0775116	0.00508883	
0.359507	0.0823634	-0.0112567	
0.361685	0.0842399	0.000518949	
1.09386	0.0664675	0.0222115	
0.114784	0.0734978	-0.00674146	
0.106509	0.0893547	0.00733739	
0.0579335	0.0785764	0.00736104	
-0.000224337	0.0781385	-0.0149413	
0.578464	0.106687	0.0532908	
0.152908	0.0792715	-0.0115025	
-0.128851	0.0810907	0.00197473	
0.183112	0.078329	0.00890414	
-0.0522926	0.0850671	-0.0160569	
0.00136037	0.0817012	-0.0131968	
4.79642e-05	0.0780271	0.00362168	
-0.000954037	0.0862143	-0.00600378	
-3.4315e-05	0.0809737	-0.00385401	
0.017641	0.0754244	-0.000724501	
-9.87011e-05	0.0789905	0.00310089	
-0.00235186	0.0500235	-0.0138899	
-0.00301128	0.0846265	0.000605921	
-0.0985439	0.0742792	0.00530454	
-0.377595	0.0938324	0.00817178	
-0.0712334	0.0752775	-0.00867171	
0.281351	0.0740112	0.0204811	
0.0653103	0.0772727	-0.00824708	
-0.573457	0.0936216	-0.0308942	
-2.78714	0.0900784	-0.134631	
-0.194423	0.0713482	0.00300712	
-0.0870187	0.0903288	-0.0033429	
0.151964	0.0771805	-0.0127681	
-0.000115804	0.0738279	-0.000343649	
-0.422215	0.0863815	-0.0308685	
-0.576558	0.105262	-0.0439039	
-0.247548	0.0849416	0.0127058	
0.096885	0.0819142	0.00140741	
-0.214212	0.0806591	-0.0121039	
-0.160065	0.0863331	0.00739443	
0.0556217	0.0849466	0.0140371	
-0.0011638	0.0841106	0.0119919	
-0.000575925	0.078415	0.000900232	
7.95645e-05	0.0825736	0.00831164	
0.000772888	0.0871653	0.00803321	
0.000575743	0.0841964	0.00134162	
1.59203	-0.0265353	0.0416032	
-0.804743	0.0972948	-0.026156	
0.00343766	0.0857627	0.0017753	
0.000190854	0.0815356	-0.00124252	
0.00155209	0.0482692	0.00657007	
5.70467	-0.083928	0.286957	
-2.00511	-0.509778	-0.233155	
0.586448	-0.402102	0.298404	
1.56543	-0.141802	0.0667605	
1.9414	-0.473828	0.151777	
-1.77875	-0.561911	-0.112479	
-0.00186534	-0.554053	-0.0104855	
-0.627381	-0.294889	0.0507757	
0.626054	-0.10642	0.0574415	
1.13055	-0.23814	0.184295	
-0.253304	-0.267296	0.0154368	
-0.0993058	-0.367008	-0.0301534	
3.04223	-0.531515	0.30396	
0.749122	-0.421229	0.142914	
-0.00776228	-0.101775	0.0514802	
0.797523	-0.5575	0.242718	
-0.965427	-0.273923	-0.156358	
0.162568	-0.121933	0.019401	
1.44449	-0.28574	0.169745	
-0.319983	-0.528152	-0.0975653	
0.028888	-0.250421	-0.102977	
-0.0220858	-0.299806	0.0870417	
-0.01343	-0.553073	0.0518957	
0.00620902	-0.142427	-0.0192608	
0.0186353	-0.340241	0.0160755	
-0.00727083	-0.176932	0.0348118	
-0.00073048	-0.0799379	0.0177768	
-0.025333	-0.175373	0.123045	
0.0903415	-0.34057	0.0294712	
-0.401574	-0.502529	-0.318389	
-2.33356	-0.504693	-0.219192	
0.420143	-0.525498	-0.0456442	
0.0140236	-0.279839	-0.0620479	
-1.02722	-0.244566	-0.152195	
-3.63723	-0.466246	-0.298769	
1.2975	-0.375867	0.0842985	
-2.7278	-0.543435	-0.240352	
0.190729	-0.265379	-0.0212179	
0.00331962	-0.53428	0.0192974	
-1.15279	-0.283509	-0.212611	
-0.77839	-0.61825	-0.138588	
0.674124	-0.278763	0.0892303	
-1.2279	-0.398633	-0.0979331	
0.35308	-0.351487	-0.00952235	
1.44709	-0.617412	0.13782	
0.969336	-0.46531	0.19133	
-0.026967	-0.292455	0.0693014	
0.00792952	-0.269986	-0.0253697	
0.037074	-0.259068	-0.134655	
0.00172198	-0.600173	0.00673806	
-0.0042819	-0.19351	0.00954811	
2.12223	0.166559	0.0394157	
-1.24447	-0.234015	-0.125321	
0.0335914	-0.261386	-0.135542	
0.00550917	-0.342856	-0.0371273	
0.00528355	-0.161676	-0.0423931	
4.42993	0.255346	0.295792	
0.0534109	0.571477	-0.0743733	
0.548892	0.66833	-0.0278225	
1.26297	0.445493	0.139633	
1.18899	0.740422	0.0784945	
-0.900872	0.761939	-0.177151	
-0.00483269	0.736228	-0.0446085	
-0.296853	0.618438	-0.10685	
0.373155	0.425982	-0.0259408	
0.652954	0.529973	0.00760514	
1.14775	0.498027	0.0741003	
0.796622	0.625957	0.135757	
0.712307	0.605864	0.0335053	
0.477027	0.675847	0.038166	
-0.00584323	0.445827	-0.0896505	
1.24965	0.837181	0.0841012	
-0.624619	0.535504	-0.131109	
-0.261049	0.488833	-0.0403713	
0.78988	0.5929	0.122813	
-0.168032	0.768654	-0.151763	
0.0121611	0.538111	-0.0416166	
-0.0121422	0.617655	-0.05252	
0.00256289	0.797129	-0.1069	
0.0122153	0.496918	0.0103778	
0.0144838	0.539184	0.00720615	
-0.000835536	0.539502	-0.00331745	
-0.00226528	0.356661	-0.049665	
0.00456374	0.540277	-0.0632355	
-0.784318	0.556165	-0.0818714	
-0.44971	0.692836	0.0337056	
-1.41478	0.711614	-0.190691	
0.932974	0.718815	0.103258	
0.0756305	0.595596	0.0235833	
-0.732943	0.42354	-0.0290825	
-2.89169	0.640395	-0.248558	
-0.0315185	0.615503	0.069101	
-0.437933	0.616765	-0.034317	
-0.165316	0.582846	-0.0180867	
0.00826137	0.766837	0.0231715	
-0.683395	0.495549	0.00672053	
-1.19143	0.846848	-0.0630904	
0.430246	0.554814	0.0548481	
-0.327617	0.631531	-0.0879598	
0.33036	0.659004	0.0521477	
-0.546267	0.789386	0.0016556	
0.839952	0.573198	0.215494	
-0.0100902	0.550929	0.0227695	
-0.00128163	0.613698	0.0391838	
0.0118567	0.530969	0.111202	
0.00359619	0.804603	0.103974	
-0.0118621	0.523082	-0.0405784	
3.03316	-0.282548	0.195861	
-1.48975	0.469269	-0.19227	
-0.00703714	0.555563	0.0720153	
-0.00833163	0.631914	-0.0134778	
-0.00148814	0.422339	0.0654576	
2.95873	0.0881073	0.212498	
0.447825	0.326242	0.0631047	
0.377296	0.316543	0.0141434	
0.991947	0.195837	0.114573	
0.680501	0.354197	0.0827199	
-0.308407	0.345579	-0.0675	
-0.000888707	0.384017	-0.0230767	
-0.345334	0.324854	-0.0936693	
0.14728	0.201891	0.000758097	
0.367014	0.256082	0.0130894	
1.10196	0.143437	0.0929342	
1.20845	0.326195	0.247535	
0.54761	0.283788	0.0600631	
0.404995	0.324727	0.0666139	
0.000175352	0.223033	-0.0226805	
0.858246	0.30073	0.104486	
-0.441162	0.285903	-0.0844225	
-0.397574	0.270674	-0.0701273	
0.519918	0.294505	0.0846958	
0.0457024	0.32818	-0.0169669	
0.00278745	0.293881	-0.0104727	
-0.000249622	0.308895	-0.0100238	
0.00606058	0.347712	-0.0317423	
0.00245996	0.274707	-0.00109073	
0.00896426	0.306856	0.00182827	
0.00127019	0.280807	-0.00151108	
0.00029942	0.160207	-0.01259	
0.00535952	0.276003	-0.0273208	
-1.21585	0.322261	-0.213555	
-0.248925	0.355029	0.0102704	
-0.926091	0.361294	-0.143674	
0.582575	0.380209	0.12878	
0.0961034	0.330458	0.0284072	
-0.559504	0.247265	-0.0536597	
-2.12937	0.169893	-0.201723	
-0.324129	0.330643	-0.0482536	
-0.365047	0.314152	-0.0322604	
-0.0975326	0.325777	-0.0253037	
0.00230363	0.348563	0.016073	
-0.394833	0.260309	-0.0296682	
-0.819046	0.322215	-0.120706	
0.386033	0.304204	0.0802538	
-0.0647301	0.363878	-0.0255164	
0.319002	0.323671	0.0530292	
-0.959802	0.344876	-0.155808	
0.596948	0.340764	0.12831	
-0.00271377	0.309691	0.00687639	
-0.000919644	0.317749	-0.00222088	
-0.00162605	0.283524	0.0411977	
-0.00557063	0.36974	0.0315041	
-0.00251475	0.304042	-0.0125654	
1.78688	-0.0967192	0.125424	
-1.31239	0.243321	-0.184833	
-0.00705716	0.309249	0.0421468	
-0.00199752	0.328078	-0.0107685	
-0.00164267	0.194959	0.0240681	
2.44093	0.041978	0.180734	
0.598406	0.166386	0.0621644	
0.307702	0.13824	0.0217356	
0.852449	0.0898965	0.0779378	
0.447823	0.166594	0.0375938	
0.00753454	0.161925	-0.00617562	
-0.000411217	0.178472	-0.00952123	
-0.422707	0.152649	-0.0623436	
-0.000824221	0.0940692	-0.0066827	
0.225576	0.118431	0.00974091	
1.10532	0.0639799	0.088427	
1.53883	0.158658	0.203437	
0.493716	0.132394	0.0416447	
0.443588	0.154363	0.0483124	
0.000125059	0.105491	-0.00745528	
0.662412	0.13904	0.0566634	
-0.33839	0.146467	-0.0425356	
-0.502142	0.139029	-0.0610216	
0.445947	0.145681	0.0495727	
0.0848915	0.15653	-0.00242065	
0.000944763	0.14921	-0.0041812	
0.000181728	0.150393	-0.0035495	
0.00115048	0.158928	-0.0136153	
0.000499168	0.139747	-0.00050141	
0.00531675	0.146428	0.00114629	
0.000141252	0.14206	0.000597229	
8.24221e-05	0.0739657	-0.00392776	
0.000826211	0.127247	-0.0101289	
-1.56861	0.156352	-0.202328	
-0.166353	0.154705	-0.00613581	
-0.758045	0.171747	-0.0819311	
0.425519	0.176513	0.0622388	
0.101864	0.158534	0.0189017	
-0.450259	0.123493	-0.0358528	
-1.82553	0.0709996	-0.154662	
-0.49336	0.161243	-0.043108	
-0.350544	0.144145	-0.0371975	
-0.0891859	0.158097	-0.0091443	
0.000695724	0.162947	0.00902294	
-0.278292	0.124244	-0.0176788	
-0.630841	0.147616	-0.0708038	
0.363102	0.156523	0.047966	
0.0534167	0.175679	0.00227187	
0.301216	0.158728	0.0353833	
-0.980514	0.165135	-0.103616	
0.440745	0.175783	0.0632624	
-0.000892691	0.158071	0.00241786	
-0.000333815	0.155867	-0.00037808	
-0.000898058	0.132355	0.0157979	
-0.00139844	0.168554	0.0132409	
-0.000283671	0.154621	-0.00517461	
1.33744	-0.0430435	0.0965214	
-1.17152	0.116475	-0.125699	
-0.00170236	0.141728	0.0169405	
-0.000237526	0.162914	-0.00610111	
-0.000502591	0.0852047	0.0082272	
2.23901	0.0223904	0.163177	
0.580158	0.0946277	0.0500505	
0.271761	0.0681969	0.0174543	
0.818184	0.050393	0.0664216	
0.406368	0.0791516	0.0280448	
0.18936	0.076514	0.0125901	
-0.000508408	0.0839092	-0.00418372	
-0.460837	0.0758538	-0.0501094	
-0.0662556	0.0482553	-0.008498	
0.172687	0.0572515	0.00964932	
1.12848	0.0332286	0.0860948	
1.72491	0.0795549	0.194263	
0.445237	0.0680852	0.0339064	
0.420936	0.0799464	0.0377365	
1.91263e-05	0.05239	-0.00334328	
0.569936	0.0715359	0.0436174	
-0.217071	0.0808002	-0.0220226	
-0.479986	0.0711114	-0.048042	
0.443446	0.0729178	0.0430394	
0.0875943	0.0802009	0.0031331	
0.000282625	0.0845617	-0.00252323	
-7.36089e-05	0.0731028	-0.00155926	
9.26608e-05	0.0794993	-0.00549572	
0.00034491	0.0760126	-0.00111597	
0.0041193	0.0752661	0.000592722	
4.79215e-05	0.0705056	-0.000362512	
-1.90891e-05	0.0396589	-0.00172477	
0.000104205	0.0618059	-0.00457775	
-1.76528	0.0916832	-0.181327	
-0.125815	0.0747076	-0.00559231	
-0.792159	0.0830379	-0.0717602	
0.317794	0.0821799	0.0413666	
0.0811382	0.0805988	0.0112893	
-0.444522	0.0692075	-0.0336798	
-1.72444	0.0355857	-0.134807	
-0.586071	0.0830258	-0.0514194	
-0.319528	0.0723054	-0.0225979	
-0.0186496	0.0821483	-0.00171287	
0.00069694	0.0749733	0.00446386	
-0.258796	0.0628403	-0.0170633	
-0.541001	0.0756888	-0.0494227	
0.290399	0.0856232	0.0271812	
0.0450615	0.0909556	0.0030682	
0.293798	0.0773792	0.0284944	
-0.864101	0.0853667	-0.080096	
0.355973	0.096519	0.037133	
-0.000301061	0.0879889	0.00113095	
-6.14682e-05	0.0769948	-0.000144678	
-0.000277418	0.0635032	0.00619975	
-0.000100313	0.083265	0.00498622	
-0.000100794	0.0821296	-0.00161482	
1.14484	-0.0223963	0.0794711	
-1.08829	0.0662977	-0.0959722	
-0.000336451	0.0679069	0.00633651	
-7.8429e-05	0.0810336	-0.00232893	
-5.33605e-05	0.0425942	0.00362679	
2.16171	0.0150186	0.158425	
0.621722	0.060865	0.0507139	
0.220214	0.0453605	0.0158363	
0.791413	0.0315038	0.0629633	
0.357049	0.0513703	0.0264709	
0.35142	0.0501643	0.0265239	
-0.000223185	0.0531721	-0.00265859	
-0.512329	0.0465218	-0.0491568	
-0.136679	0.0310152	-0.0123907	
0.11451	0.0388718	0.00722003	
1.19116	0.0218195	0.0911364	
1.97373	0.0515955	0.181486	
0.400689	0.048101	0.0296401	
0.461278	0.0490949	0.039142	
6.11176e-06	0.0347789	-0.0015824	
0.545603	0.0505856	0.0405671	
-0.131306	0.0516998	-0.0124201	
-0.498868	0.0467239	-0.0448372	
0.470301	0.0473414	0.0437146	
0.10724	0.0531719	0.00630191	
0.000115744	0.0535275	-0.00165979	
-2.06703e-07	0.0470425	-0.00115032	
5.09775e-05	0.0533984	-0.00343865	
0.000181956	0.0485093	-0.000708494	
0.00307861	0.0439928	0.000247711	
2.93085e-05	0.046407	-0.000379731	
-7.26926e-06	0.0248819	-0.000859411	
2.52425e-05	0.0433328	-0.00217277	
-2.02338	0.0540855	-0.187087	
-0.0762582	0.0495013	-0.00319333	
-0.79901	0.0538747	-0.0663425	
0.248741	0.0516359	0.0257148	
0.0723846	0.0491277	0.00847788	
-0.436539	0.046397	-0.0326951	
-1.67543	0.024146	-0.129963	
-0.693876	0.0520729	-0.0681375	
-0.285973	0.0509997	-0.0186993	
-0.0173078	0.0497991	-0.00105193	
0.000270884	0.0481004	0.0029092	
-0.237653	0.0423422	-0.0162623	
-0.510078	0.0532778	-0.0432994	
0.258207	0.0555481	0.0232557	
0.0436531	0.0590386	0.00307039	
0.270423	0.0502709	0.0241435	
-0.839698	0.057513	-0.0694451	
0.291934	0.0616851	0.0272765	
-0.000137939	0.0563092	0.000800393	
-5.84962e-05	0.0494125	3.80002e-05	
-0.000157062	0.0432132	0.00329515	
-4.64114e-05	0.0560833	0.00310198	
-2.47514e-05	0.0537034	-0.000758684	
1.05956	-0.015302	0.0737737	
-1.04234	0.0448748	-0.0865552	
-0.000180123	0.0470875	0.00357973	
-4.64381e-05	0.0532466	-0.00110359	
4.21054e-06	0.0284583	0.00185075	
2.12794	0.0108088	0.157373	
0.663948	0.041837	0.0493532	
0.184686	0.0316955	0.0136657	
0.774553	0.0215655	0.0611182	
0.318019	0.0346238	0.0223678	
0.486722	0.0330774	0.0476631	
5.62779e-05	0.0365991	-0.00171373	
-0.567935	0.0323625	-0.0476091	
-0.19875	0.0226191	-0.0163745	
0.0710085	0.0275064	0.00447706	
1.26307	0.015734	0.0971648	
2.22104	0.0337515	0.161852	
0.368844	0.0332704	0.0279272	
0.512768	0.0328645	0.0418779	
4.41978e-05	0.0250935	-0.000897419	
0.534786	0.0345598	0.0405024	
-0.0698988	0.0369386	-0.00656953	
-0.504157	0.0326253	-0.0437017	
0.508105	0.032555	0.0398487	
0.123919	0.0371996	0.00774027	
0.000116068	0.0377432	-0.00112697	
6.29006e-05	0.0325307	-0.000804835	
0.000150333	0.0374418	-0.00214346	
4.75017e-05	0.034765	-0.000591314	
0.00158355	0.0304282	0.00015703	
1.7975e-05	0.0324334	-0.000363563	
2.20636e-05	0.0179606	-0.000500736	
8.24122e-05	0.0305684	-0.00117618	
-2.2772	0.0261674	-0.192958	
-0.0392774	0.0350349	-0.00122497	
-0.813915	0.0357342	-0.0662699	
0.191259	0.0366471	0.0189301	
0.0619664	0.0337697	0.00681696	
-0.43631	0.0327764	-0.0326586	
-1.65099	0.0171481	-0.12806	
-0.789782	0.0319224	-0.0758764	
-0.26172	0.0356143	-0.0197175	
-0.0264123	0.0343473	-0.00195906	
-0.000108162	0.0330622	0.00197387	
-0.229175	0.0301439	-0.0160238	
-0.498978	0.0363598	-0.0412848	
0.244563	0.0393244	0.0224022	
0.0329671	0.0417814	0.0023918	
0.246689	0.0351233	0.0209269	
-0.830102	0.0388142	-0.0648148	
0.245485	0.0434035	0.0214301	
-7.17492e-05	0.0396964	0.000581931	
-1.11604e-05	0.0345592	-2.29261e-06	
-8.02701e-05	0.0309874	0.00176557	
-0.000138056	0.0393037	0.00188464	
4.67352e-06	0.0383965	-0.000245688	
1.00485	-0.011238	0.0706847	
-1.01149	0.0298567	-0.082355	
-0.000157994	0.0334736	0.00208608	
7.70812e-06	0.037595	-0.000561641	
-5.581e-05	0.0206942	0.00115932	
2.12485	0.00795682	0.159198	
0.702227	0.0311739	0.0530654	
0.156779	0.0227833	0.0117448	
0.768888	0.0159176	0.0605927	
0.293547	0.0263642	0.0180099	
0.610081	0.0261663	0.0507068	
-6.35857e-06	0.02654	-0.00122251	
-0.625212	0.0231608	-0.0526947	
-0.253079	0.0163448	-0.0201832	
0.0347956	0.0197924	0.00223127	
1.34066	0.0114277	0.103998	
2.46186	0.0288062	0.170236	
0.347009	0.0241038	0.0265244	
0.562559	0.0244847	0.0453781	
2.11453e-05	0.0181101	-0.000476327	
0.527008	0.0251415	0.0404122	
-0.0150563	0.0269116	-0.00180945	
-0.516092	0.0239358	-0.0434193	
0.549084	0.0241613	0.0459226	
0.138112	0.0271111	0.00947463	
6.32175e-05	0.0276117	-0.000848836	
2.53844e-05	0.0237109	-0.000509115	
6.65521e-05	0.0270678	-0.00136826	
4.95075e-05	0.0253821	-0.000474638	
0.00113878	0.0221585	0.000118645	
1.20389e-05	0.023757	-0.00028613	
7.15242e-06	0.0130516	-0.000253341	
4.50316e-05	0.02197	-0.0007736	
-2.527	0.0226849	-0.199405	
-0.0104599	0.0254755	0.000351526	
-0.844604	0.0276673	-0.064192	
0.14593	0.0257575	0.0124759	
0.0520782	0.0248191	0.00545487	
-0.4444	0.0248553	-0.0337689	
-1.64278	0.012768	-0.12825	
-0.883192	0.0249868	-0.0831748	
-0.245538	0.0260077	-0.0187539	
-0.0317508	0.0253461	-0.00241771	
-2.76553e-05	0.0240873	0.00147168	
-0.228096	0.0224135	-0.0164859	
-0.491832	0.0268444	-0.04005	
0.233446	0.0287702	0.0206471	
0.0243064	0.0305528	0.0017953	
0.228733	0.0257156	0.0191278	
-0.826035	0.0290426	-0.0632877	
0.207898	0.0316969	0.0173908	
-4.13906e-05	0.0291439	0.000411706	
-7.83111e-06	0.0253559	9.5661e-05	
-4.35577e-05	0.0227125	0.00108856	
-6.06782e-05	0.028639	0.00120391	
9.74009e-06	0.0281189	-0.000151647	
0.967337	-0.00830025	0.0690298	
-0.992683	0.0230685	-0.0804601	
-9.25109e-05	0.0243758	0.00129624	
-4.03947e-06	0.0275576	-0.000263711	
-2.49653e-05	0.0154222	0.000722439	
2.14494	0.00614076	0.162724	
0.739572	0.0237411	0.0570869	
0.136047	0.0171631	0.0106525	
0.774499	0.0123213	0.0612883	
0.279138	0.0193065	0.0173055	
0.722602	0.0185116	0.0743198	
2.62247e-05	0.0197658	-0.000903159	
-0.679592	0.017536	-0.0543687	
-0.302949	0.0124336	-0.0240097	
0.0034756	0.0149716	-7.11521e-05	
1.41707	0.00866602	0.111138	
2.69056	0.02042	0.181949	
0.333207	0.01809	0.025849	
0.608479	0.0185695	0.0485762	
1.29283e-05	0.0137551	-0.000286967	
0.522469	0.0188992	0.0404117	
0.0383817	0.0202803	0.00258822	
-0.531354	0.0179561	-0.044129	
0.590501	0.0182087	0.0506624	
0.151735	0.0204419	0.0111598	
4.07978e-05	0.0208937	-0.00057553	
2.30367e-05	0.0177943	-0.000385112	
4.24701e-05	0.0203424	-0.000903565	
3.65664e-05	0.0190383	-0.000358228	
0.000297798	0.016911	4.09329e-05	
9.90611e-06	0.017813	-0.000229904	
2.76454e-06	0.0101376	-0.000120471	
2.63745e-05	0.0165143	-0.000462221	
-2.76459	0.01539	-0.209452	
0.0127985	0.0191853	0.00169268	
-0.885286	0.02063	-0.0667633	
0.105927	0.0194971	0.00884986	
0.0421406	0.0187512	0.00421462	
-0.458797	0.0191891	-0.0352915	
-1.65339	0.00961379	-0.130501	
-0.973665	0.0198992	-0.084959	
-0.236442	0.019515	-0.0172544	
-0.0342063	0.0192067	-0.00262511	
-3.93609e-05	0.0179554	0.00102787	
-0.231084	0.017098	-0.0170337	
-0.486956	0.0201905	-0.0395508	
0.222129	0.0219112	0.0195521	
0.014789	0.0231134	0.00115012	
0.213807	0.0193638	0.0176469	
-0.824688	0.0219777	-0.0627996	
0.177296	0.0240705	0.0144352	
-2.88186e-05	0.0222036	0.000291498	
-5.58478e-06	0.0191034	7.11856e-05	
-2.84496e-05	0.0172193	0.000700413	
-3.72467e-05	0.0215742	0.000781627	
4.09461e-06	0.0212994	-5.22827e-05	
0.944126	-0.00647713	0.0683653	
-0.978986	0.0177867	-0.0795075	
-5.89258e-05	0.0183763	0.000810958	
-6.86826e-06	0.0207975	-0.000125105	
-1.49653e-05	0.0116977	0.000428132	
2.18003	0.00483107	0.167167	
0.777676	0.0180851	0.0607291	
0.11744	0.0133666	0.0093465	
0.783224	0.00919389	0.0620939	
0.265569	0.0150735	0.0177633	
0.831807	0.0120774	0.0833094	
6.00748e-05	0.0155822	-0.000633093	
-0.734702	0.0139843	-0.0545814	
-0.351177	0.00981594	-0.0276939	
-0.0261579	0.0117304	-0.00225421	
1.49757	0.0067259	0.119052	
2.92115	0.0139844	0.201121	
0.32422	0.0139158	0.0254473	
0.656378	0.0142081	0.051868	
1.01614e-05	0.0107491	-0.000159511	
0.519938	0.0144693	0.0404423	
0.0870812	0.0159269	0.00644795	
-0.549192	0.0140659	-0.045367	
0.633541	0.0141144	0.0517298	
0.165636	0.0159059	0.0125153	
3.70954e-05	0.0164208	-0.000408135	
2.40909e-05	0.0140026	-0.000267248	
4.25377e-05	0.0159674	-0.000603494	
2.0347e-05	0.014994	-0.00025631	
-0.000547012	0.0132196	-2.89429e-05	
8.68405e-06	0.0140487	-0.000179556	
2.39857e-06	0.00784465	-4.26031e-05	
2.24631e-05	0.0129598	-0.000271288	
-3.0044	0.00545573	-0.221461	
0.0331132	0.0149962	0.0031349	
-0.926761	0.016068	-0.0705169	
0.0704784	0.0156005	0.00614801	
0.0331588	0.0147651	0.00331565	
-0.478578	0.0147757	-0.037088	
-1.67226	0.00754013	-0.133222	
-1.06382	0.0120585	-0.088553	
-0.230683	0.0152073	-0.0172995	
-0.0383917	0.0150971	-0.00301353	
-7.96278e-05	0.0142069	0.000752339	
-0.234214	0.0132425	-0.0174601	
-0.484769	0.0153857	-0.0392521	
0.214254	0.0171617	0.0178813	
0.00740946	0.0181993	0.000583012	
0.200884	0.0152379	0.0164048	
-0.828007	0.0167275	-0.0634212	
0.150999	0.0189512	0.0120592	
-2.13018e-05	0.0174508	0.000197409	
-6.3736e-06	0.0150851	6.89824e-05	
-2.60779e-05	0.0135507	0.00045009	
-3.86012e-05	0.0169082	0.000510672	
3.94876e-06	0.0167811	6.38068e-07	
0.929379	-0.00513095	0.0681375	
-0.971763	0.0132318	-0.078903	
-4.29171e-05	0.0144167	0.00051188	
-1.97746e-06	0.0164353	-6.49606e-05	
-1.46083e-05	0.00928035	0.000255923	
2.22288	0.00395265	0.172095	
0.819263	0.014682	0.0642889	
0.103006	0.0108439	0.00834633	
0.792626	0.00747915	0.0629299	
0.255138	0.0121377	0.0185961	
0.936768	0.00971329	0.086801	
4.92824e-05	0.0126422	-0.000437414	
-0.790478	0.0114172	-0.0610866	
-0.39756	0.00804989	-0.0312714	
-0.052121	0.0095009	-0.0042454	
1.58278	0.00553914	0.126761	
3.15172	0.0118773	0.22101	
0.316572	0.0112727	0.0250975	
0.704105	0.0115493	0.0552332	
5.44011e-06	0.00877642	-8.74208e-05	
0.519373	0.0116782	0.0408333	
0.130431	0.0128995	0.00983217	
-0.569089	0.0114085	-0.0467588	
0.677752	0.0114717	0.0553953	
0.177722	0.0129166	0.0137201	
2.42982e-05	0.0132327	-0.000276489	
1.6917e-05	0.0113537	-0.000181134	
2.66677e-05	0.0128873	-0.000395507	
1.69379e-05	0.0121723	-0.000200734	
-0.00124838	0.0107564	-7.99887e-05	
6.1441e-06	0.0114301	-0.000133878	
-6.56817e-08	0.00636115	-3.6673e-06	
1.33451e-05	0.0104103	-0.000157462	
-3.24346	0.00282259	-0.237378	
0.051471	0.0121329	0.00441801	
-0.969705	0.0130595	-0.0754299	
0.0379226	0.0127653	0.0036525	
0.0252123	0.0119594	0.00253521	
-0.496607	0.011981	-0.0387481	
-1.69711	0.0062175	-0.136131	
-1.15185	0.00865039	-0.0902957	
-0.226534	0.0121071	-0.0179814	
-0.042295	0.0122152	-0.00338334	
-6.5559e-05	0.0115262	0.00052338	
-0.24223	0.0107814	-0.0182333	
-0.48379	0.0123509	-0.0392745	
0.208764	0.0138618	0.0171338	
-0.000176078	0.0146686	-1.45531e-05	
0.191668	0.0123103	0.0156153	
-0.83652	0.0134641	-0.0646005	
0.127911	0.0152168	0.0101422	
-1.49257e-05	0.0140319	0.000131155	
-4.96899e-06	0.012197	5.51653e-05	
-1.64436e-05	0.0109052	0.00028522	
-2.48694e-05	0.0136193	0.000331786	
2.20686e-06	0.0135228	1.7969e-05	
0.921315	-0.00419942	0.0683091	
-0.971638	0.0106065	-0.079129	
-2.74011e-05	0.0115757	0.000314017	
-2.30516e-06	0.0132193	-3.26596e-05	
-9.51608e-06	0.00757346	0.000149681	
2.27267	0.003292	0.177428	
0.86186	0.0120033	0.0679376	
0.0900222	0.00893053	0.00741361	
0.804932	0.00611646	0.064162	
0.245369	0.00949651	0.0216897	
1.03906	0.00741018	0.0931246	
4.2909e-05	0.0104595	-0.000305833	
-0.846313	0.00945884	-0.0656723	
-0.442861	0.00671466	-0.0349262	
-0.0770066	0.00788334	-0.00621844	
1.66807	0.00457948	0.134381	
3.38133	0.00929106	0.239704	
0.311634	0.0092583	0.0249646	
0.751691	0.00945453	0.0587439	
2.72706e-06	0.00728045	-4.42506e-05	
0.520581	0.00958488	0.0412792	
0.173194	0.0105974	0.0131166	
-0.591139	0.00939417	-0.0485514	
0.721569	0.00938652	0.0591469	
0.189982	0.0106316	0.0149319	
1.68356e-05	0.010906	-0.000176053	
1.221e-05	0.00936991	-0.000113931	
1.77007e-05	0.0106344	-0.00024739	
1.08021e-05	0.00999105	-0.000127246	
-0.00197158	0.00892149	-0.000123899	
3.8371e-06	0.00941578	-9.07768e-05	
-4.44937e-07	0.00530818	5.74631e-06	
8.33559e-06	0.00862196	-8.51998e-05	
-3.48184	0.00086643	-0.248001	
0.0675207	0.00993526	0.005575	
-1.01351	0.0107044	-0.0791918	
0.00803057	0.0106228	0.00115763	
0.0178283	0.00987863	0.00177894	
-0.51775	0.00976197	-0.0407472	
-1.72726	0.00509777	-0.139317	
-1.23772	0.0052719	-0.115164	
-0.222764	0.00996981	-0.0179069	
-0.0470481	0.01008	-0.00385339	
-5.46946e-05	0.00955878	0.000354889	
-0.251364	0.00884358	-0.0191065	
-0.484267	0.0100936	-0.0395975	
0.205377	0.0113748	0.0167798	
-0.00570766	0.0120945	-0.0004527	
0.183371	0.0101575	0.0149236	
-0.847149	0.0110923	-0.0657018	
0.10613	0.0125146	0.00832955	
-9.4112e-06	0.0115299	8.04388e-05	
-3.91037e-06	0.0100947	4.10438e-05	
-1.04463e-05	0.00896254	0.000175009	
-1.56303e-05	0.0111861	0.000205685	
2.27264e-06	0.0111437	2.10694e-05	
0.917625	-0.00348391	0.0687124	
-0.973333	0.00860452	-0.079795	
-1.66162e-05	0.00946625	0.000173755	
-1.97461e-06	0.0109471	-1.92754e-05	
-6.46854e-06	0.00625309	8.77991e-05	
2.32551	0.00277608	0.182863	
0.905165	0.0101149	0.0713729	
0.0783512	0.00755028	0.00664644	
0.818066	0.00518559	0.0651114	
0.237207	0.00794456	0.0225593	
1.13962	0.00752536	0.0908512	
3.334e-05	0.00878392	-0.000238393	
-0.902436	0.00803268	-0.0697232	
-0.487427	0.00570029	-0.0382098	
-0.101019	0.0066768	-0.00818303	
1.755	0.00388938	0.142126	
3.61319	0.00950838	0.217699	
0.308862	0.00777471	0.0250711	
0.799797	0.00795173	0.0613117	
7.23841e-07	0.00617108	-1.75124e-05	
0.523065	0.00803399	0.0418793	
0.213515	0.0089188	0.0158173	
-0.613711	0.00792986	-0.0508117	
0.766025	0.00790944	0.0634612	
0.202668	0.00893504	0.0161527	
1.0968e-05	0.00915803	-0.000112784	
8.17526e-06	0.00787811	-7.23312e-05	
1.16514e-05	0.00894737	-0.000160091	
5.9923e-06	0.00842162	-6.1863e-05	
-0.00264925	0.00751215	-0.000140515	
1.8566e-06	0.00793357	-5.79974e-05	
-2.03766e-07	0.00448728	4.51092e-06	
5.21388e-06	0.00728348	-4.45732e-05	
-3.72082	0.00340655	-0.242313	
0.0828941	0.00842543	0.00674964	
-1.05831	0.00842694	-0.0898718	
-0.0201568	0.00891567	-0.00161315	
0.0103837	0.00832512	0.00106041	