<VTKFile type="UnstructuredGrid" version="0.1" byte_order="LittleEndian">
	<UnstructuredGrid>
		<Piece NumberOfPoints="952" NumberOfCells="952">
			<CellData Scalars="scalars">
				<DataArray type="Float64" Name="Strength" NumberOfComponents="3" Format="ascii">
0.546605	-0.363853	-0.104855	
0.00575386	-1.04363	0.00552169	
-0.00771591	-0.939462	0.0153205	
0.0539244	-0.821416	0.0334046	
-9.33625e-05	-1.06768	0.00978475	
-0.0228358	-1.0062	0.0142205	
-0.00077447	-1.05347	0.00427545	
-0.011781	-1.04951	0.012724	
-0.0330114	-0.852909	0.085979	
-0.00874062	-0.920267	0.0181905	
0.125442	-0.57279	0.0430455	
0.0107688	-1.02639	-0.0030589	
-0.0150392	-0.97262	0.0267259	
-0.0132532	-1.04331	1.94893e-07	
-0.0530267	-0.886742	0.0589882	
0.0424879	-0.965205	-0.00432153	
0.0302438	-1.04704	-0.00703929	
0.00348398	-1.01728	0.00278778	
0.00346671	-1.03543	-0.0137208	
-0.0306522	-1.02899	0.0335384	
0.0073311	-1.03084	0.00518765	
-0.0217729	-1.0296	0.00228915	
-0.0220518	-1.04688	0.0351048	
0.033502	-1.05459	-0.0155822	
0.000847323	-1.05471	-0.000536772	
0.00966238	-1.02505	-0.00439343	
-0.0435676	-0.70745	0.0976454	
-0.0207804	-0.95714	0.0224515	
-0.00615175	-1.05582	-0.00374406	
0.00343953	-0.944161	-0.0158084	
-0.022212	-1.06839	0.00790178	
0.0288548	-1.0553	-0.0181461	
0.00248139	-1.03887	0.00283557	
0.0329022	-0.833099	-0.0833467	
-0.307174	-0.597331	-0.0190173	
-0.000934647	-1.02687	-0.00621803	
0.0187813	-0.976652	-0.0261868	
0.0288296	-1.03998	-0.000201408	
0.00829392	-1.00823	-0.00596334	
0.0344344	-0.877498	-0.0541441	
-0.0435512	-0.966254	0.00810038	
-0.024256	-1.05657	0.00680345	
8.42917e-05	-1.10289	-0.0045961	
-0.026543	-1.02528	0.0194869	
0.0121292	-1.03143	-0.0256325	
0.0240425	-1.04598	-0.0249278	
0.00731908	-1.03562	-0.00991763	
0.00327794	-1.07009	0.010505	
0.049116	-0.91549	-0.0461332	
0.0248916	-1.04817	-0.0412706	
-0.0165294	-1.07448	0.000923661	
-0.321179	-0.367948	-0.00602601	
-0.00390382	-0.8125	-0.113824	
0.0233169	-0.962591	-0.0236791	
-0.00748043	-1.053	0.00619	
0.0433092	-0.685992	-0.179486	
1.50167	0.0266838	-0.0910086	
0.0486505	-0.192245	-0.00717344	
0.124771	-0.164702	-0.0134759	
0.514819	-0.124267	-0.0536891	
-0.00942385	-0.206428	0.00390027	
-0.0477632	-0.206387	0.0104543	
0.000113743	-0.204748	0.00062057	
-0.0145933	-0.207954	0.00545483	
0.153241	-0.134879	-0.00705689	
0.14834	-0.16073	-0.0176768	
0.510909	-0.0646843	-0.0438799	
0.0483792	-0.210542	-0.011815	
0.0390787	-0.182292	0.00067847	
0.0248165	-0.205396	-0.00396846	
-0.00132898	-0.150268	0.0129371	
0.244743	-0.188025	-0.0445715	
0.045837	-0.191921	-0.00896028	
-0.0668087	-0.204727	0.016343	
0.0698791	-0.20419	-0.0160835	
-0.0296062	-0.194227	0.0126186	
0.00199122	-0.191183	0.00173415	
-0.0010447	-0.204884	0.000577383	
-0.000750093	-0.189618	0.00707443	
0.00401663	-0.201597	-0.00069316	
0.00471209	-0.209093	-0.00285088	
0.00174781	-0.20462	-1.39084e-05	
0.00167427	-0.101691	0.0124257	
0.00163327	-0.176833	0.0111868	
-0.0482151	-0.2097	0.0081674	
-0.14418	-0.16628	0.0186182	
-0.0210906	-0.208678	0.00713926	
0.123388	-0.205821	-0.025903	
0.0316662	-0.210265	-0.00365443	
-0.262075	-0.15152	0.030405	
-1.25601	-0.127494	0.230344	
-0.0729376	-0.212175	0.0159603	
-0.0293487	-0.182912	-0.00415842	
0.0777442	-0.207897	-0.0148196	
0.000460267	-0.205602	-0.000104499	
-0.174184	-0.157755	0.0163376	
-0.244592	-0.189649	0.0430969	
-0.0900434	-0.194023	0.0191381	
0.0503849	-0.202244	-0.0134258	
-0.0868754	-0.205888	0.0206678	
-0.0580945	-0.19684	0.00679859	
0.0283526	-0.192667	-0.0111603	
-0.000201851	-0.192268	-0.00310224	
-0.000340424	-0.200994	0.00188492	
0.00137055	-0.159423	-0.0163947	
0.000956572	-0.18987	-0.00781186	
-0.00228268	-0.202819	-0.00131799	
-0.723041	-0.0532807	0.0651259	
-0.364997	-0.146656	0.0622327	
-0.00167949	-0.17728	-0.0123648	
-0.00167306	-0.206182	-0.000231697	
-0.000779862	-0.100562	-0.028408	
2.50131	0.126075	0.00862001	
0.0868791	-0.0590442	0.00484925	
0.24469	-0.0429225	0.0209185	
0.904372	0.00036393	0.0710955	
-0.0256087	-0.0692932	-0.00026211	
-0.0594761	-0.0706386	-0.00185616	
-6.02972e-05	-0.0688556	-0.000194529	
-0.0290019	-0.0706821	-0.000413596	
0.288499	-0.0273046	0.037413	
0.271683	-0.0400071	0.0370915	
0.871226	0.0262922	0.00701693	
0.0766601	-0.0732127	0.00121248	
0.0875692	-0.0543085	0.00870666	
0.0410063	-0.0706467	0.00133982	
3.0359e-05	-0.0411944	0.00788689	
0.417404	-0.0511618	0.0241343	
0.0935806	-0.0599673	0.00384375	
-0.101523	-0.0700595	-0.00083457	
0.132488	-0.0680182	0.00252169	
-0.0388995	-0.0610426	0.000955186	
0.000272192	-0.060549	0.00132602	
0.000178684	-0.071003	0.000388504	
0.000586716	-0.0590048	0.00344993	
0.000217656	-0.0658798	0.00057184	
0.00989547	-0.0724994	-0.000195285	
0.000142093	-0.0693816	0.00072125	
0.00122576	-0.0259714	0.00736006	
0.000520697	-0.0535769	0.00531306	
-0.0730072	-0.0725362	-0.00175221	
-0.281933	-0.0418528	-0.00700507	
-0.0304873	-0.0697991	0.000382838	
0.201213	-0.0686191	0.00233382	
0.0526269	-0.0700956	0.00264875	
-0.485726	-0.0242429	-0.0376869	
-2.19743	0.071716	0.0160748	
-0.138379	-0.0735144	-0.00179686	
-0.072331	-0.0546831	-0.00522754	
0.111012	-0.0687678	0.00485766	
6.90879e-05	-0.0709991	0.000531753	
-0.318102	-0.0340338	-0.0252967	
-0.417532	-0.0507222	-0.0141972	
-0.166714	-0.0592767	-0.00582592	
0.0814418	-0.0636533	0.000868386	
-0.143779	-0.0667471	-0.0036009	
-0.110763	-0.0596677	-0.00627226	
0.0422839	-0.0600405	-0.000807799	
-0.000240546	-0.0603573	-0.00190652	
-2.68283e-05	-0.0646256	0.000518039	
-0.000437273	-0.0453274	-0.00728588	
-0.000721944	-0.0590305	-0.00371455	
-0.000249478	-0.0645983	-0.00110815	
1.16751	-0.0252764	-0.0413413	
-0.662458	-0.00619896	-0.0236353	
-0.000779869	-0.0535442	-0.00522149	
-0.000157888	-0.0660908	-0.000246587	
-0.00141994	-0.028457	-0.0040539	
3.29493	0.0676934	0.167988	
0.136044	0.081516	-0.00865037	
0.325432	0.0888185	-0.0036472	
1.1203	0.102939	-0.00702706	
-0.0211459	0.0768072	0.000341945	
-0.0817006	0.0762115	-0.00626382	
0.00017048	0.0759831	-0.000934912	
-0.0356877	0.0775884	0.00459127	
0.359637	0.0820347	-0.00934646	
0.361642	0.0844144	0.001279	
1.09393	0.0646791	0.0238756	
0.114665	0.0737567	-0.00588832	
0.106853	0.0889649	0.00706172	
0.0580158	0.078548	0.00700693	
-0.000286253	0.0783094	-0.0140181	
0.579014	0.104731	0.0511404	
0.152838	0.0795796	-0.0102409	
-0.128872	0.0810692	0.00138117	
0.183114	0.0783205	0.00893138	
-0.0524042	0.0851703	-0.0151196	
0.00124687	0.0818429	-0.0123016	
1.74087e-05	0.0780398	0.00333709	
-0.000872608	0.0862413	-0.0056173	
-2.21967e-05	0.0809856	-0.00359669	
0.0175903	0.0754372	-0.0006263	
-0.000108804	0.0789998	0.00285399	
-0.00215497	0.0502793	-0.0129681	
-0.00272963	0.0846371	0.000418156	
-0.0984976	0.0743882	0.00458566	
-0.377833	0.0929964	0.00651474	
-0.0712933	0.0752618	-0.00830807	
0.281385	0.0740002	0.0200505	
0.0652946	0.077369	-0.00742715	
-0.573581	0.092777	-0.0311381	
-2.78725	0.0871959	-0.134245	
-0.194319	0.0716643	0.00211991	
-0.0874588	0.0898992	-0.00342729	
0.152008	0.0773147	-0.0113547	
-0.000109219	0.0738281	-0.000298195	
-0.422254	0.0865689	-0.029784	
-0.576964	0.10341	-0.0429461	
-0.247631	0.084941	0.0109561	
0.0968589	0.0819397	0.0016899	
-0.214193	0.0807293	-0.0119719	
-0.159989	0.0865688	0.00615992	
0.0557208	0.0850049	0.0132704	
-0.00107892	0.0842215	0.0111956	
-0.000506474	0.0784165	0.000808917	
0.000173367	0.0826213	0.00782183	
0.000684931	0.0872141	0.00749355	
0.000515825	0.0841978	0.00127731	
1.59202	-0.0256421	0.0424386	
-0.804932	0.0954798	-0.0270135	
0.00308506	0.0857748	0.00183571	
0.000184373	0.0815371	-0.00114508	
0.00146069	0.0483277	0.00614738	
5.7046	-0.0856813	0.287701	
-2.01009	-0.49356	-0.224941	
0.592579	-0.406149	0.280226	
1.56562	-0.138434	0.0692992	
1.94296	-0.467926	0.150044	
-1.7795	-0.559289	-0.113673	
-0.00161129	-0.55407	-0.00955966	
-0.62547	-0.299826	0.0450828	
0.626411	-0.104844	0.0564424	
1.13352	-0.231661	0.17402	
-0.253207	-0.267501	0.013322	
-0.100247	-0.366892	-0.028394	
3.04803	-0.500818	0.297692	
0.752486	-0.417456	0.136138	
-0.00702701	-0.103445	0.0481507	
0.802044	-0.556567	0.229622	
-0.968142	-0.26791	-0.149844	
0.16263	-0.12195	0.0187645	
1.44646	-0.279268	0.163594	
-0.322051	-0.527967	-0.0915691	
0.0258673	-0.253553	-0.0958704	
-0.0194226	-0.301925	0.0800978	
-0.0116324	-0.553509	0.0474791	
0.0055454	-0.142622	-0.0179758	
0.0185502	-0.340293	0.015049	
-0.00649001	-0.177384	0.0325936	
-0.00068731	-0.080203	0.0165438	
-0.0229907	-0.180752	0.115496	
0.0909882	-0.340557	0.0275732	
-0.410238	-0.50732	-0.299208	
-2.33655	-0.492248	-0.215505	
0.418223	-0.527453	-0.040404	
0.0120512	-0.280837	-0.057809	
-1.02926	-0.238974	-0.147204	
-3.63807	-0.46241	-0.294439	
1.29799	-0.373858	0.0856297	
-2.73264	-0.519312	-0.238558	
0.189286	-0.266576	-0.0190052	
0.0028311	-0.534352	0.0172977	
-1.15627	-0.276336	-0.202932	
-0.781438	-0.615444	-0.133855	
0.67574	-0.27567	0.0865767	
-1.22805	-0.398646	-0.0958847	
0.352125	-0.352483	-0.00790904	
1.45045	-0.610247	0.134379	
0.974277	-0.457976	0.183733	
-0.0238905	-0.293875	0.0642428	
0.00694644	-0.270165	-0.0237028	
0.0327545	-0.263923	-0.12607	
0.00139172	-0.600174	0.00673739	
-0.00379198	-0.193551	0.00891929	
2.12225	0.165892	0.041476	
-1.24566	-0.228326	-0.123893	
0.0301038	-0.265966	-0.127197	
0.00483226	-0.343146	-0.0344435	
0.00480335	-0.162404	-0.0395716	
4.42998	0.254574	0.295629	
0.0528411	0.572259	-0.0685482	
0.549775	0.667785	-0.0231307	
1.26507	0.441624	0.132697	
1.19143	0.736686	0.0765943	
-0.902138	0.762802	-0.166683	
-0.00394865	0.73643	-0.0412372	
-0.295762	0.620043	-0.100336	
0.374274	0.425173	-0.0229774	
0.655246	0.52702	0.0144011	
1.14788	0.497753	0.0739439	
0.798209	0.625384	0.128898	
0.713096	0.604913	0.0338844	
0.479607	0.674066	0.0372847	
-0.00482446	0.447086	-0.0832383	
1.25157	0.834442	0.0826847	
-0.627112	0.534435	-0.123325	
-0.262283	0.488347	-0.0381874	
0.791799	0.591661	0.116219	
-0.169024	0.770529	-0.140763	
0.0107275	0.538357	-0.0387342	
-0.0103098	0.61799	-0.0488515	
0.00279995	0.798254	-0.0981436	
0.0109206	0.496974	0.00901264	
0.0140439	0.539204	0.00661496	
-0.000694303	0.539504	-0.00309961	
-0.00197744	0.357163	-0.0459406	
0.00468478	0.540877	-0.0578827	
-0.786087	0.553901	-0.0802625	
-0.451164	0.692131	0.0282389	
-1.41688	0.710408	-0.179298	
0.93247	0.720097	0.0987527	
0.0755155	0.595664	0.0222078	
-0.734365	0.421077	-0.028931	
-2.89193	0.640985	-0.244138	
-0.0325087	0.616021	0.0638289	
-0.438727	0.616235	-0.0336612	
-0.165738	0.582754	-0.0171661	
0.00714725	0.766889	0.0217983	
-0.685054	0.493279	0.00396643	
-1.19341	0.844158	-0.0614779	
0.432825	0.553039	0.0524145	
-0.326798	0.632738	-0.0821099	
0.331022	0.658868	0.0496071	
-0.546886	0.788957	-5.52746e-05	
0.842543	0.574413	0.201619	
-0.00876487	0.551049	0.0202955	
-0.00135297	0.613889	0.0360781	
0.00980818	0.533006	0.10121	
0.0028293	0.80561	0.0958823	
-0.0102604	0.523342	-0.0375462	
3.03304	-0.283382	0.196494	
-1.49243	0.464776	-0.182148	
-0.00679133	0.556217	0.066814	
-0.0073717	0.631927	-0.0134972	
-0.00122371	0.423028	0.0608518	
2.95881	0.0877821	0.211416	
0.448353	0.326038	0.0603548	
0.377256	0.316542	0.0151737	
0.992637	0.194816	0.110238	
0.681492	0.353141	0.0789729	
-0.309013	0.345567	-0.0647203	
-0.000658911	0.384128	-0.0211423	
-0.346429	0.325022	-0.0890235	
0.147344	0.201841	0.00142348	
0.367177	0.255767	0.0146003	
1.10208	0.143332	0.0915686	
1.2113	0.326206	0.233158	
0.547587	0.284247	0.058064	
0.40558	0.324709	0.0630431	
0.000139414	0.223219	-0.0207867	
0.858703	0.30088	0.100193	
-0.442254	0.285589	-0.0796241	
-0.398493	0.270289	-0.0662903	
0.520467	0.294604	0.080888	
0.0451533	0.328358	-0.0148468	
0.00252001	0.293912	-0.0096669	
-0.000296006	0.308929	-0.00891913	
0.00518222	0.347939	-0.029328	
0.00221065	0.274709	-0.000978937	
0.00890619	0.306851	0.00261621	
0.00105851	0.280808	-0.00138275	
0.000214886	0.160288	-0.0115158	
0.00462296	0.276237	-0.0249967	
-1.21892	0.31986	-0.198926	
-0.248746	0.355224	0.00750199	
-0.927608	0.360305	-0.136182	
0.584027	0.381384	0.118047	
0.0964329	0.330513	0.0265892	
-0.559835	0.246988	-0.0514246	
-2.12971	0.170157	-0.197811	
-0.32481	0.330287	-0.0460591	
-0.364874	0.314433	-0.0314557	
-0.0974257	0.325939	-0.0235758	
0.00198702	0.34861	0.0150579	
-0.395075	0.26003	-0.0288703	
-0.819641	0.322774	-0.115031	
0.387072	0.304028	0.0757947	
-0.0645387	0.364041	-0.0236202	
0.319736	0.323318	0.0507085	
-0.960775	0.345254	-0.148812	
0.598537	0.341252	0.119301	
-0.00244355	0.309705	0.00630365	
-0.000767131	0.317751	-0.00207049	
-0.00154749	0.283956	0.0381168	
-0.00476591	0.369952	0.0290507	
-0.00213988	0.304089	-0.0114455	
1.7869	-0.096936	0.124878	
-1.31367	0.242802	-0.176185	
-0.00613785	0.309756	0.0384045	
-0.0017094	0.32811	-0.009806	
-0.00133086	0.195208	0.0219895	
2.44101	0.0418286	0.179713	
0.598685	0.166372	0.0594388	
0.307749	0.138141	0.0216819	
0.852658	0.0894008	0.0761931	
0.448007	0.166186	0.0371917	
0.00756065	0.161947	-0.00553719	
-0.000294476	0.178513	-0.00874233	
-0.423016	0.153165	-0.0588856	
-0.00082537	0.0941094	-0.00609206	
0.225595	0.118333	0.0104635	
1.10539	0.0638951	0.0876568	
1.5404	0.158083	0.191593	
0.493832	0.132238	0.0407302	
0.443845	0.154123	0.0466877	
0.000128141	0.105537	-0.00678076	
0.662573	0.138749	0.0554603	
-0.338701	0.146308	-0.0405521	
-0.502475	0.138803	-0.0587487	
0.446136	0.145685	0.0478343	
0.0847808	0.1566	-0.00177579	
0.000856249	0.149219	-0.00388153	
0.000152724	0.150403	-0.00310365	
0.0010151	0.15903	-0.0123831	
0.000437731	0.139747	-0.00043932	
0.00527625	0.146429	0.00117096	
0.000112535	0.14206	0.00052429	
7.32659e-05	0.0739831	-0.00358776	
0.000742843	0.127316	-0.0092363	
-1.56983	0.154556	-0.194073	
-0.166341	0.154671	-0.00717882	
-0.758486	0.171098	-0.0791516	
0.426054	0.176811	0.0574091	
0.101935	0.158603	0.0179209	
-0.45039	0.123183	-0.0352517	
-1.82567	0.0710002	-0.153018	
-0.493752	0.160307	-0.0420968	
-0.350657	0.144156	-0.0360638	
-0.089233	0.158079	-0.00898366	
0.000534225	0.162992	0.00819413	
-0.278387	0.124044	-0.01757	
-0.631111	0.147616	-0.06834	
0.363468	0.156448	0.0453581	
0.0535332	0.175641	0.00248773	
0.301466	0.158535	0.0341022	
-0.980887	0.165132	-0.10001	
0.441215	0.175847	0.0597249	
-0.000781059	0.158076	0.00212752	
-0.000301167	0.155867	-0.000524931	
-0.00080838	0.132528	0.0142739	
-0.00122749	0.168645	0.0120556	
-0.000223614	0.154639	-0.00464037	
1.33749	-0.0431371	0.0958632	
-1.17202	0.115713	-0.121597	
-0.00151096	0.14191	0.0153698	
-0.000190755	0.162935	-0.00551236	
-0.000436963	0.0852739	0.00748096	
2.23904	0.0223241	0.16277	
0.580286	0.0944642	0.0488329	
0.271777	0.0680733	0.017677	
0.818279	0.0498944	0.0656153	
0.406406	0.0789099	0.0281612	
0.189482	0.0761699	0.0128587	
-0.000420007	0.083929	-0.00377721	
-0.460998	0.0761559	-0.04811	
-0.0662573	0.0483182	-0.00812025	
0.172678	0.0571836	0.0101745	
1.12851	0.0331272	0.0858197	
1.72599	0.0789408	0.184646	
0.445299	0.0677996	0.0336424	
0.421043	0.079716	0.0370111	
2.50167e-05	0.05241	-0.00301495	
0.570016	0.07117	0.0431486	
-0.217167	0.0807496	-0.0212457	
-0.480136	0.0709876	-0.0467012	
0.443564	0.0728096	0.0419832	
0.0875967	0.0801859	0.00343497	
0.000249829	0.0845694	-0.00225882	
-4.94113e-05	0.0731049	-0.00146711	
8.72234e-05	0.0795352	-0.00495209	
0.000300713	0.0760148	-0.000971641	
0.00407515	0.0752685	0.000596484	
3.78043e-05	0.0705058	-0.000323561	
-1.4428e-05	0.0396661	-0.00155317	
0.000101764	0.0618392	-0.00410711	
-1.76598	0.0890816	-0.175629	
-0.125802	0.0746721	-0.0062866	
-0.792375	0.0825371	-0.069923	
0.318035	0.0824385	0.038935	
0.0811358	0.0806419	0.0110049	
-0.444622	0.0687451	-0.0332965	
-1.72447	0.0354561	-0.134541	
-0.586292	0.0815772	-0.0512042	
-0.319583	0.0721873	-0.0221836	
-0.0186695	0.0821459	-0.00160227	
0.00058009	0.0749992	0.00402428	
-0.258854	0.062609	-0.0170251	
-0.541145	0.0753342	-0.0483775	
0.290497	0.08543	0.0267317	
0.0451081	0.090931	0.00311405	
0.293896	0.0772542	0.027818	
-0.864338	0.0851464	-0.0777254	
0.356181	0.0964797	0.0351628	
-0.000259893	0.0879905	0.00101552	
-4.18734e-05	0.0769948	-0.000173127	
-0.00024618	0.0635597	0.00559304	
-9.046e-05	0.0832929	0.00449747	
-7.77622e-05	0.0821332	-0.00142229	
1.14485	-0.0224345	0.0792637	
-1.08851	0.0651163	-0.0942883	
-0.000306305	0.0679649	0.00568489	
-6.42644e-05	0.0810404	-0.00208032	
-4.96282e-05	0.0426234	0.00326713	
2.16172	0.014955	0.158255	
0.621795	0.0607119	0.0500019	
0.220221	0.045272	0.0159852	
0.791464	0.0311294	0.0625028	
0.357078	0.051019	0.0267665	
0.351469	0.0497709	0.0266106	
-0.000170063	0.0531851	-0.00238798	
-0.512457	0.0467684	-0.0475446	
-0.136685	0.0310904	-0.012128	
0.114516	0.0388251	0.00737693	
1.19116	0.0217383	0.0910338	
1.97423	0.0507169	0.176265	
0.400716	0.0479045	0.0295858	
0.461365	0.0489076	0.0383344	
8.71822e-06	0.034786	-0.0014186	
0.545637	0.050318	0.0404343	
-0.131346	0.051685	-0.0120563	
-0.498951	0.0466322	-0.0440019	
0.470405	0.0472522	0.042677	
0.107243	0.0531499	0.00643202	
0.000107977	0.0535327	-0.001483	
2.84835e-07	0.0470459	-0.00100164	
4.65622e-05	0.0534216	-0.00305805	
0.000157191	0.0485109	-0.000591956	
0.0030674	0.0439935	0.000245509	
2.3462e-05	0.0464073	-0.00033745	
-5.04029e-06	0.024885	-0.00076355	
2.67292e-05	0.0433441	-0.00193482	
-2.02393	0.0525354	-0.181552	
-0.0762569	0.0494827	-0.00349483	
-0.799088	0.0533745	-0.0658056	
0.248728	0.0520147	0.0250747	
0.0723899	0.0491599	0.00824232	
-0.436589	0.0460209	-0.032548	
-1.67546	0.0240427	-0.129633	
-0.694113	0.0512784	-0.0663027	
-0.285976	0.0508514	-0.0190413	
-0.0173158	0.0497969	-0.00101975	
0.000214035	0.048118	0.00260772	
-0.237684	0.0421648	-0.0162674	
-0.510162	0.0529752	-0.0426804	
0.258266	0.0554729	0.0227722	
0.043669	0.0590231	0.00314335	
0.270477	0.0501882	0.0237107	
-0.83982	0.0572072	-0.0682001	
0.292001	0.0617091	0.026493	
-0.0001232	0.0563103	0.00072425	
-4.8275e-05	0.0494125	2.5203e-05	
-0.000131392	0.0432408	0.0029121	
-4.25601e-05	0.056101	0.00276445	
-1.64848e-05	0.0537048	-0.000654073	
1.05956	-0.0153126	0.0736969	
-1.04246	0.0439206	-0.0856394	
-0.000162215	0.0471178	0.00315662	
-3.85804e-05	0.0532492	-0.000971701	
6.86038e-07	0.0284707	0.00164746	
2.12794	0.0107731	0.15737	
0.663935	0.0417918	0.0495742	
0.184679	0.0316806	0.0137991	
0.77458	0.0214159	0.0608252	
0.317919	0.0341195	0.024396	
0.486754	0.0326685	0.0476982	
6.68153e-05	0.0366079	-0.00151203	
-0.567997	0.0324919	-0.046789	
-0.19876	0.0226617	-0.016188	
0.0710038	0.0275002	0.0045887	
1.26306	0.0156836	0.0971608	
2.22115	0.0333121	0.160571	
0.368845	0.0332306	0.027964	
0.512812	0.0327924	0.0413994	
3.94671e-05	0.0250973	-0.00078418	
0.534794	0.0344919	0.0404693	
-0.0699171	0.0369379	-0.00637714	
-0.504209	0.0326309	-0.0431009	
0.508103	0.0325121	0.0399106	
0.123905	0.0371971	0.00797549	
0.000101196	0.0377472	-0.000984128	
5.59849e-05	0.0325333	-0.000692446	
0.000131565	0.0374563	-0.00187504	
4.12138e-05	0.0347664	-0.000497236	
0.00159033	0.0304278	0.000158659	
1.43244e-05	0.0324338	-0.000315863	
1.99282e-05	0.0179623	-0.000436273	
7.38842e-05	0.0305738	-0.00102846	
-2.27755	0.0264706	-0.188834	
-0.0392644	0.0350407	-0.00145267	
-0.813952	0.0355489	-0.065938	
0.191269	0.036783	0.0185617	
0.0619784	0.0337835	0.00663736	
-0.436326	0.0326267	-0.0326055	
-1.65099	0.0170968	-0.12792	
-0.790005	0.031824	-0.0735787	
-0.261726	0.0355986	-0.0196675	
-0.0264139	0.0343469	-0.00194259	
-0.000109765	0.033075	0.00174644	
-0.229182	0.0300769	-0.0160508	
-0.499014	0.0363201	-0.0408954	
0.244633	0.0393281	0.0216258	
0.0329684	0.0417777	0.00243988	
0.246719	0.0350913	0.0206351	
-0.830137	0.0388124	-0.0643836	
0.245527	0.0434016	0.0209477	
-6.28952e-05	0.0396975	0.000506245	
-9.56975e-06	0.0345592	2.93369e-07	
-7.13109e-05	0.0309988	0.0015531	
-0.000120755	0.0393142	0.00165341	
6.80395e-06	0.0383967	-0.000203501	
1.00485	-0.0112389	0.0706968	
-1.01154	0.0294732	-0.0818326	
-0.00013852	0.0334901	0.0018019	
4.38243e-06	0.0375962	-0.000468453	
-5.02172e-05	0.0207018	0.00101489	
2.12485	0.00792903	0.15922	
0.702203	0.0309982	0.0535027	
0.156771	0.0227667	0.0118897	
0.768912	0.0157402	0.0603595	
0.293499	0.0259041	0.0194226	
0.610186	0.0255758	0.0497624	
1.20904e-05	0.0265472	-0.001053	
-0.625193	0.023463	-0.0528156	
-0.253088	0.0163975	-0.0200388	
0.0347917	0.0197885	0.00232327	
1.34066	0.0113872	0.104029	
2.46187	0.0275119	0.17041	
0.34701	0.0240246	0.0265896	
0.562604	0.0243205	0.0449292	
1.86424e-05	0.0181118	-0.000406613	
0.527012	0.0250117	0.0404398	
-0.0150641	0.0269139	-0.001707	
-0.516128	0.0239347	-0.0430087	
0.54911	0.0240415	0.0457005	
0.138105	0.0270756	0.00967961	
5.58577e-05	0.0276154	-0.000717721	
2.43649e-05	0.0237122	-0.000437601	
5.92193e-05	0.027077	-0.0011723	
3.90734e-05	0.0253837	-0.000375526	
0.00114069	0.0221584	0.000116356	
9.33119e-06	0.0237575	-0.000243217	
6.65648e-06	0.0130523	-0.000211641	
4.01353e-05	0.0219738	-0.000656115	
-2.52729	0.0224335	-0.195884	
-0.0104508	0.025481	0.000172806	
-0.844572	0.0271497	-0.0648796	
0.145864	0.0260754	0.0125942	
0.0520841	0.0248387	0.00530872	
-0.444417	0.0246395	-0.0337186	
-1.64279	0.0127297	-0.128192	
-0.883476	0.0245237	-0.0802859	
-0.24554	0.0259632	-0.0187978	
-0.031754	0.0253417	-0.00242284	
-3.87667e-05	0.0240985	0.00127455	
-0.228106	0.0223228	-0.0164727	
-0.49186	0.0267098	-0.0398088	
0.233499	0.0287803	0.0200319	
0.0243075	0.0305498	0.00183117	
0.228756	0.02569	0.0188989	
-0.826062	0.0288855	-0.0630323	
0.207923	0.0317209	0.0170577	
-3.62852e-05	0.0291447	0.000348002	
-5.34269e-06	0.0253559	5.58915e-05	
-3.87495e-05	0.0227193	0.000935262	
-5.40048e-05	0.0286456	0.00103492	
9.59012e-06	0.028119	-0.000118733	
0.967332	-0.00830167	0.0690658	
-0.992725	0.0225467	-0.0801133	
-8.0133e-05	0.0243857	0.00109608	
-6.49862e-06	0.0275581	-0.000190544	
-2.27685e-05	0.015427	0.000613403	
2.14493	0.00611771	0.162814	
0.739584	0.0236484	0.0570156	
0.136041	0.0171493	0.0107483	
0.774518	0.0121818	0.0611061	
0.279061	0.0190325	0.018797	
0.723027	0.018507	0.0700957	
2.86174e-05	0.0197714	-0.000770695	
-0.679572	0.0176644	-0.0546142	
-0.302958	0.0124832	-0.0238875	
0.00347302	0.0149724	-1.58246e-05	
1.41707	0.00863682	0.11116	
2.69052	0.0204298	0.182732	
0.333203	0.0180308	0.025955	
0.608516	0.0184792	0.0481888	
1.09236e-05	0.013756	-0.000238768	
0.522466	0.0188041	0.0405272	
0.0383774	0.020282	0.00263961	
-0.531375	0.0179475	-0.0439118	
0.590578	0.0181403	0.0498151	
0.15173	0.0204173	0.0112852	
3.69527e-05	0.020896	-0.000487373	
1.87721e-05	0.0177957	-0.000313227	
3.47184e-05	0.0203485	-0.000752881	
2.79481e-05	0.0190396	-0.000274584	
0.00029714	0.016911	4.05908e-05	
6.75796e-06	0.0178135	-0.000190146	
1.99418e-06	0.0101379	-8.93386e-05	
2.24321e-05	0.0165164	-0.000380427	
-2.76482	0.0159547	-0.206593	
0.0128056	0.0191912	0.00156807	
-0.885228	0.0202662	-0.0676916	
0.105884	0.0196753	0.00897566	
0.0421454	0.0187637	0.00411147	
-0.45881	0.019019	-0.0352408	
-1.65339	0.00959055	-0.13047	
-0.97415	0.0196318	-0.0791525	
-0.236418	0.0194785	-0.0176284	
-0.0342092	0.0192028	-0.00261769	
-4.01657e-05	0.0179635	0.000874112	
-0.231089	0.0170299	-0.0170475	
-0.486975	0.0200995	-0.0393988	
0.222178	0.0218997	0.019013	
0.0147909	0.0231119	0.00115706	
0.213824	0.019346	0.0174727	
-0.8247	0.0219038	-0.0627226	
0.177314	0.0240807	0.0142047	
-2.42661e-05	0.0222042	0.000238009	
-4.75927e-06	0.0191034	5.87333e-05	
-2.35307e-05	0.0172237	0.000584792	
-3.04369e-05	0.0215785	0.000654056	
4.05768e-06	0.0212994	-3.56501e-05	
0.94412	-0.00647534	0.0683851	
-0.979019	0.017387	-0.0792326	
-4.92231e-05	0.0183823	0.000662842	
-8.09883e-06	0.0207977	-8.0327e-05	
-1.22388e-05	0.0117005	0.000346839	
2.18003	0.00481284	0.167245	
0.777679	0.0179599	0.0608123	
0.117434	0.0133618	0.00942927	
0.783239	0.00909696	0.0619793	
0.265484	0.0147397	0.0192774	
0.832301	0.0125346	0.0782537	
5.75128e-05	0.0155865	-0.000512751	
-0.734572	0.0141438	-0.0563296	
-0.351184	0.009848	-0.0276211	
-0.0261602	0.0117321	-0.00222104	
1.49756	0.00669328	0.119116	
2.92086	0.0144279	0.205711	
0.324217	0.0138727	0.02554	
0.656413	0.0141331	0.0515216	
8.29856e-06	0.0107495	-0.000128249	
0.519935	0.0143944	0.0405531	
0.0870802	0.0159248	0.00647536	
-0.549207	0.0140801	-0.0452425	
0.633552	0.0140521	0.0516875	
0.165629	0.0158757	0.0126545	
3.14177e-05	0.0164228	-0.000318616	
2.05275e-05	0.0140036	-0.0002062	
3.58061e-05	0.0159716	-0.000480831	
1.53621e-05	0.0149948	-0.00019611	
-0.000549341	0.0132194	-3.02775e-05	
6.09385e-06	0.014049	-0.000143406	
1.43768e-06	0.00784391	-1.5246e-05	
1.91676e-05	0.0129609	-0.000212523	
-3.00441	0.00574716	-0.221738	
0.0331209	0.0150035	0.00301893	
-0.926684	0.0155184	-0.0717392	
0.070441	0.0157545	0.00619033	
0.0331617	0.0147756	0.00324558	
-0.478586	0.0146334	-0.0370782	
-1.67224	0.00751728	-0.133248	
-1.0637	0.0111574	-0.0902858	
-0.23066	0.0151652	-0.0176648	
-0.0383929	0.0150916	-0.0030294	
-7.90551e-05	0.0142137	0.000607021	
-0.234217	0.0131899	-0.0174821	
-0.484784	0.0153222	-0.0391387	
0.214257	0.017163	0.0178638	
0.00741016	0.0181988	0.000589012	
0.200895	0.0152274	0.0162965	
-0.828001	0.0166592	-0.0635872	
0.151012	0.0189582	0.011899	
-1.77047e-05	0.0174512	0.00015188	
-5.81716e-06	0.0150851	5.31309e-05	
-2.15261e-05	0.0135534	0.000360431	
-3.23731e-05	0.016911	0.000408492	
4.36918e-06	0.0167811	5.69523e-06	
0.929375	-0.00513069	0.0681598	
-0.971783	0.0129106	-0.0787675	
-3.49352e-05	0.0144203	0.000395968	
-1.70708e-06	0.0164352	-5.62367e-05	
-1.18161e-05	0.00928162	0.000181501	
2.22288	0.00393609	0.172175	
0.819264	0.0145198	0.0644088	
0.103001	0.0108359	0.00842579	
0.792637	0.0073853	0.0628521	
0.255029	0.0118952	0.0202655	
0.937201	0.009965	0.0823734	
4.57177e-05	0.012645	-0.000344832	
-0.790396	0.0115525	-0.062206	
-0.397567	0.00808465	-0.0312143	
-0.0521218	0.00950454	-0.00423251	
1.58279	0.00551952	0.126777	
3.15207	0.0120701	0.21667	
0.316566	0.0112153	0.0252353	
0.704133	0.011471	0.0549896	
4.25942e-06	0.0087766	-6.53746e-05	
0.519363	0.0115781	0.0410433	
0.130431	0.0128949	0.00985402	
-0.569094	0.0114136	-0.0467661	
0.677758	0.0114052	0.0554263	
0.177716	0.0128737	0.0138611	
1.95412e-05	0.013234	-0.000198626	
1.3779e-05	0.0113543	-0.00012863	
2.1853e-05	0.0128899	-0.000294248	
1.15674e-05	0.0121731	-0.00013943	
-0.00124925	0.0107563	-7.837e-05	
3.80734e-06	0.0114304	-0.000100834	
-2.4912e-07	0.00636243	4.14305e-06	
1.12768e-05	0.0104108	-0.000112431	
-3.24379	0.00288631	-0.23356	
0.0514778	0.012141	0.00431961	
-0.969587	0.0125625	-0.0771633	
0.0379015	0.0128368	0.00362356	
0.0252196	0.0119707	0.00240699	
-0.496613	0.0118341	-0.0387633	
-1.69712	0.00620688	-0.136123	
-1.15169	0.00792539	-0.0926678	
-0.22653	0.0120813	-0.0180707	
-0.0422936	0.0122086	-0.00342978	
-6.31159e-05	0.0115307	0.000399809	
-0.242233	0.0107263	-0.0182563	
-0.483793	0.0122752	-0.0393197	
0.208812	0.0138516	0.0165622	
-0.000175478	0.0146686	-9.00366e-06	
0.191678	0.0122993	0.0155252	
-0.836536	0.0133808	-0.0645147	
0.12792	0.0152222	0.0100319	
-1.15861e-05	0.0140321	9.14357e-05	
-4.37832e-06	0.012197	3.91522e-05	
-1.26197e-05	0.0109068	0.000211194	
-2.01124e-05	0.013621	0.000248721	
3.1574e-06	0.0135227	2.01158e-05	
0.921314	-0.00419935	0.0683305	
-0.971649	0.0102908	-0.0791009	
-2.0907e-05	0.0115778	0.000219131	
-1.86183e-06	0.0132193	-2.80029e-05	
-7.38319e-06	0.00757456	0.000103837	
2.27268	0.00328688	0.177446	
0.861872	0.0120166	0.0678746	
0.0900087	0.00892798	0.00758729	
0.804964	0.00610501	0.0638364	
0.245255	0.00951865	0.0229816	
1.03996	0.00905002	0.0817372	
3.62556e-05	0.0104643	-0.000265945	
-0.846173	0.00965279	-0.0675089	
-0.442888	0.00671707	-0.0346298	
-0.0770067	0.00788357	-0.00622519	
1.66809	0.0045628	0.134385	
3.38269	0.0108516	0.220754	
0.31162	0.00923773	0.0251729	
0.75178	0.00944812	0.0577064	
1.45639e-06	0.00728052	-2.82782e-05	
0.52057	0.0095466	0.0414856	
0.173216	0.0106039	0.0128542	
-0.591116	0.00941978	-0.0488918	
0.721536	0.00937125	0.0596316	
0.189973	0.0106266	0.0150709	
1.2755e-05	0.0109074	-0.000126555	
9.34454e-06	0.00937058	-8.05613e-05	
1.36119e-05	0.0106369	-0.000187005	
6.34819e-06	0.00999153	-6.64074e-05	
-0.00196956	0.00892218	-0.000106472	
1.90968e-06	0.00941601	-6.33159e-05	
-8.82522e-08	0.00530944	3.25895e-06	
6.59789e-06	0.00862238	-5.89736e-05	
-3.48317	0.00554699	-0.22967	
0.0675264	0.00993654	0.00551009	
-1.01327	0.0102088	-0.0823844	
0.00801511	0.0106498	0.00108738	
0.0178333	0.00988653	0.00169508	
-0.517774	0.00973072	-0.0405041	
-1.72727	0.00509112	-0.139311	
-1.23851	0.00701331	-0.105997	
-0.222752	0.00996912	-0.0180741	
-0.0470419	0.0100761	-0.00394254	
-4.62923e-05	0.00956605	0.00031433	
-0.251392	0.00884133	-0.0187751	
-0.48424	0.010105	-0.0399715	
0.205431	0.0113793	0.0161223	
-0.00570742	0.0120946	-0.000453803	
0.183378	0.0101522	0.014864	
-0.847216	0.0111451	-0.064933	
0.106146	0.0125098	0.00814048	
-6.98018e-06	0.0115301	5.06847e-05	
-3.15145e-06	0.0100948	2.85718e-05	
-6.98694e-06	0.00896388	0.000127243	
-1.14248e-05	0.0111878	0.000160755	
3.11928e-06	0.0111436	1.17436e-05	
0.917626	-0.00348818	0.068733	
-0.973296	0.00847545	-0.0803504	
-1.1455e-05	0.0094676	0.000109831	
-1.49743e-06	0.010947	-2.06641e-05	
-5.27528e-06	0.00625451	6.59584e-05	
2.32551	0.00273046	0.183006	
0.905081	0.0100691	0.0725137	
0.0783615	0.00754724	0.00653529	
0.818024	0.00518009	0.0656979	
0.237347	0.00809366	0.0210147	
1.13956	0.00774282	0.0916298	
-1.44087e-06	0.00878097	8.8015e-05	
-0.90232	0.00806335	-0.0712756	
-0.48738	0.00569332	-0.0388462	
-0.10102	0.00667677	-0.00818437	
1.75501	0.00387265	0.142145	
3.6108	0.00809615	0.254789	
0.308858	0.00775999	0.0251473	
0.799664	0.00792788	0.0630901	
-4.7541e-07	0.00617106	-3.66025e-06	
0.523037	0.00801706	0.0422692	
0.213457	0.00892059	0.0166054	
-0.613758	0.00795126	-0.0502875	
0.766084	0.00790287	0.0628163	
0.202648	0.00892676	0.0164186	
-7.79312e-07	0.00915744	3.65624e-05	
-7.40445e-08	0.00787772	2.98685e-05	
-4.02847e-06	0.00894669	3.39591e-05	
1.55422e-06	0.00842166	-8.64391e-06	
-0.00264072	0.00751397	-0.000189214	
-1.76454e-06	0.0079336	-9.74601e-06	
-1.43552e-06	0.0044882	1.99998e-05	
-1.37147e-07	0.00728324	2.35239e-05	
-3.71881	0.00587704	-0.271622	
0.0829013	0.00842594	0.00666688	
-1.05848	0.00844667	-0.0878581	
-0.0201274	0.00892768	-0.00188406	
0.0104012	0.00832566	0.000839261	