<VTKFile type="UnstructuredGrid" version="0.1" byte_order="LittleEndian">
	<UnstructuredGrid>
		<Piece NumberOfPoints="616" NumberOfCells="616">
			<CellData Scalars="scalars">
				<DataArray type="Float64" Name="Strength" NumberOfComponents="3" Format="ascii">
0.555253	-0.352534	-0.0977931	
0.0105704	-1.04361	-0.000919729	
0.0101072	-0.93952	0.00959243	
0.102677	-0.81721	0.0184132	
0.00188393	-1.06771	0.00557321	
-0.0201694	-1.00634	0.00545394	
0.000902843	-1.05348	-0.00130784	
-0.00727116	-1.0496	0.0079414	
0.00569411	-0.85588	0.0580544	
0.0167192	-0.920276	0.0108396	
0.145993	-0.568657	0.0313879	
0.0145687	-1.02632	-0.00754729	
-0.00399539	-0.972929	0.0181284	
-0.00372906	-1.04338	-0.00403243	
-0.0217938	-0.889102	0.0403408	
0.0585603	-0.964312	-0.0112201	
0.0197132	-1.04732	-0.000973508	
-0.00875707	-1.0172	0.00992525	
0.00928842	-1.0354	-0.0136881	
-0.020536	-1.02961	0.0193393	
0.00356166	-1.03087	0.00353112	
-0.0119542	-1.02977	-0.00223422	
-0.00828068	-1.04746	0.0210139	
0.0184935	-1.05507	-0.00420466	
0.000601668	-1.05471	-0.00172202	
0.00556398	-1.02509	0.000296865	
-0.00453564	-0.711116	0.0786098	
-0.00821925	-0.957455	0.0165335	
-0.0130534	-1.05576	0.00282607	
-0.0160102	-0.944121	-0.00931098	
-0.0192476	-1.06847	0.00626309	
0.0297448	-1.05536	-0.0117068	
0.00524496	-1.03886	0.00127845	
-0.0213397	-0.836013	-0.0517962	
-0.334491	-0.582723	0.00885548	
-0.0104254	-1.02683	0.00350529	
0.00728689	-0.976968	-0.0192493	
0.0302721	-1.03994	0.000100518	
0.00219914	-1.00827	0.00202398	
-0.0101457	-0.879227	-0.0311501	
-0.0604958	-0.965306	0.0116427	
-0.0228265	-1.05662	0.00395581	
0.00822957	-1.10284	-0.00851002	
-0.0261089	-1.02535	0.0165763	
-0.00199927	-1.03173	-0.0130936	
0.0149551	-1.04636	-0.0138984	
0.0037042	-1.03568	-0.00564431	
0.00293785	-1.0701	0.0091069	
0.0206209	-0.917191	-0.0316234	
0.00878313	-1.04891	-0.0261001	
-0.0103288	-1.07455	-0.00354776	
-0.331458	-0.358457	0.0151808	
-0.0588531	-0.81522	-0.0711114	
0.00880481	-0.962965	-0.0176196	
-0.00278576	-1.05304	0.00404292	
0.00918412	-0.698656	-0.128331	
1.50341	0.0161136	-0.058695	
0.0492736	-0.192156	-0.00499103	
0.125176	-0.164733	-0.00837069	
0.518826	-0.113833	-0.0348616	
-0.00962805	-0.20644	0.00256217	
-0.0482925	-0.206442	0.00600719	
0.000214619	-0.204749	0.000107292	
-0.0148304	-0.207977	0.00363012	
0.155446	-0.132454	-0.00416347	
0.14977	-0.159996	-0.0110392	
0.512275	-0.0634569	-0.0260672	
0.049528	-0.210471	-0.00756241	
0.0388318	-0.182347	0.00041059	
0.0254654	-0.205339	-0.0026256	
-0.000483483	-0.150634	0.00768479	
0.247695	-0.187375	-0.0278614	
0.0448737	-0.192291	-0.00508697	
-0.0695427	-0.204203	0.0104009	
0.0706957	-0.204268	-0.0105961	
-0.0295083	-0.194515	0.00728947	
0.000983264	-0.191196	0.00108763	
-0.000779981	-0.204887	-3.03332e-05	
-0.000540996	-0.189707	0.00407738	
0.00212387	-0.201627	7.89386e-06	
0.00507314	-0.209097	-0.00171936	
0.000852633	-0.204626	0.000217511	
0.00219264	-0.102048	0.00893148	
0.000509576	-0.177061	0.0068732	
-0.0488551	-0.209645	0.0052745	
-0.145769	-0.165527	0.0116642	
-0.021602	-0.208708	0.00412105	
0.124877	-0.205942	-0.0158251	
0.032221	-0.210198	-0.00245092	
-0.26757	-0.143469	0.0196963	
-1.27339	-0.087266	0.132608	
-0.0743129	-0.212048	0.0102985	
-0.0289084	-0.183014	-0.00239847	
0.0789259	-0.207792	-0.00881456	
-1.54141e-05	-0.205602	0.000452461	
-0.177857	-0.154118	0.0103765	
-0.247751	-0.188518	0.0269931	
-0.0906428	-0.194325	0.0118958	
0.0522873	-0.202021	-0.0086585	
-0.0875443	-0.206243	0.0128203	
-0.05998	-0.196332	0.00487071	
0.0282669	-0.192895	-0.00643871	
-3.07031e-05	-0.192286	-0.0017377	
-2.81436e-05	-0.200999	0.00127414	
0.000934898	-0.159956	-0.0100056	
0.000648706	-0.189979	-0.00450129	
-0.00118296	-0.20283	-0.00117452	
-0.725464	-0.0396639	0.0444091	
-0.373379	-0.132831	0.0392598	
-0.000563436	-0.177558	-0.00754562	
-0.000762678	-0.206188	-0.000259328	
-0.000587352	-0.102957	-0.0178897	
2.50345	0.0673857	0.0251162	
0.0867093	-0.0593585	0.00397006	
0.244915	-0.0440275	0.0151991	
0.90572	-0.00843216	0.0503558	
-0.0255869	-0.0693005	-0.00042317	
-0.0594614	-0.070646	-0.00202069	
-3.81724e-05	-0.068856	-0.000145991	
-0.0290095	-0.0706783	-0.00051861	
0.289633	-0.0294672	0.0249222	
0.272816	-0.0417961	0.024752	
0.871495	0.0056301	0.0151099	
0.0766689	-0.0731911	0.00178863	
0.0873344	-0.055013	0.00632126	
0.0409541	-0.0706766	0.00136749	
0.000310675	-0.0416545	0.0049026	
0.41728	-0.0541095	0.0193275	
0.0934254	-0.0602272	0.00353375	
-0.101545	-0.0700059	-0.00186594	
0.132418	-0.0681204	0.0032605	
-0.0391041	-0.0609186	9.9473e-05	
0.000113025	-0.0605591	0.000785167	
9.79953e-05	-0.0710042	0.000217771	
0.000333308	-0.0590689	0.00213993	
8.94189e-05	-0.0658818	0.000369068	
0.0099301	-0.0724951	3.05894e-05	
7.80252e-05	-0.0693838	0.000509652	
0.000727908	-0.0266314	0.00452175	
0.000373899	-0.0537325	0.00342903	
-0.0729115	-0.072623	-0.00208234	
-0.281612	-0.0436132	-0.00884661	
-0.0306348	-0.0697352	-0.000278747	
0.201065	-0.0689556	0.00422547	
0.0525225	-0.0701886	0.00220913	
-0.486039	-0.0289923	-0.0293463	
-2.19822	0.0325592	-0.0283587	
-0.138283	-0.0736524	-0.00297754	
-0.0718769	-0.0553582	-0.00431324	
0.110946	-0.0689013	0.00440972	
4.03187e-05	-0.0710004	0.000365513	
-0.318178	-0.0369185	-0.0196442	
-0.41709	-0.0540427	-0.0148098	
-0.166552	-0.05974	-0.00570797	
0.0815068	-0.0635535	0.00161468	
-0.143717	-0.0668477	-0.00413106	
-0.110573	-0.0601192	-0.00524364	
0.0424542	-0.0599248	0.000157128	
-0.0001115	-0.0603779	-0.0011036	
-3.74087e-06	-0.0646273	0.000290147	
-0.00036524	-0.0457	-0.00438882	
-0.000387096	-0.0591089	-0.00221657	
-0.000124704	-0.0646042	-0.000733396	
1.16831	-0.0098172	-0.0192737	
-0.66226	-0.0167638	-0.02395	
-0.000375272	-0.0537023	-0.00329172	
-7.56708e-05	-0.0660914	-0.000145348	
-0.000802107	-0.0286604	-0.00248964	
3.29588	0.0446443	0.156168	
0.135378	0.0830504	-0.00163302	
0.326312	0.0854839	0.0041594	
1.12152	0.0868439	0.0184942	
-0.0209592	0.0768583	-0.000410274	
-0.0818881	0.0760903	-0.00519146	
8.19831e-05	0.0759876	-0.000509925	
-0.0351436	0.0779571	0.0015261	
0.360368	0.0792704	0.00145845	
0.361574	0.0844694	0.00615496	
1.09425	0.0529358	0.0350508	
0.113992	0.0750194	-0.000574703	
0.108626	0.0868919	0.00563311	
0.058474	0.0783674	0.00489925	
-0.000435302	0.0791139	-0.00835271	
0.581682	0.0945069	0.0393175	
0.15234	0.0811425	-0.00225083	
-0.128928	0.0809585	-0.00230489	
0.183151	0.0782025	0.0091518	
-0.0529107	0.0856854	-0.00934932	
0.000598808	0.0825061	-0.00661062	
-8.50878e-05	0.0780925	0.0017136	
-0.000392763	0.0863674	-0.00322753	
2.55638e-05	0.0810423	-0.00194936	
0.0173182	0.075503	3.40695e-05	
-0.000121611	0.0790394	0.00139477	
-0.00106621	0.0514436	-0.0072977	
-0.0012067	0.0846722	-0.000472674	
-0.0982187	0.0748946	0.000227163	
-0.37904	0.088078	-0.00418628	
-0.0715946	0.0751936	-0.00601263	
0.281596	0.0739125	0.017173	
0.0651547	0.077804	-0.00243466	
-0.574652	0.086448	-0.0294463	
-2.78786	0.0662922	-0.132809	
-0.193745	0.0731472	-0.00334007	
-0.0896491	0.0876993	-0.00373179	
0.152078	0.0779574	-0.00271572	
-7.18316e-05	0.073829	-3.05992e-05	
-0.42273	0.08628	-0.0230429	
-0.578976	0.094202	-0.0364673	
-0.247875	0.084923	0.000278152	
0.0966817	0.082098	0.0033422	
-0.21413	0.0809993	-0.0111866	
-0.159541	0.0875936	-0.00124679	
0.0562942	0.0852365	0.00852769	
-0.000541469	0.0847441	0.00617201	
-0.000171147	0.078422	0.000252125	
0.000435333	0.0828547	0.00474155	
0.000265138	0.0874332	0.00428059	
0.000213584	0.0842048	0.000861068	
1.59196	-0.0189418	0.0475339	
-0.806041	0.0834755	-0.0328354	
0.00123637	0.0858256	0.00162541	
0.000116212	0.0815435	-0.000580798	
0.000835075	0.0485942	0.00366037	
5.7041	-0.0952421	0.293606	
-2.03263	-0.413175	-0.179045	
0.621117	-0.425528	0.166928	
1.5663	-0.124086	0.0798195	
1.95029	-0.440692	0.136499	
-1.7831	-0.546907	-0.1171	
-0.000554747	-0.554141	-0.00420009	
-0.615598	-0.322592	0.00915375	
0.628131	-0.0979944	0.0491601	
1.1468	-0.201514	0.114088	
-0.252889	-0.268124	-0.000751607	
-0.104871	-0.366263	-0.0178675	
3.07275	-0.354846	0.248128	
0.768175	-0.400035	0.0944195	
-0.00273101	-0.111283	0.0260649	
0.825506	-0.550512	0.145932	
-0.981659	-0.237152	-0.107713	
0.162899	-0.122119	0.0149558	
1.45555	-0.249531	0.126607	
-0.333057	-0.52608	-0.056235	
0.00969813	-0.267345	-0.0507638	
-0.00717788	-0.310103	0.0413158	
-0.00379447	-0.555157	0.0232126	
0.00206255	-0.143507	-0.00984577	
0.0182222	-0.340536	0.00862313	
-0.00270858	-0.179451	0.0190335	
-0.000368425	-0.0814206	0.0087992	
-0.00933474	-0.205701	0.0644114	
0.0942537	-0.340388	0.0164738	
-0.454401	-0.527801	-0.17377	
-2.35078	-0.433877	-0.183368	
0.4085	-0.536442	-0.00958436	
0.00223757	-0.285264	-0.0312562	
-1.03945	-0.212763	-0.111407	
-3.6424	-0.445576	-0.265197	
1.30057	-0.365828	0.0807595	
-2.75417	-0.403882	-0.211824	
0.182349	-0.271979	-0.00511081	
0.000887729	-0.534603	0.00593336	
-1.17326	-0.241919	-0.139458	
-0.797515	-0.601002	-0.100716	
0.683913	-0.260456	0.0672685	
-1.22872	-0.399362	-0.0834834	
0.34769	-0.356919	0.00393352	
1.46672	-0.575151	0.110036	
0.999059	-0.422702	0.12613	
-0.00828233	-0.299939	0.03179	
0.00236516	-0.27097	-0.013021	
0.0113665	-0.28579	-0.069419	
0.00041547	-0.600204	0.00382951	
-0.00132757	-0.193737	0.00453614	
2.12217	0.163028	0.0539988	
-1.25167	-0.2019	-0.108209	
0.0115927	-0.287186	-0.0723689	
0.00170231	-0.344433	-0.0179841	
0.00207959	-0.165714	-0.0223197	
4.43016	0.24976	0.296321	
0.0496546	0.575728	-0.0322873	
0.552438	0.665914	0.00799869	
1.27477	0.423169	0.093865	
1.20167	0.720377	0.0710717	
-0.908246	0.766812	-0.102722	
-0.000325865	0.73733	-0.0199532	
-0.291687	0.627347	-0.0580604	
0.379271	0.421337	-0.0018437	
0.661374	0.518284	0.0335345	
1.14869	0.495767	0.0741957	
0.806156	0.622412	0.0870769	
0.714916	0.602464	0.0384479	
0.491014	0.66599	0.033553	
-0.000254925	0.452954	-0.0409912	
1.25814	0.824911	0.0780615	
-0.639414	0.527981	-0.0804636	
-0.268322	0.485898	-0.0253621	
0.800588	0.585325	0.083294	
-0.174589	0.778565	-0.0739033	
0.00362628	0.539472	-0.0200849	
-0.00199992	0.619522	-0.0245726	
0.00257119	0.802905	-0.0466443	
0.00424366	0.497141	0.00414357	
0.0121891	0.539284	0.00308624	
1.92641e-05	0.539515	-0.00120474	
-0.000356604	0.359414	-0.0224443	
0.00363269	0.543365	-0.0256365	
-0.794324	0.544476	-0.0612924	
-0.456355	0.689266	-0.0038159	
-1.42599	0.703154	-0.127788	
0.92969	0.726371	0.0764216	
0.0750371	0.595985	0.0137742	
-0.741038	0.408983	-0.0315134	
-2.89356	0.642582	-0.218612	
-0.0364547	0.618274	0.0319735	
-0.441393	0.614536	-0.0294347	
-0.167238	0.582358	-0.0160588	
0.0018213	0.767112	0.0138146	
-0.692138	0.483135	-0.0119299	
-1.20094	0.833574	-0.0585789	
0.444902	0.544423	0.039997	
-0.322496	0.63837	-0.0487939	
0.334542	0.658065	0.0343988	
-0.549165	0.787302	-0.00966741	
0.85212	0.582225	0.12403	
-0.00236259	0.55144	0.00674202	
-0.00118347	0.614713	0.0171298	
-0.000741939	0.5409	0.0424054	
-4.06459e-06	0.809887	0.0479073	
-0.00279646	0.524463	-0.0183439	
3.03241	-0.287073	0.20022	
-1.50499	0.441171	-0.12944	
-0.00423527	0.559213	0.0341438	
-0.00237422	0.632064	-0.00781334	
-0.000689281	0.426186	0.032002	
2.95925	0.0857703	0.205512	
0.450476	0.325814	0.0432559	
0.37694	0.316485	0.0222233	
0.996089	0.189143	0.0861866	
0.685844	0.348548	0.059017	
-0.312116	0.346424	-0.0410291	
0.000159997	0.38459	-0.00974065	
-0.352052	0.327034	-0.0517492	
0.147719	0.201473	0.00612447	
0.367697	0.254284	0.0239528	
1.10281	0.142365	0.0837844	
1.22485	0.325785	0.146992	
0.547617	0.286237	0.0467791	
0.408428	0.324398	0.0429742	
-6.7847e-05	0.224009	-0.00887324	
0.86095	0.301448	0.0761728	
-0.447561	0.283714	-0.0518189	
-0.402798	0.268276	-0.0450055	
0.523428	0.29476	0.057936	
0.0425875	0.329007	-0.00399747	
0.00103799	0.29406	-0.00349829	
-0.000252366	0.309042	-0.00314891	
0.00118975	0.348951	-0.0135048	
0.000849835	0.274721	-3.58808e-05	
0.00863861	0.306871	0.000805117	
0.000155646	0.280815	-0.00071016	
-7.77661e-05	0.16063	-0.00478956	
0.00116941	0.277187	-0.0108798	
-1.23048	0.310544	-0.130674	
-0.247677	0.355932	-0.00837635	
-0.934862	0.355217	-0.0928445	
0.587626	0.386888	0.0740215	
0.0979228	0.330772	0.0157721	
-0.56162	0.244701	-0.0417948	
-2.13164	0.170541	-0.175188	
-0.328443	0.32847	-0.0306232	
-0.364072	0.315685	-0.0278466	
-0.0971438	0.326567	-0.0142257	
0.00046312	0.348864	0.00750963	
-0.396404	0.258352	-0.0253041	
-0.822738	0.325228	-0.0807687	
0.392282	0.302979	0.0481832	
-0.0637982	0.364739	-0.0120662	
0.323075	0.322045	0.0353753	
-0.96609	0.347538	-0.101538	
0.60606	0.341407	0.0708217	
-0.00090444	0.309768	0.00267507	
-0.000147348	0.317757	-0.00153327	
-0.00101602	0.285881	0.0191105	
-0.00110258	0.370868	0.0137198	
-0.000464035	0.304277	-0.00473125	
1.78706	-0.0978138	0.121594	
-1.32014	0.238039	-0.127332	
-0.00171885	0.31179	0.0156761	
-0.000525156	0.32824	-0.00392068	
-0.00023965	0.1962	0.00980187	
2.44145	0.0408863	0.17342	
0.599593	0.166764	0.0479984	
0.307884	0.137712	0.0223941	
0.853719	0.0869029	0.066478	
0.448835	0.164488	0.0346185	
0.00771807	0.162025	-0.00170565	
0.000108748	0.178693	-0.00355516	
-0.424441	0.15523	-0.0402061	
-0.00088083	0.0942768	-0.0023463	
0.225578	0.117958	0.0142241	
1.10576	0.0633098	0.0831458	
1.54699	0.154846	0.131401	
0.494267	0.131497	0.0376632	
0.445062	0.153141	0.0373657	
6.82165e-05	0.105725	-0.00252173	
0.663245	0.13753	0.0501285	
-0.340138	0.145487	-0.0301818	
-0.504119	0.137805	-0.0455369	
0.447046	0.145515	0.0389674	
0.0842841	0.156841	0.00321781	
0.000276633	0.149265	-0.00147728	
8.1331e-05	0.150431	-0.0011531	
0.000304924	0.159444	-0.00472984	
0.00013749	0.139749	-3.37483e-05	
0.00523756	0.146434	0.000796409	
-1.44065e-05	0.142062	0.000102053	
2.22193e-05	0.0740589	-0.00129312	
0.000269057	0.127601	-0.00360426	
-1.57602	0.148185	-0.141932	
-0.166184	0.154657	-0.0102667	
-0.760605	0.168165	-0.0634567	
0.42662	0.179743	0.0420404	
0.102364	0.158907	0.0117344	
-0.45104	0.121566	-0.0323337	
-1.82662	0.0708126	-0.141049	
-0.495229	0.15654	-0.0387055	
-0.351208	0.144241	-0.0297441	
-0.0894702	0.157996	-0.00801948	
-1.48385e-05	0.163166	0.00326253	
-0.278792	0.123113	-0.0175937	
-0.632448	0.147644	-0.0544407	
0.365204	0.155555	0.0326957	
0.0540594	0.175463	0.0035347	
0.302701	0.157666	0.0262934	
-0.98271	0.165454	-0.0793774	
0.443631	0.175376	0.0398707	
-0.000207452	0.158091	0.000424842	
-6.82149e-05	0.155868	-0.00045707	
-0.000288801	0.133188	0.00540351	
-0.000356258	0.169012	0.00476941	
2.0921e-05	0.154701	-0.00149666	
1.33774	-0.0435447	0.0917662	
-1.17461	0.111537	-0.0981523	
-0.000499814	0.142637	0.00562103	
-1.919e-05	0.163015	-0.00214194	
-0.000131077	0.0855528	0.002918	
2.23923	0.0219515	0.15989	
0.580832	0.0935955	0.0439571	
0.271819	0.0674824	0.0192851	
0.818763	0.0472326	0.0615732	
0.406569	0.0773699	0.0301962	
0.189935	0.0748581	0.0138692	
6.22895e-06	0.0840037	-0.00126053	
-0.461641	0.0776812	-0.0387486	
-0.0662844	0.0486148	-0.00583149	
0.172646	0.0568807	0.0122244	
1.12865	0.0325412	0.0844573	
1.73105	0.0745245	0.132276	
0.445576	0.0663242	0.0330319	
0.421643	0.0785251	0.0326046	
2.34929e-05	0.0524881	-0.000911741	
0.570353	0.0693175	0.0418391	
-0.217626	0.080486	-0.0172668	
-0.480881	0.0703397	-0.0396378	
0.444165	0.0721505	0.0365418	
0.0875951	0.0800633	0.0055991	
7.93204e-05	0.0845961	-0.000633996	
1.988e-05	0.0731171	-0.000418407	
4.93757e-05	0.0796721	-0.00156983	
6.15978e-05	0.0760201	-0.000189614	
0.00390803	0.0752771	0.000450759	
-9.15487e-06	0.0705052	-0.000146648	
4.21774e-06	0.0396935	-0.000441872	
5.87876e-05	0.0619634	-0.00114648	
-1.77002	0.0771139	-0.137226	
-0.1258	0.074447	-0.00854216	
-0.793435	0.0795556	-0.060982	
0.318621	0.0845487	0.0280996	
0.0812448	0.0809169	0.00770217	
-0.445095	0.0662862	-0.0319573	
-1.72485	0.0348342	-0.129929	
-0.587564	0.0744583	-0.047678	
-0.319765	0.0710329	-0.0233012	
-0.0187459	0.082126	-0.00165771	
1.19605e-05	0.0750951	0.00136261	
-0.259105	0.0614218	-0.0175393	
-0.541891	0.0734058	-0.0427258	
0.29104	0.0846183	0.0232903	
0.0453263	0.0908131	0.00338316	
0.294415	0.0766911	0.0236717	
-0.865524	0.083838	-0.0650938	
0.356819	0.0965251	0.0279406	
-6.45567e-05	0.0879954	0.000257774	
-5.99743e-06	0.0769938	-0.000122833	
-6.25396e-05	0.0637829	0.00168772	
-4.81258e-05	0.0833998	0.00148432	
1.25292e-05	0.0821439	-0.000290376	
1.14494	-0.0225915	0.0777423	
-1.08963	0.0588067	-0.0851337	
-0.000112097	0.0681823	0.00163835	
-2.03087e-05	0.0810636	-0.000596804	
-2.97271e-05	0.0427356	0.00101994	
2.16181	0.0145664	0.157103	
0.622229	0.0597793	0.0460665	
0.220248	0.0447752	0.0171111	
0.791776	0.0290459	0.0599148	
0.357145	0.0493288	0.0293197	
0.351774	0.0479746	0.0262657	
4.28492e-05	0.0532369	-0.000811944	
-0.513033	0.0479375	-0.0400354	
-0.136736	0.031477	-0.0105374	
0.114545	0.0385779	0.0082426	
1.19123	0.0212657	0.0903139	
1.9779	0.0470968	0.13255	
0.400826	0.0468016	0.0301461	
0.461797	0.0479013	0.0346728	
9.82553e-06	0.0348136	-0.000345933	
0.545801	0.0488514	0.0404439	
-0.131565	0.0515983	-0.0099522	
-0.499384	0.0461271	-0.0398897	
0.470958	0.0466553	0.0373088	
0.107277	0.0529745	0.00736016	
3.81653e-05	0.0535513	-0.000344045	
1.86969e-05	0.0470548	-0.000233586	
2.94016e-05	0.0535055	-0.000820165	
2.00613e-05	0.0485128	-4.39709e-05	
0.00300639	0.043996	0.000229598	
-3.41179e-06	0.0464066	-0.000131601	
5.76115e-06	0.0248964	-0.000173815	
2.7921e-05	0.0433862	-0.000477399	
-2.02742	0.0450208	-0.142224	
-0.0762348	0.0493578	-0.00532127	
-0.799595	0.0508184	-0.0623874	
0.248662	0.0538488	0.0219552	
0.0724601	0.049346	0.00637176	
-0.436888	0.0439713	-0.0315685	
-1.67561	0.0234287	-0.127681	
-0.695788	0.0466043	-0.0509563	
-0.285944	0.0500994	-0.0215434	
-0.0173192	0.0497847	-0.00141371	
-5.06895e-05	0.0481875	0.000878745	
-0.237858	0.041228	-0.0162798	
-0.51059	0.051338	-0.0397771	
0.258604	0.0551325	0.0197718	
0.0437673	0.0589418	0.00331559	
0.270789	0.0497978	0.0210574	
-0.84056	0.0555875	-0.0606152	
0.292387	0.0618489	0.0216752	
-2.82068e-05	0.0563133	0.00012578	
-3.2011e-06	0.0494106	-4.33556e-05	
-1.51095e-05	0.0433352	0.000680577	
-2.54336e-05	0.0561661	0.000776037	
1.60758e-05	0.0537071	-8.38923e-05	
1.05959	-0.0153403	0.0731722	
-1.04305	0.038621	-0.0812885	
-4.65236e-05	0.0472208	0.000642359	
-9.57983e-06	0.0532558	-0.000219554	
-1.80195e-05	0.0285178	0.000426576	
2.128	0.0105562	0.157231	
0.663924	0.0417223	0.0506785	
0.184643	0.0316145	0.0146098	
0.774756	0.0207323	0.0594453	
0.317884	0.0337315	0.0258547	
0.487672	0.0328364	0.0376262	
-6.07369e-06	0.0366326	0.000220546	
-0.568279	0.0329442	-0.0437486	
-0.198841	0.0228354	-0.0150868	
0.0709577	0.0274714	0.00546002	
1.26311	0.0154736	0.0971327	
2.22162	0.0321129	0.15832	
0.368845	0.0330557	0.0285981	
0.513058	0.032549	0.0392097	
-7.11832e-06	0.0251081	3.67172e-05	
0.534818	0.0342286	0.0410209	
-0.0700228	0.0369174	-0.00532146	
-0.504552	0.0326248	-0.0396126	
0.508174	0.0323352	0.0398866	
0.123803	0.0371887	0.00958888	
3.08059e-06	0.0377573	8.23268e-05	
1.4167e-06	0.0325381	9.7945e-05	
-1.36549e-05	0.0374983	0.000120058	
7.88663e-06	0.034768	-5.86432e-05	
0.00162503	0.0304245	7.00482e-05	
-6.0474e-06	0.0324335	-5.65485e-05	
-4.87632e-06	0.0179667	6.18407e-05	
-4.13256e-06	0.0305882	0.000137041	
-2.2795	0.0301509	-0.166692	
-0.0391557	0.0350507	-0.00314635	
-0.814258	0.034699	-0.0637629	
0.191501	0.0372096	0.0152378	
0.0621102	0.0338561	0.00484662	
-0.436363	0.0319136	-0.0331966	
-1.65109	0.0168974	-0.127235	
-0.791237	0.0319253	-0.059995	
-0.261704	0.0355109	-0.0204153	
-0.0263995	0.0343397	-0.00224752	
5.91405e-06	0.0331127	-0.000271432	
-0.229155	0.0297852	-0.0171703	
-0.499207	0.0362069	-0.039188	
0.2449	0.0392736	0.0187996	
0.0329766	0.0417578	0.00267002	
0.24688	0.0349612	0.0192051	
-0.830371	0.0388485	-0.0624117	
0.245777	0.0433552	0.0182428	
-6.75097e-06	0.0396986	-3.6659e-05	
-2.45586e-06	0.0345572	-1.19614e-05	
1.51996e-05	0.0310344	-6.17038e-05	
1.46187e-05	0.0393445	-0.000128449	
5.3047e-06	0.038395	0.000107056	
1.00486	-0.0112269	0.070639	
-1.01188	0.0276347	-0.0789933	
9.98929e-07	0.0335346	-0.000122997	
-9.23165e-06	0.0375969	-5.14767e-06	
9.4974e-06	0.0207238	-0.000105144	
				</DataArray>
				<DataArray type="Float64" Name="Time Step Shed" NumberOfComponents="1" Format="ascii">
3	
3	
3	
3	
3	
3	
3	
3	
3	
3	
3	
3	
3	
3	
3	
3	
3	
3	
3	
3	
3	
3	
3	
3	
3	
3	
3	
3	
3	
3	
3	
3	
3	
3	
3	
3	
3	
3	
3	
3	
3	
3	
3	
3	
3	
3	
3	
3	
3	
3	
3	
3	
3	
3	
3	
3	
4	
4	
4	
4	
4	
4	
4	
4	
4	
4	
4	
4	
4	
4	
4	
4	
4	
4	
4	
4	
4	
4	
4	
4	
4	
4	
4	
4	
4	
4	
4	
4	
4	
4	
4	
4	
4	
4	
4	
4	
4	
4	
4	
4	
4	
4	
4	
4	
4	
4	
4	
4	
4	
4	
4	
4	
5	
5	
5	
5	
5	
5	
5	
5	
5	
5	
5	
5	
5	
5	
5	
5	
5	
5	
5	
5	
5	
5	
5	
5	
5	
5	
5	
5	
5	
5	
5	
5	
5	
5	
5	
5	
5	
5	
5	
5	
5	
5	
5	
5	
5	
5	
5	
5	
5	
5	
5	
5	
5	
5	
5	
5	
6	
6	
6	
6	
6	
6	
6	
6	
6	
6	
6	
6	
6	
6	
6	
6	
6	
6	
6	
6	
6	
6	
6	
6	
6	
6	
6	
6	
6	
6	
6	
6	
6	
6	
6	
6	
6	
6	
6	
6	
6	
6	
6	
6	
6	
6	
6	
6	
6	
6	
6	
6	
6	
6	
6	
6	
7	
7	
7	
7	
7	
7	
7	
7	
7	
7	
7	
7	
7	
7	
7	
7	
7	
7	
7	
7	
7	
7	
7	
7	
7	
7	
7	
7	
7	
7	
7	
7	
7	
7	
7	
7	
7	
7	
7	
7	
7	
7	
7	
7	
7	
7	
7	
7	
7	
7	
7	
7	
7	
7	
7	
7	
8	
8	
8	
8	
8	
8	
8	
8	
8	
8	
8	
8	
8	
8	
8	
8	
8	
8	
8	
8	
8	
8	
8	
8	
8	
8	
8	
8	
8	
8	
8	
8	
8	
8	
8	
8	
8	
8	
8	
8	
8	
8	
8	
8	
8	
8	
8	
8	
8	
8	
8	
8	
8	
8	
8	
8	
9	
9	
9	
9	
9	
9	
9	
9	
9	
9	
9	
9	
9	
9	
9	
9	
9	
9	
9	
9	
9	
9	
9	
9	
9	
9	
9	
9	
9	
9	
9	
9	
9	
9	
9	
9	
9	
9	
9	
9	
9	
9	
9	
9	
9	
9	
9	
9	
9	
9	
9	
9	
9	
9	
9	
9	
10	
10	
10	
10	
10	
10	
10	
10	
10	
10	
10	
10	
10	
10	
10	
10	
10	
10	
10	
10	
10	
10	
10	
10	
10	
10	
10	
10	
10	
10	
10	
10	
10	
10	
10	
10	
10	
10	
10	
10	
10	
10	
10	
10	
10	
10	
10	
10	
10	
10	
10	
10	
10	
10	
10	
10	
11	
11	
11	
11	
11	
11	
11	
11	
11	
11	
11	
11	
11	
11	
11	
11	
11	
11	
11	
11	
11	
11	
11	
11	
11	
11	
11	
11	
11	
11	
11	
11	
11	
11	
11	
11	
11	
11	
11	
11	
11	
11	
11	
11	
11	
11	
11	
11	
11	
11	
11	
11	
11	
11	
11	
11	
12	
12	
12	
12	
12	
12	
12	
12	
12	
12	
12	
12	
12	
12	
12	
12	
12	
12	
12	
12	
12	
12	
12	
12	
12	
12	
12	
12	
12	
12	
12	
12	
12	
12	
12	
12	
12	
12	
12	
12	
12	
12	
12	
12	
12	
12	
12	
12	
12	
12	
12	
12	
12	
12	
12	
12	
13	
13	
13	
13	
13	
13	
13	
13	
13	
13	
13	
13	
13	
13	
13	
13	
13	
13	
13	
13	
13	
13	
13	
13	
13	
13	
13	
13	
13	
13	
13	
13	
13	
13	
13	
13	
13	
13	
13	
13	
13	
13	
13	
13	
13	
13	
13	
13	
13	
13	
13	
13	
13	
13	
13	
13	
				</DataArray>
			</CellData>
			<Points>
				<DataArray type="Float64" Name="Position" NumberOfComponents="3" Format="ascii">
1.16029	1.95823	0.030249	
1.1997	1.03594	-0.0600426	
1.203	1.4682	-0.0537904	
1.19893	1.75103	-0.0302939	
1.2067	0.321737	-0.0624955	
1.21045	0.17718	-0.0525816	
1.21152	0.25151	-0.0506525	
1.20931	0.391954	-0.0591683	
1.19948	1.68057	-0.033405	
1.20106	1.53557	-0.0496217	
1.18352	1.88858	0.00959597	
1.2075	0.107924	-0.0596802	
1.20443	1.32204	-0.0517247	
1.21054	0.463881	-0.0586095	
1.19799	1.60894	-0.0440958	
1.20579	1.25065	-0.0495832	
1.19784	0.895053	-0.0668504	
1.21165	0.750271	-0.0401603	
1.21259	0.605804	-0.0412043	
1.20232	1.10812	-0.062238	
1.19976	0.964372	-0.0670276	
1.21315	0.53433	-0.0468035	
1.20374	1.18086	-0.0606891	
1.20757	0.823054	-0.0489668	
1.20404	0.0359482	-0.0616665	
1.212	0.67915	-0.054429	
1.19324	1.81904	-0.00832447	
1.20421	1.3976	-0.052884	
1.20381	-0.0374018	-0.0635806	
1.20443	-1.46692	-0.0504935	
1.20601	-0.322613	-0.0605251	
1.21293	-0.248152	-0.0491763	
1.20692	-0.394265	-0.0608753	
1.20537	-1.68184	-0.0289574	
1.18702	-1.89083	0.0194308	
1.20786	-0.110027	-0.0595215	
1.20712	-1.32429	-0.0499608	
1.20869	-0.465011	-0.0557332	
1.21135	-0.177924	-0.0487364	
1.20361	-1.60835	-0.0445871	
1.20867	-1.25093	-0.0503098	
1.20024	-0.89408	-0.0633799	
1.20935	-0.75164	-0.0511307	
1.20943	-0.607985	-0.0450371	
1.20544	-1.10683	-0.0586998	
1.20045	-1.03719	-0.0578488	
1.20269	-0.965	-0.0641099	
1.20882	-0.535736	-0.0569656	
1.19707	-1.53739	-0.0586655	
1.20669	-1.17964	-0.0565703	
1.20604	-0.824111	-0.0549595	
1.16267	-1.96404	0.036755	
1.203	-1.75092	-0.020921	
1.20625	-1.39782	-0.053368	
1.20675	-0.679028	-0.060877	
1.19897	-1.82267	-0.00200812	
1.05901	1.96048	0.0177923	
1.09149	1.03256	0.0400205	
1.08146	1.46074	0.024926	
1.07149	1.74288	0.0086391	
1.09249	0.322061	0.0490945	
1.09348	0.176554	0.0489248	
1.09329	0.251203	0.0507035	
1.09186	0.392277	0.0475005	
1.06514	1.67366	-0.00702836	
1.06888	1.53104	0.00144456	
1.06365	1.88672	0.00844559	
1.09432	0.108896	0.051524	
1.08093	1.31967	0.0281457	
1.0906	0.459441	0.0451029	
1.07765	1.60157	0.0152534	
1.08125	1.2439	0.0320621	
1.0891	0.894258	0.040219	
1.08274	0.748996	0.0375338	
1.08765	0.602254	0.0435129	
1.08967	1.10681	0.0399521	
1.08894	0.962089	0.0385441	
1.09005	0.532026	0.04686	
1.08678	1.17758	0.0368745	
1.08837	0.821919	0.0412291	
1.09386	0.0383424	0.0501065	
1.09004	0.676581	0.0486162	
1.06463	1.81625	-0.000270974	
1.08358	1.38932	0.0310664	
1.09584	-0.0373405	0.054469	
1.07906	-1.46141	0.0251669	
1.09238	-0.323102	0.0512114	
1.09074	-0.249264	0.0519293	
1.09035	-0.39464	0.0490196	
1.07138	-1.67391	0.0146548	
1.065	-1.89117	0.0260909	
1.09409	-0.108727	0.0526608	
1.08491	-1.32071	0.039994	
1.08778	-0.466777	0.046391	
1.0926	-0.17612	0.0507874	
1.07785	-1.60113	0.0240564	
1.08312	-1.25112	0.0392942	
1.08779	-0.892251	0.0419777	
1.0848	-0.750258	0.0426302	
1.08661	-0.604164	0.0424487	
1.08875	-1.10371	0.0407067	
1.08845	-1.03321	0.0399586	
1.08897	-0.961837	0.0436231	
1.0878	-0.532228	0.0461772	
1.08395	-1.52828	0.0298352	
1.09093	-1.17546	0.0445108	
1.08737	-0.82297	0.0427389	
1.05985	-1.96732	0.0256099	
1.07194	-1.74554	0.0202241	
1.08344	-1.39108	0.0364138	
1.09091	-0.678657	0.0498966	
1.06923	-1.81873	0.0220536	
0.822882	1.9629	-0.0197386	
0.75563	1.03417	-0.0538319	
0.759094	1.46405	-0.0650638	
0.762207	1.75012	-0.0686545	
0.755163	0.317388	-0.0401078	
0.754733	0.178432	-0.0336297	
0.753543	0.249329	-0.0346261	
0.753667	0.390472	-0.0333314	
0.761664	1.67645	-0.074612	
0.760286	1.53235	-0.0706606	
0.764545	1.88876	-0.0382216	
0.754614	0.106219	-0.0354495	
0.757283	1.31861	-0.0573643	
0.754604	0.46476	-0.0384883	
0.761028	1.60233	-0.0736862	
0.756478	1.24626	-0.0547388	
0.755107	0.892606	-0.045214	
0.754214	0.748761	-0.0348042	
0.754472	0.602815	-0.035657	
0.756499	1.10566	-0.0570938	
0.755702	0.963194	-0.0511269	
0.755317	0.534695	-0.039221	
0.755307	1.17766	-0.0559584	
0.754328	0.819853	-0.0388689	
0.755202	0.033992	-0.0369835	
0.754462	0.678852	-0.0343618	
0.762519	1.81602	-0.052878	
0.758392	1.39348	-0.0597262	
0.754957	-0.036669	-0.0372497	
0.757891	-1.4606	-0.0527919	
0.753947	-0.319533	-0.0319515	
0.75346	-0.251854	-0.0279063	
0.75377	-0.393653	-0.0322599	
0.75982	-1.67722	-0.046034	
0.762455	-1.89445	-0.0119753	
0.754203	-0.10947	-0.0340525	
0.756226	-1.32129	-0.0456933	
0.752624	-0.465258	-0.0352029	
0.75356	-0.177903	-0.0269411	
0.759821	-1.60383	-0.0524149	
0.756256	-1.24848	-0.0444063	
0.753958	-0.892878	-0.0429456	
0.754271	-0.75137	-0.0375487	
0.753919	-0.611387	-0.0366574	
0.756179	-1.10388	-0.051041	
0.754713	-1.03356	-0.0466007	
0.754124	-0.965015	-0.0450545	
0.754258	-0.538037	-0.0407255	
0.759647	-1.53227	-0.0529124	
0.755069	-1.17675	-0.0464847	
0.753819	-0.821995	-0.0386522	
0.822317	-1.96743	-0.0119018	
0.759596	-1.74766	-0.0348883	
0.758287	-1.39039	-0.0462485	
0.754163	-0.682691	-0.0371385	
0.760706	-1.82204	-0.022136	
0.590925	1.96439	-0.0432072	
0.495061	1.0346	-0.119974	
0.493561	1.46638	-0.123585	
0.490488	1.75492	-0.109609	
0.495282	0.320204	-0.103931	
0.492249	0.178462	-0.0978868	
0.493912	0.250263	-0.102423	
0.494057	0.394038	-0.103793	
0.491693	1.6816	-0.11976	
0.493556	1.53804	-0.125815	
0.486418	1.8928	-0.07476	
0.493012	0.10466	-0.0987829	
0.493007	1.32455	-0.124526	
0.493617	0.463149	-0.101185	
0.493124	1.61103	-0.125964	
0.493548	1.25165	-0.125692	
0.494357	0.89242	-0.105719	
0.493649	0.751847	-0.0992405	
0.492736	0.606149	-0.0965215	
0.494409	1.10575	-0.123942	
0.494511	0.964413	-0.112697	
0.494949	0.536423	-0.10004	
0.494172	1.17988	-0.127166	
0.495079	0.820908	-0.105587	
0.494058	0.0330706	-0.0976773	
0.493569	0.678945	-0.0962662	
0.48849	1.82149	-0.0916646	
0.492812	1.39574	-0.124328	
0.494504	-0.036505	-0.0984655	
0.492718	-1.46131	-0.108835	
0.493613	-0.322697	-0.0966378	
0.493	-0.251145	-0.0956305	
0.493608	-0.396711	-0.0976972	
0.489737	-1.68426	-0.0931868	
0.484573	-1.8923	-0.0563599	
0.493434	-0.109907	-0.0980692	
0.491988	-1.32488	-0.110464	
0.493506	-0.466158	-0.0975755	
0.492344	-0.179598	-0.0941005	
0.491646	-1.61107	-0.106166	
0.493567	-1.2507	-0.114685	
0.493917	-0.891787	-0.101641	
0.494468	-0.752679	-0.102373	
0.491988	-0.60793	-0.0980977	
0.493571	-1.11046	-0.114231	
0.494472	-1.03677	-0.110883	
0.494009	-0.96467	-0.105014	
0.49385	-0.538157	-0.098099	
0.492202	-1.53753	-0.108833	
0.493764	-1.17972	-0.115182	
0.494557	-0.822169	-0.10324	
0.590065	-1.96561	-0.0355532	
0.490498	-1.74801	-0.0847232	
0.492304	-1.39457	-0.109103	
0.494337	-0.680341	-0.0990326	
0.486994	-1.82198	-0.0647336	
0.360011	1.96658	-0.0688905	
0.208321	1.03594	-0.168591	
0.205944	1.46722	-0.14949	
0.202765	1.7525	-0.114307	
0.208705	0.322396	-0.159348	
0.208433	0.178013	-0.153776	
0.2102	0.250941	-0.163444	
0.206522	0.395447	-0.149624	
0.203038	1.6793	-0.125743	
0.203968	1.5398	-0.142528	
0.202313	1.89504	-0.0990092	
0.205644	0.107807	-0.13673	
0.20713	1.32439	-0.171554	
0.205639	0.465822	-0.141053	
0.203556	1.60747	-0.134467	
0.211111	1.25703	-0.196041	
0.203423	0.893021	-0.123791	
0.201728	0.748626	-0.108103	
0.203919	0.606744	-0.120471	
0.211481	1.1052	-0.193763	
0.20537	0.964012	-0.145424	
0.205324	0.53386	-0.131764	
0.212949	1.17992	-0.206495	
0.20217	0.821258	-0.110258	
0.205492	0.034475	-0.130749	
0.202843	0.676782	-0.111911	
0.20257	1.81741	-0.0998944	
0.205321	1.39191	-0.153644	
0.205952	-0.0374234	-0.134249	
0.207359	-1.46739	-0.149488	
0.207289	-0.325125	-0.144838	
0.209958	-0.252506	-0.158234	
0.204555	-0.397524	-0.125298	
0.203588	-1.67934	-0.120741	
0.201977	-1.89309	-0.0929521	
0.206609	-0.110696	-0.144983	
0.20734	-1.32293	-0.162613	
0.203611	-0.465539	-0.124167	
0.209251	-0.179156	-0.156665	
0.204836	-1.60846	-0.135061	
0.210922	-1.25612	-0.185865	
0.203773	-0.894332	-0.123365	
0.205029	-0.750029	-0.131444	
0.205499	-0.607836	-0.131154	
0.210693	-1.10731	-0.179807	