<VTKFile type="UnstructuredGrid" version="0.1" byte_order="LittleEndian">
	<UnstructuredGrid>
		<Piece NumberOfPoints="336" NumberOfCells="336">
			<CellData Scalars="scalars">
				<DataArray type="Float64" Name="Strength" NumberOfComponents="3" Format="ascii">
0.557696	-0.34934	-0.0953549	
0.0144036	-1.04354	-0.00469217	
0.0262626	-0.939242	0.00277797	
0.131847	-0.813171	0.00447428	
0.00329909	-1.0677	0.004997	
-0.0196864	-1.00636	0.00419439	
0.000770702	-1.05348	-0.00109391	
-0.00272826	-1.04963	0.00592186	
0.033079	-0.856481	0.0348347	
0.0372063	-0.91972	0.00364076	
0.15326	-0.567351	0.0172536	
0.0165101	-1.0263	-0.0061085	
0.00542906	-0.973022	0.010637	
0.00600719	-1.04336	-0.00580553	
0.00291026	-0.889841	0.0271573	
0.0722709	-0.963308	-0.0158981	
0.00916891	-1.04745	0.00237916	
-0.0197111	-1.01701	0.0130449	
0.0155777	-1.03533	-0.012997	
-0.0119151	-1.02987	0.0104747	
0.000556339	-1.03088	0.00214167	
-0.00174784	-1.02982	-0.00464603	
0.00355381	-1.04762	0.0115999	
0.00341648	-1.05523	0.00219668	
0.000487	-1.05471	-0.000928785	
0.00241913	-1.02509	0.00291827	
0.0136399	-0.712652	0.0615391	
0.00316922	-0.957568	0.0097348	
-0.0166763	-1.0557	0.00390526	
-0.0312308	-0.943769	-0.00254402	
-0.0139709	-1.06856	0.000773431	
0.0342543	-1.05522	-0.0122912	
0.00801834	-1.03884	-0.00240528	
-0.058897	-0.835338	-0.0264755	
-0.350511	-0.572014	0.0384893	
-0.0150024	-1.02677	0.00445359	
-0.0015665	-0.97709	-0.0125685	
0.0302311	-1.03993	-0.000776339	
0.00074371	-1.00827	0.00166801	
-0.0433385	-0.878624	-0.0137733	
-0.0726576	-0.964415	0.0147708	
-0.0213456	-1.05665	0.00264421	
0.0143516	-1.10276	-0.00972453	
-0.0276996	-1.02533	0.0147181	
-0.0123659	-1.03172	-0.00483608	
0.00768568	-1.0465	-0.00626083	
0.000855296	-1.03569	-0.00222791	
0.000350554	-1.07011	0.00772351	
-0.00165979	-0.917724	-0.0200819	
-0.00299139	-1.04914	-0.0153842	
-0.00495379	-1.07457	-0.00556586	
-0.337861	-0.350738	0.0375756	
-0.0945946	-0.814104	-0.0360838	
-0.00208942	-0.963091	-0.0108373	
-0.000195305	-1.05304	0.00352934	
-0.0111456	-0.705629	-0.0812622	
1.50423	-0.00643085	-0.0353603	
0.049717	-0.192087	-0.00291512	
0.125814	-0.164404	-0.00440998	
0.520427	-0.110131	-0.0195161	
-0.0097598	-0.206444	0.00163379	
-0.0487141	-0.206413	0.00260694	
0.00012684	-0.20475	3.89948e-06	
-0.014749	-0.208006	0.00198818	
0.156371	-0.131412	-0.00222386	
0.150952	-0.159182	-0.00525083	
0.512213	-0.0681321	-0.0115937	
0.0499722	-0.210471	-0.00364437	
0.0389357	-0.182327	2.81548e-05	
0.0261428	-0.205266	-0.00149806	
0.000610253	-0.150779	0.00375267	
0.249413	-0.186676	-0.0135599	
0.0438164	-0.192593	-0.00199951	
-0.0713082	-0.203788	0.00535106	
0.0713647	-0.20423	-0.00577757	
-0.0289202	-0.194716	0.00297931	
0.000260839	-0.191202	0.000525328	
-0.000213848	-0.204888	-0.00046054	
6.60916e-05	-0.189744	0.00173612	
0.000534062	-0.201638	0.000402603	
0.00518645	-0.209101	-0.000696256	
0.000276572	-0.204628	0.000393331	
0.00166422	-0.102289	0.00571413	
0.000341855	-0.177171	0.00296684	
-0.0491543	-0.209627	0.00254558	
-0.147067	-0.164678	0.00611303	
-0.0215233	-0.208752	0.00142563	
0.125899	-0.205776	-0.00782353	
0.0328138	-0.210115	-0.0016872	
-0.270724	-0.138475	0.00997351	
-1.2802	-0.0672912	0.0567014	
-0.0748614	-0.212046	0.00505387	
-0.0288075	-0.183044	-0.00105041	
0.0794669	-0.207739	-0.00372193	
-6.29307e-05	-0.205603	0.000391395	
-0.18048	-0.151277	0.00608463	
-0.249481	-0.187701	0.0132732	
-0.0908048	-0.194531	0.00569417	
0.0533904	-0.201867	-0.00450938	
-0.0878783	-0.206406	0.00626868	
-0.061394	-0.195936	0.00289361	
0.0278653	-0.193042	-0.00266359	
-7.22076e-05	-0.192293	-0.000643958	
5.32492e-05	-0.201003	0.000847384	
-8.38e-05	-0.160201	-0.00468195	
7.39333e-05	-0.190022	-0.00205122	
-0.000429411	-0.202835	-0.000931706	
-0.726406	-0.0344251	0.0313943	
-0.377688	-0.124817	0.0192509	
-0.000307041	-0.177688	-0.00331786	
-0.000198658	-0.20619	-0.000121408	
-0.00086603	-0.10411	-0.0089573	
2.50397	0.0187223	0.0443233	
0.0865563	-0.059623	0.00327191	
0.244853	-0.0456982	0.0104298	
0.90627	-0.0211323	0.0335771	
-0.0255621	-0.0693092	-0.000561368	
-0.0594391	-0.0706593	-0.00214632	
-1.92651e-05	-0.0688576	-0.000116641	
-0.029013	-0.0706761	-0.000658894	
0.289956	-0.03302	0.0144403	
0.273166	-0.0442842	0.0142845	
0.871212	-0.0124234	0.0237622	
0.0766827	-0.0731591	0.00232734	
0.0870441	-0.0556741	0.00418776	
0.040897	-0.0707108	0.0013702	
0.000158192	-0.0418845	0.00223516	
0.417064	-0.0568442	0.0154502	
0.0933242	-0.0603954	0.00329834	
-0.101546	-0.0699663	-0.00273062	
0.132333	-0.0682456	0.00386604	
-0.0392537	-0.0608171	-0.000662286	
9.82424e-06	-0.0605648	0.00031978	
2.33692e-05	-0.0710061	6.65613e-05	
9.36101e-05	-0.0591012	0.00100085	
9.49945e-06	-0.065884	0.000185032	
0.00997926	-0.0724897	0.000233064	
2.46331e-05	-0.0693864	0.000317215	
0.000223155	-0.0269441	0.00205664	
0.000121037	-0.0538247	0.00144423	
-0.0728307	-0.0726954	-0.00229226	
-0.281302	-0.0453102	-0.00993007	
-0.0307635	-0.0696753	-0.0008114	
0.200911	-0.0692464	0.00591252	
0.0524138	-0.0702792	0.0018371	
-0.485987	-0.0351146	-0.0225887	
-2.19755	-0.00178468	-0.0675924	
-0.138194	-0.0737628	-0.00391069	
-0.0715287	-0.0558755	-0.00334661	
0.110876	-0.0690276	0.00402126	
2.09732e-05	-0.0710026	0.000223854	
-0.31803	-0.0402049	-0.0149299	
-0.416702	-0.0568558	-0.0148745	
-0.166428	-0.0600799	-0.00559161	
0.0815554	-0.063467	0.0021887	
-0.143658	-0.0669356	-0.00453364	
-0.110387	-0.0605293	-0.00433477	
0.0426035	-0.0598095	0.000929175	
-1.51749e-05	-0.0603876	-0.000444421	
1.2878e-05	-0.0646292	0.000108849	
-0.000136576	-0.0458713	-0.00192761	
-0.00010718	-0.059144	-0.00100547	
-3.24082e-05	-0.0646084	-0.000412883	
1.16847	0.0034368	-0.00043294	
-0.661846	-0.0279027	-0.0246406	
-9.51199e-05	-0.0537874	-0.00137633	
-8.88466e-06	-0.0660929	-5.79442e-05	
-0.000267745	-0.0287551	-0.00115044	
3.29632	0.02336	0.149526	
0.13494	0.0836355	0.00459313	
0.326837	0.0826198	0.0120966	
1.12201	0.0721083	0.0388825	
-0.0208434	0.0768857	-0.00108656	
-0.0820257	0.0760031	-0.00417663	
2.69699e-05	0.0759915	-0.000121483	
-0.0347603	0.0781389	-0.00112963	
0.360962	0.0757358	0.0104602	
0.361776	0.0830333	0.0112307	
1.09416	0.0414625	0.0493647	
0.113492	0.0756585	0.0040181	
0.109692	0.0855764	0.00488252	
0.0588134	0.0781992	0.00319176	
-0.00022141	0.0794911	-0.00321921	
0.583152	0.088356	0.0303204	
0.151863	0.0818963	0.00496685	
-0.128842	0.0809316	-0.00559634	
0.183225	0.0779655	0.00940595	
-0.053155	0.0859334	-0.00445799	
0.000107474	0.0827604	-0.00157866	
-3.05307e-05	0.0781133	0.000375159	
-8.21846e-05	0.0864216	-0.00123297	
2.266e-05	0.0810665	-0.000532638	
0.017146	0.0755416	0.000637757	
-4.46569e-05	0.0790544	0.000148596	
-0.000310112	0.0519139	-0.00243908	
-0.00020933	0.0846794	-0.00090792	
-0.0979804	0.0751205	-0.00348617	
-0.379599	0.0842785	-0.0151882	
-0.0717756	0.0751517	-0.00401378	
0.28173	0.0738619	0.0147402	
0.0649638	0.0779817	0.00181998	
-0.575705	0.0794505	-0.0280154	
-2.78743	0.0428781	-0.14886	
-0.193326	0.0738524	-0.00807395	
-0.0908541	0.0864316	-0.00394646	
0.151868	0.0782665	0.00467214	
-2.27218e-05	0.0738313	-0.000114861	
-0.423448	0.0836113	-0.0188859	
-0.580103	0.0890332	-0.0306184	
-0.247729	0.0848492	-0.00885889	
0.0964989	0.0822476	0.00467211	
-0.214125	0.0810423	-0.0106639	
-0.159242	0.0878284	-0.00702582	
0.0566834	0.0853018	0.00431401	
-0.000108836	0.0849583	0.00166162	
-1.92634e-05	0.0784246	-0.000133468	
0.000213072	0.0829633	0.0021062	
5.96278e-05	0.0875257	0.00158404	
3.77362e-05	0.0842103	0.000452523	
1.59182	-0.011815	0.0525585	
-0.806808	0.0722171	-0.0391786	
0.000191842	0.0858462	0.000921824	
8.40051e-06	0.0815479	-0.000115572	
0.000239083	0.0487114	0.00162312	
5.70347	-0.102638	0.299482	
-2.04369	-0.377778	-0.118638	
0.635686	-0.431792	0.0659187	
1.56635	-0.121318	0.0820557	
1.95491	-0.427636	0.106137	
-1.78578	-0.541887	-0.0948679	
-9.37552e-05	-0.554182	0.00131572	
-0.610105	-0.332395	-0.0203963	
0.629384	-0.0955055	0.0358161	
1.15262	-0.188541	0.0663646	
-0.252855	-0.267814	-0.0129273	
-0.107251	-0.365924	-0.0087292	
3.08376	-0.289669	0.18559	
0.776059	-0.391917	0.0555535	
-0.000360113	-0.114213	0.00659291	
0.838707	-0.545405	0.0705763	
-0.988635	-0.222375	-0.06656	
0.163269	-0.122059	0.0107995	
1.46005	-0.236451	0.0941064	
-0.338755	-0.524797	-0.0251607	
0.00117287	-0.272073	-0.013222	
-0.000969791	-0.312827	0.0112268	
-4.62591e-05	-0.555647	0.00767286	
0.00025358	-0.143851	-0.00236608	
0.0182127	-0.340652	0.00245101	
-0.000355401	-0.180436	0.00501968	
-5.21482e-05	-0.081888	0.00213268	
-0.00124244	-0.215349	0.0167357	
0.0958715	-0.340279	0.00672775	
-0.475836	-0.534196	-0.0609372	
-2.35849	-0.407516	-0.135099	
0.403436	-0.540216	0.0140272	
-0.00260055	-0.286893	-0.00825935	
-1.04517	-0.202246	-0.0693038	
-3.64478	-0.440376	-0.238442	
1.30186	-0.36269	0.0715386	
-2.76412	-0.352187	-0.168186	
0.179088	-0.274116	0.00664106	
-2.28447e-06	-0.534662	0.000708519	
-1.18208	-0.226077	-0.0765495	
-0.807414	-0.593007	-0.0625126	
0.688172	-0.25348	0.0466919	
-1.22904	-0.400669	-0.0701951	
0.345815	-0.35845	0.0144743	
1.47432	-0.560419	0.0777427	
1.01111	-0.406828	0.0672519	
-0.000900394	-0.301654	0.00955247	
0.0002958	-0.271293	-0.00355463	
0.00107129	-0.293946	-0.0190898	
-0.000174508	-0.600235	-0.00253581	
-0.000139146	-0.193801	0.000873274	
2.12186	0.16224	0.0648831	
-1.25531	-0.191041	-0.0823279	
0.00145108	-0.296025	-0.0194462	
0.00030732	-0.344906	-0.00391032	
0.000384384	-0.167182	-0.00740058	
4.43027	0.245231	0.295955	
0.0486465	0.576722	-0.00247195	
0.550103	0.66616	0.0455972	
1.27824	0.413895	0.086263	
1.20459	0.715259	0.07106	
-0.911187	0.768244	-0.0527888	
0.000233989	0.737595	0.000188911	
-0.292449	0.629399	-0.0162012	
0.380021	0.419597	0.0276737	
0.660859	0.517406	0.0504187	
1.14913	0.493961	0.0776265	
0.810842	0.620436	0.0473803	
0.712519	0.603979	0.0538112	
0.494065	0.663534	0.0358376	
-0.00049949	0.454632	0.00455162	
1.25755	0.825325	0.0805171	
-0.645214	0.524772	-0.0489791	
-0.271352	0.484556	-0.0180568	
0.803924	0.583603	0.0582905	
-0.177541	0.781171	-0.0151738	
0.000655925	0.539864	-0.00527051	
-0.000269847	0.619961	0.00453566	
-0.000274056	0.804162	0.00209812	
0.000195134	0.49718	-0.00128504	
0.011654	0.539317	-0.000329481	
-0.000370639	0.539528	0.00196767	
-0.000352065	0.360028	0.00336209	
-0.000523765	0.543844	0.00904993	
-0.798059	0.540213	-0.048076	
-0.454753	0.689233	-0.0365262	
-1.42969	0.700898	-0.091976	
0.929757	0.7287	0.0472708	
0.0756911	0.596068	0.00163844	
-0.742341	0.404509	-0.0497799	
-2.89502	0.642733	-0.195341	
-0.0379057	0.619003	0.00211926	
-0.439796	0.615238	-0.0364433	
-0.167342	0.582328	-0.0159575	
-0.000198261	0.767245	-0.000485754	
-0.692822	0.479791	-0.0460023	
-1.20183	0.830908	-0.0731934	
0.45001	0.540736	0.0324548	
-0.320439	0.640838	-0.0212519	
0.33695	0.657412	0.0209948	
-0.550095	0.786241	-0.0264709	
0.856536	0.585839	0.0588252	
-0.000558682	0.551489	0.00441562	
-0.000135544	0.614951	0.000440795	
0.000699659	0.54237	-0.00552275	
0.000222386	0.8112	-0.000574289	
0.000121398	0.524781	3.74997e-06	
3.03197	-0.287671	0.204512	
-1.50975	0.431096	-0.103715	
0.000310243	0.560123	-0.00686382	
1.27529e-05	0.632124	-0.00238538	
0.000314602	0.427225	-0.00413166	
				</DataArray>
				<DataArray type="Float64" Name="Time Step Shed" NumberOfComponents="1" Format="ascii">
3	
3	
3	
3	
3	
3	
3	
3	
3	
3	
3	
3	
3	
3	
3	
3	
3	
3	
3	
3	
3	
3	
3	
3	
3	
3	
3	
3	
3	
3	
3	
3	
3	
3	
3	
3	
3	
3	
3	
3	
3	
3	
3	
3	
3	
3	
3	
3	
3	
3	
3	
3	
3	
3	
3	
3	
4	
4	
4	
4	
4	
4	
4	
4	
4	
4	
4	
4	
4	
4	
4	
4	
4	
4	
4	
4	
4	
4	
4	
4	
4	
4	
4	
4	
4	
4	
4	
4	
4	
4	
4	
4	
4	
4	
4	
4	
4	
4	
4	
4	
4	
4	
4	
4	
4	
4	
4	
4	
4	
4	
4	
4	
5	
5	
5	
5	
5	
5	
5	
5	
5	
5	
5	
5	
5	
5	
5	
5	
5	
5	
5	
5	
5	
5	
5	
5	
5	
5	
5	
5	
5	
5	
5	
5	
5	
5	
5	
5	
5	
5	
5	
5	
5	
5	
5	
5	
5	
5	
5	
5	
5	
5	
5	
5	
5	
5	
5	
5	
6	
6	
6	
6	
6	
6	
6	
6	
6	
6	
6	
6	
6	
6	
6	
6	
6	
6	
6	
6	
6	
6	
6	
6	
6	
6	
6	
6	
6	
6	
6	
6	
6	
6	
6	
6	
6	
6	
6	
6	
6	
6	
6	
6	
6	
6	
6	
6	
6	
6	
6	
6	
6	
6	
6	
6	
7	
7	
7	
7	
7	
7	
7	
7	
7	
7	
7	
7	
7	
7	
7	
7	
7	
7	
7	
7	
7	
7	
7	
7	
7	
7	
7	
7	
7	
7	
7	
7	
7	
7	
7	
7	
7	
7	
7	
7	
7	
7	
7	
7	
7	
7	
7	
7	
7	
7	
7	
7	
7	
7	
7	
7	
8	
8	
8	
8	
8	
8	
8	
8	
8	
8	
8	
8	
8	
8	
8	
8	
8	
8	
8	
8	
8	
8	
8	
8	
8	
8	
8	
8	
8	
8	
8	
8	
8	
8	
8	
8	
8	
8	
8	
8	
8	
8	
8	
8	
8	
8	
8	
8	
8	
8	
8	
8	
8	
8	
8	
8	
				</DataArray>
			</CellData>
			<Points>
				<DataArray type="Float64" Name="Position" NumberOfComponents="3" Format="ascii">
1.15118	1.9621	0.0242867	
1.2239	1.03556	-0.00458949	
1.21897	1.46619	-0.00679969	
1.19349	1.74918	0.0129266	
1.23056	0.321853	-0.0179243	
1.22909	0.17672	-0.00181608	
1.22929	0.251695	-0.000120523	
1.22961	0.392226	-0.0129089	
1.1961	1.68106	0.0139151	
1.21256	1.53406	-0.00115018	
1.16886	1.89112	0.0231907	
1.22929	0.107966	-0.0083952	
1.22117	1.32076	-0.00559358	
1.22921	0.463646	-0.0102453	
1.20362	1.60747	0.00463319	
1.22327	1.24969	-0.000739543	
1.22358	0.895112	-0.0195161	
1.21739	0.750656	0.00967023	
1.21958	0.605611	0.00898693	
1.2284	1.10734	-0.0143687	
1.22599	0.964083	-0.018437	
1.22436	0.534539	0.00359478	
1.22822	1.17891	-0.0130395	
1.21939	0.82345	0.00317214	
1.22724	0.0363716	-0.00460101	
1.22547	0.678342	-0.00948273	
1.17801	1.82004	0.0216235	
1.21997	1.39551	-0.00735676	
1.22866	-0.0368002	-0.00961403	
1.22012	-1.46559	-0.00182506	
1.22963	-0.323506	-0.0177013	
1.2303	-0.249721	-0.00222262	
1.22878	-0.394992	-0.0191534	
1.20018	-1.68018	0.0169875	
1.17443	-1.89122	0.0287725	
1.22956	-0.109125	-0.00969227	
1.22322	-1.32339	-0.00402122	
1.22771	-0.465169	-0.0113332	
1.22815	-0.177115	0.000181739	
1.21068	-1.60628	0.00337461	
1.22683	-1.24982	-0.00455808	
1.22484	-0.894005	-0.0148367	
1.22608	-0.751147	-0.00122957	
1.22263	-0.607734	0.00473354	
1.22928	-1.10627	-0.0105338	
1.22363	-1.03667	-0.00238878	
1.22732	-0.96434	-0.01626	
1.22812	-0.534886	-0.0129375	
1.21724	-1.53463	-0.0138638	
1.22921	-1.17889	-0.00906949	
1.22445	-0.823821	-0.00450628	
1.15467	-1.96495	0.0289411	
1.19351	-1.7482	0.0185186	
1.22324	-1.39668	-0.00885609	
1.22837	-0.678453	-0.0153947	
1.18599	-1.82163	0.0230815	
1.05813	1.96344	0.0112972	
1.08608	1.03368	0.0506906	
1.07912	1.46389	0.0423826	
1.06863	1.74692	0.0264315	
1.08766	0.322348	0.0587409	
1.08704	0.176883	0.0556626	
1.08781	0.251265	0.0592843	
1.0871	0.393071	0.0576759	
1.06278	1.67621	0.0128388	
1.06678	1.53345	0.0203719	
1.06189	1.89014	0.0153618	
1.08694	0.108333	0.0568969	
1.07873	1.31884	0.0437586	
1.08547	0.460556	0.0550483	
1.07506	1.60518	0.0345098	
1.07931	1.24709	0.0467467	
1.08394	0.895834	0.0491479	
1.07836	0.750186	0.0458487	
1.08298	0.605234	0.0521466	
1.08568	1.10721	0.0518504	
1.08362	0.963638	0.0490241	
1.08551	0.533528	0.0562887	
1.08382	1.17995	0.0515458	
1.08357	0.823319	0.0511011	
1.08469	0.0377351	0.0532973	
1.0865	0.676893	0.058752	
1.06222	1.81882	0.0146974	
1.08165	1.39213	0.0467576	
1.08722	-0.0369515	0.0583201	
1.07561	-1.46469	0.0382206	
1.08878	-0.32385	0.0599305	
1.08633	-0.249808	0.058912	
1.08761	-0.396183	0.057944	
1.06774	-1.67579	0.0273145	
1.06343	-1.89168	0.0257342	
1.08698	-0.108539	0.0571046	
1.08222	-1.32185	0.0509486	
1.08551	-0.468133	0.0569212	
1.08688	-0.17674	0.0559538	
1.07428	-1.60407	0.0374151	
1.08045	-1.25349	0.0516489	
1.08338	-0.894388	0.0502035	
1.08072	-0.750915	0.0502322	
1.08314	-0.606999	0.0513941	
1.0843	-1.10517	0.0520463	
1.08325	-1.03438	0.0495009	
1.08449	-0.962314	0.052492	
1.08549	-0.533622	0.0558663	
1.08011	-1.53168	0.0424311	
1.08745	-1.1782	0.0567266	
1.08315	-0.823178	0.0516536	
1.05864	-1.96609	0.0164006	
1.06858	-1.74679	0.0303976	
1.08063	-1.39331	0.0473461	
1.08778	-0.678089	0.0592586	
1.06681	-1.81973	0.0297234	
0.82309	1.96423	-0.0279476	
0.753782	1.03511	-0.0240748	
0.757043	1.4649	-0.0312285	
0.76083	1.74789	-0.0395333	
0.753947	0.318678	-0.0218478	
0.753791	0.178111	-0.0157674	
0.752519	0.249684	-0.0155432	
0.752796	0.390415	-0.0137784	
0.759847	1.67463	-0.0405995	
0.758105	1.53281	-0.0354369	
0.764317	1.8897	-0.0318717	
0.753596	0.105684	-0.0163948	
0.755501	1.32079	-0.0261916	
0.753421	0.464939	-0.0171091	
0.758959	1.60198	-0.0377771	
0.754817	1.24721	-0.0242156	
0.753785	0.894175	-0.0220282	
0.75325	0.749341	-0.0157309	
0.753499	0.60344	-0.0166514	
0.754679	1.1068	-0.0267765	
0.754028	0.964413	-0.0238008	
0.754106	0.536313	-0.0196101	
0.753392	1.1787	-0.0241927	
0.753197	0.820321	-0.0176593	
0.754113	0.0342754	-0.0177515	
0.753443	0.678327	-0.0159434	
0.761739	1.81611	-0.032492	
0.756543	1.39449	-0.028306	
0.753867	-0.036689	-0.0191409	
0.756289	-1.46179	-0.0289141	
0.753112	-0.320267	-0.0160069	
0.752812	-0.251801	-0.0122814	
0.753036	-0.393905	-0.0151098	
0.758936	-1.67619	-0.0306101	
0.762959	-1.89401	-0.0220708	
0.753289	-0.109128	-0.0166609	
0.754958	-1.32241	-0.023474	
0.751708	-0.46593	-0.0155315	
0.753026	-0.177831	-0.0127195	
0.75842	-1.60378	-0.0306182	
0.754983	-1.2495	-0.0213926	
0.752776	-0.893544	-0.0205735	
0.753345	-0.75107	-0.0188975	
0.75305	-0.610976	-0.0167765	
0.754537	-1.105	-0.0256551	
0.753255	-1.03418	-0.0213982	
0.752774	-0.965086	-0.0210684	
0.753211	-0.538091	-0.0214122	
0.758095	-1.5342	-0.0296703	
0.753588	-1.17796	-0.021532	
0.752878	-0.821492	-0.0191995	
0.822631	-1.96555	-0.0232914	
0.75923	-1.74712	-0.0273351	
0.757053	-1.39121	-0.0245579	
0.753203	-0.682124	-0.018819	
0.76087	-1.82096	-0.0236748	
0.591288	1.96584	-0.0535917	
0.493325	1.03414	-0.0932911	
0.492177	1.4635	-0.094491	
0.489591	1.74893	-0.092066	
0.493968	0.321297	-0.0879122	
0.491049	0.178011	-0.0820121	
0.492617	0.249907	-0.0856272	
0.492835	0.393806	-0.0875231	
0.490532	1.67564	-0.0935941	
0.492224	1.53373	-0.0960565	
0.486427	1.89154	-0.0786057	
0.491927	0.104615	-0.0838656	
0.491281	1.32317	-0.0930626	
0.492603	0.463272	-0.0870919	
0.491854	1.60526	-0.0966351	
0.491472	1.24945	-0.0909924	
0.493067	0.89244	-0.0863035	
0.492762	0.751124	-0.0873709	
0.491914	0.605947	-0.0846254	
0.492388	1.10543	-0.0924069	
0.493146	0.964011	-0.0911907	
0.49409	0.537799	-0.0866082	
0.492028	1.17859	-0.0926644	
0.494198	0.821994	-0.0916981	
0.4932	0.033765	-0.0851901	
0.492693	0.677913	-0.0845474	
0.487903	1.81842	-0.0846717	
0.491246	1.39375	-0.0940397	
0.493596	-0.0366957	-0.0874936	
0.491554	-1.46138	-0.0913539	
0.492594	-0.323075	-0.084727	
0.491949	-0.25247	-0.0836381	
0.492691	-0.397004	-0.0861936	
0.489269	-1.68207	-0.0863332	
0.485527	-1.89315	-0.0717123	
0.492418	-0.109358	-0.0847971	
0.490509	-1.32321	-0.0886928	
0.492677	-0.466921	-0.086429	
0.491232	-0.182009	-0.0835983	
0.490841	-1.60883	-0.0914289	
0.491916	-1.24955	-0.0907931	
0.492809	-0.891553	-0.0860013	
0.493576	-0.752078	-0.0902248	
0.491013	-0.608111	-0.085276	
0.491846	-1.1102	-0.0895697	
0.493063	-1.03624	-0.0903225	
0.492991	-0.964012	-0.0894385	
0.493035	-0.540394	-0.0854452	
0.491111	-1.53429	-0.0930766	
0.491947	-1.17899	-0.0893922	
0.493536	-0.821012	-0.0887985	
0.590887	-1.96655	-0.0505778	
0.490535	-1.74606	-0.0863629	
0.491085	-1.39429	-0.0909371	
0.493372	-0.679509	-0.0863337	
0.487553	-1.82374	-0.0771075	
0.36046	1.96771	-0.0796687	
0.207134	1.03609	-0.115287	
0.206407	1.4647	-0.115916	
0.203261	1.75088	-0.105058	
0.206648	0.322954	-0.114597	
0.207057	0.177718	-0.111981	
0.208039	0.250599	-0.115523	
0.205413	0.39486	-0.110714	
0.203217	1.67726	-0.104838	
0.20442	1.53773	-0.11151	
0.203009	1.89463	-0.106592	
0.20555	0.107323	-0.105197	
0.205384	1.32153	-0.112668	
0.205624	0.467092	-0.110188	
0.203849	1.60612	-0.106894	
0.207556	1.25069	-0.123091	
0.204434	0.89135	-0.103354	
0.203148	0.747623	-0.100772	
0.204749	0.60689	-0.104713	
0.208219	1.10561	-0.122371	
0.205662	0.9632	-0.111219	
0.205704	0.534636	-0.107687	
0.208561	1.17506	-0.127512	
0.203622	0.82002	-0.100813	
0.205855	0.0346869	-0.107949	
0.204156	0.678067	-0.10171	
0.203201	1.81801	-0.101444	
0.205095	1.39198	-0.111527	
0.206021	-0.0373879	-0.108809	
0.206797	-1.46608	-0.117579	
0.206607	-0.325638	-0.111478	
0.208104	-0.251712	-0.11545	
0.20504	-0.398988	-0.103406	
0.203888	-1.67848	-0.105446	
0.203507	-1.89386	-0.107032	
0.205786	-0.109953	-0.109011	
0.205265	-1.32148	-0.111587	
0.20458	-0.46743	-0.106779	
0.207426	-0.179058	-0.114017	
0.204529	-1.60646	-0.107956	
0.207039	-1.25167	-0.120721	
0.204837	-0.89337	-0.104252	
0.20552	-0.749306	-0.110161	
0.205491	-0.607537	-0.107156	
0.207824	-1.1067	-0.119658	
0.206968	-1.03625	-0.112391	
0.206187	-0.965445	-0.110004	
0.205567	-0.535438	-0.10538	
0.205322	-1.53471	-0.112372	
0.208158	-1.18071	-0.122747	
0.204264	-0.821943	-0.103441	
0.36021	-1.9669	-0.078156	
0.204137	-1.74645	-0.105429	
0.205297	-1.39308	-0.111229	
0.205804	-0.678726	-0.110384	
0.203311	-1.82034	-0.103524	
0.130146	1.96517	-0.100184	
-0.0812149	1.03323	-0.136766	
-0.0817353	1.46401	-0.133741	
-0.0819171	1.74882	-0.128834	
-0.0817822	0.322766	-0.133932	
-0.0817878	0.178762	-0.132938	
-0.0813806	0.250663	-0.136161	
-0.0820038	0.394466	-0.133352	
-0.0819741	1.67628	-0.12864	
-0.0817903	1.53368	-0.131334	
-0.0822229	1.89253	-0.125671	
-0.0816514	0.107628	-0.13322	
-0.0819488	1.32125	-0.132014	
-0.0822862	0.464642	-0.132659	
-0.0819449	1.60566	-0.129982	
-0.0817166	1.24911	-0.134334	
-0.0817646	0.892337	-0.132583	
-0.0822925	0.749395	-0.128729	
-0.0816244	0.608863	-0.130745	
-0.0814155	1.10589	-0.136235	
-0.0815315	0.963533	-0.136519	
-0.0819262	0.536192	-0.13229	
-0.0817233	1.17647	-0.136957	
-0.0822094	0.821405	-0.130555	
-0.0816149	0.0352428	-0.13391	
-0.0827757	0.676005	-0.129624	
-0.0820775	1.82035	-0.126507	
-0.0807964	1.39011	-0.13354	
-0.0816336	-0.0362789	-0.134287	
-0.0817189	-1.46484	-0.135855	
-0.0816312	-0.323521	-0.132826	
-0.0813806	-0.251845	-0.135814	
-0.0818264	-0.395895	-0.132936	
-0.0816904	-1.67718	-0.131296	
-0.082266	-1.89168	-0.125482	
-0.0818086	-0.108789	-0.133565	
-0.0818632	-1.32128	-0.132481	
-0.0824949	-0.465567	-0.132424	
-0.0817822	-0.178612	-0.133754	
-0.0818066	-1.60582	-0.131493	
-0.0816294	-1.24932	-0.134397	
-0.082029	-0.893548	-0.132012	
-0.0818247	-0.750446	-0.134844	
-0.0817852	-0.608614	-0.131154	
-0.0814515	-1.10649	-0.136749	
-0.0813633	-1.03403	-0.137659	
-0.0816889	-0.965796	-0.136503	
-0.0819307	-0.53704	-0.130961	
-0.0818838	-1.53414	-0.132619	
-0.0812856	-1.1789	-0.136215	
-0.0821348	-0.821602	-0.132021	
0.130018	-1.96438	-0.0993986	
-0.0819176	-1.74889	-0.130774	
-0.0817939	-1.39314	-0.133089	
-0.0823711	-0.677621	-0.133322	
-0.0821444	-1.81979	-0.127565	
				</DataArray>
			</Points>
			<Cells>
				<DataArray type="Int32" Name="connectivity" Format="ascii">
0	
1	
2	
3	
4	
5	
6	
7	
8	
9	
10	
11	
12	
13	
14	
15	
16	
17	
18	
19	
20	
21	
22	
23	
24	
25	
26	
27	
28	
29	
30	
31	
32	
33	
34	
35	
36	
37	
38	
39	
40	
41	
42	
43	
44	
45	
46	
47	
48	
49	
50	
51	
52	
53	
54	
55	
56	
57	
58	
59	
60	
61	
62	
63	
64	
65	
66	
67	
68	
69	
70	
71	
72	
73	
74	
75	
76	
77	
78	
79	
80	
81	
82	
83	
84	
85	
86	
87	
88	
89	
90	
91	
92	
93	
94	
95	
96	
97	
98	
99	
100	
101	
102	
103	
104	
105	
106	
107	
108	
109	
110	
111	
112	
113	
114	
115	
116	
117	
118	
119	
120	
121	
122	
123	
124	
125	
126	
127	
128	
129	
130	
131	
132	
133	
134	
135	
136	
137	
138	
139	
140	
141	
142	
143	
144	
145	
146	
147	
148	
149	
150	
151	
152	
153	
154	
155	
156	
157	
158	
159	
160	
161	
162	
163	
164	
165	
166	
167	
168	
169	
170	
171	
172	
173	
174	
175	
176	
177	
178	
179	
180	
181	
182	
183	
184	
185	
186	
187	
188	
189	
190	
191	
192	
193	
194	
195	
196	
197	
198	
199	
200	
201	
202	
203	
204	
205	
206	
207	
208	
209	
210	
211	
212	
213	
214	
215	
216	
217	
218	
219	
220	
221	
222	
223	
224	
225	
226	
227	
228	
229	
230	
231	
232	
233	
234	
235	
236	
237	
238	
239	
240	
241	
242	
243	
244	
245	
246	
247	
248	
249	
250	
251	
252	
253	
254	
255	
256	
257	
258	
259	
260	
261	
262	
263	
264	
265	
266	
267	
268	
269	
270	
271	
272	
273	
274	
275	
276	
277	
278	
279	
280	
281	
282	
283	
284	
285	
286	
287	
288	
289	
290	
291	
292	
293	
294	
295	
296	
297	
298	
299	
300	
301	
302	
303	
304	
305	
306	
307	
308	
309	
310	
311	
312	
313	
314	
315	
316	
317	
318	
319	
320	
321	
322	
323	
324	
325	
326	
327	
328	
329	
330	
331	
332	
333	
334	
335	
				</DataArray>
				<DataArray type="Int32" Name="offsets" Format="ascii">
1	
2	
3	
4	
5	
6	
7	
8	
9	
10	
11	
12	
13	
14	
15	
16	
17	
18	
19	
20	
21	
22	
23	
24	
25	
26	
27	
28	
29	
30	
31	
32	
33	
34	
35	
36	
37	
38	
39	
40	
41	
42	
43	
44	
45	
46	
47	
48	
49	
50	
51	
52	
53	
54	
55	
56	
57	
58	
59	
60	
61	
62	
63	
64	
65	
66	
67	
68	
69	
70	
71	
72	
73	
74	
75	
76	
77	
78	
79	
80	
81	
82	
83	
84	
85	
86	
87	
88	
89	
90	
91	
92	
93	
94	
95	
96	
97	
98	
99	
100	
101	
102	
103	
104	
105	
106	
107	
108	
109	
110	
111	
112	
113	
114	
115	
116	
117	
118	
119	
120	
121	
122	
123	
124	
125	
126	
127	
128	
129	
130	
131	
132	
133	
134	
135	
136	
137	
138	
139	
140	
141	
142	
143	
144	
145	
146	
147	
148	
149	
150	
151	
152	
153	
154	
155	
156	
157	
158	
159	
160	
161	
162	
163	
164	
165	
166	
167	
168	
169	
170	
171	
172	
173	
174	
175	
176	
177	
178	
179	
180	
181	
182	
183	
184	
185	
186	
187	
188	
189	
190	
191	
192	
193	
194	
195	
196	
197	
198	
199	
200	
201	
202	
203	
204	
205	
206	
207	
208	
209	
210	
211	
212	
213	
214	
215	
216	
217	
218	
219	
220	
221	
222	
223	
224	
225	
226	
227	
228	
229	
230	
231	
232	
233	
234	
235	
236	
237	
238	
239	
240	
241	
242	
243	
244	
245	
246	
247	
248	
249	
250	
251	
252	
253	
254	
255	
256	
257	
258	
259	
260	
261	
262	
263	
264	
265	
266	
267	
268	
269	
270	
271	
272	
273	
274	
275	
276	
277	
278	
279	
280	
281	
282	
283	
284	
285	
286	
287	
288	
289	
290	
291	
292	
293	
294	
295	
296	
297	
298	
299	
300	
301	
302	
303	
304	
305	
306	
307	
308	
309	
310	
311	
312	
313	
314	
315	
316	
317	
318	
319	
320	
321	
322	
323	
324	
325	
326	
327	
328	
329	
330	
331	
332	
333	
334	
335	
336	
				</DataArray>
				<DataArray type="Int32" Name="types" Format="ascii">
1	
1	
1	
1	
1	
1	
1	
1	
1	
1	
1	
1	
1	
1	
1	
1	
1	
1	
1	
1	
1	
1	
1	
1	
1	
1	
1	
1	
1	
1	
1	
1	
1	
1	
1	
1	
1	
1	
1	
1	
1	
1	
1	
1	
1	
1	
1	
1	
1	
1	
1	
1	
1	
1	
1	
1	
1	
1	
1	
1	
1	
1	
1	
1	
1	
1	
1	
1	
1	
1	
1	
1	
1	
1	
1	
1	
1	
1	
1	
1	
1	
1	
1	
1	
1	
1	
1	
1	
1	
1	
1	
1	
1	
1	
1	
1	
1	
1	
1	
1	
1	
1	
1	
1	
1	
1	
1	
1	
1	
1	
1	
1	
1	
1	
1	
1	
1	
1	
1	
1	
1	
1	
1	
1	
1	
1	
1	
1	
1	
1	
1	
1	
1	
1	
1	
1	
1	
1	
1	
1	
1	
1	
1	
1	
1	
1	
1	
1	
1	
1	
1	
1	
1	
1	
1	
1	
1	
1	
1	
1	
1	
1	
1	
1	
1	
1	
1	
1	
1	
1	
1	
1	
1	
1	
1	
1	
1	
1	
1	
1	
1	
1	
1	
1	
1	
1	
1	
1	
1	
1	
1	
1	
1	
1	
1	
1	
1	
1	
1	
1	
1	
1	
1	
1	
1	
1	
1	
1	
1	
1	
1	
1	
1	
1	
1	
1	
1	
1	
1	
1	
1	
1	
1	
1	
1	
1	
1	
1	
1	
1	
1	
1	
1	
1	
1	
1	
1	
1	
1	
1	
1	
1	
1	
1	
1	
1	
1	
1	
1	
1	
1	
1	
1	
1	
1	
1	
1	
1	
1	
1	
1	
1	
1	
1	
1	
1	
1	
1	
1	
1	
1	
1	
1	
1	
1	
1	
1	
1	
1	
1	
1	
1	
1	
1	
1	
1	
1	
1	
1	
1	
1	
1	
1	
1	
1	
1	
1	
1	
1	
1	
1	
1	
1	
1	
1	
1	
1	
1	
1	
1	
1	
1	
1	
1	
1	
1	
1	
1	
1	
1	
1	
1	
1	
1	
1	
1	
1	
1	
1	
1	
1	
1	
1	
1	
1	
1	
				</DataArray>
			</Cells>
		</Piece>
	</UnstructuredGrid>
</VTKFile>
