<VTKFile type="UnstructuredGrid" version="0.1" byte_order="LittleEndian">
	<UnstructuredGrid>
		<Piece NumberOfPoints="1512" NumberOfCells="1512">
			<CellData Scalars="scalars">
				<DataArray type="Float64" Name="Strength" NumberOfComponents="3" Format="ascii">
0.525136	-0.38794	-0.126132	
6.71869e-05	-1.04344	0.0216941	
-0.0249432	-0.939178	0.0141258	
-0.0350981	-0.820895	0.060472	
0.00347116	-1.06745	0.0238684	
-0.0189954	-1.00538	0.0450216	
0.00373559	-1.05309	0.028538	
-0.0123358	-1.04931	0.0240061	
-0.103234	-0.844375	0.110902	
-0.0402842	-0.919475	0.0152486	
0.080124	-0.579746	0.056192	
0.0114183	-1.02625	0.0171699	
-0.0258469	-0.972034	0.0375615	
-0.0224129	-1.04314	0.00488436	
-0.0974595	-0.881858	0.0735638	
0.0225311	-0.965877	0.00389116	
0.0471829	-1.04642	-0.00555311	
0.025047	-1.01698	-0.00179785	
-0.00122304	-1.03544	-0.0137826	
-0.043132	-1.02748	0.057657	
0.0145864	-1.03065	0.0164445	
-0.031236	-1.02934	0.00678399	
-0.0398455	-1.04543	0.0562632	
0.056803	-1.05346	-0.0225615	
0.00596552	-1.05468	0.00608646	
0.0188972	-1.02489	-0.00885198	
-0.116305	-0.693094	0.134252	
-0.0307154	-0.956781	0.0260538	
0.00355256	-1.05566	-0.0193857	
0.0313967	-0.943592	-0.0185974	
-0.0296177	-1.06821	-0.00881257	
0.0232577	-1.05443	-0.0496749	
-0.0048299	-1.03884	-0.00700891	
0.127242	-0.818168	-0.128388	
-0.25809	-0.618134	-0.0529736	
0.00998911	-1.02617	-0.0372305	
0.0359433	-0.975939	-0.0337358	
0.0234876	-1.04009	-0.00661581	
0.0139006	-1.00749	-0.037521	
0.108086	-0.869478	-0.0802463	
-0.0154914	-0.96713	0.00519805	
-0.0278708	-1.05647	0.00807727	
-0.0140778	-1.10281	-0.00260318	
-0.0290443	-1.02514	0.0234517	
0.0348502	-1.03027	-0.0444303	
0.0372858	-1.045	-0.0431593	
0.0115545	-1.03546	-0.0190631	
0.00150185	-1.07008	0.0114127	
0.0940859	-0.91115	-0.0601224	
0.0498702	-1.04624	-0.0622753	
-0.0280334	-1.07424	0.0025149	
-0.30629	-0.37919	-0.0310242	
0.0880391	-0.795811	-0.179009	
0.0413745	-0.961881	-0.0275247	
-0.0165854	-1.05289	0.00714595	
0.0997561	-0.655876	-0.254021	
1.4948	0.0247676	-0.170547	
0.0476882	-0.192335	-0.0104585	
0.124618	-0.163775	-0.0229108	
0.502683	-0.150057	-0.0904018	
-0.00877204	-0.206391	0.00652474	
-0.0462418	-0.206149	0.0187409	
-9.56922e-05	-0.204737	0.00221542	
-0.0133206	-0.207943	0.00835822	
0.147311	-0.140818	-0.0140155	
0.145192	-0.161531	-0.0313092	
0.505164	-0.0759581	-0.0786795	
0.0453403	-0.210773	-0.0180853	
0.0408822	-0.181898	-0.000258166	
0.0243381	-0.205382	-0.00671842	
-0.00207167	-0.149726	0.0180741	
0.237546	-0.188355	-0.0730462	
0.046765	-0.191362	-0.0144419	
-0.0603925	-0.205749	0.0257733	
0.0679819	-0.20384	-0.0257552	
-0.0275856	-0.193824	0.0207705	
0.00411373	-0.191126	0.00344106	
-0.000414771	-0.204884	0.0012629	
0.000681189	-0.189395	0.0116079	
0.00708585	-0.20151	-0.00115106	
0.00381685	-0.209086	-0.00434683	
0.00372579	-0.204593	-0.000235884	
-0.000626133	-0.101079	0.016756	
0.00587273	-0.176393	0.0157821	
-0.0467961	-0.209753	0.0134059	
-0.141047	-0.16723	0.0303932	
-0.0188954	-0.208717	0.011066	
0.119289	-0.205132	-0.0441626	
0.0310883	-0.210277	-0.00668969	
-0.249433	-0.167043	0.0494974	
-1.19819	-0.209718	0.409151	
-0.0690438	-0.212638	0.0247143	
-0.0313029	-0.182539	-0.00593295	
0.0743532	-0.208224	-0.0244859	
0.00156176	-0.205586	-0.00208064	
-0.16767	-0.163173	0.0274845	
-0.237082	-0.191027	0.070366	
-0.0877087	-0.193651	0.0304239	
0.0455286	-0.202766	-0.0208612	
-0.0842338	-0.205334	0.0332776	
-0.0554843	-0.197413	0.0108174	
0.0271111	-0.192279	-0.0185203	
-0.00127303	-0.192212	-0.00543516	
-0.000861643	-0.200984	0.00263227	
-2.6486e-05	-0.158294	-0.0250875	
0.000223824	-0.189587	-0.0130145	
-0.00442271	-0.20278	-0.00180187	
-0.713838	-0.0834511	0.115663	
-0.343469	-0.173872	0.102042	
-0.00547673	-0.17665	-0.0186776	
-0.00350855	-0.206159	-0.000269096	
-0.00406944	-0.0950298	-0.0432672	
2.49462	0.222446	-0.00434803	
0.08715	-0.0585354	0.00602198	
0.243937	-0.042976	0.0283062	
0.900834	-0.000982685	0.107031	
-0.0256555	-0.0692765	9.06088e-05	
-0.0595303	-0.0706045	-0.00137288	
-0.000127455	-0.0688556	-0.000213908	
-0.0289919	-0.0706875	-0.000175154	
0.284903	-0.0289003	0.0580824	
0.26946	-0.0394885	0.0511674	
0.869701	0.0583032	-0.00150859	
0.0766284	-0.0732553	0.000428271	
0.0878125	-0.0533106	0.0118559	
0.0411286	-0.0705803	0.00107932	
-0.00142282	-0.0400722	0.012302	
0.417521	-0.0478155	0.0285907	
0.0939179	-0.0594397	0.00382407	
-0.101385	-0.0702563	0.00111292	
0.132562	-0.0679145	0.000983039	
-0.0385281	-0.0612279	0.00265872	
0.000587345	-0.0605201	0.00223485	
0.00031379	-0.0710007	0.000656231	
0.000944138	-0.0588283	0.00566932	
0.000481667	-0.0658751	0.000882131	
0.00983232	-0.0725064	-0.000530866	
0.000254159	-0.0693769	0.00107154	
0.00171259	-0.0242561	0.011785	
0.000596494	-0.0532438	0.00798083	
-0.0731235	-0.0724314	-0.00115656	
-0.282386	-0.0392891	-0.00162291	
-0.0301709	-0.0699239	0.00139139	
0.201448	-0.0679549	-0.00149825	
0.0528464	-0.0699157	0.00301725	
-0.484613	-0.0229768	-0.0506069	
-2.19293	0.131957	0.088378	
-0.138394	-0.0735094	0.000176124	
-0.073183	-0.0534276	-0.00625357	
0.111038	-0.0687116	0.00507092	
0.00014891	-0.0709977	0.000693422	
-0.317494	-0.0319573	-0.0341145	
-0.418247	-0.0450257	-0.0122832	
-0.166993	-0.058531	-0.0053856	
0.0811934	-0.0639756	-0.00037071	
-0.143843	-0.0666736	-0.002151	
-0.111226	-0.0586959	-0.00719281	
0.041964	-0.0602169	-0.00254075	
-0.000533861	-0.0603008	-0.0031996	
-6.01717e-05	-0.0646218	0.000882064	
-0.000217134	-0.0442928	-0.0120825	
-0.00128439	-0.058803	-0.00628353	
-0.000474246	-0.0645834	-0.00173297	
1.16478	-0.0508367	-0.0783965	
-0.66248	0.0039899	-0.0235653	
-0.00158147	-0.0531246	-0.00837498	
-0.000294772	-0.0660894	-0.000434616	
-0.00236588	-0.0279266	-0.00653852	
3.29261	0.0998509	0.195529	
0.137598	0.0769609	-0.0192831	
0.323566	0.0936932	-0.0183522	
1.11638	0.129193	-0.0524282	
-0.0214865	0.0767007	0.00140288	
-0.0812944	0.0765105	-0.00773808	
0.000455195	0.0759694	-0.00167158	
-0.036733	0.0766896	0.00916606	
0.357997	0.0844021	-0.0295483	
0.362327	0.0810622	-0.0079578	
1.09314	0.0801007	0.00907716	
0.115911	0.0706715	-0.0138869	
0.102934	0.0932449	0.00962827	
0.0571756	0.0787838	0.0104329	
0.000553884	0.0760682	-0.0232879	
0.572445	0.126127	0.0724357	
0.15336	0.0761002	-0.0220577	
-0.128502	0.0813526	0.00715552	
0.183179	0.0782268	0.00843472	
-0.0506617	0.0839384	-0.0248321	
0.00241993	0.0800857	-0.0207692	
0.00050088	0.0778678	0.0061421	
-0.00157141	0.0858639	-0.00973824	
-0.000162494	0.0808362	-0.006091	
0.0181459	0.0752931	-0.00150771	
0.000104204	0.07888	0.00520392	
-0.00425385	0.0468331	-0.0221244	
-0.00580872	0.0844623	0.00186496	
-0.0989666	0.0730105	0.0114725	
-0.375151	0.10118	0.0217835	
-0.0705635	0.0754786	-0.0118292	
0.281125	0.0739103	0.0237164	
0.0653311	0.0761798	-0.0152626	
-0.572491	0.0998083	-0.0294549	
-2.78607	0.110761	-0.141491	
-0.195438	0.0678017	0.0103712	
-0.0822866	0.0946897	-0.00244205	
0.151164	0.0758262	-0.0247531	
-0.000131166	0.0738236	-0.000877871	
-0.421989	0.0867998	-0.0327511	
-0.571907	0.124961	-0.0523459	
-0.246269	0.0850733	0.0277665	
0.0971102	0.0816533	-0.00102971	
-0.21447	0.0797586	-0.0134408	
-0.160782	0.0835078	0.0174532	
0.0545895	0.0843048	0.0204781	
-0.00180292	0.0829036	0.0185289	
-0.0013868	0.0783908	0.00174575	
-0.00127074	0.0820691	0.012268	
0.00173348	0.0865885	0.0127423	
0.00125358	0.0841801	0.0018254	
1.5921	-0.0323977	0.034437	
-0.802981	0.112447	-0.0185855	
0.00696957	0.0855428	0.0020402	
0.000220991	0.0815173	-0.00213287	
0.00222487	0.0475549	0.0104452	
5.70512	-0.0674904	0.283009	
-1.94663	-0.674202	-0.301606	
0.540748	-0.357533	0.417332	
1.56285	-0.178405	0.0294018	
1.92337	-0.540933	0.157156	
-1.77042	-0.591066	-0.0929522	
-0.004885	-0.553833	-0.0182896	
-0.646326	-0.236844	0.0966851	
0.622665	-0.122921	0.0612388	
1.09675	-0.307395	0.267399	
-0.254415	-0.264389	0.0349615	
-0.0891889	-0.368019	-0.0455433	
2.96526	-0.855465	0.326185	
0.708801	-0.464432	0.20246	
-0.0144402	-0.0824706	0.0778281	
0.756447	-0.558799	0.348159	
-0.939039	-0.330003	-0.202043	
0.161718	-0.12211	0.024679	
1.42104	-0.359605	0.220008	
-0.299162	-0.528808	-0.147321	
0.0548971	-0.213233	-0.160204	
-0.0486788	-0.271712	0.147495	
-0.0366174	-0.544628	0.104124	
0.0119768	-0.140311	-0.0293853	
0.0191852	-0.339344	0.0291401	
-0.0147881	-0.171932	0.0528109	
-0.00062671	-0.0766927	0.0287135	
-0.0397705	-0.114068	0.178712	
0.082531	-0.340758	0.0457279	
-0.313375	-0.44483	-0.46795	
-2.29897	-0.640681	-0.229558	
0.438816	-0.503164	-0.0950613	
0.0331745	-0.26984	-0.0918396	
-1.0061	-0.30394	-0.183146	
-3.63287	-0.494517	-0.306428	
1.29086	-0.397873	0.0853687	
-2.66612	-0.798776	-0.21987	
0.206419	-0.251276	-0.0388427	
0.00935431	-0.533207	0.0379921	
-1.11167	-0.36154	-0.29673	
-0.75107	-0.640806	-0.180521	
0.657813	-0.309773	0.106932	
-1.22683	-0.399171	-0.10856	
0.364016	-0.339528	-0.0227298	
1.41119	-0.689827	0.164354	
0.913013	-0.543022	0.253635	
-0.0577586	-0.275112	0.1097	
0.018447	-0.267856	-0.038886	
0.0810044	-0.202156	-0.197972	
0.0103822	-0.600125	0.00250506	
-0.00917702	-0.193068	0.0140141	
2.12194	0.173669	0.0207301	
-1.23324	-0.289256	-0.120971	
0.0637623	-0.206696	-0.202557	
0.0134597	-0.339338	-0.0602277	
0.00830923	-0.153103	-0.0667397	
4.42958	0.261167	0.296289	
0.0583927	0.562659	-0.122337	
0.532942	0.677981	-0.0710861	
1.23843	0.486006	0.207882	
1.16175	0.778222	0.113414	
-0.885161	0.757791	-0.256347	
-0.0146298	0.733696	-0.0743112	
-0.309011	0.599953	-0.163016	
0.360116	0.434896	-0.0506288	
0.621659	0.563696	-0.0557439	
1.14701	0.499514	0.075677	
0.779965	0.631585	0.193924	
0.696131	0.624537	0.031007	
0.448648	0.694508	0.0466044	
-0.0195259	0.430126	-0.146439	
1.21808	0.880995	0.0990273	
-0.595958	0.544234	-0.206809	
-0.24732	0.493861	-0.0605832	
0.770378	0.604074	0.179284	
-0.162433	0.743882	-0.249694	
0.0287824	0.535066	-0.0657354	
-0.0276549	0.613918	-0.0821114	
-0.00656414	0.781429	-0.19026	
0.0247797	0.496117	0.0209233	
0.0202712	0.538914	0.011996	
0.00273161	0.539493	0.00452079	
-0.00348414	0.350611	-0.0820782	
-0.00190508	0.531984	-0.113645	
-0.763965	0.580789	-0.10118	
-0.424035	0.704393	0.0863429	
-1.39039	0.723135	-0.297157	
0.936686	0.70599	0.148396	
0.0759564	0.594969	0.0354089	
-0.717793	0.447956	-0.0395497	
-2.89025	0.630174	-0.288423	
-0.0199764	0.609166	0.114588	
-0.421114	0.62812	-0.0388183	
-0.161466	0.583568	-0.0273178	
0.0190957	0.766033	0.0384444	
-0.662578	0.522227	0.0305953	
-1.16361	0.882779	-0.0861016	
0.403696	0.571717	0.0782187	
-0.337723	0.618226	-0.132773	
0.322992	0.660327	0.0760941	
-0.536102	0.796169	0.0162057	
0.818889	0.555708	0.317834	
-0.0248365	0.549184	0.0438849	
0.00109004	0.611241	0.067437	
0.0423017	0.503933	0.196738	
0.0144234	0.791242	0.178749	
-0.0297458	0.51987	-0.065206	
3.03453	-0.272721	0.188703	
-1.45735	0.509473	-0.305389	
-0.00181297	0.548961	0.111865	
-0.0198443	0.631646	-0.0140913	
-0.00935383	0.41432	0.104437	
2.95793	0.0908558	0.222393	
0.442045	0.329058	0.0853268	
0.377226	0.31695	0.000463623	
0.984399	0.205042	0.156125	
0.669476	0.365245	0.117453	
-0.302086	0.345961	-0.0902733	
-0.00283973	0.383099	-0.0350172	
-0.331594	0.32264	-0.139686	
0.147038	0.202002	-0.00524413	
0.36506	0.259196	-0.000819663	
1.10085	0.143449	0.105291	
1.17531	0.325204	0.3754	
0.549214	0.277457	0.0735141	
0.398719	0.323382	0.101781	
0.000777078	0.220627	-0.0397674	
0.855007	0.295501	0.139972	
-0.429278	0.289052	-0.125133	
-0.386909	0.275382	-0.103509	
0.515177	0.291926	0.116589	
0.0514878	0.325642	-0.0372438	
0.00601684	0.293525	-0.0170478	
0.00181169	0.308434	-0.0195496	
0.0161898	0.34441	-0.0554188	
0.0046786	0.274675	-0.00176092	
0.00942132	0.306842	-0.00183186	
0.00443343	0.280762	-0.00306196	
0.00143625	0.158986	-0.0233819	
0.0136227	0.272064	-0.0524794	
-1.17887	0.346963	-0.343038	
-0.250629	0.351984	0.0375947	
-0.908749	0.372455	-0.210442	
0.571217	0.363619	0.204913	
0.0919809	0.330223	0.0416714	
-0.55687	0.247068	-0.076983	
-2.12613	0.164496	-0.237422	
-0.316672	0.335089	-0.0644085	
-0.367134	0.311273	-0.0362594	
-0.0986414	0.324386	-0.036408	
0.00636457	0.347962	0.0253499	
-0.392972	0.262116	-0.0374921	
-0.812514	0.316188	-0.17053	
0.375675	0.306058	0.114852	
-0.0672656	0.361913	-0.0417477	
0.309066	0.32813	0.0784335	
-0.949022	0.341678	-0.216916	
0.579322	0.332746	0.206363	
-0.00507869	0.309507	0.0119594	
-0.00140938	0.317756	0.000449193	
-0.00234706	0.277862	0.0698117	
-0.0156464	0.366633	0.0554194	
-0.00675738	0.303495	-0.0212199	
1.78668	-0.0938613	0.130573	
-1.29798	0.242206	-0.268994	
-0.0160147	0.302466	0.0756287	
-0.00554987	0.327673	-0.018846	
-0.00539953	0.191381	0.0440112	
2.44017	0.0429172	0.190665	
0.595483	0.167012	0.0845515	
0.307135	0.140013	0.0181597	
0.850221	0.0951324	0.0943958	
0.445609	0.171731	0.0406999	
0.00609902	0.161808	-0.00976752	
-0.00222969	0.177965	-0.0163359	
-0.419016	0.147297	-0.092735	
-0.000827717	0.0935859	-0.0116315	
0.225264	0.119372	0.00358417	
1.10476	0.0644024	0.0949691	
1.51996	0.163746	0.312268	
0.492594	0.134238	0.0485029	
0.440487	0.156611	0.0662013	
2.20062e-05	0.104866	-0.0136846	
0.660688	0.142472	0.0673209	
-0.335029	0.14819	-0.0597184	
-0.498308	0.141595	-0.0827285	
0.443925	0.144944	0.0668989	
0.0861717	0.155654	-0.00778439	
0.0021746	0.149063	-0.00760008	
0.000407825	0.150255	-0.00736094	
0.00258818	0.157512	-0.0250642	
0.00116377	0.13974	-0.00100848	
0.00600635	0.146401	0.00116249	
0.000572366	0.142054	0.00135482	
0.00023639	0.0737217	-0.00717273	
0.00175546	0.126259	-0.0187386	
-1.55242	0.179871	-0.289211	
-0.166452	0.15471	0.00201321	
-0.753283	0.180479	-0.104118	
0.4209	0.169577	0.100916	
0.101379	0.157947	0.0253249	
-0.448642	0.126543	-0.0445022	
-1.82435	0.0706497	-0.168362	
-0.488227	0.174323	-0.0501477	
-0.349259	0.144019	-0.0481799	
-0.0889735	0.157839	-0.0142694	
0.00323301	0.162326	0.0165465	
-0.277389	0.12614	-0.0184612	
-0.628055	0.147567	-0.0924088	
0.359436	0.157514	0.0680893	
0.0522658	0.176037	-0.000971726	
0.29831	0.161168	0.0470621	
-0.975269	0.164965	-0.145178	
0.435405	0.174615	0.0953493	
-0.00188536	0.158021	0.0043359	
-0.000790267	0.155866	0.000421427	
-0.00236236	0.13034	0.0278133	
-0.00332976	0.167329	0.0240422	
-0.00109889	0.154384	-0.00994565	
1.33702	-0.0417309	0.102886	
-1.16604	0.124034	-0.16374	
-0.00376339	0.139325	0.0308358	
-0.00093632	0.162635	-0.011279	
-0.00126978	0.0842342	0.0151952	
2.23868	0.0227791	0.167795	
0.578483	0.0959807	0.0647694	
0.271527	0.0695772	0.0155971	
0.817199	0.0557345	0.073943	
0.405805	0.0823355	0.0270633	
0.188013	0.0801958	0.00953314	
-0.00162323	0.0836379	-0.00778475	
-0.45945	0.0717341	-0.0663114	
-0.0662688	0.0475285	-0.0118365	
0.172657	0.0578791	0.00563614	
1.1283	0.0340196	0.0883873	
1.71228	0.0833265	0.283866	
0.44458	0.0711937	0.0361142	
0.419506	0.0826855	0.0467343	
-8.83961e-05	0.052105	-0.00640027	
0.569103	0.0756015	0.0475275	
-0.216084	0.0814254	-0.0284889	
-0.478451	0.072534	-0.0598191	
0.442331	0.0739242	0.051916	
0.0876069	0.0802486	0.00036525	
0.000521229	0.0844717	-0.00462548	
-0.000220375	0.0730563	-0.0030346	
0.000166418	0.0789955	-0.0104919	
0.000810368	0.0759814	-0.00233441	
0.00473685	0.0752288	0.000713427	
0.000166309	0.0705048	-0.000466899	
-6.25955e-05	0.0395549	-0.00335059	
0.000114117	0.061325	-0.0089555	
-1.75547	0.124317	-0.245908	
-0.125815	0.0749161	-0.000395076	
-0.790148	0.0903676	-0.0840813	
0.315354	0.0782031	0.062407	
0.0811637	0.0800436	0.0145803	
-0.443406	0.0741242	-0.0377409	
-1.72411	0.0366637	-0.139	
-0.583098	0.100472	-0.0541131	
-0.318917	0.0736646	-0.0265571	
-0.0184836	0.0821689	-0.00239373	
0.00212374	0.0745961	0.00850646	
-0.258138	0.0653925	-0.0174759	
-0.539504	0.0793047	-0.0592035	
0.289033	0.086927	0.0361575	
0.0446285	0.0912011	0.0018908	
0.292716	0.0788958	0.0348015	
-0.861259	0.0882036	-0.104115	
0.353958	0.0964041	0.053224	
-0.000695928	0.0879699	0.00206055	
-0.00028452	0.0769944	0.00010533	
-0.00068239	0.0626976	0.011822	
-0.00023222	0.0828777	0.00944373	
-0.000399515	0.0820764	-0.00334766	
1.1447	-0.0218271	0.0818302	
-1.08585	0.0786452	-0.112952	
-0.000613154	0.0670943	0.0122317	
-0.000290874	0.0809375	-0.00457353	
-0.000106162	0.0421772	0.00696579	
2.16156	0.0155048	0.160547	
0.620738	0.06227	0.0602393	
0.22012	0.0462649	0.0144997	
0.790865	0.0354499	0.0676553	
0.35634	0.0513255	0.0348517	
0.350932	0.0563935	0.0196539	
-0.000925503	0.0529964	-0.004992	
-0.511418	0.0434617	-0.0602159	
-0.136622	0.0301723	-0.0148606	
0.114487	0.0393131	0.00482969	
1.19105	0.0225712	0.0926157	
1.96445	0.0616745	0.261644	
0.400432	0.0501617	0.0297328	
0.460463	0.0512433	0.0455001	
-4.06557e-05	0.0346771	-0.00309497	
0.545276	0.0535416	0.0412114	
-0.130919	0.0518301	-0.0155718	
-0.498043	0.0477794	-0.0523077	
0.469707	0.0482868	0.0487971	
0.107172	0.0534156	0.00533454	
0.000201239	0.0534561	-0.00321996	
-2.85349e-05	0.0469987	-0.00233387	
6.19167e-05	0.053058	-0.00693392	
0.000433927	0.0484827	-0.0017115	
0.0032792	0.0439777	0.000345422	
8.85405e-05	0.0464046	-0.000599983	
-3.21726e-05	0.0248338	-0.00177065	
-6.33736e-06	0.0431647	-0.00438984	
-2.01664	0.0761781	-0.243814	
-0.0763027	0.0495346	-0.000510041	
-0.79761	0.0584718	-0.0782939	
0.247288	0.0498625	0.0395712	
0.0723666	0.0487413	0.0105989	
-0.435902	0.0503944	-0.0352263	
-1.67517	0.0251452	-0.13357	
-0.69352	0.0696624	-0.054849	
-0.285724	0.0524634	-0.0184803	
-0.0172453	0.0498186	-0.0011547	
0.0010875	0.0478549	0.00556046	
-0.237293	0.044279	-0.0163865	
-0.509256	0.0565904	-0.0485057	
0.257503	0.056328	0.0285937	
0.0434588	0.0592119	0.00242488	
0.269872	0.0513045	0.0278639	
-0.838323	0.0609619	-0.082045	
0.29083	0.0616127	0.0373861	
-0.00029297	0.0562924	0.00157208	
-0.000211676	0.0494103	0.000440925	
-0.000447973	0.0427921	0.00685061	
-5.89935e-05	0.0558255	0.00620436	
-0.000139166	0.0536828	-0.00166645	
1.05951	-0.0151203	0.0746752	
-1.04102	0.0550714	-0.0961529	
-0.000328013	0.0466407	0.00739086	
-0.000128845	0.0532031	-0.00241763	
5.68907e-05	0.0282732	0.00373267	
2.12791	0.0110902	0.157933	
0.663725	0.042448	0.0517923	
0.184744	0.0318412	0.0125148	
0.774258	0.0232909	0.0641931	
0.318112	0.0360749	0.018348	
0.486191	0.0377945	0.049611	
-0.000213804	0.0364763	-0.00344577	
-0.567017	0.0305076	-0.0585438	
-0.198649	0.0220976	-0.0182148	
0.0710336	0.027565	0.00365061	
1.26303	0.0162029	0.0979158	
2.21349	0.0430017	0.24312	
0.368774	0.0338034	0.028224	
0.51225	0.0340466	0.0469767	
6.93842e-05	0.0250433	-0.00182219	
0.534687	0.0356429	0.0409077	
-0.0697322	0.0369124	-0.00826793	
-0.503683	0.032535	-0.0489319	
0.507992	0.0331889	0.0407735	
0.12399	0.037259	0.00615878	
0.000226111	0.0376864	-0.00234941	
9.81356e-05	0.0324942	-0.00173855	
0.000297686	0.0372168	-0.00461964	
0.000126977	0.0347369	-0.00151579	
0.00158109	0.0304283	0.00018558	
3.69595e-05	0.0324287	-0.000660635	
3.92613e-05	0.0179336	-0.00110685	
0.000154788	0.0304832	-0.00256437	
-2.27298	0.0309017	-0.236965	
-0.0393917	0.0349233	0.000589794	
-0.813415	0.0378068	-0.0711202	
0.191305	0.0343801	0.0224234	
0.0618733	0.033593	0.00836118	
-0.436092	0.0345636	-0.0337504	
-1.65089	0.0176331	-0.129922	
-0.789781	0.0420036	-0.0708916	
-0.261602	0.0358319	-0.0208811	
-0.0264035	0.0343525	-0.00199148	
9.38196e-05	0.0328817	0.00397576	
-0.229078	0.0309845	-0.0158331	
-0.498627	0.0371777	-0.0446808	
0.243986	0.0393062	0.0280156	
0.0329344	0.0418301	0.00195203	
0.24639	0.0355491	0.023567	
-0.82954	0.039724	-0.0711993	
0.245087	0.0432012	0.025925	
-0.000150584	0.0396794	0.00129648	
-8.12458e-05	0.0345566	0.000428214	
-0.000148496	0.0308048	0.00379496	
-0.000271851	0.0391446	0.00399879	
-3.14534e-06	0.0383901	-0.000750365	
1.00485	-0.011199	0.0708747	
-1.01089	0.0344188	-0.0878328	
-0.000323834	0.0332186	0.00461451	
1.07944e-05	0.037575	-0.00134963	
-9.56766e-05	0.0205779	0.00247958	
2.12484	0.00819441	0.159403	
0.702085	0.0330367	0.0537806	
0.156788	0.022976	0.011238	
0.768653	0.0177423	0.0630443	
0.29358	0.0273296	0.0158515	
0.610175	0.0386651	0.0406629	
-0.000275411	0.0264313	-0.00267966	
-0.624647	0.0205919	-0.0599341	
-0.252992	0.0157644	-0.0216822	
0.0348279	0.0198007	0.00155708	
1.34065	0.0117949	0.104384	
2.45845	0.0431526	0.211719	
0.346983	0.024882	0.0261424	
0.562089	0.0262759	0.0499514	
4.15073e-05	0.0180809	-0.00113546	
0.526925	0.0265465	0.0405772	
-0.0149844	0.0268737	-0.0027341	
-0.51575	0.0239488	-0.0472797	
0.548824	0.0253534	0.048308	
0.138108	0.0274787	0.00840935	
0.000112026	0.0275597	-0.00189269	
4.58897e-05	0.0236829	-0.00126225	
0.000127145	0.026915	-0.00318141	
0.000136326	0.0253534	-0.00129476	
0.00113166	0.0221588	0.000153114	
3.27556e-05	0.0237519	-0.000575862	
1.20963e-05	0.0130376	-0.000658434	
7.98168e-05	0.0219157	-0.00172605	
-2.52307	0.033691	-0.24278	
-0.0105427	0.0253725	0.00190782	
-0.84411	0.0304135	-0.069223	
0.145705	0.024383	0.0170458	
0.0520445	0.0245864	0.00668841	
-0.444198	0.0270414	-0.0347507	
-1.64273	0.0131115	-0.12925	
-0.884593	0.04373	-0.0562261	
-0.245495	0.0265842	-0.018512	
-0.031722	0.0253902	-0.00233361	
0.000165381	0.0239193	0.00319424	
-0.227999	0.0233692	-0.0164989	
-0.491572	0.028306	-0.0421683	
0.233164	0.0288644	0.0234819	
0.0242867	0.0305859	0.00146652	
0.228535	0.0260193	0.0209915	
-0.825662	0.0308823	-0.0671526	
0.207676	0.0313625	0.0203859	
-8.97298e-05	0.0291296	0.0010027	
-5.93555e-05	0.0253511	0.000508124	
-8.54682e-05	0.0225961	0.00254214	
-0.00011355	0.0285335	0.00273475	
1.93315e-06	0.0281161	-0.000436882	
0.967364	-0.008272	0.0690853	
-0.992218	0.0283421	-0.0844658	
-0.000198735	0.024213	0.00309372	
-1.08972e-06	0.0275476	-0.000792608	
-4.133e-05	0.0153441	0.00171169	
2.1449	0.00632364	0.163004	
0.739364	0.0251846	0.0590433	
0.136083	0.0172748	0.0099815	
0.774296	0.013866	0.0634707	
0.279349	0.0197559	0.0126942	
0.720915	0.0247471	0.0875192	
-8.56214e-05	0.0196833	-0.00201727	
-0.679228	0.0165855	-0.0589435	
-0.30286	0.0118649	-0.025371	
0.0035028	0.0149517	-0.000646396	
1.41706	0.00894476	0.111458	
2.68716	0.0259906	0.225818	
0.333198	0.0187209	0.0254806	
0.608104	0.0195494	0.0526429	
2.88024e-05	0.0137384	-0.000737102	
0.522417	0.0200205	0.040501	
0.038415	0.0202624	0.00220243	
-0.531109	0.0181607	-0.0468472	
0.5902	0.0189736	0.0537118	
0.151753	0.0207773	0.0102503	
8.10469e-05	0.020857	-0.00136536	
5.64474e-05	0.0177721	-0.000969363	
0.000100369	0.0202328	-0.00229344	
0.000110185	0.0190124	-0.00105242	
0.000315074	0.0169107	6.4073e-05	
4.03112e-05	0.0178067	-0.000532676	
8.14286e-06	0.0101299	-0.000416618	
5.13115e-05	0.0164836	-0.00110716	
-2.76044	0.0256347	-0.257351	
0.012734	0.0190778	0.00293767	
-0.885072	0.0229551	-0.068694	
0.105802	0.0185963	0.0118014	
0.0421084	0.0185756	0.00519525	
-0.458638	0.0211243	-0.036223	
-1.65336	0.00984954	-0.13112	
-0.974406	0.0339285	-0.0707989	
-0.236465	0.0199324	-0.0164123	
-0.0341907	0.0192536	-0.00247737	
6.22543e-05	0.0178313	0.00234387	
-0.231009	0.0179212	-0.0171974	
-0.486772	0.0214552	-0.0410761	
0.221917	0.0219878	0.0217159	
0.0147833	0.0231294	0.000869424	
0.213665	0.0195868	0.0190445	
-0.824337	0.0235705	-0.0666188	
0.177153	0.0238332	0.0164317	
-6.55672e-05	0.0221921	0.000775193	
-4.27885e-05	0.0190993	0.000410562	
-6.70054e-05	0.0171407	0.00178753	
-8.36597e-05	0.0215012	0.00193878	
-8.04266e-07	0.0212986	-0.000206965	
0.944165	-0.00648149	0.0684899	
-0.978652	0.0223087	-0.0824126	
-0.000140068	0.0182687	0.00214195	
-4.77876e-06	0.0207927	-0.000471999	
-3.11944e-05	0.0116476	0.00116534	
2.18001	0.00498507	0.167251	
0.77763	0.0178617	0.0612451	
0.11746	0.0133332	0.00912004	
0.783069	0.00971665	0.0638883	
0.265937	0.0156542	0.00989659	
0.826842	0.00458222	0.123541	
7.25944e-05	0.0155124	-0.00160353	
-0.734566	0.0145142	-0.056082	
-0.351089	0.00957775	-0.0288275	
-0.0261199	0.0117095	-0.00274715	
1.49759	0.00694693	0.119324	
2.91774	0.00571527	0.245447	
0.324244	0.0139685	0.0250622	
0.656074	0.0138906	0.0555425	
2.77108e-05	0.0107413	-0.000441562	
0.519954	0.0146521	0.0400867	
0.0870914	0.0158941	0.00637371	
-0.548997	0.0139094	-0.0476066	
0.633413	0.0140045	0.0531818	
0.165709	0.0158475	0.0115509	
0.000106169	0.0163864	-0.00113527	
6.62155e-05	0.0139859	-0.000733536	
0.000131088	0.0158849	-0.00172683	
6.23221e-05	0.014971	-0.000870042	
-0.000551706	0.0132196	-1.84387e-05	
3.49206e-05	0.0140422	-0.000466735	
1.45961e-05	0.00784089	-0.00025186	
5.68099e-05	0.0129428	-0.000716892	
-3.00086	-0.00561296	-0.264509	
0.0330275	0.0149092	0.00425176	
-0.926857	0.0165283	-0.0689298	
0.0705528	0.0148399	0.00710348	
0.0331044	0.0146809	0.00412886	
-0.478516	0.015473	-0.0375485	
-1.67228	0.00770473	-0.133796	
-1.05884	0.00596641	-0.13607	
-0.230798	0.0152421	-0.0156219	
-0.0383937	0.0151229	-0.00284728	
-0.000100121	0.014097	0.00191518	
-0.234195	0.0135148	-0.0174833	
-0.484684	0.0154254	-0.0401865	
0.214068	0.0170649	0.0200237	
0.00742168	0.0182004	0.000351426	
0.200788	0.0152954	0.0174482	
-0.827763	0.0165202	-0.0664177	
0.150872	0.0189451	0.0135351	
-5.76199e-05	0.0174414	0.000608767	
-3.48709e-05	0.0150799	0.000409282	
-7.72685e-05	0.0134985	0.00127081	
-0.000114714	0.016856	0.00142037	
5.83786e-06	0.0167811	-7.76019e-05	
0.929407	-0.00512414	0.0681669	
-0.971601	0.014991	-0.0804955	
-0.000118822	0.0143434	0.00153678	
1.02322e-05	0.0164324	-0.000322619	
-4.7776e-05	0.00924653	0.0008325	
2.22285	0.0040928	0.172146	
0.819297	0.0166736	0.0631386	
0.103054	0.0108631	0.00768225	
0.79248	0.00841215	0.0645415	
0.255428	0.0128587	0.0132062	
0.934142	0.0109555	0.111291	
3.95892e-05	0.0125811	-0.0013183	
-0.790184	0.0110074	-0.0646355	
-0.397483	0.00771476	-0.0322591	
-0.0520855	0.00946473	-0.00472533	
1.58292	0.00571709	0.126929	
3.15341	0.00708841	0.194426	
0.316645	0.0118365	0.0238154	
0.703736	0.0121245	0.0594301	
1.77102e-05	0.00877206	-0.000292722	
0.51937	0.0126352	0.0404524	
0.130438	0.0129958	0.00957665	
-0.568939	0.0113233	-0.0484085	
0.67728	0.0121627	0.0605942	
0.177745	0.0133806	0.0129126	
5.8038e-05	0.0132021	-0.000941405	
4.20037e-05	0.0113403	-0.000581548	
6.68734e-05	0.0128254	-0.00132233	
6.35042e-05	0.0121511	-0.000744598	
-0.00123484	0.0107581	-8.3446e-05	
2.90224e-05	0.0114238	-0.000406146	
5.37689e-06	0.00635982	-0.000164715	
2.80483e-05	0.0104	-0.000490157	
-3.24189	0.00404911	-0.256933	
0.0514136	0.0120173	0.00530099	
-0.969634	0.0162702	-0.0754245	
0.0379085	0.0121448	0.00546969	
0.0251878	0.0118421	0.00322675	
-0.496521	0.0135104	-0.0392514	
-1.69729	0.00636113	-0.136473	
-1.15153	0.0178962	-0.0928791	
-0.226588	0.0124122	-0.0170118	
-0.042288	0.0122865	-0.00319699	
-4.93221e-05	0.0114265	0.00160147	
-0.242189	0.0113594	-0.0183743	
-0.483718	0.0131706	-0.0397712	
0.208662	0.0138942	0.018257	
-0.000169918	0.0146673	-0.000216977	
0.191584	0.0124017	0.0164949	
-0.836376	0.0145207	-0.0659968	
0.127825	0.0151072	0.0112824	
-4.28399e-05	0.0140242	0.00048737	
-2.78729e-05	0.0121921	0.000358854	
-4.82662e-05	0.0108682	0.000942886	
-6.35368e-05	0.0135811	0.00107292	
-1.30051e-06	0.013523	-2.13585e-05	
0.921339	-0.00420104	0.068262	
-0.971493	0.0139468	-0.0802645	
-8.32264e-05	0.0115236	0.00113977	
3.73036e-06	0.0132177	-0.000225597	
-2.53045e-05	0.00754842	0.000640266	
2.27262	0.00339421	0.177578	
0.861765	0.0139191	0.0684675	
0.0900527	0.00895695	0.00697332	
0.804806	0.0070189	0.0655374	
0.245937	0.0109124	0.0126824	
1.03775	0.00921272	0.106061	
6.01723e-05	0.0104112	-0.00105141	
-0.846268	0.0102572	-0.065836	
-0.442785	0.00634881	-0.0358536	
-0.0769823	0.0078545	-0.00653151	
1.66815	0.00472924	0.134476	
3.37953	0.00444165	0.262545	
0.311719	0.00977045	0.0235767	
0.751327	0.0096166	0.06293	
1.16598e-05	0.00727796	-0.000199675	
0.520589	0.0104807	0.0407814	
0.173192	0.0107131	0.0129823	
-0.591015	0.00944943	-0.0498145	
0.721178	0.0100486	0.0633949	
0.190037	0.0111029	0.0137766	
4.85873e-05	0.010883	-0.000731274	
3.92632e-05	0.00935912	-0.000465658	
5.35685e-05	0.0105869	-0.00103593	
5.52976e-05	0.00997272	-0.00061832	
-0.0019469	0.00892679	-0.000142245	
2.59433e-05	0.00941026	-0.000338461	
3.27637e-06	0.00530605	-0.000109441	
1.97055e-05	0.00861538	-0.000350285	
-3.47898	0.00382778	-0.283667	
0.0674665	0.00982467	0.00635171	
-1.01349	0.01296	-0.0787641	
0.00801171	0.0102963	0.0029187	
0.0178034	0.00979234	0.00239333	
-0.517679	0.0112	-0.0411622	
-1.72734	0.00519899	-0.139565	
-1.23868	0.0148182	-0.102743	
-0.222826	0.0102102	-0.0168993	
-0.0470463	0.0101594	-0.00364414	
-6.34562e-05	0.0094801	0.00127663	
-0.251325	0.00937931	-0.0192995	
-0.484216	0.0108524	-0.0398535	
0.205271	0.0114198	0.0179283	
-0.0057037	0.0120902	-0.000599365	
0.183309	0.0102395	0.0155517	
-0.846986	0.0121359	-0.0672924	
0.106065	0.0124273	0.00920328	
-3.26594e-05	0.0115238	0.000389522	
-2.34658e-05	0.0100909	0.000288234	
-3.9793e-05	0.00893481	0.000727694	
-4.89002e-05	0.0111578	0.000823422	
-1.15824e-06	0.0111439	3.21691e-06	
0.917656	-0.00348244	0.0686745	
-0.973229	0.0116461	-0.0805399	
-6.39977e-05	0.00943004	0.000845653	
1.93215e-06	0.0109462	-0.000155081	
-2.23283e-05	0.00623486	0.000484671	
2.3254	0.00285538	0.183056	
0.905127	0.0100243	0.0714639	
0.0783777	0.00752427	0.00633171	
0.817934	0.00541083	0.0666024	
0.237945	0.00931509	0.0114659	
1.1329	-0.0100229	0.153316	
9.49378e-05	0.00873692	-0.000902498	
-0.903165	0.0100554	-0.0588053	
-0.487325	0.00557866	-0.0393699	
-0.100909	0.00659922	-0.00947956	
1.75503	0.00401171	0.142082	
3.60899	-0.0126325	0.275266	
0.308897	0.00787175	0.0244932	
0.799395	0.00635535	0.0661493	
8.18521e-06	0.00617007	-0.000119223	
0.523102	0.0082578	0.0411753	
0.213494	0.00890145	0.0160028	
-0.613626	0.0078978	-0.0515598	
0.765849	0.00717331	0.0653258	
0.202759	0.0089793	0.0148442	
5.41028e-05	0.00913726	-0.000617438	
4.57122e-05	0.00786846	-0.00039006	
6.07261e-05	0.00890994	-0.000822134	
3.93587e-05	0.00840655	-0.000509509	
-0.0026455	0.0075125	-0.000186764	
2.38613e-05	0.00792867	-0.000286713	
4.75432e-06	0.00448449	-6.93633e-05	
2.10506e-05	0.00727906	-0.000255893	
-3.71632	-0.0218002	-0.300059	
0.0828377	0.00839066	0.00742214	
-1.05902	0.0101742	-0.0804024	
-0.0202516	0.00882809	0.000594535	
0.0103455	0.00827984	0.00162216	
-0.539284	0.008625	-0.0428543	
-1.7596	0.00440754	-0.142756	
-1.32124	-0.00681096	-0.15316	
-0.221623	0.00838893	-0.0162466	
-0.0516453	0.0085405	-0.00410672	
-9.91588e-05	0.00797442	0.00108092	