<VTKFile type="UnstructuredGrid" version="0.1" byte_order="LittleEndian">
	<UnstructuredGrid>
		<Piece NumberOfPoints="728" NumberOfCells="728">
			<CellData Scalars="scalars">
				<DataArray type="Float64" Name="Strength" NumberOfComponents="3" Format="ascii">
0.552998	-0.355427	-0.100086	
0.00883978	-1.04362	0.000984941	
0.00377654	-0.939535	0.0121695	
0.0874938	-0.818863	0.0231277	
0.000955167	-1.0677	0.0066101	
-0.02112	-1.00631	0.00739889	
0.00028416	-1.05348	-0.000285899	
-0.00901107	-1.04957	0.00929682	
-0.00695181	-0.855124	0.0682121	
0.00800987	-0.920354	0.013838	
0.140199	-0.56986	0.0357061	
0.0132388	-1.02635	-0.00686628	
-0.00787175	-0.972843	0.0211448	
-0.00722953	-1.04336	-0.0027602	
-0.0324151	-0.888451	0.0470333	
0.052939	-0.96466	-0.00880788	
0.0234807	-1.04723	-0.00321591	
-0.00448381	-1.01725	0.0075893	
0.00714991	-1.03541	-0.0137308	
-0.024158	-1.02944	0.0238624	
0.00491355	-1.03087	0.00381364	
-0.0155963	-1.02972	-0.000741753	
-0.0130639	-1.04731	0.0256098	
0.0239764	-1.05493	-0.00810895	
0.000520873	-1.05471	-0.00152655	
0.00687671	-1.02508	-0.00116446	
-0.0162397	-0.710235	0.0848487	
-0.0127005	-0.957359	0.0189497	
-0.0108813	-1.05579	0.00122731	
-0.00950199	-0.94418	-0.011801	
-0.0204939	-1.06843	0.00768796	
0.0291596	-1.05536	-0.0127918	
0.00429626	-1.03886	0.0023431	
-0.00399915	-0.835556	-0.0624461	
-0.326019	-0.587568	-0.00118689	
-0.00745395	-1.02686	0.00130401	
0.0110795	-0.976879	-0.0217637	
0.0299534	-1.03994	0.000228724	
0.00398997	-1.00827	0.000460221	
0.00460189	-0.878963	-0.039031	
-0.0549611	-0.96565	0.0104373	
-0.0233063	-1.0566	0.00483331	
0.00549323	-1.10287	-0.00725684	
-0.0260708	-1.02533	0.0174996	
0.00265798	-1.03167	-0.0171661	
0.0180088	-1.04625	-0.0175014	
0.00491992	-1.03566	-0.00705666	
0.00330387	-1.0701	0.0095921	
0.0300912	-0.916738	-0.0367498	
0.0141303	-1.04872	-0.0311415	
-0.0124488	-1.07453	-0.00203749	
-0.328187	-0.361688	0.00760952	
-0.0411869	-0.814961	-0.0852092	
0.0136438	-0.962862	-0.0199835	
-0.00426194	-1.05303	0.00471237	
0.0199158	-0.694973	-0.145919	
1.50294	0.0212362	-0.0685959	
0.0490669	-0.192188	-0.00573498	
0.124971	-0.164797	-0.0100161	
0.51773	-0.116771	-0.0409562	
-0.00956946	-0.206437	0.00298584	
-0.0481235	-0.206434	0.00743526	
0.000204242	-0.204749	0.00023542	
-0.0147956	-0.207968	0.00424933	
0.154826	-0.13315	-0.0049719	
0.149289	-0.160278	-0.0132316	
0.511984	-0.0631912	-0.0318271	
0.0492118	-0.210487	-0.00903122	
0.0388701	-0.182337	0.000572237	
0.0252241	-0.205362	-0.0030656	
-0.000931023	-0.150538	0.00933077	
0.246811	-0.187628	-0.0334512	
0.045238	-0.192167	-0.00639005	
-0.0686865	-0.20438	0.0124208	
0.0704386	-0.204253	-0.0124268	
-0.0296212	-0.194424	0.00904653	
0.00129724	-0.191193	0.00129038	
-0.000918985	-0.204886	0.000181098	
-0.000690572	-0.189682	0.00506875	
0.0027687	-0.201619	-0.00024261	
0.00497402	-0.209096	-0.00211851	
0.00113792	-0.204624	0.000135412	
0.00212472	-0.101935	0.0101495	
0.000752676	-0.176994	0.00841281	
-0.0486607	-0.209664	0.00623941	
-0.145255	-0.165798	0.0139831	
-0.0215075	-0.208694	0.00516927	
0.124416	-0.205942	-0.0191195	
0.032031	-0.210222	-0.00284784	
-0.265914	-0.145988	0.023294	
-1.26883	-0.0992603	0.164318	
-0.0739335	-0.212077	0.0122428	
-0.0290045	-0.18299	-0.0029893	
0.0785905	-0.207825	-0.0108225	
0.000101354	-0.205602	0.000343003	
-0.176624	-0.15539	0.0122861	
-0.246815	-0.188903	0.0323502	
-0.0904927	-0.194228	0.0143458	
0.0517179	-0.202092	-0.0102688	
-0.0873644	-0.20614	0.0154343	
-0.0593595	-0.196502	0.00554	
0.0283523	-0.192824	-0.00800042	
-5.87761e-05	-0.192281	-0.00218991	
-0.000115018	-0.200998	0.00146807	
0.0012002	-0.159801	-0.0122048	
0.000814985	-0.189949	-0.005589	
-0.00153431	-0.202827	-0.00122624	
-0.724844	-0.0435407	0.0505736	
-0.370951	-0.137079	0.0469496	
-0.000798588	-0.177476	-0.00925666	
-0.00104658	-0.206186	-0.000272548	
-0.000539523	-0.102274	-0.0214539	
2.50291	0.0869821	0.018765	
0.0867675	-0.0592529	0.00426624	
0.244873	-0.0435505	0.0171344	
0.905348	-0.00474021	0.0571061	
-0.0255943	-0.069298	-0.000370546	
-0.0594671	-0.070643	-0.00196598	
-4.52988e-05	-0.0688558	-0.000163875	
-0.0290066	-0.0706798	-0.000482806	
0.289345	-0.0284912	0.0290563	
0.272518	-0.0410525	0.0289284	
0.871472	0.012612	0.0121056	
0.0766648	-0.0732007	0.0015684	
0.087426	-0.0547649	0.00715291	
0.0409734	-0.0706654	0.00136444	
0.000270839	-0.0415175	0.00595452	
0.417337	-0.0530845	0.0209045	
0.0934722	-0.0601489	0.00363265	
-0.10154	-0.0700226	-0.00152257	
0.132448	-0.0680753	0.00300994	
-0.0390537	-0.0609501	0.000385823	
0.000161461	-0.0605562	0.000969427	
0.000126124	-0.0710038	0.000274891	
0.000423947	-0.059051	0.0025713	
0.000128129	-0.0658811	0.000437647	
0.00991633	-0.0724969	-4.24119e-05	
9.92542e-05	-0.0693831	0.000580117	
0.000907058	-0.0264421	0.00549588	
0.000445224	-0.0536883	0.00404601	
-0.0729452	-0.0725925	-0.00197569	
-0.281724	-0.0429901	-0.00835234	
-0.030585	-0.0697574	-6.39519e-05	
0.201117	-0.0688423	0.00361516	
0.05256	-0.0701559	0.00235592	
-0.485971	-0.0270948	-0.0321674	
-2.19813	0.0458917	-0.0133054	
-0.138306	-0.0736235	-0.00265231	
-0.0720176	-0.0551441	-0.00468827	
0.110969	-0.0688552	0.00456681	
4.89608e-05	-0.071	0.000417672	
-0.318174	-0.035864	-0.0215755	
-0.417238	-0.0529277	-0.0147134	
-0.166603	-0.0595962	-0.00572725	
0.081486	-0.0635868	0.00137512	
-0.143741	-0.0668077	-0.00396145	
-0.110639	-0.0599644	-0.00559256	
0.0423963	-0.0599661	-0.000154174	
-0.000152029	-0.0603722	-0.00137059	
-1.12564e-05	-0.0646268	0.000364919	
-0.000411815	-0.0455953	-0.00536352	
-0.000498324	-0.0590873	-0.00271295	
-0.000163807	-0.0646024	-0.000856739	
1.16811	-0.0149718	-0.0267177	
-0.662355	-0.0128919	-0.0237832	
-0.0004933	-0.0536565	-0.00395048	
-0.000102627	-0.0660912	-0.000178544	
-0.0010115	-0.0286032	-0.00301493	
3.29561	0.0525276	0.159579	
0.135582	0.0826373	-0.00402666	
0.326038	0.0866247	0.0014185	
1.12119	0.0923653	0.010659	
-0.0210183	0.076843	-0.000154267	
-0.0818307	0.0761258	-0.00556621	
0.000105839	0.0759862	-0.000656356	
-0.0353164	0.0778515	0.00256681	
0.360126	0.0803655	-0.00192188	
0.36156	0.0846498	0.00447195	
1.09417	0.057045	0.0311075	
0.114206	0.0746584	-0.00237577	
0.10809	0.0875301	0.00608331	
0.0583274	0.0784296	0.00560448	
-0.000430742	0.0788902	-0.0102525	
0.580907	0.097619	0.0430483	
0.152519	0.0806836	-0.0050052	
-0.128925	0.0809893	-0.00102955	
0.183133	0.0782556	0.00907597	
-0.0527727	0.0855359	-0.0112927	
0.000808919	0.0823251	-0.00855455	
-6.75538e-05	0.0780788	0.00224886	
-0.000548847	0.0863328	-0.00402894	
1.54379e-05	0.0810268	-0.00250884	
0.0173997	0.0754838	-0.000189976	
-0.000129165	0.079029	0.00188497	
-0.00141017	0.0511291	-0.00920036	
-0.00168218	0.0846651	-0.000199362	
-0.0983147	0.0747506	0.00169513	
-0.378672	0.0897558	0.000131947	
-0.0715042	0.0752133	-0.00679477	
0.281524	0.0739479	0.018193	
0.0652116	0.0776855	-0.00411246	
-0.574267	0.088802	-0.0300167	
-2.78768	0.0739211	-0.133025	
-0.193928	0.0727268	-0.00148606	
-0.0890044	0.088358	-0.0036631	
0.152093	0.0777738	-0.00562444	
-8.42781e-05	0.0738288	-0.000121574	
-0.422528	0.0866449	-0.0253064	
-0.578379	0.0969282	-0.038775	
-0.247844	0.0849338	0.0038605	
0.0967464	0.0820418	0.0028057	
-0.214139	0.0809422	-0.0114523	
-0.159686	0.0873316	0.00121768	
0.05611	0.0851786	0.0101579	
-0.00072299	0.0845995	0.00789154	
-0.000266152	0.0784207	0.00044052	
0.000403443	0.0827877	0.00579305	
0.000386231	0.0873734	0.00535468	
0.00030399	0.0842026	0.00100848	
1.59199	-0.0214296	0.0457425	
-0.805685	0.0876998	-0.0305903	
0.00179438	0.0858143	0.00169646	
0.000147388	0.0815417	-0.000765631	
0.00105723	0.0485205	0.00448683	
5.70429	-0.0921299	0.291336	
-2.02646	-0.436151	-0.194131	
0.612659	-0.420452	0.206314	
1.56616	-0.127648	0.0771382	
1.94823	-0.448254	0.141347	
-1.78205	-0.550336	-0.11717	
-0.000840322	-0.554123	-0.00597409	
-0.618593	-0.316241	0.0213794	
0.627664	-0.0997019	0.0516022	
1.14317	-0.209849	0.133837	
-0.252953	-0.268039	0.00406948	
-0.103516	-0.366459	-0.0213968	
3.06621	-0.395731	0.266872	
0.763656	-0.404955	0.108945	
-0.00406284	-0.109157	0.0337466	
0.818364	-0.552716	0.174904	
-0.977704	-0.246159	-0.122522	
0.162817	-0.122071	0.0161788	
1.45299	-0.257785	0.13899	
-0.329736	-0.526777	-0.0680325	
0.0145814	-0.263739	-0.0661951	
-0.0107048	-0.308162	0.0533257	
-0.00589153	-0.554772	0.030792	
0.00310734	-0.143266	-0.0126713	
0.018309	-0.340468	0.0108007	
-0.00377478	-0.178901	0.0234476	
-0.000487825	-0.0810903	0.0114365	
-0.0137067	-0.198785	0.0827306	
0.0933359	-0.340438	0.0202171	
-0.441706	-0.522514	-0.217037	
-2.34661	-0.450316	-0.196848	
0.411406	-0.533945	-0.0197405	
0.00511698	-0.284089	-0.0402973	
-1.03648	-0.219982	-0.124338	
-3.6411	-0.449954	-0.275566	
1.29983	-0.36782	0.0836738	
-2.74834	-0.436304	-0.223289	
0.184334	-0.27051	-0.0098004	
0.0014222	-0.534558	0.00927488	
-1.16812	-0.252029	-0.162837	
-0.79262	-0.605253	-0.112975	
0.681536	-0.264754	0.0743079	
-1.22854	-0.399029	-0.0876545	
0.348926	-0.355736	-0.000668482	
1.46212	-0.585085	0.118689	
0.991975	-0.432636	0.146785	
-0.0128279	-0.298439	0.0428212	
0.00364412	-0.270753	-0.0166997	
0.0175341	-0.279924	-0.0891965	
0.000614256	-0.600192	0.00518291	
-0.00203768	-0.193687	0.00610383	
2.12222	0.16379	0.0497691	
-1.24994	-0.20901	-0.114459	
0.0171665	-0.2813	-0.0916245	
0.00256613	-0.344091	-0.0235458	
0.00292402	-0.164814	-0.0281408	
4.43011	0.251459	0.295997	
0.0506294	0.574827	-0.0445275	
0.551976	0.666356	-0.00265688	
1.27206	0.428173	0.107387	
1.19916	0.724557	0.0711651	
-0.906418	0.765751	-0.124648	
-0.00115221	0.737096	-0.0271351	
-0.292674	0.625417	-0.0721734	
0.37792	0.422448	-0.00921868	
0.660276	0.519928	0.0297862	
1.1484	0.496491	0.0741026	
0.803841	0.623301	0.100961	
0.714789	0.602735	0.0366877	
0.488027	0.668129	0.0346665	
-0.00161729	0.451336	-0.0560657	
1.25681	0.826823	0.0795547	
-0.635846	0.53003	-0.0940909	
-0.266556	0.486634	-0.0294961	
0.798145	0.587053	0.0939524	
-0.17288	0.776501	-0.0962207	
0.00584794	0.53915	-0.0270507	
-0.00418684	0.619065	-0.0339541	
0.00292003	0.801754	-0.0634292	
0.00618139	0.497109	0.00509351	
0.0126422	0.539263	0.00427157	
-0.000148812	0.539511	-0.00184821	
-0.000850926	0.358827	-0.0303751	
0.00430061	0.542762	-0.0361885	
-0.792047	0.547042	-0.0676601	
-0.455344	0.689924	0.00690233	
-1.42331	0.705652	-0.143121	
0.930449	0.724595	0.0837268	
0.0751632	0.595887	0.016792	
-0.739261	0.412326	-0.0299378	
-2.89301	0.642313	-0.226856	
-0.035702	0.617689	0.0424006	
-0.440947	0.614786	-0.0309456	
-0.16682	0.582454	-0.0168724	
0.00328075	0.767054	0.0162416	
-0.690399	0.485715	-0.00707	
-1.1993	0.835983	-0.0582606	
0.441551	0.546864	0.043627	
-0.323675	0.6368	-0.0601435	
0.333439	0.658335	0.0394913	
-0.548666	0.787689	-0.00623046	
0.849363	0.580162	0.150036	
-0.00414718	0.551377	0.0104701	
-0.00136457	0.614493	0.0236821	
0.00146829	0.539174	0.0610044	
0.000419207	0.808754	0.0642594	
-0.00486586	0.524177	-0.0248514	
3.03259	-0.286059	0.199138	
-1.50144	0.448336	-0.145331	
-0.00533061	0.558383	0.0454555	
-0.00380822	0.632028	-0.00977045	
-0.000789584	0.425326	0.0419329	
2.95912	0.0864712	0.207389	
0.449944	0.325776	0.0487772	
0.377041	0.316533	0.0198102	
0.995045	0.190933	0.094035	
0.684762	0.349818	0.0639318	
-0.311147	0.346161	-0.049686	
3.12826e-05	0.384467	-0.0137635	
-0.350641	0.326513	-0.0633229	
0.147588	0.201615	0.00450743	
0.36761	0.254707	0.0207404	
1.10257	0.142765	0.0863726	
1.22101	0.325963	0.175761	
0.547547	0.285745	0.0505359	
0.407568	0.324527	0.0497121	
-7.16894e-06	0.223815	-0.0128639	
0.86026	0.301352	0.084045	
-0.446011	0.284313	-0.0610721	
-0.401566	0.268872	-0.0519183	
0.522463	0.294809	0.06587	
0.0432885	0.328866	-0.00696162	
0.00154026	0.294017	-0.00605935	
-0.000371699	0.309022	-0.00468636	
0.00227224	0.34868	-0.0191611	
0.00127851	0.274718	-0.000330589	
0.00870718	0.306866	0.00141177	
0.000393939	0.280813	-0.000902826	
-2.93055e-05	0.160548	-0.00700817	
0.00211471	0.276959	-0.0155534	
-1.22728	0.312953	-0.153151	
-0.24803	0.355778	-0.003532	
-0.932692	0.356958	-0.107043	
0.586664	0.38538	0.0881701	
0.0975504	0.330674	0.019627	
-0.56106	0.245571	-0.0442432	
-2.13105	0.170673	-0.182204	
-0.327093	0.329198	-0.0368063	
-0.364274	0.315379	-0.0287311	
-0.0971676	0.326422	-0.0170258	
0.000899655	0.348797	0.0100833	
-0.395995	0.258904	-0.0261731	
-0.82175	0.324664	-0.0923883	
0.390766	0.303298	0.0575931	
-0.0639899	0.364557	-0.0159044	
0.322136	0.32233	0.0408977	
-0.964537	0.34682	-0.117571	
0.604024	0.342066	0.0838228	
-0.00136666	0.309753	0.00382564	
-0.000317145	0.317756	-0.00155757	
-0.00119268	0.285369	0.0255102	
-0.00206289	0.370634	0.0189242	
-0.000916021	0.304231	-0.00697552	
1.78701	-0.0975924	0.122669	
-1.3182	0.239883	-0.143121	
-0.00296642	0.311305	0.0232687	
-0.00084301	0.328208	-0.00586955	
-0.000478752	0.19596	0.0137865	
2.44131	0.0412232	0.175521	
0.599374	0.166574	0.0512757	
0.307855	0.137834	0.0220757	
0.853392	0.0876516	0.0696513	
0.44861	0.164913	0.0355065	
0.0076669	0.16201	-0.00296211	
4.37988e-05	0.178644	-0.00547855	
-0.424088	0.154754	-0.0454123	
-0.000853732	0.0942369	-0.00362329	
0.225602	0.118054	0.0130496	
1.10564	0.0635287	0.0846134	
1.54553	0.155851	0.14646	
0.494143	0.131697	0.0386015	
0.444706	0.15339	0.0404561	
0.000101453	0.105681	-0.00396738	
0.663053	0.137848	0.0517784	
-0.339702	0.145751	-0.0335775	
-0.503627	0.138076	-0.049923	
0.446769	0.145604	0.0417277	
0.0844263	0.15679	0.00163532	
0.000464217	0.149253	-0.00237504	
0.000104077	0.150425	-0.00179684	
0.000519564	0.159348	-0.00726499	
0.000226145	0.139749	-0.000151425	
0.00521722	0.146432	0.00107149	
1.96109e-05	0.142061	0.000257865	
3.54479e-05	0.0740412	-0.00207609	
0.000418473	0.127535	-0.00545516	
-1.57392	0.149443	-0.162401	
-0.166237	0.154664	-0.00931886	
-0.76	0.168996	-0.0683235	
0.42639	0.179002	0.047204	
0.102228	0.158821	0.0138711	
-0.450847	0.122072	-0.0331622	
-1.82628	0.0709186	-0.145423	
-0.494857	0.157483	-0.0396453	
-0.351034	0.144211	-0.0319006	
-0.0893977	0.15802	-0.00836151	
9.38966e-05	0.163125	0.00489291	
-0.278702	0.123368	-0.0172824	
-0.63203	0.14764	-0.0591261	
0.364715	0.15591	0.036231	
0.0539207	0.175511	0.00320749	
0.302348	0.157894	0.0288565	
-0.982148	0.16535	-0.0862609	
0.443025	0.175565	0.0453557	
-0.000369562	0.158088	0.00104631	
-0.000147102	0.155868	-0.000524089	
-0.000474109	0.133031	0.00841741	
-0.000604855	0.168925	0.00720329	
-3.20577e-05	0.154688	-0.00254348	
1.33766	-0.0434371	0.0930932	
-1.17382	0.112892	-0.105843	
-0.000812161	0.142468	0.00890196	
-5.89702e-05	0.162996	-0.00324278	
-0.000210238	0.0854881	0.00441704	
2.23917	0.022093	0.160832	
0.580641	0.093919	0.0455727	
0.271802	0.0676545	0.018849	
0.818599	0.0480971	0.0628885	
0.406567	0.0782376	0.0277351	
0.189787	0.0752086	0.0139367	
-0.000111495	0.083986	-0.00219802	
-0.461456	0.0772453	-0.0415455	
-0.0662739	0.0485298	-0.00658581	
0.172667	0.0569703	0.0114603	
1.12858	0.0327517	0.0849236	
1.72972	0.0760652	0.147094	
0.445478	0.0667818	0.0333004	
0.421448	0.0788893	0.0340708	
2.87973e-05	0.0524715	-0.001621	
0.570235	0.0698851	0.0423452	
-0.217482	0.0805684	-0.0185599	
-0.480636	0.0705431	-0.0420183	
0.443943	0.072333	0.0386862	
0.0875926	0.0801162	0.00484451	
0.000130831	0.0845915	-0.00116505	
-8.2764e-06	0.0731158	-0.000734838	
5.7787e-05	0.0796433	-0.00269899	
0.00014058	0.0760199	-0.000457298	
0.00394749	0.0752746	0.00065576	
6.35017e-06	0.0705061	-0.00020663	
-3.50277e-06	0.0396882	-0.000807702	
7.57604e-05	0.0619383	-0.00213952	
-1.7686	0.0807353	-0.151939	
-0.125796	0.0745282	-0.00786272	
-0.793116	0.0805847	-0.0634938	
0.318607	0.0836694	0.0306907	
0.0812079	0.0808385	0.00881938	
-0.444945	0.0670756	-0.0323431	
-1.72469	0.0350551	-0.131698	
-0.587127	0.076724	-0.0491122	
-0.319702	0.0713487	-0.0231483	
-0.0187254	0.0821333	-0.00157974	
0.000190053	0.0750751	0.00225028	
-0.259026	0.0617972	-0.0173492	
-0.541654	0.0740278	-0.0445245	
0.29085	0.0847963	0.02488	
0.0452634	0.0908476	0.00330084	
0.29426	0.0768527	0.0249487	
-0.86521	0.0843003	-0.068376	
0.356639	0.0964951	0.0301442	
-0.000117919	0.0879951	0.000509241	
-8.12744e-06	0.0769947	-0.000169063	
-0.000120954	0.0637316	0.003089	
-5.6575e-05	0.0833768	0.00249527	
-7.65462e-06	0.0821427	-0.000663648	
1.14491	-0.0225585	0.0782292	
-1.08925	0.0608312	-0.0884127	
-0.000177215	0.068137	0.00299266	
-2.73273e-05	0.0810595	-0.00109575	
-3.22745e-05	0.0427113	0.00178122	
2.16176	0.0147122	0.157524	
0.622036	0.0601571	0.0477825	
0.220245	0.0449523	0.0165785	
0.791662	0.0297721	0.0607622	
0.357152	0.0498868	0.0279823	
0.351637	0.0485063	0.0268363	
-1.92773e-05	0.0532217	-0.00135254	
-0.512787	0.0476149	-0.0430767	
-0.136718	0.031351	-0.0110751	
0.11453	0.0386564	0.00803488	
1.19122	0.0214287	0.090544	
1.97658	0.0488973	0.148876	
0.400789	0.0471973	0.029825	
0.461626	0.0482342	0.0361151	
6.66265e-06	0.0348081	-0.000673529	
0.545732	0.0493736	0.0404468	
-0.131484	0.0516261	-0.0107677	
-0.49924	0.0462969	-0.0411169	
0.470762	0.0468878	0.0391058	
0.107245	0.0530549	0.00716161	
6.22628e-05	0.053548	-0.000720744	
5.90911e-06	0.0470538	-0.000452548	
2.29946e-05	0.0534876	-0.00149385	
6.75086e-05	0.0485136	-0.00022195	
0.00303227	0.0439955	0.000234905	
4.73416e-06	0.0464076	-0.000200446	
-3.83537e-07	0.0248939	-0.000357939	
2.26056e-05	0.0433767	-0.00093718	
-2.02589	0.0476103	-0.16034	
-0.076241	0.0494072	-0.00469432	
-0.799416	0.0517342	-0.0632865	
0.248727	0.0532247	0.0224651	
0.0724408	0.0492839	0.00697726	
-0.436769	0.0446664	-0.0320704	
-1.67557	0.0236448	-0.128239	
-0.694973	0.0485576	-0.0591776	
-0.285962	0.0503546	-0.0205553	
-0.017318	0.04979	-0.00126623	
5.132e-05	0.0481692	0.00137594	
-0.237781	0.0415439	-0.0164652	
-0.510451	0.0519209	-0.0405489	
0.258484	0.0552312	0.0208721	
0.0437314	0.0589683	0.0033064	
0.270679	0.0499209	0.0219742	
-0.840269	0.0561221	-0.0635926	
0.292249	0.0617854	0.0234858	
-5.54849e-05	0.0563136	0.000331662	
-1.31604e-05	0.049412	-3.24004e-05	
-2.97021e-05	0.0433168	0.00135629	
-1.79439e-05	0.056152	0.00136618	
6.04235e-06	0.0537076	-0.000255527	
1.05958	-0.015339	0.0733423	
-1.04287	0.0404565	-0.0823614	
-8.21356e-05	0.0472005	0.00146728	
-1.86546e-05	0.0532555	-0.000459405	
-7.1365e-06	0.0285067	0.000813484	
2.12795	0.0106287	0.157273	
0.663886	0.0416857	0.0506331	
0.184651	0.0316371	0.0143282	
0.774698	0.0208724	0.0597298	
0.317864	0.0337256	0.0257851	
0.487507	0.0327767	0.0393057	
7.10143e-05	0.036631	-0.000722821	
-0.568182	0.0328514	-0.0445215	
-0.198807	0.0228043	-0.015465	
0.0709807	0.0274781	0.00507409	
1.26311	0.0154854	0.096919	
2.22163	0.0324299	0.155447	
0.368853	0.0331056	0.0281515	
0.512988	0.0325966	0.039603	
1.70188e-05	0.0251073	-0.0003194	
0.534824	0.0342914	0.0404674	
-0.0699866	0.0369289	-0.00565753	
-0.50441	0.0326308	-0.0409383	
0.508068	0.0323623	0.0407378	
0.123848	0.0371895	0.00889229	
4.41033e-05	0.0377574	-0.000393185	
2.78812e-05	0.0325389	-0.000259298	
5.38413e-05	0.0374944	-0.000780548	
1.63196e-05	0.0347689	-0.000169537	
0.00160444	0.0304264	0.000159573	
1.40115e-06	0.0324343	-0.00015568	
9.92096e-06	0.0179666	-0.000167941	
3.43427e-05	0.0305879	-0.000404045	
-2.27919	0.0285454	-0.169054	
-0.0392075	0.0350528	-0.00239442	
-0.81413	0.0349274	-0.0644737	
0.191342	0.0371853	0.0170285	
0.0620445	0.0338391	0.00569885	
-0.436383	0.0320775	-0.0325068	
-1.65107	0.01689	-0.127184	
-0.79065	0.0314256	-0.0669495	
-0.261718	0.0355361	-0.019974	
-0.0264107	0.0343426	-0.00206094	
-8.85903e-05	0.0331106	0.000791344	
-0.229198	0.0298459	-0.0163241	
-0.499154	0.0362113	-0.0394468	
0.244842	0.0393002	0.0192782	
0.0329779	0.041764	0.00254864	
0.246825	0.034998	0.0196208	
-0.83032	0.0388311	-0.0623639	
0.245699	0.0433733	0.0190244	
-2.67517e-05	0.0396996	0.000181369	
-4.8582e-06	0.0345585	-3.37298e-06	
-3.14975e-05	0.0310305	0.000648646	
-4.92439e-05	0.0393419	0.00070426	
1.10036e-05	0.0383965	-3.58615e-05	
1.00485	-0.011238	0.0706391	
-1.01176	0.0280454	-0.0798731	
-5.85339e-05	0.0335314	0.000676247	
-3.75695e-06	0.037598	-0.000142962	
-2.47901e-05	0.0207222	0.000416593	
2.12488	0.00781527	0.159266	
0.702273	0.0303916	0.0534314	
0.156732	0.0226896	0.0126078	
0.769027	0.0150755	0.0593988	
0.293179	0.0245117	0.0253529	
0.610516	0.0238189	0.0469654	
6.10817e-05	0.0265674	-0.000466032	
-0.625426	0.0241936	-0.0501112	
-0.253138	0.0165852	-0.0193675	
0.0347861	0.0197743	0.00253757	
1.34067	0.0112606	0.10411	
2.46276	0.0240224	0.160309	
0.347023	0.0237061	0.0269283	
0.562833	0.0237676	0.0427296	
7.21408e-06	0.0181158	-0.000123151	
0.527069	0.0245063	0.0403713	
-0.0150959	0.0269181	-0.00131096	
-0.516255	0.0238967	-0.0418664	
0.54926	0.0236271	0.0444833	
0.138097	0.026932	0.0102889	
2.70504e-05	0.0276238	-0.000227114	
1.90359e-05	0.0237157	-0.000145839	
3.31746e-05	0.0271007	-0.000426731	
6.89937e-06	0.0253856	-6.46999e-05	
0.00113552	0.0221581	9.81365e-05	
8.50842e-08	0.0237579	-9.86005e-05	
5.68219e-06	0.0130572	-6.76973e-05	
2.14444e-05	0.0219831	-0.000195356	
-2.52908	0.0203667	-0.17402	
-0.0104126	0.0254914	-0.000558401	
-0.84443	0.0253399	-0.0680461	
0.145626	0.0270895	0.0133514	
0.0521211	0.0249116	0.00460287	
-0.444507	0.023831	-0.0333432	
-1.64282	0.0126118	-0.128005	
-0.884396	0.0221482	-0.0707511	
-0.245547	0.0257944	-0.0190956	
-0.0317567	0.0253261	-0.00256386	
-8.00305e-05	0.0241317	0.00056098	
-0.228158	0.0220015	-0.0163267	
-0.49196	0.0261874	-0.039245	
0.233677	0.0287736	0.018008	
0.0243192	0.0305366	0.00189921	
0.228846	0.02559	0.0180921	
-0.826263	0.0282936	-0.0612683	
0.208037	0.0317977	0.0156011	
-1.47859e-05	0.029146	8.76807e-05	
-4.42974e-06	0.0253553	1.56155e-05	
-1.80417e-05	0.0227371	0.000328805	
-3.08596e-05	0.0286629	0.000396202	
1.12458e-05	0.0281186	-1.1893e-05	
0.96733	-0.00830198	0.0690584	
-0.992874	0.0205469	-0.0792473	
-3.11072e-05	0.0244091	0.000299435	
-6.30529e-07	0.0275579	-9.24006e-05	
-1.75774e-05	0.0154411	0.000214831	
2.14499	0.00602768	0.162886	
0.73961	0.0230285	0.0575853	
0.136036	0.0170854	0.0110144	
0.774593	0.0116758	0.0607374	
0.278773	0.0182669	0.0234672	
0.724249	0.0177348	0.0568413	
-3.58598e-06	0.0197822	0.000146926	
-0.679651	0.018186	-0.0540926	
-0.302992	0.0126457	-0.0235671	
0.00345596	0.0149733	0.000270721	
1.41705	0.00854654	0.111809	
2.69014	0.0176207	0.192061	
0.333203	0.0177419	0.0264095	
0.608653	0.0180041	0.0472077	
-2.32691e-06	0.0137575	5.32521e-06	
0.522474	0.0183398	0.0410484	
0.0383588	0.020285	0.0029064	
-0.531528	0.0179277	-0.0425235	
0.590845	0.0177539	0.0472359	
0.15171	0.0202648	0.0119393	
3.31977e-07	0.0209001	5.99023e-05	
3.29163e-07	0.0177973	5.82129e-05	
-8.00419e-06	0.0203598	6.84431e-05	
3.75591e-06	0.0190408	-2.51376e-05	
0.000302767	0.0169102	-1.67211e-06	
-3.7455e-06	0.0178138	-2.70618e-05	
-1.71549e-06	0.0101444	2.62938e-05	
-8.0188e-07	0.0165196	6.18781e-05	
-2.76533	0.0162669	-0.20297	
0.0128438	0.0192054	0.000948003	
-0.885061	0.0189161	-0.0710482	
0.105824	0.0201571	0.00867383	
0.0421925	0.0188136	0.00335563	
-0.458828	0.0183296	-0.0356906	
-1.65343	0.00952855	-0.130607	
-0.974599	0.0171692	-0.0748951	
-0.236357	0.019313	-0.0187873	
-0.0342015	0.0191859	-0.00285886	
4.04259e-06	0.0179786	-0.000183268	
-0.231076	0.0167577	-0.0176641	
-0.487061	0.0196582	-0.0389597	
0.222337	0.0218381	0.0173309	
0.0147962	0.0231045	0.00123082	
0.21389	0.0192685	0.0169419	
-0.824722	0.0214019	-0.0633646	
0.177378	0.0241373	0.0134546	
-3.05158e-06	0.0222046	-2.87424e-05	
-9.10165e-07	0.0191028	-1.1534e-05	
7.20727e-06	0.017232	-2.50356e-05	
8.29342e-06	0.0215861	-7.12333e-05	
3.25714e-06	0.0212986	5.5256e-05	
0.944114	-0.0064631	0.0684235	
-0.979187	0.015825	-0.0781097	
-3.36857e-07	0.0183923	-5.8615e-05	
-4.7717e-06	0.0207971	-6.8536e-06	
4.7107e-06	0.0117084	-5.46617e-05	
				</DataArray>
				<DataArray type="Float64" Name="Time Step Shed" NumberOfComponents="1" Format="ascii">
3	
3	
3	
3	
3	
3	
3	
3	
3	
3	
3	
3	
3	
3	
3	
3	
3	
3	
3	
3	
3	
3	
3	
3	
3	
3	
3	
3	
3	
3	
3	
3	
3	
3	
3	
3	
3	
3	
3	
3	
3	
3	
3	
3	
3	
3	
3	
3	
3	
3	
3	
3	
3	
3	
3	
3	
4	
4	
4	
4	
4	
4	
4	
4	
4	
4	
4	
4	
4	
4	
4	
4	
4	
4	
4	
4	
4	
4	
4	
4	
4	
4	
4	
4	
4	
4	
4	
4	
4	
4	
4	
4	
4	
4	
4	
4	
4	
4	
4	
4	
4	
4	
4	
4	
4	
4	
4	
4	
4	
4	
4	
4	
5	
5	
5	
5	
5	
5	
5	
5	
5	
5	
5	
5	
5	
5	
5	
5	
5	
5	
5	
5	
5	
5	
5	
5	
5	
5	
5	
5	
5	
5	
5	
5	
5	
5	
5	
5	
5	
5	
5	
5	
5	
5	
5	
5	
5	
5	
5	
5	
5	
5	
5	
5	
5	
5	
5	
5	
6	
6	
6	
6	
6	
6	
6	
6	
6	
6	
6	
6	
6	
6	
6	
6	
6	
6	
6	
6	
6	
6	
6	
6	
6	
6	
6	
6	
6	
6	
6	
6	
6	
6	
6	
6	
6	
6	
6	
6	
6	
6	
6	
6	
6	
6	
6	
6	
6	
6	
6	
6	
6	
6	
6	
6	
7	
7	
7	
7	
7	
7	
7	
7	
7	
7	
7	
7	
7	
7	
7	
7	
7	
7	
7	
7	
7	
7	
7	
7	
7	
7	
7	
7	
7	
7	
7	
7	
7	
7	
7	
7	
7	
7	
7	
7	
7	
7	
7	
7	
7	
7	
7	
7	
7	
7	
7	
7	
7	
7	
7	
7	
8	
8	
8	
8	
8	
8	
8	
8	
8	
8	
8	
8	
8	
8	
8	
8	
8	
8	
8	
8	
8	
8	
8	
8	
8	
8	
8	
8	
8	
8	
8	
8	
8	
8	
8	
8	
8	
8	
8	
8	
8	
8	
8	
8	
8	
8	
8	
8	
8	
8	
8	
8	
8	
8	
8	
8	
9	
9	
9	
9	
9	
9	
9	
9	
9	
9	
9	
9	
9	
9	
9	
9	
9	
9	
9	
9	
9	
9	
9	
9	
9	
9	
9	
9	
9	
9	
9	
9	
9	
9	
9	
9	
9	
9	
9	
9	
9	
9	
9	
9	
9	
9	
9	
9	
9	
9	
9	
9	
9	
9	
9	
9	
10	
10	
10	
10	
10	
10	
10	
10	
10	
10	
10	
10	
10	
10	
10	
10	
10	
10	
10	
10	
10	
10	
10	
10	
10	
10	
10	
10	
10	
10	
10	
10	
10	
10	
10	
10	
10	
10	
10	
10	
10	
10	
10	
10	
10	
10	
10	
10	
10	
10	
10	
10	
10	
10	
10	
10	
11	
11	
11	
11	
11	
11	
11	
11	
11	
11	
11	
11	
11	
11	
11	
11	
11	
11	
11	
11	
11	
11	
11	
11	
11	
11	
11	
11	
11	
11	
11	
11	
11	
11	
11	
11	
11	
11	
11	
11	
11	
11	
11	
11	
11	
11	
11	
11	
11	
11	
11	
11	
11	
11	
11	
11	
12	
12	
12	
12	
12	
12	
12	
12	
12	
12	
12	
12	
12	
12	
12	
12	
12	
12	
12	
12	
12	
12	
12	
12	
12	
12	
12	
12	
12	
12	
12	
12	
12	
12	
12	
12	
12	
12	
12	
12	
12	
12	
12	
12	
12	
12	
12	
12	
12	
12	
12	
12	
12	
12	
12	
12	
13	
13	
13	
13	
13	
13	
13	
13	
13	
13	
13	
13	
13	
13	
13	
13	
13	
13	
13	
13	
13	
13	
13	
13	
13	
13	
13	
13	
13	
13	
13	
13	
13	
13	
13	
13	
13	
13	
13	
13	
13	
13	
13	
13	
13	
13	
13	
13	
13	
13	
13	
13	
13	
13	
13	
13	
14	
14	
14	
14	
14	
14	
14	
14	
14	
14	
14	
14	
14	
14	
14	
14	
14	
14	
14	
14	
14	
14	
14	
14	
14	
14	
14	
14	
14	
14	
14	
14	
14	
14	
14	
14	
14	
14	
14	
14	
14	
14	
14	
14	
14	
14	
14	
14	
14	
14	
14	
14	
14	
14	
14	
14	
15	
15	
15	
15	
15	
15	
15	
15	
15	
15	
15	
15	
15	
15	
15	
15	
15	
15	
15	
15	
15	
15	
15	
15	
15	
15	
15	
15	
15	
15	
15	
15	
15	
15	
15	
15	
15	
15	
15	
15	
15	
15	
15	
15	
15	
15	
15	
15	
15	
15	
15	
15	
15	
15	
15	
15	
				</DataArray>
			</CellData>
			<Points>
				<DataArray type="Float64" Name="Position" NumberOfComponents="3" Format="ascii">
1.1615	1.9562	0.0319648	
1.19134	1.03588	-0.0689309	
1.19779	1.46904	-0.0630794	
1.19541	1.75236	-0.0418819	
1.19998	0.321772	-0.0705767	
1.20282	0.177189	-0.0620226	
1.20436	0.25172	-0.0600933	
1.20266	0.392045	-0.0678165	
1.19511	1.6817	-0.0452404	
1.19581	1.53645	-0.0594304	
1.18573	1.88832	0.00523665	
1.19866	0.1077	-0.0694458	
1.19867	1.32267	-0.0607662	
1.204	0.463976	-0.0674379	
1.19269	1.60997	-0.0546605	
1.1996	1.25111	-0.0588929	
1.19031	0.895185	-0.0751786	
1.20563	0.750514	-0.0502062	
1.20676	0.607069	-0.0514223	
1.19536	1.10833	-0.0706224	
1.19228	0.964437	-0.0751727	
1.20689	0.534267	-0.0565889	
1.1975	1.1812	-0.0693408	
1.20035	0.823134	-0.0591652	
1.19276	0.0356597	-0.0722046	
1.20663	0.679528	-0.0626654	
1.19353	1.81945	-0.0179745	
1.19887	1.39838	-0.0619329	
1.19284	-0.0376176	-0.0737416	
1.19926	-1.46755	-0.0590755	
1.19962	-0.322587	-0.0681741	
1.20633	-0.248091	-0.0577606	
1.20102	-0.394188	-0.0681719	
1.20274	-1.68317	-0.0388812	
1.18896	-1.89088	0.0178414	
1.19935	-0.110364	-0.0689873	
1.20188	-1.32483	-0.0580924	
1.20263	-0.464789	-0.0634981	
1.2041	-0.178058	-0.057994	
1.19937	-1.60957	-0.0536394	
1.20321	-1.25145	-0.0584569	
1.19309	-0.894216	-0.0712976	
1.20265	-0.751708	-0.0596624	
1.2031	-0.608073	-0.0540042	
1.19903	-1.10733	-0.0670809	
1.19261	-1.03751	-0.0668193	
1.1958	-0.965259	-0.0718981	
1.20299	-0.535736	-0.0645733	
1.19208	-1.53855	-0.0666301	
1.2008	-1.18015	-0.0647236	
1.19904	-0.824131	-0.0637033	
1.1634	-1.96271	0.0401543	
1.20187	-1.75243	-0.029878	
1.20132	-1.39837	-0.0611471	
1.20083	-0.679033	-0.0683658	
1.20009	-1.82371	-0.00814353	
1.05845	1.95883	0.0187084	
1.08823	1.03191	0.0339383	
1.07859	1.4594	0.0157201	
1.07026	1.74188	-0.000722217	
1.08949	0.32221	0.0439347	
1.09097	0.17638	0.0448328	
1.09046	0.25104	0.0460619	
1.08891	0.391801	0.0425982	
1.06379	1.67335	-0.0177348	
1.06672	1.53028	-0.00893092	
1.06302	1.88613	0.00396116	
1.09229	0.108942	0.0479539	
1.07775	1.31879	0.0197147	
1.08781	0.458949	0.0398927	
1.07549	1.60043	0.00559882	
1.0778	1.24316	0.0236215	
1.08604	0.894137	0.0342111	
1.07989	0.748791	0.0320455	
1.08482	0.599734	0.0383266	
1.08621	1.10624	0.0327502	
1.08579	0.961654	0.032434	
1.08711	0.531542	0.0415534	
1.08328	1.1768	0.0291521	
1.0854	0.821685	0.0352652	
1.09263	0.0382796	0.04722	
1.08683	0.676454	0.0430667	
1.06387	1.81621	-0.00823429	
1.08041	1.38806	0.02244	
1.0944	-0.0375656	0.0517	
1.07644	-1.46054	0.0177402	
1.0888	-0.322954	0.0461139	
1.08751	-0.24921	0.0472166	
1.08652	-0.394516	0.0434908	
1.06994	-1.67338	0.00699621	
1.06424	-1.89031	0.0247246	
1.09188	-0.108505	0.0497391	
1.0816	-1.31948	0.0330722	
1.08387	-0.466574	0.0402579	
1.08981	-0.176177	0.0468603	
1.07577	-1.60033	0.0165507	
1.07971	-1.25042	0.032312	
1.08421	-0.892077	0.0359062	
1.0813	-0.75006	0.036762	
1.08297	-0.604047	0.0362551	
1.0853	-1.10317	0.0339563	
1.08505	-1.03287	0.033504	
1.08537	-0.961539	0.0372904	
1.08388	-0.531987	0.0399288	
1.08149	-1.52686	0.0224696	
1.08735	-1.17471	0.0378577	
1.08381	-0.822716	0.0365604	
1.05944	-1.96661	0.0284016	
1.07074	-1.74482	0.0132882	
1.08035	-1.39042	0.0293899	
1.08704	-0.678805	0.0441052	
1.06827	-1.81827	0.0171827	
0.8227	1.9619	-0.0180647	
0.756392	1.03358	-0.0671582	
0.759993	1.46421	-0.0800708	
0.762679	1.75226	-0.08108	
0.755514	0.31715	-0.0491426	
0.754986	0.178298	-0.0426332	
0.753848	0.249281	-0.0439638	
0.753998	0.390461	-0.0438645	
0.762381	1.67835	-0.0892126	
0.76121	1.5329	-0.085991	
0.76448	1.88875	-0.0415621	
0.754889	0.106098	-0.04477	
0.758084	1.31829	-0.0715195	
0.75501	0.464561	-0.0488216	
0.761899	1.60357	-0.0890465	
0.757282	1.24578	-0.0689663	
0.755647	0.89232	-0.0572811	
0.75453	0.748707	-0.0448609	
0.75483	0.60287	-0.045922	