<VTKFile type="UnstructuredGrid" version="0.1" byte_order="LittleEndian">
	<UnstructuredGrid>
		<Piece NumberOfPoints="448" NumberOfCells="448">
			<CellData Scalars="scalars">
				<DataArray type="Float64" Name="Strength" NumberOfComponents="3" Format="ascii">
0.557375	-0.349646	-0.0960601	
0.0129973	-1.04358	-0.00350884	
0.0199389	-0.939398	0.0053935	
0.12211	-0.814661	0.01042	
0.00275018	-1.06771	0.00493843	
-0.019553	-1.00636	0.00419229	
0.00100687	-1.05348	-0.00155234	
-0.0046929	-1.04963	0.00648136	
0.0232894	-0.856435	0.0434683	
0.0292051	-0.920008	0.00629752	
0.151861	-0.567503	0.0234388	
0.0160382	-1.02631	-0.00715648	
0.00193631	-0.973011	0.0135749	
0.00189294	-1.04338	-0.00545122	
-0.00660415	-0.889662	0.0325854	
0.0671129	-0.963714	-0.0144327	
0.0134689	-1.04742	0.00155547	
-0.0153106	-1.0171	0.0125018	
0.0129716	-1.03537	-0.013384	
-0.015174	-1.0298	0.0134093	
0.00183497	-1.03088	0.00272956	
-0.00595347	-1.02982	-0.00399574	
-0.000804109	-1.0476	0.0147539	
0.00960147	-1.0552	0.000488151	
0.000648721	-1.05471	-0.00146002	
0.00367616	-1.0251	0.00218102	
0.00894354	-0.712088	0.0686553	
-0.00122588	-0.957552	0.0125094	
-0.0155423	-1.05573	0.00386163	
-0.0254893	-0.943944	-0.00533441	
-0.0164367	-1.06853	0.00305589	
0.0318843	-1.0553	-0.0117342	
0.00693017	-1.03886	-0.000892594	
-0.0452261	-0.835858	-0.0364246	
-0.345173	-0.575969	0.025564	
-0.0137103	-1.02679	0.00468035	
0.00168219	-0.977065	-0.0153667	
0.0304931	-1.03994	-0.000392453	
0.00074093	-1.00828	0.00238359	
-0.0309655	-0.87905	-0.0202688	
-0.0682234	-0.964773	0.0133007	
-0.0219373	-1.05664	0.00297945	
0.0122971	-1.1028	-0.0097622	
-0.0267322	-1.02536	0.0153488	
-0.0085731	-1.03175	-0.00760521	
0.01051	-1.04647	-0.00885446	
0.00197166	-1.0357	-0.00348729	
0.00176824	-1.07012	0.00831928	
0.0067767	-0.917614	-0.024467	
0.00123899	-1.0491	-0.0191981	
-0.00704898	-1.07457	-0.00521437	
-0.33563	-0.353816	0.0275769	
-0.0821915	-0.814741	-0.0501493	
0.00186755	-0.963068	-0.0137526	
-0.000966997	-1.05305	0.00340239	
-0.00447843	-0.703177	-0.100966	
1.50397	0.00462276	-0.0446841	
0.0495643	-0.192111	-0.00377946	
0.125549	-0.164553	-0.00603355	
0.520006	-0.110811	-0.0257512	
-0.00972776	-0.206443	0.00199412	
-0.0485577	-0.20643	0.00394443	
0.000167426	-0.20475	2.00506e-05	
-0.0148157	-0.207994	0.00263416	
0.156141	-0.131666	-0.00302518	
0.150516	-0.159497	-0.00760211	
0.51239	-0.0654287	-0.0174647	
0.0498479	-0.210467	-0.00526028	
0.0388786	-0.182338	0.000158558	
0.0258548	-0.205299	-0.00197063	
0.000317706	-0.150747	0.00494086	
0.248825	-0.186944	-0.0194218	
0.0442523	-0.192477	-0.00319485	
-0.0706689	-0.203945	0.00745322	
0.0711024	-0.204256	-0.00776579	
-0.0291591	-0.194649	0.00462024	
0.000541262	-0.1912	0.000764451	
-0.000475958	-0.204888	-0.000322146	
-0.000197655	-0.189734	0.00260726	
0.00115381	-0.201636	0.000295087	
0.00516512	-0.209101	-0.00111044	
0.000483489	-0.204628	0.000323322	
0.00202584	-0.102204	0.00697698	
0.000344954	-0.177139	0.00448774	
-0.0490928	-0.209624	0.00377291	
-0.146576	-0.165014	0.00836793	
-0.0216028	-0.208735	0.00250241	
0.125516	-0.205866	-0.0109983	
0.0325787	-0.210149	-0.00200593	
-0.26965	-0.140199	0.0140429	
-1.27818	-0.0733474	0.0866995	
-0.0747032	-0.212039	0.00721752	
-0.0288374	-0.183036	-0.00155014	
0.0793086	-0.207752	-0.00579801	
-7.95589e-05	-0.205604	0.000460543	
-0.179489	-0.152358	0.00799607	
-0.248908	-0.18798	0.0188959	
-0.0907781	-0.19446	0.0080501	
0.0530138	-0.201922	-0.00621246	
-0.0877509	-0.206363	0.00891432	
-0.0608707	-0.196084	0.00376504	
0.0280459	-0.192991	-0.0041424	
-3.61013e-05	-0.192291	-0.00109097	
5.6264e-05	-0.201002	0.00100916	
0.000372876	-0.160127	-0.00678569	
0.000310765	-0.190011	-0.00296512	
-0.000701164	-0.202833	-0.00106288	
-0.726108	-0.0357193	0.0363227	
-0.37628	-0.127492	0.0274523	
-0.000352009	-0.177649	-0.00500165	
-0.000389624	-0.20619	-0.000203061	
-0.000756306	-0.103741	-0.0125549	
2.5039	0.0380663	0.0362825	
0.0866189	-0.0595173	0.00355324	
0.244905	-0.0449523	0.0123756	
0.906127	-0.0154485	0.0402303	
-0.0255726	-0.0693053	-0.000509059	
-0.0594492	-0.0706533	-0.002098	
-2.70556e-05	-0.0688565	-0.000145479	
-0.0290122	-0.0706766	-0.000595615	
0.2899	-0.0314064	0.0186503	
0.273092	-0.0431858	0.018533	
0.871389	-0.0051142	0.0200841	
0.0766779	-0.0731727	0.00209122	
0.0871712	-0.0554033	0.00504844	
0.040922	-0.0706958	0.00136222	
0.000262845	-0.0418119	0.0033081	
0.417166	-0.0557254	0.0169533	
0.093363	-0.0603327	0.00338021	
-0.101548	-0.0699812	-0.00238021	
0.13237	-0.068193	0.00361286	
-0.0391896	-0.0608615	-0.000363867	
4.9636e-05	-0.0605625	0.000510025	
5.44828e-05	-0.0710049	0.000123355	
0.000190699	-0.0590902	0.0014769	
3.85033e-05	-0.0658827	0.000256474	
0.00995881	-0.0724916	0.000148889	
4.63624e-05	-0.069385	0.000392271	
0.000433758	-0.0268467	0.00304698	
0.000237789	-0.053796	0.00224377	
-0.0728667	-0.0726641	-0.00218525	
-0.281438	-0.0445838	-0.0094492	
-0.0307117	-0.0696999	-0.000596116	
0.200976	-0.0691263	0.00527961	
0.05246	-0.0702411	0.00198268	
-0.486052	-0.0324379	-0.0251844	
-2.19798	0.012144	-0.0515628	
-0.138237	-0.0737123	-0.00350134	
-0.071668	-0.0556719	-0.0037271	
0.110907	-0.0689744	0.00416408	
2.80495e-05	-0.0710013	0.000282929	
-0.318119	-0.0387875	-0.0167567	
-0.416863	-0.0557311	-0.0148274	
-0.166478	-0.0599479	-0.00563485	
0.0815374	-0.0635013	0.00195494	
-0.143685	-0.0669007	-0.0043295	
-0.110465	-0.0603622	-0.00469312	
0.0425418	-0.0598583	0.000621065	
-5.28307e-05	-0.0603843	-0.000706087	
6.69731e-06	-0.0646281	0.000179626	
-0.000247744	-0.0458188	-0.00290947	
-0.000219546	-0.059133	-0.0014843	
-6.83727e-05	-0.0646066	-0.000542928	
1.16846	-0.00192392	-0.00802566	
-0.66205	-0.023188	-0.0242468	
-0.000206192	-0.0537617	-0.0021407	
-3.53889e-05	-0.066092	-9.43317e-05	
-0.000482977	-0.0287259	-0.00168957	
3.29619	0.0321045	0.151794	
0.135104	0.0834781	0.002065	
0.326672	0.083758	0.00845602	
1.12188	0.0781589	0.0304987	
-0.0208819	0.0768771	-0.000797605	
-0.0819693	0.0760403	-0.00459763	
4.9844e-05	0.0759895	-0.000258558	
-0.0349029	0.0780808	-4.77536e-05	
0.360729	0.0772873	0.00688079	
0.361668	0.0838008	0.00872213	
1.09427	0.0462383	0.0429484	
0.113687	0.0754473	0.0021596	
0.109319	0.0860428	0.0051551	
0.0586894	0.0782644	0.00384518	
-0.00034468	0.0793758	-0.00534953	
0.582659	0.0905147	0.0336705	
0.152061	0.081661	0.00200853	
-0.128895	0.0809319	-0.00425288	
0.183194	0.0780781	0.00926239	
-0.0530716	0.085857	-0.00642478	
0.000296978	0.0826931	-0.00363223	
-6.91644e-05	0.0781068	0.000906919	
-0.000189696	0.0864048	-0.00203856	
2.82721e-05	0.0810589	-0.00109542	
0.0172101	0.0755273	0.000392871	
-8.68711e-05	0.0790496	0.000657181	
-0.000591457	0.0517787	-0.0044112	
-0.000567166	0.0846761	-0.00085839	
-0.0980772	0.0750515	-0.00197083	
-0.379444	0.0857058	-0.01079	
-0.0717152	0.0751636	-0.00481314	
0.281689	0.073877	0.0156376	
0.0650465	0.0779326	0.000105892	
-0.575281	0.0824249	-0.028515	
-2.7878	0.0528391	-0.139445	
-0.19349	0.0736276	-0.00613417	
-0.0904486	0.0868659	-0.00382554	
0.15198	0.0781737	0.00169643	
-3.93541e-05	0.0738297	-7.39575e-05	
-0.42312	0.0853099	-0.0189556	
-0.57972	0.0907822	-0.032972	
-0.247833	0.0848757	-0.00505367	
0.0965752	0.0821879	0.004135	
-0.214128	0.0810398	-0.0108247	
-0.159334	0.0878287	-0.0050233	
0.0565381	0.0852912	0.00602434	
-0.000274521	0.0848986	0.00350587	
-6.04698e-05	0.0784233	-2.77739e-05	
0.00036405	0.0829336	0.0030974	
0.000120661	0.0874985	0.00265686	
9.82835e-05	0.0842077	0.000621655	
1.5919	-0.0148476	0.0503993	
-0.806531	0.0768142	-0.0365594	
0.000523978	0.0858381	0.00134521	
5.50359e-05	0.0815457	-0.000302299	
0.000484223	0.0486778	0.00239612	
5.70378	-0.0998036	0.297106	
-2.04004	-0.38831	-0.146934	
0.630995	-0.430383	0.106549	
1.56636	-0.121438	0.0822394	
1.95307	-0.431727	0.124405	
-1.78462	-0.543247	-0.110239	
-0.000249134	-0.554162	-0.0015678	
-0.611923	-0.329448	-0.00959812	
0.628958	-0.0961053	0.0416645	
1.15099	-0.192303	0.0831551	
-0.252874	-0.268012	-0.00780146	
-0.106527	-0.366024	-0.0121216	
3.08013	-0.309773	0.213675	
0.773525	-0.394538	0.0707742	
-0.00112342	-0.113426	0.0142753	
0.834155	-0.547521	0.101307	
-0.986386	-0.226747	-0.0841203	
0.163128	-0.122086	0.0125385	
1.45849	-0.240463	0.108604	
-0.337044	-0.525145	-0.038216	
0.00384413	-0.270866	-0.027448	
-0.00301259	-0.312075	0.0228959	
-0.00142324	-0.555507	0.0127818	
0.000809998	-0.143757	-0.00542549	
0.0181693	-0.34061	0.00552534	
-0.00115507	-0.180157	0.0108513	
-0.000141868	-0.0817579	0.00476274	
-0.0039016	-0.212767	0.0355733	
0.095349	-0.340312	0.0108287	
-0.46904	-0.532816	-0.106818	
-2.35571	-0.41559	-0.160437	
0.40506	-0.539093	0.00514832	
-0.00107518	-0.286457	-0.0172886	
-1.04306	-0.205337	-0.089606	
-3.644	-0.441708	-0.248957	
1.30143	-0.363513	0.0766516	
-2.7607	-0.368452	-0.189931	
0.180092	-0.273512	0.00216699	
0.000277775	-0.534631	0.00373423	
-1.17912	-0.231057	-0.103901	
-0.803921	-0.595824	-0.0782172	
0.686723	-0.25562	0.0560651	
-1.22891	-0.400044	-0.0769864	
0.346349	-0.358057	0.010978	
1.47185	-0.56442	0.0955573	
1.00729	-0.411564	0.0928545	
-0.00317379	-0.301152	0.0184628	
0.000943953	-0.271194	-0.00735739	
0.00430067	-0.291689	-0.0388942	
0.000240551	-0.600222	0.00100184	
-0.000516204	-0.193782	0.00226091	
2.12203	0.162318	0.0602933	
-1.25407	-0.193984	-0.0938329	
0.00475273	-0.293584	-0.0404122	
0.0007407	-0.344777	-0.00955493	
0.000960202	-0.166713	-0.0131283	
4.43021	0.246931	0.2968	
0.0486693	0.576541	-0.0143765	
0.552215	0.665685	0.0238458	
1.2776	0.416014	0.0863799	
1.20403	0.716501	0.0696312	
-0.910178	0.767577	-0.0764228	
0.000189044	0.73754	-0.00980076	
-0.291436	0.629069	-0.0369368	
0.380537	0.420003	0.0116359	
0.662046	0.517035	0.0383384	
1.14907	0.49457	0.0755956	
0.809171	0.621273	0.0641081	
0.714377	0.602767	0.042654	
0.493784	0.664023	0.0316683	
0.00057847	0.454432	-0.0184208	
1.25883	0.824035	0.0751444	
-0.64358	0.525626	-0.060241	
-0.27029	0.485089	-0.0193075	
0.803102	0.583759	0.0684637	
-0.17672	0.780495	-0.0412698	
0.00121991	0.539769	-0.0101385	
-8.33625e-05	0.619935	-0.0102285	
0.00113562	0.803952	-0.0222657	
0.00138678	0.497175	0.00239735	
0.0117776	0.539308	0.00132584	
7.288e-05	0.539524	-0.000283505	
4.93511e-05	0.359981	-0.00988652	
0.0020254	0.543876	-0.0105651	
-0.796903	0.541694	-0.0513781	
-0.456762	0.688748	-0.0180037	
-1.42891	0.700936	-0.104728	
0.928881	0.728282	0.0677976	
0.0750474	0.596099	0.00808272	
-0.742794	0.405367	-0.0357181	
-2.89448	0.642418	-0.205491	
-0.0373549	0.618843	0.0162655	
-0.441311	0.614637	-0.0279556	
-0.167583	0.582297	-0.0147704	
0.000355733	0.767217	0.00715768	
-0.693722	0.480241	-0.0256582	
-1.20222	0.831386	-0.0620065	
0.448545	0.541795	0.034944	
-0.321091	0.640079	-0.0328337	
0.335922	0.657732	0.0268066	
-0.549618	0.786841	-0.0165802	
0.855207	0.584489	0.0869651	
-0.000783755	0.551479	0.00401367	
-0.000748534	0.614922	0.00731063	
-0.00117052	0.542195	0.0196592	
-0.000154438	0.81095	0.0237022	
-0.000673912	0.524733	-0.00829677	
3.03211	-0.287379	0.203564	
-1.50894	0.433326	-0.107446	
-0.00227448	0.560062	0.0151904	
-0.000840733	0.632108	-0.00475465	
-0.000670683	0.427054	0.0173132	
2.95943	0.0847435	0.202624	
0.451225	0.325868	0.0337431	
0.376875	0.316303	0.0255093	
0.997482	0.186718	0.0743906	
0.687113	0.347215	0.0515524	
-0.31328	0.346676	-0.028352	
0.000220667	0.384707	-0.00475816	
-0.353724	0.327551	-0.034372	
0.147957	0.201231	0.00809723	
0.368037	0.253725	0.024474	
1.10318	0.141666	0.0800707	
1.22965	0.325525	0.0990401	
0.547924	0.286587	0.0403744	
0.409666	0.323989	0.0329707	
-0.00011481	0.224183	-0.00312188	
0.861991	0.301344	0.0634901	
-0.449484	0.28296	-0.0372354	
-0.40429	0.267604	-0.0345036	
0.524734	0.294706	0.0448213	
0.0419487	0.329127	-0.000218343	
0.000388009	0.294079	-0.00115725	
-7.34036e-05	0.309063	-0.00122934	
0.000149507	0.3492	-0.00579364	
0.000291502	0.274722	0.000531261	
0.0084798	0.306877	0.000412762	
-2.79889e-05	0.280815	-0.000431856	
-6.93118e-05	0.1607	-0.00162809	
0.000197351	0.277409	-0.00391975	
-1.23432	0.308054	-0.0950566	
-0.247201	0.356135	-0.0131789	
-0.93729	0.353312	-0.0734423	
0.588678	0.388576	0.0549969	
0.0982971	0.330889	0.0102174	
-0.562529	0.243366	-0.0369219	
-2.13286	0.170014	-0.160489	
-0.329993	0.327401	-0.0247521	
-0.364025	0.315899	-0.0257442	
-0.0973544	0.326619	-0.0110787	
-8.75138e-05	0.348943	0.00398334	
-0.396999	0.257599	-0.0236472	
-0.824064	0.325372	-0.0647839	
0.394046	0.302554	0.0345601	
-0.063581	0.364913	-0.00679057	
0.324239	0.321692	0.0270181	
-0.968504	0.347924	-0.0724377	
0.608553	0.340779	0.0493137	
-0.000387974	0.309779	0.000698427	
-8.67156e-06	0.31776	-0.00113581	
-0.000244513	0.286479	0.00724449	
-0.000180421	0.37111	0.00651105	
-4.36085e-06	0.304314	-0.00156873	
1.78713	-0.0979284	0.119995	
-1.32275	0.234801	-0.10389	
-0.00040039	0.312167	0.00551566	
-0.000139459	0.32826	-0.00175082	
-8.11206e-05	0.196439	0.00411988	
2.44178	0.0404335	0.169932	
0.599938	0.166804	0.0438672	
0.307891	0.137472	0.023886	
0.85416	0.0858006	0.0627081	
0.449119	0.163931	0.0341118	
0.00766243	0.162016	0.00153916	
1.43098e-05	0.178707	0.000784848	
-0.425063	0.155665	-0.031328	
-0.000965548	0.0942971	0.00028081	
0.225494	0.117797	0.0167202	
1.10597	0.0630731	0.0805663	
1.54891	0.15373	0.109808	
0.49441	0.131147	0.0374073	
0.445531	0.152811	0.0333799	
-3.8782e-05	0.105744	0.000464429	
0.663479	0.137038	0.0489672	
-0.340721	0.145139	-0.0252114	
-0.504839	0.13745	-0.0386928	
0.447509	0.145382	0.0343189	
0.0840903	0.156824	0.00662585	
3.80263e-05	0.149265	0.000142976	
1.59498e-05	0.150426	0.000535157	
-3.10305e-05	0.159491	0.000709628	
2.63038e-05	0.139742	-0.00032236	
0.00526007	0.146428	0.000100902	
-2.72253e-05	0.142055	-0.000191772	
-2.61315e-05	0.0740651	0.000396088	
3.9602e-06	0.127634	0.000833551	
-1.57845	0.146431	-0.115717	
-0.166045	0.154584	-0.0130872	
-0.761425	0.167219	-0.0564875	
0.427201	0.180553	0.0316786	
0.102606	0.158993	0.00768649	
-0.451212	0.120724	-0.0332186	
-1.82716	0.070614	-0.134091	
-0.495731	0.155541	-0.0368434	
-0.351409	0.144164	-0.0278958	
-0.0895579	0.157966	-0.00754339	
-2.00071e-05	0.163179	-0.000797155	
-0.278792	0.122683	-0.0203514	
-0.633007	0.147394	-0.0487767	
0.365808	0.155188	0.0276423	
0.0541833	0.175398	0.00454612	
0.303138	0.157391	0.0230223	
-0.983474	0.165327	-0.0703872	
0.444416	0.175228	0.0311358	
-3.99374e-05	0.158086	-1.73049e-05	
-1.74396e-05	0.155862	-8.89608e-05	
4.36489e-05	0.133275	-0.000445415	
2.12853e-05	0.169058	-0.000678545	
1.4693e-05	0.1547	0.000599057	
1.33794	-0.0436646	0.0896641	
-1.17562	0.109275	-0.0886444	
-2.76664e-05	0.142722	-0.000656473	
-3.41485e-05	0.163021	-6.91978e-05	
2.79814e-05	0.0855887	-0.000532663	
				</DataArray>
				<DataArray type="Float64" Name="Time Step Shed" NumberOfComponents="1" Format="ascii">
3	
3	
3	
3	
3	
3	
3	
3	
3	
3	
3	
3	
3	
3	
3	
3	
3	
3	
3	
3	
3	
3	
3	
3	
3	
3	
3	
3	
3	
3	
3	
3	
3	
3	
3	
3	
3	
3	
3	
3	
3	
3	
3	
3	
3	
3	
3	
3	
3	
3	
3	
3	
3	
3	
3	
3	
4	
4	
4	
4	
4	
4	
4	
4	
4	
4	
4	
4	
4	
4	
4	
4	
4	
4	
4	
4	
4	
4	
4	
4	
4	
4	
4	
4	
4	
4	
4	
4	
4	
4	
4	
4	
4	
4	
4	
4	
4	
4	
4	
4	
4	
4	
4	
4	
4	
4	
4	
4	
4	
4	
4	
4	
5	
5	
5	
5	
5	
5	
5	
5	
5	
5	
5	
5	
5	
5	
5	
5	
5	
5	
5	
5	
5	
5	
5	
5	
5	
5	
5	
5	
5	
5	
5	
5	
5	
5	
5	
5	
5	
5	
5	
5	
5	
5	
5	
5	
5	
5	
5	
5	
5	
5	
5	
5	
5	
5	
5	
5	
6	
6	
6	
6	
6	
6	
6	
6	
6	
6	
6	
6	
6	
6	
6	
6	
6	
6	
6	
6	
6	
6	
6	
6	
6	
6	
6	
6	
6	
6	
6	
6	
6	
6	
6	
6	
6	
6	
6	
6	
6	
6	
6	
6	
6	
6	
6	
6	
6	
6	
6	
6	
6	
6	
6	
6	
7	
7	
7	
7	
7	
7	
7	
7	
7	
7	
7	
7	
7	
7	
7	
7	
7	
7	
7	
7	
7	
7	
7	
7	
7	
7	
7	
7	
7	
7	
7	
7	
7	
7	
7	
7	
7	
7	
7	
7	
7	
7	
7	
7	
7	
7	
7	
7	
7	
7	
7	
7	
7	
7	
7	
7	
8	
8	
8	
8	
8	
8	
8	
8	
8	
8	
8	
8	
8	
8	
8	
8	
8	
8	
8	
8	
8	
8	
8	
8	
8	
8	
8	
8	
8	
8	
8	
8	
8	
8	
8	
8	
8	
8	
8	
8	
8	
8	
8	
8	
8	
8	
8	
8	
8	
8	
8	
8	
8	
8	
8	
8	
9	
9	
9	
9	
9	
9	
9	
9	
9	
9	
9	
9	
9	
9	
9	
9	
9	
9	
9	
9	
9	
9	
9	
9	
9	
9	
9	
9	
9	
9	
9	
9	
9	
9	
9	
9	
9	
9	
9	
9	
9	
9	
9	
9	
9	
9	
9	
9	
9	
9	
9	
9	
9	
9	
9	
9	
10	
10	
10	
10	
10	
10	
10	
10	
10	
10	
10	
10	
10	
10	
10	
10	
10	
10	
10	
10	
10	
10	
10	
10	
10	
10	
10	
10	
10	
10	
10	
10	
10	
10	
10	
10	
10	
10	
10	
10	
10	
10	
10	
10	
10	
10	
10	
10	
10	
10	
10	
10	
10	
10	
10	
10	
				</DataArray>
			</CellData>
			<Points>
				<DataArray type="Float64" Name="Position" NumberOfComponents="3" Format="ascii">
1.15627	1.96034	0.026685	
1.21251	1.03584	-0.0379011	
1.21033	1.46704	-0.0339685	
1.19887	1.74942	-0.00900071	
1.21664	0.320923	-0.0435356	
1.21952	0.176533	-0.0317353	
1.22011	0.25119	-0.0300042	
1.21849	0.391591	-0.0393249	
1.20078	1.67959	-0.0104944	
1.20743	1.53455	-0.0287103	
1.17678	1.88949	0.0161679	
1.21877	0.107624	-0.0381607	
1.21226	1.32129	-0.0321358	
1.21933	0.463496	-0.0377879	
1.20289	1.60773	-0.0221925	
1.21384	1.24989	-0.0289988	
1.21048	0.895102	-0.0476648	
1.21701	0.750214	-0.0182317	
1.21776	0.605252	-0.0191348	
1.21369	1.10791	-0.0427719	
1.21244	0.964231	-0.0472108	
1.21971	0.533916	-0.0248952	
1.2138	1.17972	-0.0408859	
1.21589	0.823004	-0.0265125	
1.21782	0.0359848	-0.0372266	
1.21885	0.678356	-0.0351381	
1.1874	1.81906	0.00729445	
1.21162	1.39638	-0.0335366	
1.21777	-0.0373993	-0.040743	
1.21163	-1.4662	-0.0309385	
1.21572	-0.323199	-0.0431542	
1.22089	-0.249655	-0.0299838	
1.21605	-0.394897	-0.0436696	
1.20548	-1.68004	-0.00850668	
1.18096	-1.89124	0.0223891	
1.2188	-0.109958	-0.0384993	
1.21428	-1.32366	-0.0310154	
1.21737	-0.465349	-0.0374027	
1.21959	-0.177707	-0.0282919	
1.20831	-1.60705	-0.0241681	
1.21616	-1.25045	-0.0311606	
1.2121	-0.894224	-0.0438062	
1.21817	-0.751483	-0.030753	
1.21672	-0.60781	-0.0242517	
1.21561	-1.10663	-0.0390701	
1.2125	-1.03697	-0.0358939	
1.21426	-0.9648	-0.0447056	
1.21737	-0.535582	-0.0387672	
1.20549	-1.53608	-0.0405414	
1.21574	-1.17939	-0.0369962	
1.21597	-0.824229	-0.0342579	
1.15924	-1.96452	0.0321006	
1.20068	-1.74846	-0.0032598	
1.21366	-1.39769	-0.0354267	
1.2161	-0.678673	-0.0423817	
1.19352	-1.82189	0.0090984	
1.059	1.96219	0.0148651	
1.09228	1.03323	0.0471875	
1.08288	1.46268	0.0364225	
1.07135	1.74492	0.0207158	
1.09346	0.321766	0.0558091	
1.09361	0.176574	0.0538848	
1.09397	0.250959	0.0560754	
1.09276	0.391731	0.0548534	
1.0653	1.67471	0.00676012	
1.06987	1.53234	0.0143499	
1.0634	1.88816	0.0137566	
1.09386	0.108376	0.0552408	
1.08269	1.31953	0.0381603	
1.0912	0.459489	0.052147	
1.07834	1.60341	0.0281556	
1.08322	1.24548	0.0415144	
1.08981	0.895297	0.046932	
1.08354	0.749279	0.0441749	
1.08846	0.603174	0.0501318	
1.09104	1.10677	0.0477059	
1.08967	0.962708	0.0459528	
1.09093	0.532504	0.0534949	
1.08846	1.17868	0.0459896	
1.08907	0.822395	0.0484712	
1.09219	0.0375891	0.0524884	
1.09135	0.676602	0.0556693	
1.06426	1.81749	0.010116	
1.0854	1.3913	0.0413765	
1.09451	-0.037485	0.0570386	
1.08016	-1.46453	0.0349835	
1.0942	-0.323836	0.0576191	
1.09207	-0.249932	0.0571661	
1.09255	-0.39536	0.056133	
1.07138	-1.67509	0.0239568	
1.06497	-1.89159	0.0270449	
1.09382	-0.108948	0.0557776	
1.08679	-1.32123	0.0471694	
1.09023	-0.467354	0.0538897	
1.09313	-0.177047	0.0552118	
1.07835	-1.6027	0.0337626	
1.08503	-1.2517	0.0472423	
1.08921	-0.893863	0.0485718	
1.08634	-0.750482	0.0490818	
1.08844	-0.60488	0.049334	
1.09007	-1.10495	0.0485124	
1.08955	-1.03425	0.0469713	
1.09042	-0.962429	0.0508476	
1.09022	-0.533127	0.0533968	
1.08474	-1.53009	0.0388595	
1.09258	-1.17728	0.0528147	
1.08884	-0.823498	0.0502331	
1.05964	-1.96663	0.0213003	
1.07192	-1.74565	0.0277101	
1.08508	-1.39274	0.0445428	
1.09296	-0.678432	0.0567899	
1.06919	-1.81931	0.0278847	
0.823087	1.96347	-0.0236873	
0.754648	1.0346	-0.035417	
0.757906	1.46455	-0.0444372	
0.761427	1.74805	-0.050534	
0.754574	0.317691	-0.0282585	
0.754305	0.178246	-0.0212679	
0.753136	0.249133	-0.0229168	
0.753268	0.389936	-0.0200463	
0.760571	1.67482	-0.0534331	
0.758994	1.53235	-0.0490667	
0.764477	1.88914	-0.0338442	
0.754167	0.105588	-0.0230963	
0.756218	1.31995	-0.0378657	
0.754001	0.46504	-0.0247698	
0.759803	1.60137	-0.0515101	
0.755441	1.24662	-0.0350255	
0.754434	0.893428	-0.029974	
0.753776	0.748766	-0.0221519	
0.754002	0.602433	-0.0231128	
0.755454	1.10664	-0.0378318	
0.754808	0.963446	-0.0335916	
0.754712	0.535135	-0.026249	
0.754199	1.17836	-0.0359403	
0.753797	0.819875	-0.0253231	
0.754691	0.0335943	-0.0244465	
0.753997	0.678409	-0.0222646	
0.762117	1.81564	-0.0400002	
0.757275	1.39416	-0.0397792	
0.754442	-0.0372451	-0.0253907	
0.756995	-1.4626	-0.0365587	
0.753583	-0.320283	-0.0214014	
0.753202	-0.252359	-0.0177535	
0.753425	-0.394215	-0.0205039	
0.759382	-1.67628	-0.0361621	
0.762836	-1.89494	-0.0178842	
0.753795	-0.109347	-0.0227127	
0.755489	-1.32201	-0.030896	
0.752184	-0.465874	-0.0220388	
0.753378	-0.178558	-0.0169848	
0.759073	-1.60335	-0.0385989	
0.755533	-1.24916	-0.0291213	
0.753286	-0.893087	-0.0277523	
0.753789	-0.751333	-0.0246754	
0.753419	-0.611293	-0.0233767	
0.755206	-1.10465	-0.0343194	
0.753885	-1.03426	-0.0301871	
0.753401	-0.965718	-0.0297618	
0.753728	-0.537812	-0.027806	
0.758726	-1.53275	-0.0373782	
0.754226	-1.17774	-0.0301995	
0.753309	-0.822293	-0.0249933	
0.822539	-1.96689	-0.0187261	
0.759405	-1.74779	-0.0289783	
0.757548	-1.39121	-0.0314559	
0.753651	-0.682664	-0.0243723	
0.760835	-1.82299	-0.0229493	
0.591203	1.96504	-0.0489441	
0.494089	1.03434	-0.103502	
0.492745	1.46461	-0.105624	
0.49002	1.75093	-0.0991188	
0.494615	0.320281	-0.0940742	
0.49167	0.177656	-0.0883787	
0.493268	0.249894	-0.0924036	
0.493371	0.393085	-0.0934653	
0.491059	1.6777	-0.10402	
0.492805	1.53539	-0.107651	
0.48641	1.8926	-0.07669	
0.492461	0.104152	-0.0895723	
0.492006	1.32412	-0.105338	
0.493057	0.462831	-0.0919701	
0.492458	1.60709	-0.108312	
0.49239	1.2507	-0.105158	
0.493746	0.892322	-0.0943495	
0.493229	0.751496	-0.0917532	
0.492334	0.606098	-0.0892396	
0.493304	1.10584	-0.105062	
0.493724	0.964207	-0.0987521	
0.49443	0.535588	-0.0914262	
0.492894	1.17868	-0.105961	
0.494643	0.820809	-0.0970652	
0.493591	0.032926	-0.0897126	
0.493147	0.678026	-0.0893638	
0.488173	1.81967	-0.0873415	
0.491904	1.39455	-0.105846	
0.49399	-0.0365283	-0.0903232	
0.492053	-1.46145	-0.097193	
0.493054	-0.323074	-0.0892756	
0.49248	-0.252903	-0.0880905	
0.493071	-0.397424	-0.09003	
0.489619	-1.68256	-0.0890769	
0.485225	-1.89302	-0.0659403	
0.492905	-0.109655	-0.0896992	
0.491155	-1.32437	-0.0969893	
0.493017	-0.466652	-0.089829	
0.491844	-0.179998	-0.0866642	
0.491269	-1.60871	-0.097639	
0.492632	-1.25022	-0.0999424	
0.493338	-0.891912	-0.0919202	
0.493979	-0.752653	-0.0938535	
0.491495	-0.607932	-0.0897573	
0.492611	-1.11053	-0.0992302	
0.49363	-1.03668	-0.0975235	
0.493368	-0.964508	-0.094448	
0.493351	-0.538141	-0.0897646	
0.49165	-1.53596	-0.0987179	
0.492762	-1.1793	-0.0993448	
0.494068	-0.821976	-0.0944826	
0.590591	-1.96626	-0.0438519	
0.490651	-1.74634	-0.0855033	
0.491598	-1.39461	-0.0972018	
0.493843	-0.680131	-0.0907613	
0.487418	-1.82333	-0.071907	
0.360337	1.96675	-0.074725	
0.207182	1.03638	-0.138351	
0.205884	1.46601	-0.130306	
0.203047	1.75177	-0.109862	
0.207027	0.321442	-0.133345	
0.207121	0.177332	-0.130468	
0.20834	0.249876	-0.136446	
0.205461	0.394328	-0.127314	
0.203218	1.67794	-0.114299	
0.204114	1.53868	-0.12528	
0.202625	1.89481	-0.103068	
0.205279	0.106879	-0.119338	
0.205827	1.32292	-0.138241	
0.205139	0.465526	-0.123981	
0.203753	1.60597	-0.119446	
0.208514	1.25308	-0.154671	
0.203942	0.891875	-0.112804	
0.202531	0.747941	-0.105176	
0.204265	0.607155	-0.111572	
0.208867	1.10563	-0.152622	
0.205273	0.963348	-0.126173	
0.205212	0.53397	-0.11832	
0.209575	1.17698	-0.161079	
0.202998	0.820401	-0.105394	
0.205445	0.0339348	-0.118174	
0.203451	0.67692	-0.106204	
0.202953	1.81828	-0.101465	
0.204896	1.39216	-0.128716	
0.205666	-0.0372786	-0.120171	
0.206564	-1.46724	-0.131657	
0.20636	-0.325286	-0.125728	
0.208224	-0.25237	-0.133808	
0.204599	-0.399089	-0.112982	
0.203819	-1.67869	-0.112886	
0.202727	-1.89448	-0.101734	
0.205662	-0.111048	-0.124681	
0.205693	-1.32216	-0.133748	
0.203727	-0.466773	-0.114506	
0.207569	-0.179149	-0.132354	
0.204587	-1.60708	-0.120267	
0.207953	-1.25328	-0.149002	
0.204214	-0.893686	-0.112691	
0.204934	-0.749945	-0.11934	
0.205171	-0.608232	-0.117042	
0.208255	-1.10717	-0.145354	
0.206733	-1.03664	-0.130995	
0.205635	-0.965599	-0.122051	
0.204962	-0.534578	-0.113798	
0.205398	-1.53663	-0.126041	
0.209238	-1.18142	-0.151875	
0.203633	-0.822329	-0.110498	
0.359794	-1.96668	-0.0715456	
0.203613	-1.74578	-0.107484	
0.205202	-1.39297	-0.126735	
0.205426	-0.67926	-0.120755	
0.202493	-1.82072	-0.0986143	
0.129658	1.96501	-0.0961538	
-0.080076	1.03385	-0.142731	
-0.0817477	1.46417	-0.13406	
-0.0828771	1.74861	-0.122582	
-0.0815924	0.320759	-0.135363	
-0.0816346	0.178438	-0.134606	
-0.0807739	0.250177	-0.137822	
-0.082035	0.393995	-0.132728	
-0.082755	1.67676	-0.125168	
-0.0820578	1.5335	-0.131214	
-0.0835076	1.89398	-0.117953	
-0.0814638	0.106685	-0.133639	
-0.0817218	1.32122	-0.137605	
-0.0829259	0.461785	-0.129283	
-0.082458	1.60563	-0.128283	
-0.0810881	1.24847	-0.142588	
-0.0823169	0.888916	-0.132764	
-0.0833204	0.749868	-0.120546	
-0.082509	0.608176	-0.122508	
-0.0803728	1.10528	-0.145695	
-0.0808935	0.9627	-0.139887	
-0.0824579	0.537403	-0.127557	
-0.0807939	1.1751	-0.146706	
-0.082939	0.821174	-0.124755	
-0.0813888	0.0353032	-0.134994	
-0.0837514	0.675494	-0.120105	
-0.0833021	1.8204	-0.117014	
-0.0805531	1.38865	-0.135263	
-0.0813918	-0.0371649	-0.134002	
-0.0811024	-1.46612	-0.138144	
-0.0820574	-0.321281	-0.1302	
-0.081031	-0.25259	-0.134634	
-0.0822291	-0.396	-0.127742	
-0.0819397	-1.67731	-0.128677	
-0.0836183	-1.89196	-0.116052	
-0.0817046	-0.109036	-0.130911	
-0.0815545	-1.32119	-0.135685	
-0.0830264	-0.466615	-0.125134	
-0.0816817	-0.178525	-0.131658	
-0.0817821	-1.60584	-0.13284	
-0.0809258	-1.24949	-0.140233	
-0.0817452	-0.897673	-0.126798	
-0.0817765	-0.75143	-0.129698	
-0.0824095	-0.608862	-0.124895	
-0.0802635	-1.1059	-0.145652	
-0.0801934	-1.03463	-0.142905	
-0.081142	-0.964391	-0.138373	
-0.0824438	-0.537951	-0.124284	
-0.0816111	-1.53545	-0.134338	
-0.0802101	-1.17903	-0.143876	
-0.0824701	-0.822268	-0.126763	
0.129337	-1.96474	-0.0944781	
-0.0825107	-1.74775	-0.123832	
-0.0814374	-1.39246	-0.134843	
-0.0825319	-0.67861	-0.128261	
-0.0834239	-1.81996	-0.115418	
-0.100981	1.96468	-0.120056	
-0.366477	1.0314	-0.1674	
-0.367477	1.46375	-0.158053	
-0.367455	1.74966	-0.156268	
-0.368077	0.322164	-0.158429	
-0.368134	0.179641	-0.159405	
-0.367624	0.250679	-0.161792	
-0.368215	0.393493	-0.15879	
-0.367706	1.67751	-0.155498	
-0.367509	1.5336	-0.156267	
-0.367679	1.89244	-0.149798	
-0.367743	0.107276	-0.162282	
-0.367586	1.32051	-0.158891	
-0.368195	0.463326	-0.159367	
-0.367605	1.60587	-0.15642	
-0.367585	1.24901	-0.159983	
-0.367423	0.891914	-0.162223	
-0.368005	0.751015	-0.156289	
-0.368641	0.60654	-0.154886	
-0.367175	1.10602	-0.163963	
-0.366804	0.963603	-0.166704	
-0.367971	0.537188	-0.157253	
-0.367359	1.17492	-0.161577	
-0.367933	0.820806	-0.158843	
-0.36707	0.0350465	-0.167283	
-0.368749	0.678248	-0.154244	
-0.367889	1.81919	-0.15053	
-0.367299	1.39154	-0.157915	
-0.367122	-0.0358932	-0.166372	
-0.367149	-1.46458	-0.160832	
-0.368425	-0.323535	-0.155484	
-0.367699	-0.25197	-0.15951	
-0.368458	-0.394831	-0.154767	
-0.367312	-1.67747	-0.157807	
-0.367862	-1.89174	-0.148116	
-0.368018	-0.108021	-0.1599	
-0.367617	-1.3221	-0.158127	
-0.368494	-0.465365	-0.15477	
-0.36842	-0.180609	-0.156504	
-0.367098	-1.60604	-0.159973	
-0.367528	-1.25028	-0.159011	
-0.367853	-0.8938	-0.159967	
-0.367596	-0.752017	-0.160073	
-0.368608	-0.606878	-0.15429	
-0.36668	-1.10781	-0.166071	
-0.366465	-1.03555	-0.164948	
-0.367133	-0.963706	-0.165071	
-0.368269	-0.537771	-0.15363	
-0.366965	-1.53276	-0.159598	
-0.366871	-1.17939	-0.162287	
-0.368229	-0.821971	-0.158201	
-0.10121	-1.96452	-0.118811	
-0.367428	-1.74874	-0.154975	
-0.367524	-1.39389	-0.158015	
-0.3684	-0.679236	-0.156683	
-0.368075	-1.82034	-0.14879	
-0.331807	1.964	-0.141464	
-0.651416	1.03416	-0.175664	
-0.651448	1.46355	-0.172972	
-0.651439	1.74927	-0.173766	
-0.651527	0.323038	-0.171902	
-0.651686	0.179375	-0.171965	
-0.65163	0.250762	-0.172722	
-0.651601	0.393291	-0.172734	
-0.651419	1.67718	-0.172914	
-0.651249	1.53312	-0.172548	
-0.651619	1.89253	-0.171685	
-0.651593	0.107571	-0.172987	
-0.651314	1.32145	-0.173695	
-0.651675	0.46362	-0.172452	
-0.6515	1.606	-0.172405	
-0.651563	1.2492	-0.172199	
-0.65145	0.892951	-0.173991	
-0.651443	0.750083	-0.172843	
-0.65164	0.606738	-0.171823	
-0.651302	1.1058	-0.174634	
-0.65145	0.964143	-0.175405	
-0.651614	0.535557	-0.172412	
-0.65146	1.17754	-0.17434	
-0.651546	0.821089	-0.173019	
-0.651386	0.0355687	-0.173761	
-0.65166	0.678039	-0.171585	
-0.651444	1.81991	-0.171861	
-0.651532	1.3922	-0.171957	
-0.651431	-0.03559	-0.174217	
-0.651349	-1.46399	-0.173934	
-0.65176	-0.323486	-0.170485	
-0.651786	-0.25113	-0.171556	
-0.651826	-0.394264	-0.170357	
-0.651383	-1.67739	-0.173475	
-0.651757	-1.89278	-0.171039	
-0.651656	-0.107757	-0.172764	
-0.651545	-1.32186	-0.172645	
-0.651652	-0.465238	-0.170816	
-0.6517	-0.180361	-0.171265	
-0.651375	-1.60583	-0.173262	
-0.651541	-1.24921	-0.172347	
-0.651428	-0.8946	-0.173584	
-0.651447	-0.751242	-0.173228	
-0.651684	-0.606597	-0.17105	
-0.651178	-1.10446	-0.174937	
-0.651373	-1.03442	-0.174369	
-0.6515	-0.964335	-0.173706	
-0.651581	-0.536928	-0.170486	
-0.651386	-1.53388	-0.173226	
-0.651418	-1.17769	-0.173598	
-0.651534	-0.822769	-0.172429	
-0.331931	-1.96386	-0.140132	
-0.651469	-1.74918	-0.172991	
-0.651561	-1.39348	-0.171868	
-0.651655	-0.678908	-0.171513	
-0.651588	-1.82056	-0.171391	
				</DataArray>
			</Points>
			<Cells>
				<DataArray type="Int32" Name="connectivity" Format="ascii">
0	
1	
2	
3	
4	
5	
6	
7	
8	
9	
10	
11	
12	
13	
14	
15	
16	
17	
18	
19	
20	
21	
22	
23	
24	
25	
26	
27	
28	
29	
30	
31	
32	
33	
34	
35	
36	
37	
38	
39	
40	
41	
42	
43	
44	
45	
46	
47	
48	
49	
50	
51	
52	
53	
54	
55	
56	
57	
58	
59	
60	
61	
62	
63	
64	
65	
66	
67	
68	
69	
70	
71	
72	
73	
74	
75	
76	
77	
78	
79	
80	
81	
82	
83	
84	
85	
86	
87	
88	
89	
90	
91	
92	
93	
94	
95	
96	
97	
98	
99	
100	
101	
102	
103	
104	
105	
106	
107	
108	
109	
110	
111	
112	
113	
114	
115	
116	
117	
118	
119	
120	
121	
122	
123	
124	
125	
126	
127	
128	
129	
130	
131	
132	