<VTKFile type="UnstructuredGrid" version="0.1" byte_order="LittleEndian">
	<UnstructuredGrid>
		<Piece NumberOfPoints="1344" NumberOfCells="1344">
			<CellData Scalars="scalars">
				<DataArray type="Float64" Name="Strength" NumberOfComponents="3" Format="ascii">
0.531939	-0.381239	-0.117764	
0.0010771	-1.04354	0.0159326	
-0.0224062	-0.939222	0.0154242	
-0.00803336	-0.822139	0.052723	
0.000954915	-1.06756	0.0187618	
-0.0221815	-1.00573	0.034261	
0.000452907	-1.0533	0.0197248	
-0.0134771	-1.04937	0.0203382	
-0.0822571	-0.847342	0.105715	
-0.0329282	-0.919717	0.0180742	
0.0941692	-0.577915	0.0531858	
0.00965783	-1.02636	0.00997007	
-0.0243301	-0.972183	0.0346061	
-0.0205629	-1.04318	0.00389632	
-0.0855975	-0.883222	0.0719662	
0.0270836	-0.965767	0.00152981	
0.0416762	-1.04664	-0.00829609	
0.0179586	-1.01713	-0.0022426	
-0.000647556	-1.03543	-0.0139768	
-0.040335	-1.02797	0.05045	
0.0118505	-1.03075	0.0114977	
-0.0292537	-1.0294	0.00585462	
-0.0357519	-1.04588	0.0503953	
0.0493569	-1.05383	-0.0230203	
0.00360859	-1.0547	0.00358512	
0.0155199	-1.02495	-0.0085339	
-0.0947198	-0.69847	0.122874	
-0.0297104	-0.956826	0.0255493	
0.00121676	-1.05574	-0.0145009	
0.0242347	-0.943805	-0.0185628	
-0.0259574	-1.06834	-0.00130464	
0.0267536	-1.05483	-0.0378845	
-0.00157103	-1.03887	-0.0022605	
0.0994437	-0.823786	-0.116483	
-0.272441	-0.612656	-0.0440376	
0.00839789	-1.02651	-0.0270363	
0.0316378	-0.976151	-0.0318363	
0.0257618	-1.04005	-0.00372201	
0.0139532	-1.00784	-0.0263172	
0.0863724	-0.872438	-0.0741553	
-0.0233523	-0.966971	0.00556852	
-0.026391	-1.0565	0.00883793	
-0.00960568	-1.10286	-0.00211328	
-0.0281028	-1.02518	0.0226627	
0.0286036	-1.03067	-0.0393374	
0.03396	-1.04532	-0.0378051	
0.0108953	-1.03552	-0.0158738	
0.00230682	-1.07008	0.011539	
0.081049	-0.912592	-0.0571044	
0.0432335	-1.04684	-0.0568864	
-0.0241275	-1.07433	0.00324391	
-0.309764	-0.376758	-0.0258961	
0.0612103	-0.802225	-0.160651	
0.0372756	-0.962068	-0.0268226	
-0.0136678	-1.05293	0.00758475	
0.0841678	-0.665852	-0.232843	
1.49768	0.0264833	-0.142566	
0.0479452	-0.19232	-0.00952545	
0.124632	-0.164153	-0.0199216	
0.507079	-0.141448	-0.0789894	
-0.00909963	-0.2064	0.00572689	
-0.0469099	-0.206219	0.0161149	
-0.00014583	-0.204742	0.00168149	
-0.0138535	-0.20794	0.00751783	
0.149408	-0.138812	-0.0115925	
0.14628	-0.16135	-0.026846	
0.507384	-0.0718134	-0.0674602	
0.0463665	-0.210693	-0.0163275	
0.0401604	-0.182058	0.000216602	
0.0243884	-0.205404	-0.00581791	
-0.00173633	-0.1498	0.0174919	
0.240004	-0.188402	-0.0643708	
0.0464919	-0.191537	-0.0129236	
-0.0625685	-0.205443	0.0228555	
0.0686415	-0.203973	-0.0227784	
-0.0284779	-0.193932	0.0184199	
0.00338747	-0.191151	0.00283276	
-0.000740691	-0.204883	0.00110795	
1.5141e-05	-0.18947	0.0103333	
0.00612121	-0.201542	-0.00115174	
0.00408673	-0.209088	-0.00395002	
0.00305388	-0.204604	-0.000216328	
0.00022018	-0.101236	0.0157955	
0.00427455	-0.176519	0.0148587	
-0.0472867	-0.20974	0.0117795	
-0.14208	-0.16697	0.0267955	
-0.0196378	-0.2087	0.0100376	
0.120862	-0.205346	-0.0385271	
0.0313346	-0.210269	-0.00570629	
-0.253743	-0.162175	0.0433983	
-1.21981	-0.184173	0.353752	
-0.0705061	-0.212438	0.0221736	
-0.030613	-0.182666	-0.00561196	
0.0755752	-0.208104	-0.0215855	
0.00129331	-0.205594	-0.00142164	
-0.169718	-0.161604	0.0239523	
-0.239632	-0.190675	0.0622053	
-0.0885452	-0.193766	0.0270803	
0.0471679	-0.202615	-0.0185464	
-0.085213	-0.205503	0.0295274	
-0.0562674	-0.197256	0.00956471	
0.0276538	-0.192397	-0.0163613	
-0.000829496	-0.192232	-0.00475742	
-0.000714843	-0.200987	0.00244296	
0.000610481	-0.158658	-0.0226606	
0.000597886	-0.189682	-0.0115332	
-0.00372245	-0.202795	-0.00162676	
-0.717468	-0.073862	0.0983818	
-0.35097	-0.165415	0.0898333	
-0.00419044	-0.176845	-0.0170955	
-0.00291952	-0.206168	-0.000196524	
-0.00266388	-0.0967914	-0.0392929	
2.49699	0.19397	-0.00190363	
0.0870632	-0.0586954	0.00570888	
0.244221	-0.0427209	0.0261563	
0.9021	0.00171164	0.0957117	
-0.0256443	-0.0692806	-1.44729e-05	
-0.059515	-0.0706138	-0.00153913	
-0.000119326	-0.0688556	-0.000191721	
-0.0289996	-0.070684	-0.000246852	
0.286226	-0.0277223	0.0518021	
0.270235	-0.0393604	0.0470081	
0.87027	0.0490803	0.00051434	
0.0766471	-0.0732339	0.000645945	
0.0877604	-0.0535931	0.0109305	
0.041084	-0.0706045	0.00118514	
-0.000880459	-0.0404455	0.0110706	
0.417495	-0.0487452	0.0273709	
0.0938119	-0.0596057	0.00383755	
-0.101447	-0.0701728	0.000530456	
0.132528	-0.06797	0.0015091	
-0.0386468	-0.0611727	0.00215921	
0.000487024	-0.0605297	0.00198521	
0.000266493	-0.0710015	0.000586491	
0.000822495	-0.058886	0.00505735	
0.000395649	-0.0658767	0.000796149	
0.00986475	-0.0725026	-0.000434615	
0.000208253	-0.0693782	0.000991029	
0.00161662	-0.0248482	0.0104943	
0.000616926	-0.0533563	0.00718863	
-0.0730955	-0.0724559	-0.00136489	
-0.282268	-0.0400015	-0.00356875	
-0.0302634	-0.0698894	0.00107492	
0.201415	-0.068068	-0.000342296	
0.0527788	-0.0699707	0.00292146	
-0.485019	-0.0224409	-0.0468114	
-2.19468	0.114491	0.0665204	
-0.138412	-0.0734737	-0.000379525	
-0.0729207	-0.0538164	-0.00597708	
0.111045	-0.0687037	0.00501978	
0.000136849	-0.0709982	0.000632316	
-0.317739	-0.0321983	-0.0315014	
-0.418038	-0.0467561	-0.012908	
-0.166912	-0.058745	-0.00555601	
0.0812763	-0.0638711	3.14582e-05	
-0.143821	-0.0667023	-0.00265299	
-0.111083	-0.0589934	-0.00696807	
0.0420618	-0.0601687	-0.00200426	
-0.000439885	-0.0603209	-0.00281084	
-4.79073e-05	-0.0646231	0.000774045	
-0.000328453	-0.0446573	-0.0106539	
-0.00110895	-0.0588825	-0.00552662	
-0.000401393	-0.0645884	-0.00155112	
1.1658	-0.0432472	-0.0670276	
-0.662487	0.00195281	-0.0236066	
-0.00132768	-0.0532695	-0.00744711	
-0.000245163	-0.0660898	-0.000390173	
-0.00209404	-0.0281088	-0.00581024	
3.29339	0.0910969	0.186396	
0.137092	0.0785586	-0.0161997	
0.324183	0.092364	-0.0135853	
1.11783	0.121239	-0.0385707	
-0.0213859	0.0767335	0.00111254	
-0.0814243	0.0764107	-0.00734643	
0.000351834	0.0759745	-0.00144734	
-0.0364132	0.0769854	0.00787112	
0.358583	0.0838771	-0.0232502	
0.36208	0.0823855	-0.00500711	
1.09339	0.0760646	0.0131595	
0.115533	0.0716937	-0.0116137	
0.104205	0.0919005	0.00883657	
0.0574271	0.0787275	0.00942716	
0.000264066	0.0768626	-0.0205196	
0.574674	0.119394	0.0658835	
0.153252	0.0772156	-0.0186771	
-0.128648	0.0812517	0.00549336	
0.183138	0.0783057	0.00858527	
-0.0513171	0.0843513	-0.0219175	
0.00205457	0.0806833	-0.0183568	
0.000316319	0.0779307	0.00529717	
-0.00139612	0.0860011	-0.00847144	
-0.0001202	0.0808873	-0.00537038	
0.0179715	0.0753391	-0.00127551	
1.38832e-05	0.078922	0.00452084	
-0.00359905	0.0480738	-0.0194127	
-0.00484107	0.0845305	0.00150003	
-0.0988257	0.0734876	0.00946368	
-0.375992	0.0988597	0.0175076	
-0.0708043	0.0754038	-0.0108245	
0.28119	0.0739721	0.0227245	
0.0653524	0.0765813	-0.0129945	
-0.572761	0.0980268	-0.0301645	
-2.78642	0.104976	-0.138862	
-0.19509	0.0691082	0.0080204	
-0.0839927	0.0931691	-0.0027931	
0.151512	0.0762949	-0.0208825	
-0.000134288	0.0738256	-0.000684207	
-0.422009	0.0867056	-0.0327289	
-0.57365	0.117856	-0.0496709	
-0.246794	0.0850056	0.022883	
0.097038	0.0817451	-0.000224904	
-0.214366	0.0801087	-0.0130133	
-0.160555	0.0845571	0.0141761	
0.0550187	0.0845272	0.018294	
-0.00162483	0.0833402	0.0164736	
-0.00108424	0.0784015	0.00145356	
-0.000722777	0.0822531	0.0110162	
0.00137956	0.0868086	0.0111926	
0.00100502	0.0841864	0.00167886	
1.59208	-0.0308688	0.036854	
-0.803569	0.107676	-0.0212142	
0.00574258	0.0856379	0.00185766	
0.000217048	0.0815243	-0.0018407	
0.00203368	0.0478333	0.00912974	
5.70497	-0.0731948	0.284278	
-1.96876	-0.617061	-0.279444	
0.555256	-0.37386	0.382576	
1.56389	-0.1655	0.0448824	
1.93009	-0.516185	0.157903	
-1.77353	-0.580197	-0.101655	
-0.00379653	-0.553919	-0.0157352	
-0.6399	-0.258678	0.0823543	
0.623783	-0.117214	0.0610442	
1.10952	-0.282484	0.24084	
-0.254034	-0.265533	0.028456	
-0.0928332	-0.367715	-0.040419	
2.9962	-0.740309	0.324725	
0.724273	-0.448358	0.18295	
-0.0123085	-0.0896516	0.0698496	
0.770006	-0.559523	0.315808	
-0.948092	-0.311316	-0.188986	
0.162074	-0.121957	0.0230484	
1.43003	-0.332136	0.204337	
-0.306432	-0.528745	-0.131819	
0.0469752	-0.227392	-0.142234	
-0.0392569	-0.282626	0.128586	
-0.0276522	-0.54842	0.085239	
0.0103125	-0.141062	-0.0262645	
0.0189714	-0.339682	0.0250455	
-0.0122682	-0.173739	0.0472487	
-0.000801317	-0.0779367	0.0251377	
-0.0368176	-0.136678	0.162782	
0.0854869	-0.340688	0.0405255	
-0.344108	-0.466771	-0.422844	
-2.3119	-0.591487	-0.23162	
0.432523	-0.511474	-0.0779881	
0.0265545	-0.273535	-0.0825952	
-1.01352	-0.282934	-0.175707	
-3.63399	-0.48543	-0.307594	
1.29347	-0.38944	0.0846743	
-2.69031	-0.708275	-0.234526	
0.200741	-0.256606	-0.0333457	
0.00704019	-0.533656	0.0316457	
-1.12721	-0.333604	-0.269545	
-0.759817	-0.634291	-0.166392	
0.663238	-0.299453	0.102775	
-1.2272	-0.39863	-0.106373	
0.359924	-0.344094	-0.0188919	
1.42418	-0.664278	0.15734	
0.933963	-0.515249	0.23454	
-0.0471451	-0.281731	0.0972782	
0.0146727	-0.268667	-0.0346634	
0.0657992	-0.223577	-0.179737	
0.00645537	-0.600156	0.00542223	
-0.0074786	-0.193227	0.0127739	
2.12207	0.171092	0.0271822	
-1.23706	-0.270172	-0.125947	
0.0547252	-0.226971	-0.182519	
0.0104549	-0.34069	-0.0527232	
0.00769924	-0.156355	-0.0588018	
4.42968	0.259331	0.296301	
0.0569316	0.565949	-0.106881	
0.540002	0.673713	-0.0569482	
1.24778	0.471651	0.183565	
1.17217	0.764285	0.100097	
-0.891298	0.758771	-0.230907	
-0.0112201	0.734671	-0.0646361	
-0.304524	0.60693	-0.144588	
0.365004	0.431613	-0.0431639	
0.634319	0.551134	-0.0346215	
1.14719	0.499192	0.0750145	
0.785649	0.629884	0.175663	
0.703664	0.616033	0.0308512	
0.459455	0.6876	0.0435612	
-0.0140993	0.436169	-0.128034	
1.23176	0.862486	0.0923596	
-0.606551	0.541502	-0.181645	
-0.252346	0.492103	-0.0537768	
0.7775	0.600182	0.160621	
-0.163402	0.753648	-0.217752	
0.0223163	0.536221	-0.0584104	
-0.0221513	0.615448	-0.0716685	
-0.00195696	0.787785	-0.162048	
0.0204761	0.496439	0.0176806	
0.0179026	0.539028	0.0105225	
0.00069081	0.539514	0.000505044	
-0.00345165	0.352899	-0.0716137	
0.00136923	0.535316	-0.0967449	
-0.771544	0.571737	-0.0950098	
-0.434918	0.699696	0.068489	
-1.39984	0.718689	-0.261413	
0.935864	0.710463	0.131181	
0.0757295	0.595211	0.0316111	
-0.723189	0.439623	-0.0343422	
-2.89056	0.634543	-0.275376	
-0.0246927	0.611644	0.0994546	
-0.428376	0.623294	-0.0370164	
-0.162989	0.583283	-0.0241516	
0.0151952	0.766364	0.0332064	
-0.670691	0.512168	0.022713	
-1.17512	0.868268	-0.0766267	
0.413543	0.56569	0.0701457	
-0.333843	0.623067	-0.119282	
0.325633	0.659916	0.0679529	
-0.540597	0.793201	0.0116542	
0.825769	0.562266	0.287036	
-0.0192825	0.549912	0.0370083	
-0.000422142	0.612215	0.0579275	
0.0301021	0.514686	0.169211	
0.00996781	0.796569	0.153617	
-0.0231307	0.521102	-0.0576114	
3.03401	-0.27641	0.191667	
-1.46969	0.496937	-0.264069	
-0.00485934	0.551303	0.0995902	
-0.0155221	0.631761	-0.0143409	
-0.00539783	0.417348	0.0919081	
2.9582	0.0899572	0.219079	
0.444127	0.327988	0.0783479	
0.377429	0.31666	0.00534132	
0.987223	0.201963	0.141605	
0.673551	0.361487	0.105079	
-0.304469	0.345643	-0.0832102	
-0.00226513	0.383399	-0.031642	
-0.336836	0.323444	-0.124455	
0.14707	0.202019	-0.00335186	
0.365866	0.25803	0.00371298	
1.10122	0.143597	0.101137	
1.18775	0.325934	0.333246	
0.548456	0.279767	0.0703474	
0.401012	0.324005	0.0901244	
0.000560732	0.221573	-0.0341111	
0.856232	0.297377	0.127982	
-0.43367	0.28794	-0.11185	
-0.390931	0.273584	-0.0925872	
0.516781	0.292999	0.10635	
0.0495969	0.326686	-0.0299347	
0.00482505	0.293661	-0.0149462	
0.000847211	0.308629	-0.0162606	
0.0124364	0.345784	-0.0472212	
0.00389913	0.274687	-0.00166364	
0.00928808	0.306851	-0.000658002	
0.00316567	0.280784	-0.00261293	
0.000967053	0.159485	-0.019718	
0.0107422	0.273775	-0.0434738	
-1.19337	0.338134	-0.298832	
-0.250088	0.353248	0.0281163	
-0.915245	0.36853	-0.18798	
0.575343	0.369958	0.180592	
0.093537	0.330318	0.0372127	
-0.557692	0.247713	-0.0684719	
-2.12722	0.166898	-0.225621	
-0.319385	0.333574	-0.0586038	
-0.366423	0.312168	-0.035746	
-0.0981785	0.324877	-0.0331375	
0.00478981	0.348198	0.0222595	
-0.393543	0.26164	-0.034713	
-0.815029	0.318117	-0.154154	
0.3795	0.305262	0.103875	
-0.0662158	0.362666	-0.03657	
0.31286	0.326462	0.0698828	
-0.953024	0.342586	-0.197026	
0.5858	0.336086	0.18113	
-0.00426395	0.309578	0.0103151	
-0.00117216	0.317756	-0.000380392	
-0.00218832	0.280039	0.0604983	
-0.0118864	0.367938	0.0470678	
-0.00526173	0.303663	-0.0191533	
1.78673	-0.0950019	0.128978	
-1.30344	0.243739	-0.239572	
-0.0130222	0.305159	0.064571	
-0.00417065	0.327828	-0.0163353	
-0.00385012	0.192842	0.0372697	
2.44043	0.0426337	0.187377	
0.596568	0.166707	0.0771787	
0.307372	0.139295	0.0196006	
0.851048	0.0932416	0.0886354	
0.44647	0.169742	0.0395761	
0.00667917	0.16185	-0.00862157	
-0.00147437	0.178165	-0.0140804	
-0.420352	0.149381	-0.0828216	
-0.000825309	0.0937764	-0.00998073	
0.225409	0.119018	0.00558646	
1.10495	0.0643129	0.0928087	
1.52723	0.162156	0.275419	
0.493016	0.133516	0.0461427	
0.441673	0.155864	0.0597412	
7.51619e-05	0.105114	-0.0116217	
0.661361	0.14115	0.0633719	
-0.336286	0.147557	-0.0539381	
-0.499747	0.140602	-0.0754108	
0.444647	0.145272	0.0611362	
0.0856934	0.155996	-0.00599946	
0.00169811	0.149123	-0.00645182	
0.000312537	0.150312	-0.00608931	
0.00209436	0.158091	-0.021161	
0.000922814	0.139743	-0.000878842	
0.00572768	0.146412	0.00115577	
0.000400702	0.142057	0.000987834	
0.000171619	0.0738198	-0.00608116	
0.00142794	0.126668	-0.0157616	
-1.55891	0.170804	-0.258075	
-0.166441	0.154732	-0.000783346	
-0.755054	0.176967	-0.0970695	
0.422469	0.17253	0.0886054	
0.101538	0.158178	0.0231515	
-0.449229	0.125515	-0.0413699	
-1.82474	0.0708848	-0.163889	
-0.490269	0.169063	-0.0481655	
-0.349711	0.144042	-0.0447065	
-0.089046	0.157938	-0.0126279	
0.00218202	0.16258	0.0140301	
-0.277725	0.125444	-0.0181311	
-0.629069	0.147566	-0.0852298	
0.360752	0.157095	0.0618084	
0.0527061	0.175909	0.000184423	
0.299407	0.16022	0.0431693	
-0.977305	0.164801	-0.130967	
0.43738	0.175157	0.0847201	
-0.00152633	0.158041	0.00370987	
-0.000614136	0.155867	0.000167749	
-0.0018134	0.131138	0.0238179	
-0.00260889	0.167819	0.0204417	
-0.000768577	0.154481	-0.00835254	
1.33716	-0.0422569	0.100831	
-1.16806	0.121492	-0.150648	
-0.00299722	0.140258	0.0263744	
-0.000645618	0.162745	-0.00957698	
-0.000965677	0.0846279	0.0128476	
2.2388	0.0226495	0.166187	
0.57908	0.0955228	0.0599157	
0.271629	0.0690534	0.0161204	
0.817568	0.0537845	0.0712343	
0.406037	0.0810546	0.0274421	
0.188529	0.0788535	0.0104768	
-0.00119024	0.083748	-0.00658541	
-0.459922	0.073372	-0.0610357	
-0.0662602	0.0478051	-0.0107174	
0.172684	0.0576656	0.00685852	
1.12837	0.0337494	0.087552	
1.71711	0.0824417	0.253252	
0.444833	0.070025	0.0352647	
0.420055	0.0816496	0.0435072	
-4.03127e-05	0.052219	-0.00539208	
0.569424	0.0740633	0.0460727	
-0.216453	0.0811846	-0.0262889	
-0.479038	0.0720209	-0.0555836	
0.442734	0.0735829	0.048868	
0.0875936	0.0802553	0.00117301	
0.000426092	0.0845083	-0.003911	
-0.000172949	0.0730761	-0.00251664	
0.000139556	0.0791999	-0.00881693	
0.000642103	0.075994	-0.00194398	
0.00449294	0.0752443	0.000650526	
0.000121706	0.0705049	-0.000455877	
-4.60089e-05	0.0395965	-0.0028159	
0.000118571	0.0615199	-0.00749988	
-1.75965	0.111767	-0.220693	
-0.125834	0.0748605	-0.00191987	
-0.790795	0.0872122	-0.0812637	
0.316204	0.079891	0.0555923	
0.0811399	0.0802592	0.0134856	
-0.443831	0.0723421	-0.0361574	
-1.72423	0.0362902	-0.137498	
-0.58424	0.0936967	-0.0539176	
-0.319186	0.0734148	-0.0238486	
-0.0185417	0.0821619	-0.00217088	
0.00157901	0.074751	0.00715806	
-0.25839	0.0644478	-0.0172571	
-0.540057	0.0780078	-0.0557713	
0.289544	0.0864723	0.0330172	
0.0447923	0.0911118	0.00227796	
0.293119	0.0783093	0.0326614	
-0.862369	0.087113	-0.0954735	
0.354714	0.0964618	0.0478093	
-0.000546983	0.087978	0.00173047	
-0.000200439	0.0769947	2.80488e-05	
-0.00052985	0.0630247	0.00994099	
-0.000176688	0.0830341	0.00795257	
-0.000282712	0.0820983	-0.00277067	
1.14474	-0.0220564	0.0810385	
-1.08679	0.074204	-0.106726	
-0.000521773	0.0674219	0.0102779	
-0.000203058	0.0809761	-0.00383376	
-8.70877e-05	0.0423474	0.00584252	
2.16162	0.015334	0.15973	
0.621149	0.0618889	0.0562501	
0.220161	0.0459362	0.014903	
0.791074	0.0340245	0.0659047	
0.356588	0.0512679	0.0323039	
0.351181	0.0539799	0.0218652	
-0.000650297	0.0530665	-0.00423213	
-0.511725	0.0446681	-0.0566079	
-0.136641	0.0304886	-0.0140174	
0.114507	0.0391526	0.0055865	
1.19109	0.0222985	0.0920724	
1.96803	0.0586035	0.23398	
0.400535	0.0494103	0.0295923	
0.460765	0.0504403	0.0432755	
-1.94254e-05	0.034718	-0.00259654	
0.545408	0.0524506	0.0408529	
-0.131062	0.0517803	-0.0144946	
-0.498352	0.0473982	-0.049639	
0.469927	0.0479501	0.0469651	
0.107195	0.05334	0.00562828	
0.000156865	0.0534824	-0.00275214	
-2.0469e-05	0.0470177	-0.00191053	
6.05912e-05	0.0531964	-0.00577597	
0.000344462	0.0484938	-0.00138611	
0.00319344	0.0439843	0.00030129	
6.71263e-05	0.0464055	-0.000530347	
-2.1574e-05	0.0248535	-0.00146873	
9.35562e-06	0.0432329	-0.00365734	
-2.01939	0.0673711	-0.222646	
-0.0762887	0.0495407	-0.00132274	
-0.798043	0.0563828	-0.0753455	
0.247844	0.0506022	0.0348718	
0.072367	0.0488912	0.00988048	
-0.436147	0.048946	-0.0342115	
-1.67527	0.0247755	-0.132284	
-0.693897	0.0627794	-0.0582527	
-0.285848	0.0519732	-0.017937	
-0.0172668	0.0498119	-0.00111948	
0.000759717	0.0479536	0.00469716	
-0.237432	0.0435696	-0.0162685	
-0.509565	0.0554099	-0.0465682	
0.257761	0.0560524	0.0267507	
0.0435334	0.0591485	0.00262308	
0.27008	0.0509121	0.0265325	
-0.838885	0.0599123	-0.0768841	
0.291234	0.0616713	0.0339875	
-0.000237852	0.0562993	0.00131294	
-0.000154771	0.0494115	0.000294108	
-0.000338081	0.0429656	0.00566859	
-5.23525e-05	0.055931	0.00516658	
-9.43958e-05	0.0536914	-0.00136423	
1.05953	-0.0151927	0.0743203	
-1.04154	0.0513367	-0.0924487	
-0.000279773	0.0468236	0.00612848	
-9.54834e-05	0.0532212	-0.00198049	
3.52336e-05	0.0283487	0.00310735	
2.12792	0.0109774	0.157672	
0.663844	0.0421917	0.0504447	
0.184723	0.0317867	0.0129461	
0.774366	0.0226461	0.0630961	
0.318109	0.0356869	0.019123	
0.486239	0.0355421	0.0507171	
-9.75324e-05	0.0365256	-0.00288183	
-0.567304	0.0313539	-0.0552162	
-0.198683	0.0222974	-0.0175851	
0.0710281	0.0275442	0.00390191	
1.26305	0.0160373	0.0975903	
2.21645	0.0401808	0.21488	
0.368812	0.0335857	0.0279856	
0.512451	0.0335598	0.0450888	
6.36306e-05	0.0250633	-0.00152299	
0.534735	0.0351878	0.0406543	
-0.0697925	0.0369242	-0.00768408	
-0.503858	0.0325532	-0.0470708	
0.508124	0.0329888	0.039244	
0.123975	0.0372352	0.00657905	
0.000193994	0.0377085	-0.00196715	
8.74178e-05	0.0325105	-0.00140219	
0.000251668	0.0373102	-0.00379535	
9.83827e-05	0.034749	-0.00121079	
0.00156538	0.0304292	0.000172815	
2.98781e-05	0.0324306	-0.000559473	
3.41957e-05	0.0179449	-0.000904886	
0.000133255	0.0305185	-0.00210386	
-2.27463	0.0274548	-0.22099	
-0.039352	0.0349729	0.000107151	
-0.813566	0.0367903	-0.0698954	
0.191398	0.0350465	0.0205126	
0.0619017	0.0336658	0.00784077	
-0.436181	0.0338938	-0.0332661	
-1.65093	0.0174558	-0.129188	
-0.789307	0.035798	-0.0789939	
-0.261665	0.0357896	-0.0201324	
-0.0264075	0.0343502	-0.00197521	
-1.0722e-05	0.0329538	0.00332734	
-0.229118	0.0306628	-0.0158636	
-0.498759	0.0368277	-0.0434751	
0.244121	0.039296	0.0268368	
0.03295	0.0418111	0.00208897	
0.246501	0.0353845	0.0226301	
-0.829792	0.039262	-0.0684418	
0.245225	0.0433067	0.0243929	
-0.000125736	0.0396863	0.00106891	
-5.5541e-05	0.0345582	0.000275468	
-0.000128705	0.0308813	0.00311276	
-0.000229965	0.0392106	0.00329213	
2.99571e-06	0.0383929	-0.00058364	
1.00486	-0.0112089	0.0707777	
-1.01112	0.0327069	-0.0857892	
-0.000269874	0.0333252	0.00377168	
1.27656e-05	0.0375835	-0.0010885	
-8.40276e-05	0.0206263	0.00203773	
2.12485	0.00810089	0.159267	
0.702187	0.032378	0.0528254	
0.156786	0.022907	0.0114038	
0.768733	0.0170865	0.0622094	
0.293583	0.0269742	0.0163698	
0.610079	0.0331051	0.0465748	
-0.000169038	0.0264759	-0.00220613	
-0.624847	0.0216542	-0.0574093	
-0.253021	0.0159793	-0.0211732	
0.0348095	0.019806	0.00186374	
1.34065	0.0116668	0.104231	
2.46117	0.03523	0.178585	
0.346995	0.0245977	0.0262403	
0.562267	0.0255903	0.0482628	
3.56746e-05	0.0180934	-0.00091402	
0.526957	0.0260215	0.0404816	
-0.0150084	0.0268896	-0.00242828	
-0.515868	0.0239482	-0.0459639	
0.548921	0.0249213	0.0473993	
0.138112	0.0273468	0.0087615	
0.000100848	0.0275798	-0.00157327	
3.96371e-05	0.0236951	-0.00100808	
0.000109527	0.0269794	-0.00257963	
0.000107545	0.0253658	-0.0010259	
0.00112948	0.022159	0.000139517	
2.57859e-05	0.023754	-0.000478322	
1.08488e-05	0.0130436	-0.000523918	
7.05537e-05	0.0219373	-0.00142457	
-2.52475	0.02828	-0.22537	
-0.0105072	0.0254218	0.00136517	
-0.844263	0.0291489	-0.0678689	
0.145784	0.0249523	0.015473	
0.0520527	0.0246774	0.00627638	
-0.444277	0.0262653	-0.0343145	
-1.64275	0.0129919	-0.12888	
-0.884337	0.0363412	-0.0648196	
-0.24552	0.0263771	-0.0184634	
-0.0317324	0.0253753	-0.00235254	
8.04785e-05	0.0239874	0.00263947	
-0.228035	0.023023	-0.016482	
-0.491665	0.0277526	-0.0414414	
0.233256	0.0288285	0.0225903	
0.0242961	0.0305734	0.00156925	
0.228608	0.0259019	0.0203206	
-0.825866	0.0301527	-0.0649183	
0.207755	0.0314936	0.0193464	
-7.41795e-05	0.0291357	0.000808625	
-3.93697e-05	0.0253536	0.00036517	
-7.2101e-05	0.0226463	0.00204795	
-9.77906e-05	0.0285779	0.00222393	
6.82585e-06	0.0281173	-0.000345478	
0.967357	-0.00827935	0.0690399	
-0.992394	0.026458	-0.0829571	
-0.000165013	0.0242821	0.00249598	
-1.99154e-08	0.0275521	-0.000618001	
-3.68981e-05	0.0153772	0.00138322	
2.14492	0.00626129	0.16281	
0.739431	0.0246662	0.0584131	
0.136071	0.0172413	0.0101942	
0.774361	0.0133146	0.0627671	
0.279314	0.0199392	0.0131647	
0.721083	0.0215552	0.086982	
-3.68012e-05	0.0197167	-0.00166062	
-0.679409	0.0169484	-0.0567094	
-0.302889	0.012074	-0.0249165	
0.0034937	0.0149609	-0.000451924	
1.41705	0.00883694	0.111449	
2.6884	0.0244358	0.210778	
0.333203	0.0185108	0.0255598	
0.60824	0.0191728	0.0511866	
2.43855e-05	0.0137455	-0.000590733	
0.522435	0.019627	0.0404467	
0.038404	0.0202691	0.00232847	
-0.531189	0.0181101	-0.0459459	
0.590258	0.0186749	0.053173	
0.151746	0.0206627	0.0105676	
6.77582e-05	0.0208724	-0.00110581	
4.56068e-05	0.0177818	-0.000770628	
8.20526e-05	0.0202797	-0.00183423	
8.63992e-05	0.0190237	-0.000827084	
0.000308318	0.0169109	5.4652e-05	
3.0811e-05	0.0178093	-0.000433526	
6.88133e-06	0.0101333	-0.00032111	
4.38478e-05	0.016496	-0.000904314	
-2.76194	0.0215872	-0.24103	
0.0127577	0.0191236	0.00250415	
-0.885188	0.0221756	-0.0674505	
0.105876	0.0188922	0.010605	
0.0421177	0.0186415	0.00487379	
-0.458697	0.020448	-0.0358595	
-1.65336	0.0097644	-0.13094	
-0.973558	0.0267796	-0.0840707	
-0.23648	0.019796	-0.0163515	
-0.0341955	0.0192389	-0.00252473	
1.59985e-05	0.0178814	0.00192669	
-0.231036	0.0176292	-0.017132	
-0.486844	0.0210115	-0.0404467	
0.221985	0.0219611	0.0210405	
0.0147864	0.0231238	0.00095959	
0.213713	0.0195014	0.0185798	
-0.824473	0.0229971	-0.0651174	
0.177203	0.0239236	0.0157423	
-5.26936e-05	0.0221971	0.000612605	
-2.70609e-05	0.0191017	0.000277437	
-5.45667e-05	0.0171748	0.00142344	
-6.79409e-05	0.0215324	0.00155445	
1.84267e-06	0.021299	-0.000154118	
0.944155	-0.00647678	0.0684108	
-0.978772	0.0207232	-0.0813727	
-0.000113313	0.0183152	0.0017013	
-5.54977e-06	0.0207951	-0.000351306	
-2.67153e-05	0.0116693	0.000921921	
2.18002	0.00493616	0.167125	
0.777674	0.017915	0.0606774	
0.117468	0.0133562	0.00897388	
0.783116	0.00950105	0.0633246	
0.265877	0.016272	0.0105158	
0.828601	0.00716906	0.111007	
7.88824e-05	0.0155416	-0.00129023	
-0.734724	0.0141802	-0.0540845	
-0.351116	0.00968005	-0.0284595	
-0.0261328	0.0117188	-0.00257914	
1.49757	0.00685716	0.119297	
2.91889	0.00861397	0.231437	
0.324234	0.0139444	0.0252053	
0.656183	0.0140055	0.0542203	
2.34679e-05	0.0107443	-0.000362189	
0.519947	0.0145639	0.040205	
0.0870897	0.0159047	0.006371	
-0.54907	0.0139677	-0.0467542	
0.633425	0.0140203	0.0530473	
0.16569	0.0158634	0.0118092	
8.57382e-05	0.0164	-0.000920771	
5.1966e-05	0.0139935	-0.000571844	
0.0001026	0.0159212	-0.00135458	
4.85122e-05	0.0149813	-0.000669592	
-0.000549499	0.0132196	-2.31024e-05	
2.60475e-05	0.014045	-0.000372921	
1.10009e-05	0.00784272	-0.000184676	
4.58928e-05	0.01295	-0.000571714	
-3.00196	-0.00208916	-0.251817	
0.0330625	0.0149471	0.00382408	
-0.926914	0.0167521	-0.0681336	
0.0706251	0.0148937	0.00622405	
0.0331222	0.0147126	0.00386481	
-0.478541	0.0151945	-0.0373443	
-1.67226	0.00764462	-0.133652	
-1.06073	0.00814107	-0.120367	
-0.230794	0.0152626	-0.0156628	
-0.0383938	0.0151139	-0.00289423	
-0.000102465	0.0141423	0.00154599	
-0.234203	0.0134009	-0.01746	
-0.484712	0.015376	-0.0398786	
0.214118	0.0170914	0.019466	
0.00741834	0.0182001	0.000427211	
0.200822	0.0152742	0.0170798	
-0.827852	0.0165428	-0.0653052	
0.150917	0.0189549	0.0130158	
-4.54175e-05	0.0174456	0.000475929	
-2.48699e-05	0.0150827	0.000286399	
-6.03964e-05	0.0135223	0.000986997	
-8.99489e-05	0.016879	0.00111615	
5.1829e-06	0.0167812	-4.39777e-05	
0.929399	-0.00512612	0.0681117	
-0.971656	0.0143009	-0.0799276	
-9.39879e-05	0.014376	0.00119594	
6.24207e-06	0.0164339	-0.000236519	
-3.74591e-05	0.00926181	0.000640297	
2.22285	0.00404141	0.17215	
0.819349	0.0160598	0.0626449	
0.103046	0.010849	0.00780704	
0.792529	0.00809906	0.0639655	
0.255396	0.0132744	0.0134256	
0.933787	0.00697383	0.114627	
4.81659e-05	0.0126074	-0.00103604	
-0.790378	0.0109165	-0.0622504	
-0.397509	0.0078369	-0.0319105	
-0.0521149	0.00948616	-0.00434125	
1.58288	0.00565094	0.126854	
3.15312	0.00950065	0.199068	
0.316621	0.0116496	0.0242271	
0.703855	0.0119641	0.0580558	
1.4349e-05	0.0087739	-0.000231065	
0.519373	0.0123176	0.0405157	
0.130436	0.0129621	0.00964585	
-0.568999	0.0113575	-0.0477016	
0.677316	0.011838	0.0602694	
0.177739	0.0132349	0.0131445	
4.80322e-05	0.0132149	-0.000740347	
3.26928e-05	0.0113465	-0.000444054	
5.31437e-05	0.0128535	-0.00101462	
4.84726e-05	0.0121609	-0.000565419	
-0.00123585	0.010758	-8.1742e-05	
2.15802e-05	0.0114265	-0.000320315	
3.61458e-06	0.00636089	-0.000112568	
2.32094e-05	0.0104046	-0.000381144	
-3.24328	0.00190066	-0.23879	
0.0514322	0.012063	0.00500947	
-0.969796	0.0158676	-0.0734267	
0.0379748	0.0122851	0.00463408	
0.0251965	0.0118846	0.00299452	
-0.496555	0.0129978	-0.0389905	
-1.69723	0.00631005	-0.136384	
-1.15161	0.0142902	-0.0925666	
-0.226588	0.0123242	-0.0170842	
-0.0422902	0.0122651	-0.00324919	
-5.85215e-05	0.0114691	0.00126076	
-0.242204	0.0111617	-0.018295	
-0.483741	0.0128905	-0.0395862	
0.208702	0.0138822	0.017815	
-0.000171752	0.0146681	-0.000148564	
0.191614	0.0123671	0.0161761	
-0.836442	0.0141635	-0.0652461	
0.127855	0.0151474	0.0108853	
-3.3358e-05	0.0140278	0.000370087	
-1.7962e-05	0.0121948	0.000250273	
-3.68006e-05	0.0108856	0.000714815	
-5.051e-05	0.0135984	0.000826142	
-8.27319e-08	0.013523	-4.77963e-06	
0.921328	-0.00419899	0.0682881	
-0.971546	0.0128126	-0.0797888	
-6.49278e-05	0.0115474	0.000866346	
1.61776e-06	0.0132186	-0.000160164	
-1.96196e-05	0.00756019	0.000480911	
2.27262	0.00335268	0.177649	
0.861807	0.0133452	0.068052	
0.0900427	0.00895343	0.00710569	
0.804845	0.00673579	0.0650711	
0.245924	0.0118079	0.0121826	
1.03763	0.00700445	0.107359	
6.11667e-05	0.0104323	-0.000816037	
-0.846476	0.00973569	-0.0631989	
-0.442809	0.0064708	-0.0355269	
-0.076995	0.00786423	-0.0063644	
1.66811	0.0046734	0.134426	
3.38043	0.00621214	0.250683	
0.311689	0.00961407	0.0240238	
0.751447	0.00955975	0.0614853	
8.73731e-06	0.00727917	-0.000148397	
0.520587	0.0102034	0.0408856	
0.173193	0.0106767	0.0130006	
-0.591061	0.0094352	-0.0492722	
0.721179	0.00981188	0.0634192	
0.19002	0.0109662	0.0141252	
4.0066e-05	0.0108928	-0.000567701	
2.97227e-05	0.00936424	-0.000348113	
4.09871e-05	0.0106092	-0.000775227	
4.0931e-05	0.0099814	-0.000458545	
-0.00195457	0.00892521	-0.000134595	
1.84929e-05	0.00941282	-0.000257561	
1.84794e-06	0.00530668	-6.86889e-05	
1.59772e-05	0.00861834	-0.000267324	
-3.48027	0.00234196	-0.267434	
0.0674854	0.0098668	0.00608005	
-1.01368	0.0128151	-0.0763179	
0.00807101	0.0104184	0.00224811	
0.0178123	0.00982438	0.00218637	
-0.517705	0.0107542	-0.040948	
-1.7273	0.00516003	-0.139502	
-1.23874	0.0119092	-0.102395	
-0.222826	0.0101407	-0.0169436	
-0.0470474	0.010136	-0.00369569	
-6.4236e-05	0.00951446	0.000989117	
-0.251339	0.00921152	-0.0192022	
-0.484235	0.0106112	-0.0396883	
0.205302	0.011411	0.0175706	
-0.00570577	0.012092	-0.000539956	
0.18333	0.0102097	0.0153234	
-0.847049	0.0118033	-0.0665541	
0.106088	0.0124586	0.00889508	
-2.48538e-05	0.0115268	0.000287753	
-1.36636e-05	0.0100934	0.000179323	
-2.90742e-05	0.00894821	0.000538674	
-3.74303e-05	0.0111711	0.000618742	
-1.88963e-07	0.0111438	1.28001e-05	
0.917641	-0.0034834	0.0687135	
-0.973267	0.0106798	-0.0801863	
-4.80473e-05	0.00944758	0.000620545	
1.36608e-07	0.0109468	-0.000103883	
-1.67385e-05	0.0062437	0.000352233	
2.32542	0.00281636	0.183051	
0.905138	0.0100846	0.0713534	
0.0783735	0.00754876	0.00635595	
0.817968	0.00530814	0.0661558	
0.237877	0.00981539	0.012504	
1.13542	-0.00306511	0.13376	
8.04135e-05	0.00875716	-0.000680496	
-0.903149	0.0087317	-0.0592567	
-0.48735	0.00564474	-0.0390476	
-0.100963	0.00664496	-0.00884876	
1.755	0.00396726	0.142087	
3.6101	-0.00354694	0.260784	
0.308884	0.00784984	0.024671	
0.799509	0.00718337	0.064703	
6.44509e-06	0.00617053	-9.13768e-05	
0.523087	0.00819568	0.0413808	
0.213491	0.00890523	0.016045	
-0.61367	0.00786016	-0.0510602	
0.765779	0.0075735	0.066133	
0.202727	0.00897181	0.0152866	
3.98113e-05	0.00914649	-0.000463819	
3.17111e-05	0.00787291	-0.000288005	
4.35822e-05	0.00892808	-0.000594805	
2.84523e-05	0.00841416	-0.000363263	
-0.00264722	0.00751206	-0.000179332	
1.51591e-05	0.00793102	-0.000212101	
2.5972e-06	0.00448482	-3.62674e-05	
1.60487e-05	0.00728105	-0.000190757	
-3.71742	-0.0143449	-0.286675	
0.0828564	0.00840841	0.00719104	
-1.05923	0.0111754	-0.0775265	
-0.0201812	0.00901017	7.3032e-05	
0.0103587	0.00829714	0.00143979	
-0.539293	0.00852751	-0.0427522	
-1.75957	0.00438003	-0.142687	
-1.32372	-0.00143687	-0.130215	
-0.221624	0.00845198	-0.0162056	