<VTKFile type="UnstructuredGrid" version="0.1" byte_order="LittleEndian">
	<UnstructuredGrid>
		<Piece NumberOfPoints="1917" NumberOfCells="3602">
			<CellData Scalars="scalars">
				<DataArray type="Float64" Name="Doublet Strengths" NumberOfComponents="1" Format="ascii">
2.0371	
0.476621	
1.77532	
1.75877	
1.67038	
3.3929	
1.24378	
1.26126	
1.19608	
1.18578	
1.31907	
0.490047	
0.213114	
3.05939	
0.614615	
0.226533	
0.433822	
3.11119	
0.884458	
1.50244	
1.36302	
1.45253	
1.40343	
0.867067	
0.97671	
0.925427	
1.31112	
0.722401	
1.41118	
1.43576	
1.36688	
1.55036	
1.38567	
1.22252	
1.40892	
1.34408	
1.44429	
1.59348	
1.51393	
1.60512	
1.59288	
1.56363	
1.42839	
1.50792	
1.47429	
1.51129	
1.43497	
1.51956	
1.39518	
0.924363	
0.961255	
1.37655	
1.41751	
1.33426	
1.35615	
1.92403	
1.38716	
1.35805	
1.29785	
1.40428	
0.969038	
1.41117	
1.46141	
1.36651	
1.43021	
1.47458	
1.51651	
1.40332	
1.40539	
1.42235	
1.35351	
1.38328	
1.35662	
1.44913	
1.41176	
1.52312	
1.06753	
2.10585	
0.920937	
0.672521	
1.39228	
1.35952	
1.46719	
0.856949	
1.4347	
1.53962	
1.39486	
1.60099	
1.37478	
1.3964	
1.38789	
1.28666	
1.3253	
1.26104	
1.32782	
1.25304	
1.47373	
1.4706	
1.15727	
1.30067	
1.39994	
1.31017	
1.48021	
1.42336	
1.34223	
1.36488	
1.39453	
1.40303	
1.46491	
1.41913	
1.48499	
1.50066	
1.46507	
1.6403	
1.49673	
1.39	
1.41207	
1.39005	
1.42399	
1.40195	
1.37477	
1.3783	
1.36278	
1.35073	
1.36742	
1.86786	
1.55182	
1.59934	
1.51169	
1.40833	
1.04297	
1.51836	
1.52966	
0.690757	
1.54351	
1.62568	
1.39586	
1.40188	
1.32237	
1.33704	
1.32048	
1.40412	
1.35812	
1.3545	
0.857536	
0.42994	
0.49943	
0.632212	
1.77176	
2.22266	
1.67192	
1.18666	
1.33371	
0.66486	
0.530397	
1.75293	
1.63827	
1.48011	
1.48261	
0.750137	
1.6811	
1.5904	
1.4306	
1.3681	
1.33863	
3.41359	
3.33836	
1.22929	
1.23014	
1.20911	
1.1609	
1.4927	
1.61108	
1.25384	
1.24109	
1.28587	
1.35308	
1.13192	
0.934291	
0.908995	
1.45988	
1.44548	
1.41849	
1.30077	
1.26229	
1.10059	
1.40593	
0.820061	
1.03271	
0.880812	
0.653994	
0.712907	
0.796998	
0.965768	
1.00812	
1.05773	
1.09326	
0.923764	
0.958772	
1.08347	
1.2102	
1.41757	
1.47839	
1.41371	
0.80643	
0.775955	
0.844429	
0.802287	
1.77975	
2.13511	
1.5998	
1.54469	
1.59768	
1.35002	
1.28729	
0.835565	
0.722104	
1.49529	
1.46079	
1.55613	
1.4993	
1.66663	
1.56958	
1.67319	
1.59206	
1.09284	
1.11875	
0.590595	
1.65428	
1.5587	
1.43279	
1.36719	
1.39558	
1.36147	
1.26532	
1.50029	
1.51613	
1.5542	
1.47865	
1.6488	
1.58476	
1.71852	
1.69022	
1.34195	
1.41156	
1.31444	
1.30939	
1.44319	
1.48509	
1.48476	
1.45497	
1.40146	
1.40289	
1.39654	
1.6579	
1.5929	
1.63841	
1.56758	
0.506593	
0.538074	
1.57364	
1.42382	
1.46024	
1.42124	
1.62438	
1.15435	
1.19974	
1.05523	
1.46861	
1.54243	
1.54576	
1.39877	
1.51126	
1.26933	
1.26693	
1.28537	
1.3705	
1.43666	
1.4802	
1.5121	
1.6901	
1.38388	
1.41431	
1.38447	
1.4273	
1.00723	
1.11041	
1.45972	
1.63663	
1.5503	
1.71201	
1.7643	
1.37529	
1.30893	
1.40732	
1.60074	
1.46662	
1.54208	
1.62616	
1.22811	
1.21624	
1.22342	
1.47845	
1.28797	
1.65129	
1.30918	
1.08215	
0.83946	
1.38437	
1.58185	
1.56217	
1.4602	
1.51981	
1.38527	
1.48472	
1.53279	
1.58977	
1.42069	
1.10549	
1.24972	
1.56782	
1.67305	
1.66376	
1.67892	
1.26105	
1.26031	
1.30744	
1.3481	
1.32576	
1.50035	
1.44964	
1.41243	
1.48073	
1.48323	
1.53965	
1.57442	
1.27486	
1.35621	
1.3013	
1.34954	
1.3751	
1.41456	
1.35962	
1.42536	
1.35718	
1.36067	
1.39423	
1.35829	
1.39234	
1.34677	
1.5201	
1.50041	
1.68616	
1.46954	
1.4265	
1.22121	
1.36173	
1.53502	
1.312	
1.45874	
1.44125	
1.5329	
1.45032	
1.30072	
1.67357	
1.64187	
1.58929	
1.70965	
1.32164	
1.33129	
1.33589	
1.35339	
1.36788	
1.33754	
1.38464	
1.37147	
1.6783	
1.54132	
1.54539	
1.63051	
1.46121	
1.38912	
0.743116	
0.550882	
1.49418	
1.47418	
1.43659	
1.58088	
1.41227	
1.37713	
1.36434	
1.36585	
1.32066	
1.30614	
1.3342	
1.29897	
1.3905	
1.36728	
1.45189	
1.37007	
1.30343	
1.29309	
1.29733	
1.30308	
0.425653	
0.398494	
1.63829	
1.73423	
1.48927	
1.53008	
1.46336	
1.54213	
1.20353	
1.35527	
1.25965	
1.30202	
1.33259	
1.52874	
1.51848	
1.37771	
1.69269	
1.20845	
1.1841	
1.35016	
1.31228	
1.44533	
1.39365	
0.582978	
0.757013	
0.65115	
1.4904	
1.43373	
1.48792	
1.44385	
1.51504	
1.63669	
1.61583	
1.15197	
1.0558	
1.01183	
1.28536	
1.28505	
1.35524	
1.29696	
1.30073	
1.08391	
1.28893	
1.1623	
1.42161	
1.41368	
1.45279	
1.44462	
1.38536	
1.37277	
1.37876	
1.36179	
1.44392	
1.61116	
1.50651	
1.61583	
1.83941	
1.73316	
1.7227	
1.64832	
1.70795	
1.57386	
1.68097	
1.63785	
1.38753	
1.36063	
1.38145	
1.56594	
1.60766	
1.80677	
1.55346	
1.62575	
1.46111	
1.27297	
1.31985	
1.5234	
1.49675	
1.51444	
1.50298	
1.50703	
1.5414	
1.57068	
1.44082	
1.44858	
1.51059	
1.53836	
0.979174	
0.873288	
0.992999	
0.929395	
1.43539	
1.35303	
0.829699	
0.703354	
1.34357	
1.33141	
0.633704	
0.531622	
1.28303	
1.32401	
1.36201	
1.35663	
1.42607	
1.47571	
1.42801	
1.49477	
1.3792	
1.38353	
1.47473	
1.31899	
1.36478	
1.42241	
1.42054	
1.36776	
1.33232	
1.47558	
1.40612	
1.47915	
1.45734	
1.49986	
1.45934	
1.57619	
1.50578	
1.53526	
1.51539	
1.49594	
1.48246	
1.28689	
1.1157	
1.17331	
1.09126	
1.10789	
1.88466	
1.75535	
1.64731	
1.67688	
1.66897	
1.59027	
1.46248	
1.66133	
1.61536	
1.44446	
1.64453	
1.41882	
1.44755	
1.40929	
1.50287	
1.32181	
1.32216	
1.17887	
1.18958	
1.21099	
1.44448	
1.49229	
1.40257	
1.30628	
1.31974	
1.41831	
1.37827	
1.35105	
1.23077	
1.2631	
1.41097	
1.47842	
1.42579	
1.34944	
1.12172	
1.03906	
1.23176	
0.84357	
0.91847	
1.28004	
1.33533	
1.35938	
1.46504	
0.970935	
0.924805	
1.41853	
0.926114	
1.18883	
1.39056	
1.35398	
1.35073	
1.45002	
1.6939	
1.47082	
1.37074	
1.37846	
1.48436	
1.37978	
0.700948	
0.797873	
1.41462	
1.49235	
1.5401	
1.5288	
1.70506	
1.37778	
1.43068	
1.39614	
1.38312	
1.3695	
1.15923	
1.16385	
1.15171	
1.15705	
1.43716	
1.47387	
1.42288	
1.45344	
1.43775	
1.55548	
1.52553	
1.47497	
1.45978	
1.36694	
1.42482	
1.26082	
1.17734	
1.11993	
1.46977	
1.40682	
1.51177	
1.49145	
1.52901	
1.41354	
1.53513	
1.4635	
1.31	
1.1065	
1.31803	
1.30553	
1.38659	
1.32542	
1.53351	
1.50727	
1.4705	
1.44492	
1.36677	
1.41188	
1.41268	
1.41568	
1.51094	
1.49481	
1.46432	
1.47976	
0.930123	
0.97517	
1.33229	
1.35994	
1.41242	
1.2471	
1.31029	
1.23969	
1.34097	
1.60673	
1.46843	
1.58772	
1.55932	
1.56783	
1.63192	
1.60763	
1.63902	
1.17792	
1.23232	
1.32734	
1.25027	
1.28889	
1.4238	
1.42509	
1.41251	
1.42877	
1.43872	
1.37363	
1.40302	
1.37066	
1.398	
1.40648	
1.45389	
1.48495	
1.54876	
1.59712	
1.2941	
1.34683	
1.35903	
1.34495	
1.42111	
1.47254	
1.34824	
1.34865	
1.36326	
1.3866	
1.37661	
1.33673	
1.36652	
1.3679	
1.35085	
1.28239	
1.23102	
1.21625	
1.08096	
1.44153	
1.48591	
1.43454	
1.43794	
1.60414	
1.53454	
1.51396	
1.4924	
1.16454	
1.39042	
1.54091	
1.57832	
1.06897	
1.04721	
1.48448	
1.48874	
1.62763	
1.47321	
1.49362	
1.50742	
1.45992	
1.52124	
1.43515	
1.44246	
1.64523	
1.76445	
1.68187	
1.83331	
0.444812	
0.458487	
0.244639	
0.320375	
1.30307	
1.21813	
1.28475	
1.2365	
1.53516	
1.41833	
1.39739	
1.39277	
1.49849	
1.51233	
1.42089	
1.43734	
1.07073	
0.95337	
1.03997	
1.00243	
1.57891	
1.45204	
1.43227	
1.4098	
1.37053	
1.35914	
1.36609	
1.34713	
1.4155	
1.41656	
1.39356	
1.46216	
1.4278	
1.45168	
1.40478	
0.492441	
1.35636	
1.34836	
1.26163	
1.26225	
1.23987	
0.419118	
0.621616	
1.24377	
1.15361	
1.1482	
1.09177	
1.02198	
1.0592	
0.988332	
0.924408	
1.20609	
0.580638	
0.795653	
0.574902	
1.49945	
1.44083	
1.61323	
1.41839	
1.43683	
1.49574	
1.34184	
1.3266	
1.33859	
1.27409	
1.55371	
1.57053	
1.74429	
1.84285	
1.54045	
1.41226	
1.29879	
1.25362	
1.28458	
1.30111	
1.29389	
0.896279	
0.828437	
1.42498	
1.41872	
1.47435	
1.50554	
0.72019	
0.632688	
0.757227	
1.41145	
1.41397	
1.41347	
2.37907	
1.96194	
1.34138	
1.24417	
0.80268	
1.49198	
1.51586	
1.54788	
2.05278	
1.24073	
1.28874	
1.29485	
1.26442	
0.444254	
0.483403	
0.628422	
0.638541	
1.40595	
1.40667	
1.35543	
1.40321	
1.6965	
1.66813	
1.03247	
0.987615	
1.53658	
1.38247	
1.31298	
1.307	
1.34157	
1.39214	
1.45922	
1.43517	
1.51782	
1.45583	
1.54434	
1.3282	
1.55669	
1.32219	
0.692041	
0.633756	
0.538366	
0.508404	
1.25627	
1.21121	
1.23335	
1.19168	
0.991206	
0.993027	
-2.80356	
-4.35732	
-3.47431	
-3.44538	
-3.79861	
-2.12945	
1.11157	
2.79785	
0.84513	
1.20829	
-0.771117	
-1.00921	
1.03441	
-0.898184	
-1.06398	
-1.58348	
-1.1589	
-2.79775	
-2.88787	
-2.91129	
-2.31573	
-1.29796	
-2.85247	
-0.440637	
-0.0184501	
-0.223885	
-1.56428	
-2.37125	
-2.15114	
-1.84378	
-1.15951	
-1.34599	
-2.84835	
-3.54405	
-2.82634	
-2.64263	
-2.73111	
-2.48372	
-0.539465	
-3.42408	
-1.70799	
0.131368	
0.397148	
-2.25782	
-2.51775	
0.580967	
1.11318	
-2.57863	
-1.26191	
0.329561	
-0.813194	
-1.99993	
-2.97152	
-1.62601	
-2.26284	
-3.03977	
-3.50568	
-3.09539	
-0.747706	
-0.195486	
-1.36993	
-1.34141	
-2.91926	
-1.88268	
-2.28809	
-1.1891	
-1.55549	
-1.03923	
-1.40599	
-0.254771	
-1.58442	
-0.999772	
-1.74257	
-1.34263	
-2.85925	
-2.91055	
-0.377901	
-2.83999	
-1.96904	
-1.2248	
-0.673414	
-1.08849	
-2.11449	
-2.71532	
-2.86512	
-2.86964	
-2.52247	
-1.50552	
-2.55828	
-2.70594	
-2.59908	
-0.758118	
-1.11667	
-2.74681	
-2.83059	
0.512411	
-0.0372796	
0.513259	
0.478279	
-2.85255	
-3.29736	
-2.57795	
-3.1387	
0.115609	
-0.992893	
0.141078	
0.444517	
-0.914492	
-0.945374	
-1.04554	
-1.11575	
-2.7837	
-2.87695	
-2.92784	
-2.64955	
0.768513	
-2.39276	
-1.31907	
0.964141	
-0.220819	
0.374356	
-2.19713	
-2.99704	
-0.878461	
1.59199	
1.8614	
0.646269	
0.0615174	
-0.323477	
0.212849	
-0.521046	
-0.430083	
-2.50488	
-2.6889	
-2.87521	
-1.69588	
-1.79032	
-1.48509	
-1.86684	
-1.87556	
-0.482896	
0.441122	
-2.71394	
-2.68473	
-3.01797	
-2.64942	
0.144971	
0.34736	
0.560923	
0.521211	
-1.58176	
-2.08751	
-1.89231	
-2.14991	
-0.638587	
-1.06786	
-0.282043	
-0.751329	
-2.57547	
-2.30281	
-2.83601	
-2.96286	
-2.8052	
-2.97762	
-1.73723	
-3.17079	
-2.75989	
-3.13769	
-3.00935	
-2.99297	
-2.75013	
-2.9521	
-2.67473	
-2.42062	
-2.25235	
0.646422	
0.933722	
0.908006	
-1.66307	
-1.69575	
-1.55868	
-1.76497	
-1.65373	
-1.15966	
-1.56941	
-1.65622	
-2.22739	
1.45519	
1.61477	
1.92502	
0.18939	
0.00545174	
-2.92927	
-3.13093	
1.39119	
2.32987	
-2.70072	
-2.35376	
-2.36882	
-0.101999	
-0.0321449	
0.204558	
1.13631	
1.05736	
0.745775	
0.859131	
1.16968	
0.885136	
0.814212	
0.681661	
-2.60757	
-3.789	
-3.6947	
0.342573	
0.192525	
0.962145	
0.527675	
-0.875068	
-0.32984	
-2.956	
-2.73588	
-2.38633	
-2.75552	
-2.56373	
-2.73637	
-2.72096	
-2.5596	
-2.59577	
-2.78756	
-3.27648	
-2.94795	
-2.83117	
-2.93831	
-2.85815	
-2.83451	
0.340106	
0.0996099	
-1.67027	
-1.18991	
-1.66404	
-1.67579	
-0.0356362	
-0.47718	
0.501723	
0.0277595	
-2.93321	
-2.80184	
-2.77783	
-2.84074	
-2.83662	
-2.96468	
-2.92417	
-2.89809	
-2.77872	
-2.76755	
-2.75564	
-2.78556	
-3.65748	
-3.21472	
-3.38529	
-3.23574	
-0.384855	
-0.706985	
-0.41144	
-0.891475	
-1.89174	
-1.75452	
-1.97216	
-2.19869	
1.27763	
1.92686	
-1.20079	
-1.10623	
-1.37733	
-1.26735	
-1.44374	
-1.31392	
-1.3528	
-0.579713	
-3.885	
-3.57349	
-1.17218	
-0.788672	
-1.12768	
-2.2966	
-1.71802	
-1.3474	
-1.15539	
-1.54523	
-1.64713	
-1.17512	
-0.664836	
-0.855252	
-1.18547	
-0.917785	
-1.70468	
-3.18069	
-2.87601	
-0.736056	
-0.547461	
-0.48273	
-0.0892279	
-1.44532	
-2.36702	
-2.47863	
-2.22062	
0.824089	
-3.04067	
0.355105	
-0.035044	
-3.65738	
-4.30062	
0.542661	
0.67076	
1.4255	
1.61378	
-1.73258	
-2.09448	
-1.87315	
-2.19112	
-2.84349	
-2.65254	
-2.98384	
-2.70148	
-2.65285	
-2.85352	
-2.93499	
-3.23779	
-2.80443	
-2.00997	
-2.92153	
-2.61504	
-2.65372	
-3.22404	
-2.66989	
-3.16103	
-0.325576	
0.238678	
-3.19154	
-2.9818	
-3.15755	
-3.26659	
-2.72471	
-2.39977	
-2.64729	
-1.03458	
-1.01573	
1.02521	
1.57423	
0.173673	
0.824855	
-0.152152	
0.38169	
0.791616	
0.186738	
0.714544	
0.235697	
-2.11196	
-0.810894	
-0.795859	
-2.86475	
-2.13043	
-2.27222	
-2.11561	
-2.26658	
-2.70831	
-2.87164	
-2.65574	
-3.16201	
-2.76682	
-2.6125	
-2.28349	
-2.14425	
-2.04244	
-2.15966	
-2.20362	
-0.66667	
-0.508719	
-0.945254	
-0.748785	
0.674498	
0.431515	
0.994766	
0.856222	
-2.2912	
-2.94422	
-1.44343	
-1.52739	
-1.60941	
-1.80501	
-2.77383	
-0.803219	
-0.459686	
-1.81523	
-2.13759	
-1.92296	
-1.75718	
0.269026	
1.17309	
1.233	
1.01335	
0.752763	
-2.11763	
-0.290521	
0.109712	
-0.386599	
-0.0402723	
-3.31752	
-2.47896	
-1.79068	
-1.52743	
-1.41244	
-1.62266	
-1.54996	
-1.62251	
-1.56935	
-1.78134	
-2.01699	
-1.90075	
-2.00578	
-1.95901	
-1.97979	
-3.33076	
-3.0911	
-2.84481	
-2.8889	
-3.03508	
-2.88781	
-2.77567	
-2.76075	
0.672386	
0.506816	
-0.525035	
-2.91186	
-3.24461	
-2.65077	
-3.11787	
-2.89966	
-2.92234	
-2.70974	
-3.08534	
-3.23528	
-0.144091	
-1.30656	
-1.39977	
-1.33884	
-1.34855	
-1.83266	
-2.12402	
-3.44711	
-3.95094	
-3.04949	
-2.8114	
-2.89903	
-2.85183	
0.509355	
-0.0880138	
0.923425	
0.109501	
-2.33078	
-0.740491	
-1.93737	
-2.40771	
-0.983498	
-1.22614	
-1.87072	
-2.45063	
-1.67386	
-2.09052	
-3.35346	
-3.831	
-3.20174	
-3.24656	
-1.19666	
-1.1404	
0.429147	
0.293861	
0.338924	
0.147169	
0.237744	
0.0490916	
0.0452561	
-3.5197	
-3.9152	
0.402629	
0.342499	
0.625748	
-1.57592	
-1.14903	
-1.12935	
-0.779423	
-1.63263	
-1.74106	
-1.40928	
-1.39138	
0.100253	
-0.218029	
0.115423	
-0.143298	
-4.12747	
-4.07602	
-3.46502	
-0.783307	
-1.22211	
-1.25772	
-0.970408	
-2.45081	
-2.5059	
-2.98335	
-3.07931	
-2.85351	
-2.92341	
-1.37483	
-1.17666	
-1.12692	
-1.44041	
-1.39053	
-1.63441	
-2.02113	
-2.1913	
-2.51535	
-1.83474	
-1.79872	
-2.2789	
-2.07697	
-2.74608	
0.601182	
0.385799	
0.0259396	
-0.343473	
-0.158781	
-0.429917	
-1.5386	
-1.85361	
-1.54171	
-1.86124	
-2.20143	
-1.65064	
-2.51944	
-1.94306	
-2.09296	
-2.59769	
-2.77861	
1.00822	
0.673877	
0.548268	
-2.55706	
-2.63612	
-2.62537	
-2.58718	
-2.93745	
-2.73104	
-2.57465	
-2.6064	
0.0804012	
-0.104924	
0.360267	
0.430983	
-0.696047	
-0.728824	
-0.187431	
-0.388129	
1.27009	
1.16116	
2.1277	
0.211995	
0.738611	
1.3477	
-1.97318	
-2.10249	
-2.28842	
-2.2635	
-2.48057	
-2.55318	
-2.94819	
-2.71387	
-2.78212	
-2.62343	
-3.46273	
-3.32088	
-0.944513	
-0.878214	
-1.1687	
-1.32148	
-1.46109	
-1.46491	
-1.7134	
-1.77193	
-1.50356	
-1.46539	
-1.69443	
-1.8392	
-2.69921	
-2.82156	
-2.8146	
-2.96615	
-2.88302	
-2.69772	
0.615338	
0.927401	
-2.28919	
-2.49181	
-2.44642	
-2.94903	
-2.7904	
-3.23344	
-3.7145	
-2.87714	
-2.79897	
0.873177	
-2.28823	
-2.19094	
-2.2116	
-2.71968	
-2.70256	
-3.03408	
-2.69687	
3.24928	
-2.40514	
-2.5547	
-2.25723	
-2.25257	
0.60868	
0.570554	
1.02868	
0.874475	
0.867753	
0.624141	
1.78059	
-2.53761	
-2.5962	
-3.00037	
-3.26946	
-3.24988	
1.0264	
-2.78364	
-2.95139	
-2.60983	
-2.61193	
0.685147	
0.548395	
-2.56331	
0.88778	
0.845433	
-1.98284	
-2.0255	
-1.84552	
-1.90702	
-2.01342	
-2.18703	
-2.91328	
-3.16975	
-2.48922	
-2.88872	
-1.8542	
-1.7183	
-1.60156	
-2.86322	
-2.52175	
-2.73011	
-2.72636	
-2.41882	
-2.22043	
-1.98485	
-1.82948	
-2.32577	
-2.12189	
-2.17011	
-2.28425	
1.04819	
0.850288	
1.03202	
-2.38161	
0.550879	
0.443233	
0.437753	
0.559187	
0.578123	
-2.71257	
-2.75997	
-2.80146	
0.0917882	
0.222557	
-0.00960151	
0.165234	
-2.74303	
-2.58388	
-2.63284	
-2.72064	
-2.77852	
-3.12539	
-2.86893	
-3.15377	
-2.93603	
1.10633	
1.13268	
0.749092	
-3.65968	
-3.12756	
-3.8122	
-3.11336	
-2.08948	
0.421559	
-2.6175	
-2.58518	
1.87428	
1.37365	
1.39248	
0.860486	
-2.43083	
-2.23181	
-2.05545	
-0.913035	
-0.89485	
-0.510559	
-2.34685	
-2.3234	
-3.47757	
-2.84373	
-2.91398	
-2.89933	
-3.20664	
-0.160494	
-0.609683	
1.21697	
1.06303	
1.01801	
0.965686	
1.14933	
0.708032	
0.649537	
0.579861	
0.413971	
-3.02105	
-2.85339	
-2.88243	
-2.76735	
-2.52256	
-2.4629	
-2.9458	
-3.22562	
-3.30072	
0.261126	
0.125482	
-0.316451	
-2.8807	
-3.0825	
-2.19622	
-2.24674	
-2.51831	
-2.42992	
-2.7245	
-2.59359	
-2.34665	
-2.34094	
-2.10995	
-2.32482	
-2.37678	
-2.51527	
-2.55438	
-2.31852	
-2.23314	
-2.3859	
-2.15325	
1.02993	
0.498669	
-2.22067	
-2.36336	
-2.36591	
-2.78099	
-1.16574	
-1.37375	
-2.02312	
-2.06824	
-2.53678	
-2.58319	
-2.52295	
-2.63262	
-1.49918	
-1.65602	
-2.95973	
-3.01575	
-2.90297	
-2.86355	
-2.7387	
-2.70089	
-2.6658	
-2.67594	
-2.12474	
-2.40474	
-1.80786	
-1.81443	
-2.83393	
-3.33293	
-3.27218	
-2.6305	
-3.0049	
-2.75578	
-0.136783	
-0.519728	
-0.60431	
0.741499	
0.539888	
-2.46347	
-2.54952	
-2.53337	
-0.615955	
-0.585728	
-0.45634	
-2.49815	
-2.34947	
-2.51574	
-2.27366	
-0.722691	
-0.589384	
-0.909568	
-1.0773	
-1.37367	
-2.57189	
-2.42405	
1.0785	
1.43619	
1.74471	
1.25587	
-0.296787	
-0.397566	
0.662852	
0.784845	
0.608515	
0.828763	
-2.98896	
-3.18219	
-2.8792	
-3.0841	
-1.15889	
-0.951147	
-0.462126	
2.17396	
3.18361	
-3.13569	
-3.23028	
-3.45006	
-3.86255	
-0.509413	
-0.340493	
-0.935135	
-0.59793	
0.920318	
0.781941	
0.653122	
0.48567	
0.471812	
-0.320483	
-0.620281	
0.0283973	
-0.482372	
0.649526	
0.617535	
-2.37059	
-2.99409	
-2.34491	
-2.58594	
-0.906216	
-1.19352	
-1.14005	
-1.37222	
1.91538	
1.70135	
-2.92726	
-2.73991	
0.664459	
0.649035	
1.00918	
0.948651	
0.886999	
0.535734	
0.0224146	
-0.10359	
-0.18316	
-0.152219	
-0.064613	
-0.0393964	
-0.103085	
0.0678632	
0.110605	
0.250144	
0.356208	
0.3072	
0.177091	
0.0127268	
-0.213022	
-0.193121	
-0.143721	
-0.166643	
-0.0948256	
0.359547	
-0.0273153	
0.307184	
0.153071	
0.235411	
0.0694133	
-0.228017	
0.316584	
0.227976	
0.0405197	
-0.0876635	
0.10713	
-0.267392	
-0.312382	
-0.410845	
-0.387426	
-0.421917	
-0.406237	
-0.190308	
0.280685	
0.181923	
-0.26566	
-0.0713151	
-0.154859	
0.0375635	
-0.288781	
-0.349127	
-0.327832	
-0.327863	
-0.325307	
-0.315919	
0.339274	
1.83587	
0.209833	
1.78	
1.76451	
1.69605	
2.09122	
1.20769	
1.12837	
1.16745	
1.20305	
1.34539	
0.381283	
0.209741	
1.75301	
0.601589	
0.175355	
0.407563	
1.93888	
3.06272	
0.866433	
1.11379	
1.56276	
1.5013	
1.50012	
1.425	
1.14316	
1.45269	
1.43312	
0.776676	
0.853704	
0.871641	
1.22898	
0.609412	
1.38818	
1.44248	
1.46709	
1.57634	
1.35951	
1.17294	
1.40424	
1.44839	
1.55025	
1.53827	
1.6358	
1.59818	
1.44857	
1.5141	
1.53355	
1.45613	
1.4641	
1.45694	
1.52431	
1.46212	
0.863927	
0.869616	
1.40468	
1.40498	
1.51192	
1.48302	
1.75029	
1.45016	
1.54809	
1.33124	
1.45301	
0.926344	
1.38741	
1.54616	
1.41978	
1.47168	
1.54188	
1.58458	
1.39174	
1.40944	
1.54369	
1.43418	
1.41774	
1.55989	
1.50281	
1.4891	
1.32569	
1.31552	
1.47483	
1.06891	
1.67402	
1.27536	
0.642824	
1.60261	
1.46302	
0.806368	
1.5643	
1.43356	
1.4766	
1.63639	
1.44477	
1.48999	
1.42866	
1.44726	
1.19345	
1.22076	
1.2501	
1.64305	
1.5425	
1.21438	
1.44471	
1.48667	
1.5082	
1.26097	
1.10733	
1.19129	
1.19169	
1.35676	
1.35791	
1.31529	
1.2824	
1.32365	
1.40006	
1.45943	
1.37852	
1.4419	
1.58637	
1.46252	
1.40561	
1.62791	
1.44828	
1.44109	
1.47031	
1.43632	
1.48614	
1.39986	
1.42441	
1.42938	
1.44208	
1.52689	
1.57123	
1.65673	
1.66202	
1.05909	
1.12151	
1.53698	
1.42815	
0.649951	
1.55651	
1.63344	
0.439399	
1.43166	
1.26495	
1.30709	
1.29563	
1.32226	
1.44997	
1.35605	
1.38955	
0.800601	
0.427291	
0.374896	
0.544117	
2.22477	
1.355	
1.20128	
0.572037	
1.76065	
1.66745	
1.42915	
1.44288	
1.52311	
1.7876	
1.50564	
1.41629	
1.52537	
1.39971	
2.99047	
3.17465	
1.18856	
1.05164	
1.24197	
1.19817	
1.52162	
1.64332	
1.14838	
1.21348	
1.12348	
0.891439	
0.827387	
1.45743	
1.51634	
1.45319	
1.23945	
1.27037	
1.02117	
1.39499	
0.742976	
0.703279	
0.771279	
0.843781	
0.858589	
0.973316	
0.953499	
0.873063	
0.916475	
0.979302	
1.02197	
1.53807	
1.49738	
1.4783	
0.780436	
0.585475	
0.734379	
0.630938	
1.74123	
1.57055	
1.54092	
1.2621	
1.28384	
1.48529	
1.51905	
1.52452	
1.7322	
1.59276	
1.68534	
1.61216	
1.70725	
1.13661	
1.34926	
1.1022	
1.49746	
1.48559	
0.592377	
0.489176	
1.66429	
1.57063	
1.49918	
1.57108	
1.53676	
1.63404	
1.23169	
1.5521	
1.4801	
1.49691	
1.50867	
1.73234	
1.69119	
1.7443	
1.60005	
1.28079	
1.27628	
1.30156	
1.49481	
1.46497	
1.47563	
1.51032	
1.48565	
1.47008	
1.69865	
1.66525	
1.57288	
1.46744	
1.57458	
1.4447	
1.41138	
1.66626	
1.45512	
1.23956	
1.11588	
1.02086	
1.515	
1.60026	
1.59146	
1.28355	
1.37874	
1.50756	
1.23388	
1.18016	
1.27167	
1.73705	
1.50324	
1.68911	
1.45089	
1.4931	
1.46335	
1.37244	
1.37381	
1.40229	
0.956997	
1.06963	
1.68576	
1.59521	
1.50478	
1.77026	
1.73235	
1.38239	
1.35543	
1.28096	
1.40181	
1.42489	
1.5994	
1.54099	
1.54304	
1.12155	
1.09585	
1.15236	
1.23725	
1.2573	
1.24175	
1.27799	
1.08342	
0.792978	
1.41103	
1.57059	
1.44989	
1.55796	
1.50605	
1.43359	
1.53477	
1.56201	
1.38323	
1.3956	
1.21299	
1.10061	
1.69069	
1.70726	
1.59043	
1.61773	
1.23819	
1.22314	
1.56089	
1.42046	
1.50326	
1.4638	
1.4181	
1.43737	
1.43759	
1.50935	
1.50325	
1.23972	
1.23511	
1.41256	
1.26625	
1.43649	
1.4534	
1.4154	
1.44556	
1.41164	
1.44596	
1.43022	
1.34871	
1.30864	
1.3313	
1.31178	
1.39842	
1.42435	
1.343	
1.47802	
1.46685	
1.22091	
1.28111	
1.49779	
1.56059	
1.47622	
1.4909	
1.46952	
1.33749	
1.72375	
1.6103	
1.57807	
1.59114	
1.66166	
1.30014	
1.28881	
1.32379	
1.30294	
1.30893	
1.33154	
1.31538	
1.32408	
1.59633	
1.63021	
1.68285	
1.62776	
1.22249	
0.689654	
0.508189	
1.51621	
1.5577	
1.47573	
1.53959	
1.65155	
1.64082	
1.63794	
1.63512	
1.32723	
1.38041	
1.30652	
1.46533	
1.51042	
1.60379	
1.61357	
1.21548	
1.24876	
1.22658	
1.27607	
0.315434	
0.316754	
1.73952	
1.64477	
1.55322	
1.55922	
1.43292	
1.55181	
1.30421	
1.21423	
1.29891	
1.22306	
1.23683	
1.27227	
1.36792	
1.23529	
1.27084	
1.19453	
1.25322	
1.31399	
1.5079	
1.38032	
1.41937	
0.560386	
0.622559	
0.723114	
1.42363	
1.47979	
1.43737	
1.47322	
1.54419	
1.60525	
1.62819	
0.818794	
1.30728	
1.23452	
1.31325	
1.22622	
1.09667	
0.987504	
1.2085	
1.12546	
1.46329	
1.47002	
1.50502	
1.49637	
1.59231	
1.46378	
1.50774	
1.4624	
1.53705	
1.50619	
1.65068	
1.55832	
1.66068	
1.8489	
1.81512	
1.72922	
1.6902	
1.72157	
1.56451	
1.69198	
1.37919	
1.34875	
1.78089	
1.60738	
1.49776	
1.46345	
1.55854	
1.63365	
1.61117	
1.65415	
1.48096	
1.78445	
1.47512	
1.53805	
1.52766	
1.50692	
1.52222	
1.59	
1.56133	
1.46911	
1.4471	
1.5546	
1.52487	
1.62767	
1.57029	
0.963938	
0.889939	
0.945121	
0.867964	
1.35446	
1.43368	
1.36636	
0.685862	
0.808318	
1.50076	
1.43774	
0.573782	
0.4804	
1.27297	
1.25736	
1.38388	
1.35039	
1.50413	
1.48859	
1.51292	
1.41443	
1.39783	
1.4246	
1.40893	
1.35516	
1.35921	
1.44108	
1.31186	
1.33679	
1.33929	
1.48271	
1.46191	
1.47788	
1.4085	
1.58548	
1.51716	
1.50769	
1.4566	
1.52498	
1.53455	
1.56233	
1.53725	
1.58291	
1.07085	
1.03582	
1.08323	
0.950557	
1.71166	
1.7791	
1.71316	
1.67145	
1.70341	
1.69868	
1.50385	
1.67647	
1.64559	
1.69294	
1.66005	
1.47772	
1.49493	
1.47655	
1.55286	
1.1321	
1.13785	
1.16992	
1.43631	
1.48164	
1.51913	
1.26729	
1.26415	
1.68763	
1.36111	
1.33128	
1.19164	
1.27346	
1.47127	
1.50047	
1.31342	
1.1719	
1.04227	
0.940362	
1.30358	
1.30253	
1.32845	
0.867562	
0.782264	
1.54738	
1.34087	
0.79145	
0.817943	
1.90165	
1.84716	
1.47299	
1.44607	
1.49063	
1.35367	
1.34446	
1.42347	
1.46009	
0.528802	
1.34313	
1.46506	
1.50731	
1.41412	
1.44517	
1.34892	
1.40283	
1.51684	
1.46874	
1.46072	
1.10562	
1.1235	
1.08149	
1.12052	
1.47279	
1.5041	
1.48238	
1.51482	
1.52618	
1.35792	
1.49196	
1.45638	
1.43715	
1.9286	
2.46481	
1.5485	
1.1625	
1.25809	
1.63303	
1.50628	
1.49622	
1.09402	
1.36263	
1.44073	
1.5252	
1.5463	
1.45289	
1.49114	
1.45115	
1.43865	
1.44543	
1.45507	
1.48498	
1.51466	
1.54656	
1.52751	
0.95806	
0.903739	
1.32603	
1.30228	
1.48228	
1.44192	
1.40565	
1.40477	
1.42637	
1.73396	
1.60923	
1.27314	
1.20647	
1.29969	
1.23924	
1.55818	
1.54103	
1.59304	
1.49732	
1.61263	
1.53354	
1.62089	
1.60107	
1.29922	
1.21873	
1.25887	
1.20361	
1.24932	
1.40502	
1.35184	
1.51421	
1.35905	
1.49788	
1.50523	
1.60677	
1.64996	
1.32927	
1.30624	
1.33115	
1.34572	
1.4732	
1.46209	
1.37882	
1.38986	
1.36704	
1.34336	
1.45001	
1.47774	
1.39286	
1.39192	
1.40156	
1.22933	
1.28226	
1.0858	
1.22319	
1.45406	
1.43343	
1.42026	
1.47837	
1.5177	
1.58091	
1.43029	
1.46129	
1.47756	
1.48826	
1.57678	
1.55112	
1.51178	
1.60761	
1.48941	
1.03289	
1.05199	
1.60292	
1.45001	
1.48798	
1.46852	
1.49508	
1.50478	
1.48374	
1.48141	
1.46674	
1.45906	
1.77062	
1.65472	
2.03199	
1.68896	
0.418038	
0.425351	
0.280369	
0.178393	
1.18407	
1.25029	
1.18415	
1.19316	
1.4015	
1.42012	
1.3795	
1.38359	
1.53325	
1.50907	
1.46773	
1.45671	
1.00766	
0.981834	
1.02378	
0.930494	
1.4462	
1.57538	
1.40148	
1.40354	
1.41128	
1.3233	
1.48016	
1.36989	
1.43975	
1.46598	
1.52563	
1.68381	
1.55282	
1.54898	
1.5297	
1.54517	
1.62995	
1.65875	
0.570988	
1.39151	
1.39356	
1.3436	
1.30422	
1.30442	
1.43234	
1.61202	
1.21473	
1.3312	
1.28318	
1.44464	
0.624606	
0.744512	
0.711707	
0.486429	
0.397751	
0.367221	
1.1954	
1.40873	
1.42349	
0.654511	
0.597337	
0.940943	
0.36117	
0.498777	
0.7511	
0.541097	
0.540375	
1.40033	
1.43871	
1.36432	
1.49979	
1.54987	
1.4692	
1.42313	
1.66928	
1.25724	
1.16556	
1.18055	
1.36438	
1.32169	
1.36668	
1.35631	
1.43374	
1.45008	
1.45253	
1.50547	
0.598971	
0.68165	
1.38445	
1.40122	
1.43668	
1.7095	
1.89924	
1.29142	
1.38051	
1.06384	
0.631983	
0.733553	
0.768548	
0.617331	
0.732915	
1.55903	
1.52645	
1.41465	
1.65744	
1.28402	
1.22905	
0.657218	
0.72224	
1.5155	
1.39838	
1.43459	
1.39935	
0.64262	
0.719235	
0.539056	
0.648632	
0.331777	
0.459404	
0.492227	
1.37636	
1.77796	
1.35602	
1.46317	
1.53199	
1.49474	
1.46542	
1.42399	
0.913313	
0.854884	
0.995446	
0.908222	
1.39388	
1.48531	
1.32011	
1.32103	
0.21907	
0.458304	
0.363957	
1.02611	
0.978002	
1.16929	
0.997477	
1.16383	
1.14867	
1.21846	
1.17377	
0.41599	
0.287411	
0.413317	
0.285878	
1.01822	
0.981948	
1.07129	
-2.94899	
-4.36134	
-3.48472	
-3.67234	
-4.31194	
1.1407	
2.76832	
0.847857	
0.998622	
-0.866784	
-1.19333	
1.02386	
-0.965611	
-1.13784	
-1.65065	
-1.21692	
-2.9053	
-2.97172	
-2.24606	
-1.33211	
-2.99234	
-2.94219	
-0.383177	
0.00975329	
-0.186637	
-1.74119	
-2.57786	
-2.21766	
-1.87131	
-1.35391	
-1.29106	
-2.89549	
-2.94236	
-2.84849	
-2.85627	
-2.73508	
-3.15525	
-0.535294	
-3.47783	
-1.70252	
0.162796	
0.442167	
-2.24765	
-2.51721	
0.69964	
1.53486	
-2.45107	
-1.27082	
0.335361	
-0.850002	
-2.03328	
-2.31957	
-2.10857	
-2.25938	
-3.12385	
-3.63664	
-3.47255	
-0.778246	
-0.239283	
-1.31542	
-1.35848	
-3.03252	
-2.47723	
-1.89174	
-1.27421	
-1.49671	
-1.179	
-1.48666	
-0.61864	
-1.71761	
-1.31776	
-1.98523	
-1.12282	
-2.46497	
-2.73679	
-0.366118	
-1.77448	
-2.22604	
-1.17201	
-1.02205	
-0.616911	
-2.7635	
-3.69365	
-2.94933	
-2.47924	
-1.46033	
-2.48669	
-2.47158	
-2.48959	
-0.746143	
-1.09533	
-2.74838	
-2.86806	
0.705544	
0.0457822	
0.540449	
0.454043	
-2.77943	
-3.15907	
-2.85166	
-3.30657	
0.0977564	
0.166785	
0.45783	
-1.27385	
-1.17144	
-1.06806	
-1.01138	
-2.62878	
-3.05453	
-2.8444	
-2.97187	
0.781369	
-2.38871	
-1.42295	
0.962335	
-0.206681	
0.379678	
-2.0298	
-3.07223	
-1.32005	
1.96324	
1.20713	
0.693691	
0.0748403	
0.225437	
0.0358868	
-0.511505	
-0.413678	
-2.71146	
-2.23939	
-2.41757	
-2.22808	
-1.88685	
-1.57253	
-1.92542	
-1.64811	
-0.465095	
0.455102	
-2.89774	
-2.70014	
-2.81012	
-2.64129	
0.336663	
0.338951	
0.525224	
0.570751	
-1.91963	
-2.18044	
-1.59982	
-1.64174	
-0.268959	
-1.11058	
-0.239801	
-1.04465	
-3.5489	
-2.52638	
-2.18488	
-3.03444	
-3.21168	
-3.26718	
-1.73495	
-2.33944	
-2.71732	
-2.78164	
-2.1829	
-3.08447	
-2.77497	
-2.40176	
-2.25365	
-2.61617	
-2.63694	
0.88149	
0.950304	
-1.77573	
-1.63936	
-1.7599	
-1.14123	
-1.65557	
-1.88833	
-1.67239	
-1.1573	
-2.38286	
1.60951	
1.86931	
0.210162	
0.027043	
-3.3925	
-3.55722	
2.34917	
1.41311	
-2.47552	
-2.15966	
-2.54115	
-0.18692	
0.180544	
-0.0766795	
1.07042	
1.1677	
0.728899	
0.803314	
1.39655	
0.817242	
0.890742	
0.68474	
-2.66084	
-3.92969	
-3.87701	
1.03822	
0.58055	
0.789584	
0.239226	
-0.849509	
-0.47952	
-2.77924	
-2.99338	
-2.75257	
-2.79878	
-2.41569	
-2.41167	
-2.7939	
-2.59245	
-2.64943	
-2.86157	
-2.99759	
-3.33535	
-2.91472	
-2.93998	
-2.95661	
-2.89339	
0.027381	
0.111269	
-1.63651	
-1.65992	
-1.28799	
-1.74983	
-0.0234674	
-0.474797	
-0.31906	
0.512129	
-2.89446	
-2.99588	
-2.9677	
-2.87807	
-3.01253	
-3.0145	
-3.26763	
-3.61096	
-2.84137	
-2.85566	
-2.84828	
-2.83016	
-3.24258	
-3.46392	
-3.12225	
-3.42734	
-0.673435	
-0.876221	
-0.35852	
-0.690211	
-1.93419	
-2.02021	
-2.2852	
-2.11927	
1.94495	
1.63971	
-1.09641	
-1.32237	
-1.49533	
-1.51278	
-1.33788	
-0.577937	
-0.937343	
-0.92026	
-1.36168	
-3.64567	
-3.99092	
-1.13782	
-1.09004	
-0.762856	
-1.64716	
-1.53821	
-1.48379	
-1.33425	
-1.1453	
-0.972381	
-0.623225	
-1.32092	
-1.6832	
-0.856114	
-1.18876	
-0.415925	
-0.111411	
-0.643022	
-0.503044	
-1.69637	
-2.2744	
-2.33605	
-2.14218	
0.845368	
-2.95868	
0.00990399	
0.395616	
-4.48002	
-4.49249	
0.70606	
0.959569	
1.31018	
1.45492	
-1.84774	
-2.16704	
-1.70524	
-1.87523	
-2.69228	
-3.08944	
-2.74009	
-2.70142	
-2.98449	
-3.00124	
-3.3585	
-3.5049	
-1.99423	
-2.6701	
-2.12176	
-2.83597	
-2.99235	
-2.55301	
-3.15751	
-2.59897	
0.345364	
-0.321621	
0.244746	
-3.44128	
-3.48106	
-3.31542	
-3.88103	
-2.56654	
-2.73405	
-3.17861	
-1.10463	
-1.10904	
1.60646	
1.20871	
0.78559	
0.204937	
0.421752	
-0.0430471	
0.396326	
0.281027	
0.883439	
0.497107	
-2.0623	
-0.684321	
-0.985753	
-2.89879	
-2.2899	
-2.02263	
-2.27216	
-2.11649	
-2.91383	
-2.5935	
-2.94975	
-2.67139	
-2.65483	
-2.81124	
-2.69318	
-2.05113	
-2.35775	
-2.33839	
-0.916525	
-0.723907	
-0.645133	
-0.489753	
0.448116	
0.690585	
0.669667	
1.01512	
-1.62462	
-1.55672	
-1.85584	
-1.75992	
-2.10241	
-3.06249	
-1.1417	
-0.535755	
-1.87672	
-2.24788	
-2.10369	
-1.83966	
0.245826	
1.26742	
1.0631	
0.860306	
1.04289	
-2.27749	
-0.378544	
0.0562066	
-0.284629	
0.15328	
-3.52479	
-2.39644	
-2.61502	
-1.86919	
-1.63764	
-1.58379	
-1.62837	
-1.70568	
-1.74447	
-1.707	
-1.97947	
-2.11971	
-1.86489	
-1.9101	
-2.233	
-2.12748	
-3.32992	
-3.205	
-3.18559	
-3.28394	
-2.79299	
-2.82028	
-2.85111	
-3.09511	
0.512302	
0.678744	
-2.90515	
-3.0467	
-2.86741	
-3.093	
-2.95357	
-3.11083	
-2.89915	
-3.17626	
-3.46285	
-0.258895	
-1.54903	
-1.47541	
-1.25786	
-1.20842	
-1.91661	
-1.67186	
-4.29867	
-4.24986	
-2.99576	
-2.88815	
-3.08972	
-2.96308	
0.0683151	
0.550596	
0.150378	
0.579257	
-2.34718	
-1.20451	
-2.30489	
-2.05173	
-1.22696	
-0.980309	
-2.31144	
-1.8843	
-2.10938	
-1.71599	
-3.33537	
-3.91131	
-3.50259	
-3.95595	
-1.22245	
-1.26923	
0.300392	
0.393456	
0.116253	
0.243936	
0.0552415	