<VTKFile type="UnstructuredGrid" version="0.1" byte_order="LittleEndian">
	<UnstructuredGrid>
		<Piece NumberOfPoints="1917" NumberOfCells="3602">
			<CellData Scalars="scalars">
				<DataArray type="Float64" Name="Doublet Strengths" NumberOfComponents="1" Format="ascii">
1.53249	
0.311457	
1.26406	
1.24223	
1.1542	
2.96977	
0.614793	
0.607261	
0.58191	
0.573101	
0.731595	
0.322561	
0.113622	
2.5908	
0.309138	
0.13114	
0.251321	
2.66891	
0.462355	
0.791361	
0.710571	
0.710773	
0.858561	
0.504232	
0.574905	
0.541517	
0.750398	
0.428317	
0.80702	
0.866	
0.800589	
0.956131	
0.84124	
0.634505	
0.741295	
0.71392	
0.786156	
0.887763	
0.868059	
1.02785	
0.950495	
0.947331	
0.846983	
0.901411	
0.879061	
0.937246	
0.842404	
0.920886	
0.839546	
0.517845	
0.568759	
0.806525	
0.81948	
0.771611	
0.790204	
1.1364	
0.810309	
0.774917	
0.735118	
0.831579	
0.570023	
0.862557	
0.880062	
0.78596	
0.812641	
0.899257	
0.942032	
0.808163	
0.845426	
0.859697	
0.7939	
0.812852	
0.837425	
0.945812	
0.881796	
1.0168	
0.640168	
1.55109	
0.506257	
0.408305	
0.823765	
0.787681	
0.862174	
0.499452	
0.900821	
1.00449	
0.868578	
1.0423	
0.80777	
0.842225	
0.707568	
0.652928	
0.851611	
0.766557	
0.804589	
0.697528	
0.842483	
0.889141	
0.700154	
0.835554	
0.716345	
0.686622	
0.925267	
0.866468	
0.746664	
0.7656	
0.745192	
0.854531	
0.896235	
0.862142	
0.914964	
0.883057	
0.927243	
0.84908	
0.807339	
0.837783	
0.847987	
0.842833	
0.830114	
0.834992	
0.830243	
0.837232	
0.818337	
0.82034	
0.824261	
1.09181	
0.930459	
1.0115	
0.890547	
0.683462	
0.592335	
0.963142	
0.980343	
0.413606	
1.01475	
1.09066	
0.863069	
0.748621	
0.722908	
0.758315	
0.747298	
0.844408	
0.796872	
0.781147	
0.48338	
0.246785	
0.288703	
0.366631	
1.26746	
1.6775	
1.09619	
0.661234	
0.736654	
0.391675	
0.316194	
1.23686	
1.1192	
0.799008	
0.941506	
0.455327	
1.00686	
0.913068	
0.837961	
0.830985	
0.774947	
2.95943	
2.8774	
0.678616	
0.661632	
0.643775	
0.631097	
0.848124	
0.860218	
0.614882	
0.604484	
0.651304	
0.691114	
0.671233	
0.606146	
0.556735	
0.820137	
0.796385	
0.811145	
0.641677	
0.612207	
0.654788	
0.773148	
0.482902	
0.661468	
0.510528	
0.380851	
0.41425	
0.46302	
0.554288	
0.587795	
0.593525	
0.605891	
0.540316	
0.560166	
0.651696	
0.763958	
0.869206	
0.939322	
0.855712	
0.465088	
0.45128	
0.490351	
0.464934	
1.16103	
1.43538	
1.07094	
1.02726	
1.05547	
0.746057	
0.693458	
0.485132	
0.418293	
0.883865	
0.852293	
0.920319	
0.857633	
1.09289	
0.980433	
1.0785	
0.991418	
0.579518	
0.603685	
0.322021	
1.12867	
1.02583	
0.839435	
0.791187	
0.807725	
0.77912	
0.643362	
0.906132	
0.936339	
0.917377	
0.88046	
0.971103	
0.960725	
1.10496	
1.09338	
0.790201	
0.798659	
0.789431	
0.780954	
0.849141	
0.877315	
0.879239	
0.847618	
0.834974	
0.844562	
0.835006	
1.10246	
1.01518	
1.08192	
0.963069	
0.342442	
0.33022	
1.01328	
0.839848	
0.87895	
0.807421	
0.987512	
0.685357	
0.722677	
0.624179	
0.900431	
0.997606	
0.998144	
0.798382	
0.962724	
0.799043	
0.761141	
0.757185	
0.784724	
0.799009	
0.791387	
0.813893	
0.819036	
0.751688	
0.751041	
0.748482	
0.77545	
0.675669	
0.731255	
0.893721	
1.06965	
0.970921	
1.19903	
1.25378	
0.835319	
0.774829	
0.780654	
0.974076	
0.825579	
0.912844	
0.985861	
0.645613	
0.646981	
0.66123	
0.840756	
0.680791	
0.816212	
0.69614	
0.583771	
0.513212	
0.804465	
1.02066	
0.974334	
0.908967	
0.983848	
0.837367	
0.947518	
1.01283	
1.04632	
0.873959	
0.59141	
0.761344	
0.975952	
1.10839	
1.08224	
1.11496	
0.630899	
0.665124	
0.703112	
0.776712	
0.765337	
0.894042	
0.856586	
0.833147	
0.966208	
0.959406	
1.03256	
1.06049	
0.77272	
0.843135	
0.78811	
0.838771	
0.793811	
0.816929	
0.790523	
0.8308	
0.79768	
0.816994	
0.850015	
0.812654	
0.842144	
0.81447	
0.971884	
0.900119	
1.11352	
0.91321	
0.785553	
0.722841	
0.784558	
0.717876	
0.65741	
0.874417	
0.868751	
0.890665	
0.860365	
0.732215	
1.06598	
1.01884	
0.922187	
0.930862	
0.79889	
0.813248	
0.808163	
0.820911	
0.803388	
0.796668	
0.830234	
0.827908	
1.0314	
0.918062	
0.887326	
0.998346	
0.77426	
0.683571	
0.431138	
0.341881	
0.876669	
0.859514	
0.813198	
0.830635	
0.824348	
0.811038	
0.793728	
0.804477	
0.756246	
0.730606	
0.763775	
0.726425	
0.819929	
0.796394	
0.893691	
0.805565	
0.708565	
0.690915	
0.716082	
0.716518	
0.281888	
0.239252	
1.10449	
1.17782	
0.927195	
0.971874	
0.846932	
0.993145	
0.665649	
0.694885	
0.649195	
0.692038	
0.71993	
0.877486	
0.814364	
0.763258	
0.809219	
0.712171	
0.695799	
0.792643	
0.751008	
0.869798	
0.809208	
0.313542	
0.42386	
0.369721	
0.913684	
0.85619	
0.903992	
0.855416	
0.938979	
1.05952	
1.04963	
0.614701	
0.594036	
0.596573	
0.785691	
0.78555	
0.839462	
0.776485	
0.820864	
0.633514	
0.72462	
0.647653	
0.858856	
0.855595	
0.879215	
0.884411	
0.821884	
0.822769	
0.815973	
0.815167	
0.874997	
0.947277	
0.934391	
1.05296	
0.981253	
1.07379	
1.04446	
0.972494	
1.09962	
0.956606	
1.06795	
1.04202	
0.754082	
0.727814	
0.814905	
1.00149	
0.9371	
1.02886	
0.928475	
0.981245	
0.903832	
0.749905	
0.796917	
0.854187	
0.842914	
0.87715	
0.892234	
0.873489	
0.930474	
0.912197	
0.797901	
0.818886	
0.881545	
0.918759	
0.605107	
0.516193	
0.594679	
0.551881	
0.758541	
0.719493	
0.426106	
0.360616	
0.778605	
0.775179	
0.368252	
0.312293	
0.651781	
0.691861	
0.707224	
0.711074	
0.751673	
0.7994	
0.763598	
0.801663	
0.776166	
0.780652	
0.806774	
0.695745	
0.706416	
0.74022	
0.754776	
0.73409	
0.680759	
0.811777	
0.768274	
0.822758	
0.796103	
0.853675	
0.833003	
0.892295	
0.866178	
0.940773	
0.899994	
0.908126	
0.883489	
0.734396	
0.661688	
0.787159	
0.662641	
0.748367	
1.30584	
1.13819	
1.08681	
1.11919	
1.06478	
1.00676	
0.894783	
1.1006	
1.0442	
0.91608	
1.1042	
0.880139	
0.91463	
0.86279	
0.976986	
0.779908	
0.774068	
0.651355	
0.644579	
0.650973	
0.869884	
0.916512	
0.851379	
0.719965	
0.699998	
0.721583	
0.741567	
0.707094	
0.655842	
0.694358	
0.867227	
0.945273	
0.892327	
0.695027	
0.627048	
0.57594	
0.762647	
0.508923	
0.598569	
0.694304	
0.703321	
0.723632	
0.887336	
0.539354	
0.526502	
0.81581	
0.526817	
0.65475	
0.840026	
0.813971	
0.806772	
0.856577	
0.981164	
0.864713	
0.726177	
0.705082	
0.916666	
0.801204	
0.424239	
0.552705	
0.768084	
0.901831	
0.915272	
0.908167	
0.96902	
0.756311	
0.797811	
0.832111	
0.787874	
0.78545	
0.622581	
0.614488	
0.628497	
0.617658	
0.882209	
0.91828	
0.867204	
0.900845	
0.860658	
1.01388	
0.996848	
0.813999	
0.795031	
0.814043	
0.866701	
0.74791	
0.698531	
0.6654	
0.932794	
0.865268	
0.981702	
0.926174	
0.975318	
0.840441	
0.976619	
0.693638	
0.626813	
0.561392	
0.751733	
0.735268	
0.771288	
0.743647	
1.0026	
0.976546	
0.9384	
0.889837	
0.793751	
0.821912	
0.812117	
0.826303	
0.942084	
0.915314	
0.899404	
0.918769	
0.481259	
0.475527	
0.776123	
0.816412	
0.792651	
0.709762	
0.771652	
0.700096	
0.807735	
1.04516	
0.908435	
1.02682	
1.00384	
0.948482	
1.04414	
1.02666	
1.06867	
0.656476	
0.668082	
0.73179	
0.693911	
0.726946	
0.88643	
0.878758	
0.859245	
0.874494	
0.836714	
0.786425	
0.837289	
0.789697	
0.830048	
0.84063	
0.856412	
0.889451	
0.944088	
1.00694	
0.667066	
0.691502	
0.718178	
0.699487	
0.884685	
0.941404	
0.819353	
0.817132	
0.832194	
0.732914	
0.740696	
0.698773	
0.729253	
0.790588	
0.792414	
0.743917	
0.656722	
0.672349	
0.580849	
0.772744	
0.775224	
0.771537	
0.772718	
0.950825	
0.909565	
0.89151	
0.881762	
0.682638	
0.803332	
0.931214	
0.911146	
0.635086	
0.624478	
0.90679	
0.923353	
0.987951	
0.906022	
0.902402	
0.91698	
0.884992	
0.866132	
0.853596	
0.845712	
1.12433	
1.2561	
1.16756	
1.33951	
0.246182	
0.26019	
0.128619	
0.177959	
0.731815	
0.663439	
0.74135	
0.676749	
0.817582	
0.779393	
0.792426	
0.773249	
0.940562	
0.955343	
0.847405	
0.856249	
0.610983	
0.530641	
0.563161	
0.538921	
0.920474	
0.844192	
0.809055	
0.809097	
0.769484	
0.776592	
0.759362	
0.765557	
0.853684	
0.879351	
0.855236	
0.875026	
0.839703	
0.859752	
0.828336	
0.306538	
0.824232	
0.817775	
0.695473	
0.711478	
0.702402	
0.273155	
0.383137	
0.691946	
0.654847	
0.622699	
0.586667	
0.55086	
0.693385	
0.664661	
0.635225	
0.624761	
0.348747	
0.466375	
0.352	
0.923618	
0.890326	
1.04115	
0.850685	
0.863464	
0.926682	
0.778265	
0.757768	
0.775518	
0.723324	
0.997435	
1.02905	
1.17579	
1.27226	
0.888609	
0.826323	
0.754285	
0.716285	
0.73643	
0.746773	
0.747277	
0.542308	
0.517914	
0.789418	
0.804482	
0.883345	
0.894017	
0.433151	
0.377386	
0.430632	
0.770931	
0.775273	
0.768844	
1.84186	
1.34107	
0.738319	
0.693201	
0.442493	
0.913234	
0.952581	
0.996496	
1.4252	
0.643615	
0.651553	
0.74197	
0.724375	
0.328144	
0.310581	
0.404246	
0.403589	
0.833008	
0.829025	
0.777063	
0.785762	
1.10122	
1.02765	
0.570428	
0.558596	
0.979819	
0.823854	
0.748514	
0.746699	
0.715261	
0.752951	
0.825161	
0.816299	
0.934602	
0.873544	
0.994019	
0.853236	
0.952733	
0.808832	
0.421265	
0.379629	
0.315997	
0.301829	
0.65289	
0.638149	
0.63422	
0.62222	
0.49416	
0.519564	
-1.88545	
-3.41151	
-2.38035	
-2.3882	
-2.65607	
-1.66724	
0.643926	
2.39508	
0.388551	
0.654349	
-0.482874	
-0.523802	
0.528164	
-0.45602	
-0.53957	
-1.21467	
-0.71043	
-1.65948	
-1.59643	
-1.69456	
-1.25619	
-0.808693	
-1.63251	
-0.231349	
-0.0411985	
-0.0924742	
-0.952945	
-1.39069	
-1.25558	
-1.15992	
-0.705036	
-0.827136	
-1.65721	
-2.34733	
-1.6388	
-1.5703	
-1.66195	
-1.49056	
-0.355639	
-2.26597	
-1.03648	
0.0385378	
0.20084	
-1.37729	
-1.54921	
0.325245	
0.779045	
-1.65133	
-0.814827	
0.155111	
-0.503219	
-1.32186	
-2.14545	
-1.0781	
-1.44319	
-1.63041	
-2.33932	
-2.08966	
-0.493449	
-0.127369	
-0.924038	
-0.921124	
-1.68765	
-1.22704	
-1.52497	
-0.731905	
-1.00574	
-0.626523	
-0.874298	
-0.143413	
-1.07503	
-0.599892	
-1.10038	
-0.794241	
-1.92126	
-1.89822	
-0.29096	
-2.1851	
-1.37191	
-0.797176	
-0.397555	
-0.693419	
-1.3537	
-1.58952	
-1.66032	
-1.66125	
-1.54423	
-1.04098	
-1.55004	
-1.74728	
-1.62272	
-0.465976	
-0.657687	
-1.66966	
-1.674	
0.288967	
-0.0516812	
0.230365	
0.221341	
-1.80373	
-2.32803	
-1.63342	
-2.21866	
0.0157279	
-0.682784	
0.108921	
0.233387	
-0.545077	
-0.575877	
-0.634037	
-0.687541	
-1.75612	
-1.84502	
-1.81153	
-1.72459	
0.347045	
-1.47857	
-0.71135	
0.481694	
-0.193651	
0.146827	
-1.50283	
-1.83301	
-0.529615	
1.24508	
1.6381	
0.536331	
-0.0661347	
-0.255316	
0.0272515	
-0.387671	
-0.290779	
-1.72351	
-1.80557	
-1.9117	
-0.927501	
-1.05859	
-0.863247	
-1.09982	
-1.05282	
-0.363318	
0.350294	
-1.76678	
-1.86122	
-2.13625	
-1.90033	
0.0252684	
0.136608	
0.236833	
0.224859	
-1.0329	
-1.34259	
-1.24604	
-1.46719	
-0.434485	
-0.764697	
-0.143769	
-0.510949	
-1.62599	
-1.46321	
-1.64137	
-1.69066	
-1.62218	
-1.70906	
-1.36539	
-2.33364	
-1.69028	
-2.3915	
-2.27796	
-2.35527	
-2.13237	
-2.21941	
-1.99882	
-1.55822	
-1.46006	
0.298883	
0.511716	
0.468919	
-1.01881	
-1.04555	
-1.10796	
-1.1467	
-1.07888	
-0.703572	
-0.922143	
-1.0059	
-1.43284	
1.10841	
1.25741	
1.46085	
0.0405258	
-0.0541175	
-1.6719	
-1.78842	
0.911382	
1.9166	
-1.91758	
-1.47228	
-1.38782	
-0.0875705	
-0.0507821	
0.0671846	
0.513096	
0.461699	
0.342798	
0.398291	
0.783718	
0.426068	
0.397904	
0.324716	
-1.51577	
-2.58177	
-2.49037	
0.298096	
0.198989	
0.802196	
0.446386	
-0.415286	
-0.205936	
-1.61651	
-1.4963	
-1.4159	
-1.57548	
-1.51984	
-1.57944	
-1.63266	
-1.36777	
-1.41862	
-1.53531	
-2.26395	
-1.82281	
-1.71681	
-1.68163	
-1.64079	
-1.63347	
0.106655	
0.025527	
-1.188	
-0.731281	
-1.02297	
-1.25981	
-0.0581805	
-0.337722	
0.253257	
-0.0485265	
-1.8888	
-1.73349	
-1.7593	
-1.74907	
-1.66559	
-1.68989	
-1.72624	
-1.66403	
-1.63193	
-1.61493	
-1.62602	
-1.62579	
-2.64928	
-2.21471	
-2.24401	
-2.12233	
-0.22028	
-0.419507	
-0.222199	
-0.525787	
-1.10472	
-1.06109	
-1.20576	
-1.53133	
1.16746	
1.65015	
-0.638433	
-0.572207	
-0.718431	
-0.733944	
-0.908921	
-0.94791	
-0.951829	
-0.424917	
-2.52165	
-2.32978	
-0.812204	
-0.556501	
-0.7709	
-1.64137	
-1.17762	
-0.780771	
-0.678425	
-0.915656	
-0.953691	
-0.69411	
-0.396512	
-0.594204	
-0.813113	
-0.651159	
-1.2386	
-2.11822	
-1.6623	
-0.425237	
-0.294674	
-0.256548	
0.0300497	
-0.782163	
-1.45736	
-1.43484	
-1.15404	
0.355591	
-1.91602	
0.329683	
0.0547729	
-2.57042	
-3.21505	
0.508823	
0.61654	
1.27298	
1.44375	
-1.17865	
-1.36335	
-1.36299	
-1.53242	
-2.07219	
-1.93421	
-1.86973	
-1.95106	
-1.64149	
-1.81709	
-1.79733	
-2.23219	
-2.18864	
-1.35074	
-2.2893	
-2.02073	
-1.79623	
-2.52237	
-1.78574	
-2.325	
-0.213248	
0.235945	
-1.77352	
-1.69794	
-1.76542	
-1.80331	
-1.52169	
-1.32283	
-1.45787	
-0.690365	
-0.635054	
0.731737	
1.14591	
0.179291	
0.77422	
-0.0323659	
0.41194	
0.571048	
0.152882	
0.562816	
0.265126	
-1.18114	
-0.509772	
-0.602037	
-1.61014	
-1.27363	
-1.36329	
-1.29863	
-1.38281	
-1.57673	
-1.65235	
-1.62115	
-2.07536	
-1.50259	
-1.41818	
-1.68965	
-1.4059	
-1.25613	
-1.36586	
-1.43078	
-0.467647	
-0.372465	
-0.656618	
-0.529417	
0.344366	
0.18171	
0.550426	
0.43317	
-1.34294	
-1.98556	
-0.799481	
-0.86707	
-0.897784	
-1.03236	
-1.59908	
-0.458651	
-0.260694	
-1.17229	
-1.34175	
-1.01954	
-0.946011	
0.102501	
0.891074	
1.1014	
0.832162	
0.683791	
-1.14975	
-0.150707	
0.0659551	
-0.219406	
0.0372939	
-1.88606	
-1.41734	
-1.18929	
-0.977073	
-0.893345	
-1.01037	
-0.957468	
-0.986532	
-0.93805	
-1.10595	
-1.3338	
-1.18902	
-1.28487	
-1.12289	
-1.10366	
-2.26149	
-1.84943	
-1.68893	
-1.69377	
-1.8803	
-1.78673	
-1.70258	
-1.68529	
0.310449	
0.236598	
-0.335393	
-1.88553	
-2.50373	
-1.7795	
-2.41996	
-1.73648	
-1.70863	
-1.59389	
-1.71185	
-1.92092	
-0.108225	
-0.699868	
-0.749587	
-0.85999	
-0.882503	
-1.22954	
-1.51218	
-2.37932	
-2.86297	
-1.77764	
-1.6744	
-1.69043	
-1.66892	
0.420444	
0.0142368	
0.846469	
0.158591	
-1.60115	
-0.441022	
-1.27677	
-1.5292	
-0.657767	
-0.821719	
-1.25675	
-1.7725	
-1.19896	
-1.50275	
-2.00106	
-2.57895	
-1.86196	
-1.99808	
-0.623962	
-0.604434	
0.204528	
0.141676	
0.304941	
0.178873	
0.122454	
0.0320803	
0.105693	
-2.35513	
-2.58878	
0.343536	
0.200456	
0.352764	
-1.14815	
-0.803792	
-0.811073	
-0.527423	
-1.09442	
-1.26642	
-0.951646	
-1.00569	
0.0409149	
-0.18698	
0.0120812	
-0.147025	
-2.9898	
-2.97123	
-2.33924	
-0.487102	
-0.739536	
-0.767249	
-0.590867	
-1.66781	
-1.70431	
-1.98587	
-2.04056	
-1.89057	
-1.91141	
-0.784281	
-0.648194	
-0.614898	
-0.852238	
-0.806896	
-1.12602	
-1.45749	
-1.63281	
-1.91111	
-1.18422	
-1.12368	
-1.53803	
-1.29687	
-1.64468	
0.287408	
0.21462	
-0.0291214	
-0.233476	
-0.115681	
-0.294259	
-0.835341	
-1.01796	
-0.828187	
-1.01621	
-1.44691	
-1.06649	
-1.87242	
-1.33216	
-1.24454	
-1.43704	
-1.58957	
0.512312	
0.341069	
0.280643	
-1.59423	
-1.62091	
-1.6732	
-1.62523	
-1.64762	
-1.54092	
-1.52927	
-1.50545	
0.0271896	
-0.0552431	
0.227351	
0.306311	
-0.401712	
-0.420781	
-0.0606429	
-0.206676	
1.01123	
0.915017	
1.62223	
0.0960902	
0.393419	
0.827631	
-1.27193	
-1.33186	
-1.38942	
-1.38967	
-1.49568	
-1.49319	
-1.74435	
-1.68127	
-1.68028	
-1.62393	
-1.97264	
-1.97759	
-0.580919	
-0.53956	
-0.715018	
-0.804382	
-0.913373	
-0.931205	
-1.10409	
-1.18194	
-0.946478	
-0.92225	
-1.08773	
-1.1957	
-1.53303	
-1.61799	
-1.58084	
-1.66606	
-1.62872	
-1.5407	
0.260251	
0.43677	
-1.24206	
-1.34868	
-1.32128	
-1.61697	
-1.54103	
-1.75886	
-2.44646	
-1.6154	
-1.60286	
0.406207	
-1.25	
-1.19704	
-1.25008	
-1.64587	
-1.6325	
-1.83838	
-1.56921	
2.89718	
-1.3191	
-1.39391	
-1.23217	
-1.22236	
0.299501	
0.290871	
0.64343	
0.49654	
0.562033	
0.367965	
1.3341	
-1.47453	
-1.50193	
-1.78811	
-1.86255	
-1.81209	
0.490257	
-1.62609	
-1.77364	
-1.51164	
-1.51672	
0.314784	
0.260018	
-1.47996	
0.411366	
0.387054	
-1.1871	
-1.24814	
-1.11044	
-1.12509	
-1.21509	
-1.29135	
-2.15484	
-2.34909	
-1.41896	
-1.62775	
-1.22648	
-1.16552	
-1.07715	
-1.5945	
-1.36655	
-1.48469	
-1.46005	
-1.64233	
-1.45541	
-1.30748	
-1.20881	
-1.3372	
-1.17805	
-1.24663	
-1.30913	
0.616475	
0.467876	
0.522589	
-1.6379	
0.276122	
0.191224	
0.192442	
0.25327	
0.256659	
-1.6101	
-1.60613	
-1.61101	
0.0213034	
0.0867801	
-0.0393685	
0.0525796	
-1.61053	
-1.5248	
-1.56864	
-1.61485	
-1.60565	
-1.82525	
-1.62002	
-1.92214	
-1.68539	
0.587138	
0.65035	
0.433558	
-2.46096	
-1.77128	
-2.60546	
-1.80598	
-1.42349	
0.228979	
-1.60924	
-1.58278	
1.44645	
0.949069	
1.00859	
0.399093	
-1.41648	
-1.24005	
-1.13323	
-0.662536	
-0.641064	
-0.391844	
-1.26517	
-1.29306	
-2.21898	
-1.72926	
-1.8156	
-1.764	
-1.99302	
-0.19942	
-0.470056	
0.591859	
0.475838	
0.497653	
0.447347	
0.53301	
0.315505	
0.282895	
0.258334	
0.173786	
-1.94052	
-1.77157	
-1.85874	
-1.76174	
-1.46062	
-1.4343	
-1.62974	
-2.12966	
-2.20298	
0.160689	
0.0542717	
-0.279111	
-1.64969	
-1.81196	
-1.52245	
-1.68402	
-1.66128	
-1.56036	
-1.58052	
-1.50746	
-1.78392	
-1.80355	
-1.63116	
-1.38505	
-1.466	
-1.51708	
-1.63883	
-1.36565	
-1.30489	
-1.41783	
-1.27611	
0.774283	
0.271224	
-1.42275	
-1.49653	
-1.5092	
-1.75337	
-0.837422	
-1.06927	
-1.37321	
-1.39814	
-1.53553	
-1.52827	
-1.47454	
-1.52275	
-1.07282	
-1.22875	
-1.71645	
-1.71865	
-1.67395	
-1.6577	
-1.79668	
-1.73059	
-1.72097	
-1.68636	
-1.54842	
-1.7561	
-1.15798	
-1.15876	
-1.94186	
-2.32933	
-2.27609	
-1.7851	
-2.05878	
-1.88156	
-0.0909529	
-0.345275	
-0.382106	
0.336572	
0.237345	
-1.41919	
-1.4675	
-1.42164	
-0.368453	
-0.384481	
-0.298254	
-1.70742	
-1.62387	
-1.71484	
-1.62244	
-0.552874	
-0.465775	
-0.707591	
-0.79442	
-1.02415	
-1.51011	
-1.37211	
0.674519	
0.932849	
1.22377	
0.765013	
-0.194967	
-0.246456	
0.32043	
0.386215	
0.312489	
0.40666	
-1.89086	
-2.05054	
-1.86108	
-2.05461	
-0.730352	
-0.593187	
-0.249021	
1.90272	
2.8642	
-1.94679	
-2.10201	
-2.26294	
-2.78225	
-0.381773	
-0.280095	
-0.631064	
-0.436048	
0.530175	
0.51619	
0.32399	
0.300884	
0.221403	
-0.15157	
-0.361092	
0.0926489	
-0.262208	
0.343975	
0.385317	
-1.54629	
-2.09565	
-1.52483	
-1.65018	
-0.589767	
-0.762126	
-0.705851	
-0.855031	
1.39938	
1.24459	
-1.98381	
-1.84492	
0.336928	
0.366691	
0.45189	
0.428653	
0.709018	
0.294679	
-0.0590165	
-0.119336	
-0.0952234	
-0.0751245	
-0.0376968	
-0.0310592	
-0.0478777	
0.0285522	
0.0536128	
0.139055	
0.189492	
0.168701	
0.095259	
-0.00121476	
-0.108677	
-0.0979097	
-0.0950693	
-0.0926121	
-0.0700156	
0.187664	
-0.029724	
0.162972	
0.0791772	
0.126329	
0.027466	
-0.119764	
0.157018	
0.110831	
0.00637468	
-0.0726582	
0.0447587	
-0.182709	
-0.211559	
-0.252957	
-0.206229	
-0.235627	
-0.279315	
-0.139337	
0.141785	
0.0895497	
-0.18561	
-0.0626307	
-0.112791	
0.00635188	
-0.152232	
-0.183366	
-0.176837	
-0.172406	
-0.187327	
-0.20723	
0.172095	
1.34267	
0.112123	
1.26872	
1.24799	
1.1791	
1.54218	
0.613221	
0.571582	
0.5794	
0.599309	
0.75404	
0.224058	
0.111651	
1.23229	
0.302034	
0.0951808	
0.235753	
1.3963	
2.62571	
0.458319	
0.56455	
1.0534	
0.82058	
0.990219	
0.772467	
0.710438	
0.921183	
0.894684	
0.466548	
0.516805	
0.525931	
0.752297	
0.354602	
0.825982	
0.86509	
0.862081	
0.998772	
0.844659	
0.647195	
0.767348	
0.818563	
0.916166	
0.89873	
1.08407	
0.952141	
0.917023	
0.963223	
0.942884	
0.892065	
0.918239	
0.872204	
0.943227	
0.920355	
0.485793	
0.505663	
0.858284	
0.84825	
0.932168	
0.884949	
1.14046	
0.908465	
1.02567	
0.764598	
0.908735	
0.562624	
0.868864	
0.900869	
0.824557	
0.847049	
1.02486	
1.09527	
0.824918	
0.870246	
1.01344	
0.841712	
0.844385	
0.963502	
1.02032	
1.02429	
0.842596	
0.844407	
0.883793	
0.669523	
1.17511	
0.941815	
0.391851	
1.07827	
0.882608	
0.467513	
1.03057	
0.912071	
0.945421	
1.10059	
0.89313	
0.94332	
0.888083	
0.889187	
0.641797	
0.770611	
0.834488	
1.17525	
0.981933	
0.719555	
0.915399	
0.878945	
0.934727	
0.847838	
0.696315	
0.664268	
0.660117	
0.870769	
0.854516	
0.792641	
0.74907	
0.782531	
0.862131	
0.916352	
0.856846	
0.900774	
1.08491	
0.911832	
0.890307	
0.883851	
0.909283	
0.906716	
0.916317	
0.898783	
0.935861	
0.878705	
0.891037	
0.896328	
0.904755	
0.97144	
1.01373	
0.968324	
0.9917	
0.646161	
0.729512	
1.00125	
0.890054	
0.392956	
1.02957	
1.09868	
0.256036	
0.904524	
0.736553	
0.76152	
0.773805	
0.784103	
0.877746	
0.807327	
0.836565	
0.45814	
0.247308	
0.215135	
0.317923	
1.68171	
0.757982	
0.678466	
0.335302	
1.24558	
1.14676	
0.811908	
0.973014	
0.947216	
1.20636	
0.905368	
0.891022	
0.962861	
0.871645	
2.55461	
2.73063	
0.782266	
0.643039	
0.810467	
0.696565	
0.881609	
0.892693	
0.566134	
0.638602	
0.696978	
0.586649	
0.50007	
0.835684	
0.890347	
0.848943	
0.614115	
0.641679	
0.611163	
0.792083	
0.44001	
0.413941	
0.460009	
0.505153	
0.515015	
0.580572	
0.575421	
0.532746	
0.558945	
0.607274	
0.640205	
1.00428	
0.939951	
0.932726	
0.464181	
0.342368	
0.4307	
0.366093	
1.15249	
1.08102	
1.07063	
0.73608	
0.753562	
0.888744	
0.921681	
0.891832	
0.964232	
1.0201	
1.12183	
1.02741	
1.12769	
0.755246	
0.808714	
0.637075	
0.945034	
0.905161	
0.365658	
0.293424	
1.14215	
1.04105	
0.949815	
1.05193	
0.985117	
1.10496	
0.656378	
0.937082	
0.920202	
0.924193	
0.952091	
1.13634	
1.11455	
1.10395	
0.995502	
0.79283	
0.786545	
0.798497	
0.901612	
0.871202	
0.914399	
0.916057	
0.933735	
0.917883	
1.16208	
1.12131	
0.96297	
0.89161	
1.04002	
0.892687	
0.855481	
0.976724	
0.845151	
0.808291	
0.6872	
0.625996	
0.964639	
1.06972	
1.06278	
0.714288	
0.81549	
0.983001	
0.768966	
0.740211	
0.781424	
1.18674	
0.832664	
0.852285	
0.875491	
0.835912	
0.82696	
0.767741	
0.771763	
0.787247	
0.646493	
0.666772	
1.14357	
1.03361	
0.957778	
1.26021	
1.21843	
0.807065	
0.854019	
0.785862	
0.803059	
0.811144	
0.99832	
0.94125	
0.934976	
0.659816	
0.656443	
0.688307	
0.696578	
0.726267	
0.692802	
0.738776	
0.664574	
0.485402	
0.874811	
1.06687	
0.872897	
1.03227	
0.972431	
0.887263	
1.00443	
1.0552	
0.888165	
0.88097	
0.807595	
0.699992	
1.13445	
1.16134	
1.01751	
1.05294	
0.635284	
0.670195	
0.856877	
0.818761	
0.913766	
0.904003	
0.854791	
0.953096	
0.974945	
1.03927	
1.04135	
0.789432	
0.777384	
0.95203	
0.793628	
0.865926	
0.864545	
0.829057	
0.850745	
0.878788	
0.902279	
0.895799	
0.830504	
0.810305	
0.829857	
0.814928	
0.887677	
0.930731	
0.847728	
0.98771	
0.852288	
0.753896	
0.670501	
0.730801	
0.935713	
0.90395	
0.926406	
0.911026	
0.774916	
0.980148	
0.953497	
0.955472	
0.986723	
1.05311	
0.816948	
0.801367	
0.823152	
0.808022	
0.79621	
0.810133	
0.808397	
0.821468	
0.915729	
1.02326	
1.05823	
1.00978	
0.672147	
0.40516	
0.318548	
0.832831	
0.844264	
0.890439	
0.987161	
1.13056	
1.10653	
1.11739	
1.10211	
0.796261	
0.845396	
0.786754	
0.900815	
0.956892	
1.06748	
1.07775	
0.688148	
0.721917	
0.695653	
0.750863	
0.181097	
0.196057	
1.18363	
1.1122	
1.00753	
1.02402	
0.85889	
1.00417	
0.722698	
0.647063	
0.688485	
0.674033	
0.686897	
0.715221	
0.7995	
0.693332	
0.731613	
0.740952	
0.79268	
0.79071	
0.862035	
0.818269	
0.853054	
0.301359	
0.354103	
0.404919	
0.872527	
0.92876	
0.87388	
0.898841	
0.95488	
1.0631	
1.08147	
0.482124	
0.845676	
0.779158	
0.848589	
0.786048	
0.666535	
0.604461	
0.808995	
0.747262	
0.920746	
0.922284	
0.95608	
0.940226	
0.975491	
0.916002	
0.952927	
0.919652	
0.971003	
0.955115	
1.09284	
1.00424	
1.003	
1.01208	
1.05645	
1.0724	
1.09724	
1.12952	
0.972046	
1.09522	
0.775718	
0.744977	
1.17483	
1.07229	
0.943742	
0.916609	
0.952037	
1.00734	
0.960706	
0.999016	
0.916354	
1.29591	
0.861325	
0.893236	
0.942095	
0.930966	
0.911048	
0.952831	
0.970289	
0.867002	
0.830547	
0.955145	
0.917059	
0.987533	
0.999323	
0.594689	
0.543893	
0.597232	
0.541732	
0.751669	
0.785749	
0.764177	
0.351675	
0.415619	
0.839381	
0.826921	
0.336901	
0.284483	
0.683123	
0.665677	
0.780053	
0.731926	
0.867232	
0.874342	
0.856009	
0.840643	
0.852972	
0.871776	
0.775593	
0.728799	
0.737473	
0.80977	
0.720172	
0.718947	
0.733745	
0.852172	
0.827784	
0.84096	
0.798884	
0.924368	
0.899882	
0.88529	
0.851963	
0.957658	
0.920585	
0.987966	
0.943671	
1.06878	
0.716112	
0.697641	
0.662866	
0.579526	
1.14862	
1.25082	
1.17397	
1.12303	
1.15718	
1.11346	
0.957482	
1.13913	
1.09241	
1.15051	
1.12162	
0.952699	
0.960671	
0.935031	
1.02138	
0.673307	
0.687677	
0.671868	
0.891701	
0.911031	
0.946643	
0.746714	
0.726718	
1.13314	
0.75846	
0.723855	
0.673182	
0.712475	
0.921527	
0.969001	
0.703663	
0.788803	
0.642888	
0.568857	
0.714211	
0.755	
0.73411	
0.535081	
0.467069	
0.96984	
0.749248	
0.488122	
0.545608	
1.23324	
1.15312	
0.883265	
0.873013	
0.900564	
0.720418	
0.740165	
0.884351	
0.89394	
0.307855	
0.813239	
0.892982	
0.924795	
0.873999	
0.87888	
0.767774	
0.815295	
0.963569	
0.923157	
0.927545	
0.652911	
0.647698	
0.642256	
0.635455	
0.939201	
0.976223	
0.947849	
0.982161	
1.02648	
0.82135	
1.00974	
0.829929	
0.80861	
1.28649	
1.97626	
1.09037	
0.736728	
0.814315	
1.10257	
0.963409	
0.928862	
0.567763	
0.837223	
0.91045	
0.997355	
1.01658	
0.924703	
0.962316	
0.853513	
0.834131	
0.85595	
0.845839	
0.942833	
0.974409	
0.996379	
0.967785	
0.468287	
0.47017	
0.832846	
0.793929	
0.93925	
0.903388	
0.873648	
0.874558	
0.831035	
1.05985	
0.962277	
0.790462	
0.732058	
0.825168	
0.765057	
1.0258	
1.01437	
1.05715	
0.948232	
1.05223	
0.945695	
1.06923	
1.04174	
0.752927	
0.715898	
0.74671	
0.691593	
0.711612	
0.87155	
0.819108	
0.984965	
0.826458	
0.913725	
0.905771	
1.03108	
1.06838	
0.709403	
0.709399	
0.71884	
0.737206	
0.901114	
0.88694	
0.773029	
0.767226	
0.758765	
0.74487	
0.912495	
0.935564	
0.872198	
0.872503	
0.878576	
0.670113	
0.761314	
0.593954	
0.689301	
0.830147	
0.841598	
0.786084	
0.869583	
0.929299	
1.02798	
0.871063	
0.886755	
0.919707	
0.901877	
0.928344	
0.959288	
0.892244	
1.11392	
0.904546	
0.63996	
0.650888	
0.99723	
0.914699	
0.948051	
0.933552	
0.922358	
0.934905	
0.914687	
0.922668	
0.882624	
0.893322	
1.26288	
1.13495	
1.52828	
1.17544	
0.246417	
0.256714	
0.158451	
0.0941521	
0.724989	
0.756335	
0.718028	
0.727329	
0.795568	
0.828297	
0.790782	
0.808712	
0.999211	
0.972449	
0.916365	
0.910037	
0.64329	
0.655093	
0.661495	
0.595186	
0.864753	
0.942902	
0.828135	
0.812555	
0.873063	
0.788611	
0.959046	
0.845813	
0.907683	
0.933778	
0.967544	
1.03738	
1.00207	
0.984243	
0.969116	
0.986532	
1.09419	
1.13104	
0.327563	
0.870362	
0.869741	
0.743332	
0.743554	
0.743351	
0.822286	
0.917359	
0.631252	
0.68951	
0.707418	
0.821113	
0.359829	
0.435466	
0.416088	
0.284847	
0.232767	
0.223035	
0.646265	
0.78947	
0.785762	
0.381526	
0.342555	
0.518878	
0.204852	
0.290429	
0.445144	
0.327856	
0.333048	
0.877906	
0.939078	
0.873572	
0.951831	
1.00266	
0.926517	
0.809689	
0.919116	
0.633042	
0.602861	
0.630341	
0.782078	
0.758896	
0.791773	
0.785146	
0.859994	
0.85128	
0.888873	
0.944433	
0.359121	
0.412431	
0.824336	
0.842228	
0.848791	
1.18629	
1.39532	
0.724536	
0.766895	
0.777559	
0.370714	
0.434306	
0.457774	
0.378213	
0.46229	
1.01639	
0.967345	
0.926704	
1.15304	
0.662442	
0.653615	
0.382145	
0.427854	
0.958696	
0.825098	
0.816229	
0.812345	
0.374524	
0.422559	
0.310854	
0.381669	
0.188488	
0.262026	
0.279962	
0.881451	
1.22356	
0.829655	
0.953309	
1.01852	
0.957856	
0.954361	
0.908568	
0.545338	
0.499509	
0.587239	
0.542772	
0.848554	
0.874733	
0.768855	
0.75589	
0.115193	
0.261267	
0.206897	
0.597646	
0.54321	
0.658824	
0.549398	
0.636552	
0.635554	
0.664023	
0.653994	
0.236043	
0.159369	
0.233407	
0.155955	
0.5198	
0.549527	
0.554511	
-1.98573	
-3.41756	
-2.39344	
-2.6683	
-3.32748	
0.664499	
2.35477	
0.388102	
0.501999	
-0.529003	
-0.686283	
0.540912	
-0.543793	
-0.630093	
-1.27714	
-0.728783	
-1.81605	
-1.86523	
-1.30031	
-0.859287	
-1.79672	
-1.93088	
-0.206522	
-0.0265401	
-0.0733886	
-1.10702	
-1.54674	
-1.34968	
-1.20479	
-0.856961	
-0.800357	
-1.80884	
-1.84168	
-1.76367	
-1.8222	
-1.70541	
-1.95052	
-0.361486	
-2.32968	
-1.05569	
0.0571098	
0.232629	
-1.38188	
-1.59207	
0.42936	
1.09925	
-1.60964	
-0.83916	
0.156917	
-0.569715	
-1.37181	
-1.44659	
-1.37917	
-1.45648	
-1.77653	
-2.48914	
-2.45496	
-0.585764	
-0.197487	
-0.878594	
-0.910938	
-1.83596	
-1.81576	
-1.25165	
-0.788315	
-0.953052	
-0.739424	
-0.96984	
-0.423497	
-1.10126	
-0.792355	
-1.4493	
-0.718789	
-1.57222	
-1.78093	
-0.292753	
-1.17232	
-1.55625	
-0.773681	
-0.661818	
-0.372538	
-2.0308	
-2.54324	
-1.78017	
-1.57733	
-1.00165	
-1.56874	
-1.52044	
-1.53013	
-0.470013	
-0.658048	
-1.7038	
-1.74941	
0.542588	
-0.0156095	
0.246652	
0.199465	
-1.77212	
-2.26141	
-1.82782	
-2.3226	
0.0153414	
0.112785	
0.214209	
-0.813187	
-0.754467	
-0.698093	
-0.660178	
-1.71339	
-1.96006	
-1.8509	
-1.96224	
0.344554	
-1.51331	
-0.846316	
0.480895	
-0.188499	
0.144056	
-1.34587	
-1.92974	
-0.689346	
1.73081	
0.94881	
0.568792	
-0.0641445	
0.0296976	
-0.0499329	
-0.392778	
-0.288923	
-1.78114	
-1.47399	
-1.61401	
-1.48121	
-1.14013	
-0.943824	
-1.16609	
-0.9764	
-0.357467	
0.334966	
-2.14297	
-1.96708	
-1.87388	
-1.73625	
0.113298	
0.0884271	
0.214417	
0.229753	
-1.28976	
-1.51421	
-1.06663	
-1.10891	
-0.138838	
-0.802655	
-0.136692	
-0.751297	
-2.44163	
-1.64226	
-1.4111	
-1.85301	
-1.97476	
-2.04076	
-1.36355	
-1.8017	
-1.67558	
-2.15866	
-1.51585	
-2.41804	
-2.07863	
-1.57671	
-1.54357	
-1.78521	
-1.99293	
0.449158	
0.4994	
-1.1397	
-1.03244	
-1.15549	
-0.807262	
-1.09481	
-1.08449	
-1.03952	
-0.718129	
-1.57673	
1.23823	
1.39339	
0.0498581	
-0.0449508	
-2.1386	
-2.18558	
1.93053	
0.926411	
-1.49304	
-1.35823	
-1.54899	
-0.161635	
0.0349078	
-0.103703	
0.465455	
0.528156	
0.32351	
0.364161	
0.985991	
0.403291	
0.431863	
0.328139	
-1.71114	
-2.73774	
-2.69101	
0.866521	
0.484571	
0.62534	
0.229613	
-0.630777	
-0.32761	
-1.6318	
-1.73805	
-1.66256	
-1.68002	
-1.48072	
-1.46263	
-1.7466	
-1.4642	
-1.53195	
-1.66778	
-1.9076	
-2.39251	
-1.83963	
-1.7815	
-1.79349	
-1.76888	
-0.0473682	
0.0173533	
-1.15808	
-1.01088	
-0.797473	
-1.32401	
-0.0536832	
-0.345769	
-0.261267	
0.256686	
-1.85993	
-1.97976	
-1.90683	
-1.87607	
-1.88175	
-1.89842	
-2.07261	
-2.49186	
-1.76718	
-1.76994	
-1.75481	
-1.74666	
-2.2515	
-2.4122	
-2.10476	
-2.29387	
-0.397745	
-0.528967	
-0.209742	
-0.419511	
-1.19663	
-1.26767	
-1.63807	
-1.35157	
1.65222	
1.45362	
-0.638714	
-0.806822	
-0.872807	
-0.979503	
-0.81309	
-0.434594	
-0.647451	
-0.665667	
-0.974466	
-2.41501	
-2.64187	
-0.785632	
-0.742033	
-0.54021	
-1.11307	
-0.931236	
-0.881605	
-0.789174	
-0.687722	
-0.616518	
-0.386539	
-0.967966	
-1.22203	
-0.606733	
-0.828746	
-0.228935	
-0.0188975	
-0.389446	
-0.27908	
-1.11263	
-1.39881	
-1.46849	
-1.4289	
0.359078	
-1.88895	
0.0741527	
0.346769	
-3.41475	
-3.49247	
0.632233	
0.865949	
1.18193	
1.2874	
-1.34971	
-1.52202	
-1.24182	
-1.22784	
-1.99096	
-2.22437	
-2.00731	
-1.7959	
-1.95644	
-1.91719	
-2.37264	
-2.46373	
-1.41353	
-2.07944	