<VTKFile type="UnstructuredGrid" version="0.1" byte_order="LittleEndian">
	<UnstructuredGrid>
		<Piece NumberOfPoints="1917" NumberOfCells="3602">
			<CellData Scalars="scalars">
				<DataArray type="Float64" Name="Doublet Strengths" NumberOfComponents="1" Format="ascii">
1.73405	
0.379114	
1.4702	
1.45262	
1.36546	
3.14286	
0.875736	
0.878425	
0.834991	
0.825936	
0.96984	
0.39529	
0.153861	
2.78044	
0.43474	
0.16943	
0.325263	
2.8524	
0.635169	
1.06375	
0.964962	
0.961856	
1.07743	
0.645375	
0.731756	
0.692459	
0.957501	
0.545156	
1.03104	
1.10552	
1.0376	
1.1952	
1.06316	
0.86226	
0.999818	
0.959556	
1.04075	
1.15934	
1.12075	
1.25563	
1.24995	
1.19633	
1.08652	
1.14392	
1.11625	
1.17063	
1.08942	
1.16384	
1.06707	
0.684257	
0.729417	
1.04049	
1.06415	
1.00369	
1.02517	
1.49772	
1.0443	
1.01117	
0.961735	
1.06391	
0.727488	
1.08555	
1.11205	
1.01829	
1.05599	
1.12622	
1.17402	
1.04536	
1.07157	
1.08649	
1.02777	
1.05199	
1.04456	
1.1434	
1.09525	
1.2166	
0.811534	
1.77515	
0.669353	
0.525463	
1.05549	
1.02133	
1.10592	
0.646266	
1.11836	
1.22378	
1.08251	
1.26428	
1.03207	
1.06148	
0.991182	
0.914131	
1.03325	
0.958768	
1.01365	
0.916116	
1.08951	
1.11897	
0.877978	
1.01554	
0.997943	
0.944315	
1.15868	
1.08655	
0.988086	
1.00769	
1.00575	
1.08089	
1.13127	
1.09489	
1.15583	
1.11911	
1.13689	
1.11597	
1.05064	
1.06248	
1.0783	
1.0641	
1.06932	
1.06541	
1.05126	
1.05715	
1.03959	
1.03534	
1.0451	
1.47054	
1.20831	
1.26664	
1.17521	
0.964752	
0.765553	
1.18567	
1.20084	
0.526303	
1.22779	
1.31046	
1.07824	
1.0185	
0.970395	
1.00087	
0.985274	
1.08429	
1.03356	
1.02345	
0.629101	
0.321509	
0.37451	
0.475586	
1.47848	
1.90592	
1.33918	
0.875536	
0.979432	
0.500775	
0.402368	
1.44716	
1.33096	
1.03752	
1.14564	
0.575525	
1.30145	
1.1973	
1.08696	
1.04644	
0.996686	
3.14645	
3.06463	
0.885309	
0.869787	
0.860995	
0.831221	
1.10113	
1.13622	
0.879513	
0.865923	
0.914499	
0.966046	
0.850653	
0.737534	
0.697528	
1.06812	
1.04614	
1.04881	
0.91264	
0.876864	
0.837011	
1.02276	
0.614769	
0.805161	
0.653924	
0.490454	
0.53258	
0.594277	
0.712119	
0.749204	
0.7688	
0.790627	
0.689832	
0.71432	
0.819396	
0.934607	
1.09287	
1.1585	
1.08313	
0.601462	
0.589409	
0.630831	
0.599118	
1.40887	
1.71437	
1.2822	
1.22925	
1.27141	
0.991157	
0.936652	
0.622935	
0.541134	
1.12805	
1.09408	
1.17417	
1.11059	
1.32365	
1.21714	
1.31568	
1.23286	
0.780994	
0.804637	
0.427891	
1.3379	
1.23922	
1.0838	
1.02599	
1.04673	
1.01526	
0.881014	
1.1481	
1.17246	
1.17787	
1.1225	
1.23641	
1.20778	
1.34992	
1.33185	
1.00413	
1.02941	
0.997068	
0.987039	
1.0961	
1.11999	
1.12821	
1.09161	
1.06575	
1.0722	
1.06412	
1.32981	
1.25677	
1.30853	
1.24303	
0.408933	
0.414643	
1.23904	
1.07376	
1.11159	
1.07155	
1.29279	
0.867244	
0.907378	
0.79332	
1.1285	
1.21503	
1.21564	
1.04302	
1.18476	
0.981392	
0.957015	
0.958416	
1.01511	
1.04601	
1.05267	
1.08807	
1.1308	
1.00144	
1.01428	
1.00058	
1.02684	
0.809325	
0.883508	
1.12446	
1.30465	
1.2109	
1.40797	
1.46116	
1.04043	
0.980186	
1.02913	
1.22577	
1.07873	
1.16643	
1.24628	
0.872173	
0.866294	
0.88066	
1.09711	
0.927806	
1.14349	
0.944597	
0.778822	
0.646461	
1.03306	
1.24479	
1.20587	
1.12731	
1.19706	
1.05455	
1.16152	
1.22111	
1.26765	
1.09646	
0.792764	
0.951984	
1.21463	
1.33949	
1.31544	
1.34316	
0.887598	
0.907069	
0.947969	
1.01364	
0.992418	
1.14288	
1.11233	
1.07997	
1.16413	
1.16096	
1.231	
1.26269	
0.968043	
1.04323	
0.988596	
1.04024	
1.02613	
1.05432	
1.01898	
1.06771	
1.01942	
1.03288	
1.07307	
1.03074	
1.06956	
1.03097	
1.19073	
1.13336	
1.34776	
1.13771	
1.03849	
0.926598	
1.03493	
1.01062	
0.904379	
1.10904	
1.09841	
1.1432	
1.09595	
0.961942	
1.30962	
1.27211	
1.18737	
1.23445	
1.00756	
1.02104	
1.02158	
1.03673	
1.02015	
1.01042	
1.04837	
1.04615	
1.28726	
1.16879	
1.14426	
1.24934	
1.06738	
0.975326	
0.556068	
0.430929	
1.12201	
1.09842	
1.05725	
1.10841	
1.06626	
1.04364	
1.02659	
1.03418	
0.989368	
0.968688	
0.99654	
0.961566	
1.0523	
1.0311	
1.12134	
1.03649	
0.953374	
0.938541	
0.954533	
0.956345	
0.347852	
0.304536	
1.32182	
1.41258	
1.15198	
1.19509	
1.08987	
1.21314	
0.886096	
0.967504	
0.899217	
0.941913	
0.968813	
1.16617	
1.11455	
1.02093	
1.16398	
0.905638	
0.885011	
1.00401	
0.961565	
1.09744	
1.06047	
0.425079	
0.561226	
0.487746	
1.14684	
1.08866	
1.1405	
1.0927	
1.17362	
1.29935	
1.28073	
0.823916	
0.772699	
0.757987	
0.979364	
0.977371	
1.03779	
0.974019	
1.00231	
0.805123	
0.930502	
0.840187	
1.08601	
1.08164	
1.10948	
1.11076	
1.05219	
1.04797	
1.04463	
1.03816	
1.11	
1.24306	
1.17057	
1.28521	
1.3023	
1.33631	
1.31084	
1.24309	
1.3433	
1.20368	
1.31433	
1.28178	
1.00411	
0.976696	
1.03866	
1.22424	
1.20434	
1.34746	
1.18024	
1.2412	
1.14543	
0.965062	
1.00829	
1.11321	
1.09684	
1.12848	
1.13299	
1.12272	
1.17412	
1.17096	
1.04683	
1.06465	
1.1287	
1.16386	
0.754768	
0.65771	
0.753644	
0.701672	
1.02161	
0.968421	
0.591011	
0.501692	
1.00954	
1.00522	
0.475849	
0.40233	
0.893685	
0.937755	
0.960197	
0.961985	
1.01201	
1.06243	
1.02053	
1.07249	
1.01268	
1.01721	
1.078	
0.93944	
0.963375	
1.00539	
1.01385	
0.981743	
0.934106	
1.07157	
1.0172	
1.07816	
1.05329	
1.10587	
1.07825	
1.15687	
1.11601	
1.18642	
1.14607	
1.14615	
1.12222	
0.96197	
0.848584	
0.944241	
0.834423	
0.893342	
1.55246	
1.40694	
1.31733	
1.34813	
1.33534	
1.24803	
1.12518	
1.32751	
1.27439	
1.13208	
1.32977	
1.10012	
1.1328	
1.08855	
1.19267	
0.994627	
0.990947	
0.858283	
0.858039	
0.870208	
1.09741	
1.14441	
1.07174	
0.955198	
0.946044	
1.01354	
0.992395	
0.956676	
0.879425	
0.925768	
1.08644	
1.15927	
1.10719	
0.946628	
0.819324	
0.756237	
0.945396	
0.639241	
0.723096	
0.92252	
0.947259	
0.969913	
1.14313	
0.707041	
0.680424	
1.0534	
0.681162	
0.875258	
1.06086	
1.03047	
1.02397	
1.11443	
1.35131	
1.12169	
0.976121	
0.960614	
1.14435	
1.03449	
0.533007	
0.649574	
1.02635	
1.15851	
1.18776	
1.1857	
1.32434	
0.999099	
1.05133	
1.05363	
1.02244	
1.01495	
0.831481	
0.827944	
0.833121	
0.828221	
1.10328	
1.13871	
1.0876	
1.12017	
1.08743	
1.22739	
1.20407	
1.07838	
1.0585	
1.03382	
1.08954	
0.955976	
0.890016	
0.849061	
1.15573	
1.09141	
1.19988	
1.17105	
1.21585	
1.08892	
1.22292	
1.00896	
0.907667	
0.784148	
0.983979	
0.968226	
1.01745	
0.979429	
1.21933	
1.19263	
1.15342	
1.11218	
1.02711	
1.0635	
1.0526	
1.06447	
1.17384	
1.14998	
1.1285	
1.14416	
0.663959	
0.676947	
0.994629	
1.02902	
1.03993	
0.919587	
0.981438	
0.909243	
1.01338	
1.27345	
1.1362	
1.2535	
1.22882	
1.22362	
1.29701	
1.2666	
1.30388	
0.871326	
0.888295	
0.965901	
0.912179	
0.947537	
1.11148	
1.11086	
1.09197	
1.11041	
1.07611	
1.02191	
1.06482	
1.02333	
1.06531	
1.07298	
1.09713	
1.13165	
1.18679	
1.24577	
0.90963	
0.946241	
0.970858	
0.951912	
1.10487	
1.15936	
1.0324	
1.03041	
1.04551	
0.987898	
0.988696	
0.947238	
0.977854	
1.0178	
1.01201	
0.96276	
0.889808	
0.893694	
0.784967	
1.03294	
1.04579	
1.02964	
1.03113	
1.24611	
1.18708	
1.16054	
1.15238	
0.88224	
1.05358	
1.18761	
1.18458	
0.805397	
0.792281	
1.13933	
1.15336	
1.2665	
1.13994	
1.14397	
1.15844	
1.11521	
1.12476	
1.08625	
1.08369	
1.33284	
1.45952	
1.37364	
1.53719	
0.324583	
0.338648	
0.174847	
0.234581	
0.944994	
0.87582	
0.949479	
0.893085	
1.08893	
1.02974	
1.03151	
1.0172	
1.16439	
1.17873	
1.07883	
1.08987	
0.790746	
0.695604	
0.749849	
0.721633	
1.19813	
1.09011	
1.05976	
1.04987	
1.01068	
1.01172	
1.00396	
1.001	
1.09022	
1.09768	
1.0742	
1.12177	
1.08102	
1.10722	
1.06599	
0.383606	
1.03829	
1.0311	
0.92698	
0.935257	
0.921827	
0.338457	
0.479494	
0.918515	
0.860661	
0.839696	
0.794012	
0.744283	
0.83534	
0.790689	
0.748599	
0.848657	
0.445248	
0.596642	
0.449055	
1.17216	
1.11721	
1.28047	
1.08151	
1.09876	
1.16171	
1.01262	
0.992789	
1.00964	
0.95028	
1.22126	
1.24676	
1.40439	
1.50284	
1.16167	
1.07152	
0.980889	
0.93507	
0.960736	
0.971525	
0.969757	
0.680163	
0.64047	
1.0365	
1.04533	
1.11591	
1.13758	
0.55087	
0.484847	
0.558949	
1.02165	
1.02552	
1.02104	
2.06269	
1.60043	
0.983957	
0.919115	
0.584476	
1.1468	
1.18293	
1.21952	
1.67601	
0.886109	
0.908718	
0.970519	
0.948014	
0.375313	
0.381343	
0.494122	
0.496921	
1.06236	
1.0597	
1.01048	
1.03071	
1.35593	
1.31355	
0.74998	
0.724865	
1.20271	
1.04912	
0.975306	
0.973397	
0.981069	
1.02765	
1.10011	
1.09052	
1.18304	
1.11778	
1.22582	
1.05169	
1.19544	
1.01717	
0.527548	
0.479731	
0.403987	
0.384042	
0.885097	
0.860116	
0.863574	
0.842428	
0.700802	
0.713963	
-2.26076	
-3.78475	
-2.81837	
-2.80892	
-3.12524	
-1.85042	
0.837165	
2.56039	
0.577663	
0.879695	
-0.597305	
-0.718829	
0.733879	
-0.634351	
-0.754628	
-1.36393	
-0.888768	
-2.10961	
-2.10388	
-2.17366	
-1.67188	
-0.999933	
-2.11458	
-0.312054	
-0.0261904	
-0.144029	
-1.19924	
-1.78016	
-1.60931	
-1.43051	
-0.883727	
-1.03033	
-2.12923	
-2.82095	
-2.10983	
-1.99432	
-2.08435	
-1.88214	
-0.425384	
-2.72737	
-1.3033	
0.0803426	
0.282724	
-1.7121	
-1.93475	
0.430417	
0.915542	
-2.01985	
-0.991294	
0.231577	
-0.618699	
-1.58878	
-2.47203	
-1.29219	
-1.76284	
-2.18014	
-2.81182	
-2.49353	
-0.579806	
-0.142661	
-1.1073	
-1.14552	
-2.17345	
-1.48407	
-1.83125	
-0.910139	
-1.22488	
-0.787856	
-1.08753	
-0.183048	
-1.27572	
-0.758809	
-1.3532	
-1.01447	
-2.29327	
-2.30173	
-0.326941	
-2.44224	
-1.60691	
-0.965178	
-0.504694	
-0.84753	
-1.65703	
-2.03472	
-2.13925	
-2.13842	
-1.93261	
-1.22592	
-1.9497	
-2.1245	
-2.0073	
-0.583284	
-0.840163	
-2.09566	
-2.1314	
0.390083	
-0.0398942	
0.350512	
0.343032	
-2.22196	
-2.70894	
-2.00586	
-2.57889	
0.0716317	
-0.803824	
0.126594	
0.322293	
-0.683406	
-0.715558	
-0.793121	
-0.853345	
-2.16042	
-2.25168	
-2.24447	
-2.087	
0.527134	
-1.84139	
-0.956715	
0.687307	
-0.199259	
0.242703	
-1.77977	
-2.28873	
-0.664551	
1.39307	
1.7328	
0.582871	
-0.016416	
-0.277886	
0.100733	
-0.450431	
-0.345878	
-2.03625	
-2.15762	
-2.29208	
-1.23735	
-1.34937	
-1.116	
-1.40548	
-1.38182	
-0.408842	
0.3913	
-2.14035	
-2.18463	
-2.48258	
-2.1946	
0.080915	
0.232067	
0.37219	
0.35214	
-1.24857	
-1.63235	
-1.5	
-1.73473	
-0.517917	
-0.889354	
-0.194198	
-0.603537	
-2.00333	
-1.79108	
-2.11537	
-2.19458	
-2.08969	
-2.20902	
-1.51112	
-2.665	
-2.11561	
-2.68594	
-2.56551	
-2.60599	
-2.37505	
-2.50916	
-2.26633	
-1.89983	
-1.7742	
0.444728	
0.686935	
0.649748	
-1.27933	
-1.31	
-1.28267	
-1.38609	
-1.30283	
-0.890431	
-1.19139	
-1.26657	
-1.74377	
1.25117	
1.40481	
1.65249	
0.105138	
-0.0263948	
-2.17331	
-2.32368	
1.11015	
2.08681	
-2.22993	
-1.82427	
-1.78031	
-0.0848466	
-0.0339372	
0.131683	
0.76747	
0.703454	
0.511408	
0.590258	
0.944659	
0.617327	
0.571201	
0.47377	
-1.94762	
-3.06639	
-2.97058	
0.31807	
0.198259	
0.870603	
0.481443	
-0.55363	
-0.245882	
-2.15668	
-1.99097	
-1.80135	
-2.0473	
-1.93505	
-2.03881	
-2.06229	
-1.83392	
-1.8794	
-2.02506	
-2.66244	
-2.26447	
-2.15585	
-2.1735	
-2.11909	
-2.10708	
0.20649	
0.0600784	
-1.37954	
-0.915847	
-1.28284	
-1.42744	
-0.0378649	
-0.388237	
0.359173	
-0.0127096	
-2.30138	
-2.1545	
-2.15895	
-2.17827	
-2.13019	
-2.19784	
-2.20164	
-2.15519	
-2.08436	
-2.07028	
-2.07224	
-2.08512	
-3.04841	
-2.60963	
-2.69625	
-2.56333	
-0.28423	
-0.533438	
-0.295969	
-0.671589	
-1.42045	
-1.34127	
-1.51465	
-1.80141	
1.21642	
1.76683	
-0.863534	
-0.787513	
-0.983428	
-0.953569	
-1.1265	
-1.08973	
-1.10788	
-0.482759	
-3.06233	
-2.82497	
-0.955914	
-0.650226	
-0.915586	
-1.9057	
-1.39282	
-1.0048	
-0.869057	
-1.16625	
-1.22926	
-0.877014	
-0.498799	
-0.694143	
-0.95731	
-0.753747	
-1.42011	
-2.53738	
-2.14123	
-0.544168	
-0.388904	
-0.343206	
-0.0135676	
-1.0473	
-1.81866	
-1.84812	
-1.57945	
0.539838	
-2.35988	
0.338312	
0.0209153	
-3.0093	
-3.65108	
0.525757	
0.64149	
1.33886	
1.517	
-1.40177	
-1.65047	
-1.56362	
-1.78872	
-2.37488	
-2.21568	
-2.30536	
-2.24535	
-2.04177	
-2.23053	
-2.24537	
-2.62889	
-2.43039	
-1.6062	
-2.53802	
-2.25426	
-2.13616	
-2.79905	
-2.13664	
-2.65678	
-0.253982	
0.242366	
-2.34369	
-2.2087	
-2.32501	
-2.38541	
-1.99468	
-1.74726	
-1.9314	
-0.82818	
-0.788005	
0.855991	
1.32724	
0.181433	
0.799202	
-0.0751373	
0.403023	
0.663694	
0.167768	
0.627922	
0.25566	
-1.55068	
-0.627144	
-0.676783	
-2.10815	
-1.61376	
-1.72384	
-1.62307	
-1.73346	
-2.02597	
-2.13349	
-2.03316	
-2.50804	
-1.99753	
-1.88602	
-1.92576	
-1.70235	
-1.57769	
-1.68403	
-1.73911	
-0.551253	
-0.426446	
-0.788734	
-0.620891	
0.480005	
0.284498	
0.736287	
0.608145	
-1.7184	
-2.36579	
-1.05944	
-1.13512	
-1.18422	
-1.34241	
-2.06411	
-0.581389	
-0.322652	
-1.42701	
-1.65794	
-1.38115	
-1.27061	
0.177868	
1.01146	
1.15965	
0.911588	
0.716769	
-1.5358	
-0.201839	
0.0880655	
-0.281313	
0.0118784	
-2.44499	
-1.83998	
-1.42802	
-1.19379	
-1.09784	
-1.25667	
-1.19642	
-1.24723	
-1.19772	
-1.37835	
-1.60747	
-1.47627	
-1.57364	
-1.45794	
-1.45605	
-2.68218	
-2.33418	
-2.14672	
-2.16855	
-2.33532	
-2.22123	
-2.12689	
-2.11011	
0.45996	
0.35035	
-0.404874	
-2.29641	
-2.79659	
-2.12482	
-2.69549	
-2.20714	
-2.18902	
-2.03953	
-2.2568	
-2.44258	
-0.118014	
-0.942616	
-1.01046	
-1.04516	
-1.06337	
-1.46468	
-1.75131	
-2.80862	
-3.29802	
-2.27323	
-2.12217	
-2.16737	
-2.13402	
0.456414	
-0.0234945	
0.880719	
0.141232	
-1.89353	
-0.552603	
-1.53907	
-1.87802	
-0.784001	
-0.978624	
-1.49864	
-2.03936	
-1.38417	
-1.73239	
-2.53731	
-3.07159	
-2.38704	
-2.48936	
-0.861746	
-0.823034	
0.298569	
0.208689	
0.323733	
0.171218	
0.176043	
0.0442229	
0.0883322	
-2.82324	
-3.1317	
0.378777	
0.266834	
0.473081	
-1.31543	
-0.936998	
-0.936598	
-0.623646	
-1.31497	
-1.45791	
-1.15017	
-1.17107	
0.0690283	
-0.196627	
0.0584446	
-0.141568	
-3.44079	
-3.40717	
-2.78908	
-0.599402	
-0.928936	
-0.961789	
-0.738613	
-1.98112	
-2.02403	
-2.3847	
-2.45719	
-2.27346	
-2.31544	
-1.02424	
-0.864426	
-0.826619	
-1.09176	
-1.05477	
-1.32544	
-1.67959	
-1.85124	
-2.14934	
-1.44172	
-1.39134	
-1.83424	
-1.60599	
-2.07778	
0.41944	
0.287923	
-4.16733e-05	
-0.270446	
-0.122919	
-0.338262	
-1.1176	
-1.35429	
-1.11374	
-1.35445	
-1.74077	
-1.29636	
-2.1261	
-1.57268	
-1.5847	
-1.8925	
-2.05571	
0.718152	
0.480798	
0.394561	
-1.97805	
-2.02724	
-2.05284	
-2.00845	
-2.16021	
-2.01541	
-1.94516	
-1.94283	
0.0499585	
-0.0734107	
0.283599	
0.359484	
-0.518195	
-0.542838	
-0.109427	
-0.27888	
1.12074	
1.01992	
1.82763	
0.149066	
0.534892	
1.03893	
-1.55039	
-1.63673	
-1.74698	
-1.73739	
-1.88514	
-1.91166	
-2.21549	
-2.08936	
-2.11664	
-2.01883	
-2.55764	
-2.50421	
-0.721118	
-0.67047	
-0.892182	
-1.00615	
-1.12827	
-1.142	
-1.34488	
-1.41538	
-1.16548	
-1.13552	
-1.32688	
-1.44838	
-1.99269	
-2.09284	
-2.06789	
-2.18328	
-2.12358	
-1.99689	
0.405986	
0.644907	
-1.65196	
-1.80045	
-1.76278	
-2.14983	
-2.03535	
-2.3346	
-2.94562	
-2.10968	
-2.07266	
0.59914	
-1.65789	
-1.5872	
-1.62933	
-2.06759	
-2.05311	
-2.30638	
-2.01463	
3.04292	
-1.7487	
-1.85631	
-1.63549	
-1.62691	
0.427492	
0.406635	
0.803967	
0.654313	
0.687555	
0.472325	
1.51782	
-1.89361	
-1.93397	
-2.26898	
-2.42013	
-2.38758	
0.716099	
-2.08495	
-2.24049	
-1.94463	
-1.94767	
0.469941	
0.380178	
-1.90706	
0.609445	
0.576896	
-1.50246	
-1.55508	
-1.40225	
-1.43601	
-1.53205	
-1.64646	
-2.45617	
-2.67425	
-1.84541	
-2.1251	
-1.47747	
-1.38614	
-1.28819	
-2.09244	
-1.82147	
-1.97421	
-1.95747	
-1.95103	
-1.75935	
-1.57754	
-1.45787	
-1.73166	
-1.55581	
-1.61661	
-1.69843	
0.797236	
0.627202	
0.729774	
-1.93461	
0.391009	
0.29964	
0.300335	
0.38296	
0.395043	
-2.04465	
-2.06059	
-2.08049	
0.0565164	
0.151322	
-0.0203588	
0.106305	
-2.05511	
-1.94108	
-1.98715	
-2.04998	
-2.0665	
-2.33535	
-2.10975	
-2.40674	
-2.17847	
0.799227	
0.847934	
0.565327	
-2.93269	
-2.3027	
-3.07993	
-2.31951	
-1.68803	
0.334943	
-2.00858	
-1.97953	
1.62499	
1.11913	
1.1682	
0.589692	
-1.82353	
-1.63892	
-1.50229	
-0.760534	
-0.741326	
-0.437548	
-1.68863	
-1.69821	
-2.71306	
-2.16826	
-2.24842	
-2.21034	
-2.46913	
-0.1877	
-0.521975	
0.84464	
0.709884	
0.710855	
0.664204	
0.788981	
0.479106	
0.436582	
0.394266	
0.277077	
-2.36984	
-2.20027	
-2.26563	
-2.16054	
-1.88371	
-1.84293	
-2.14624	
-2.56538	
-2.6373	
0.20725	
0.0867574	
-0.290982	
-2.13662	
-2.3143	
-1.79042	
-1.90765	
-1.99694	
-1.9043	
-2.02985	
-1.93489	
-2.00811	
-2.01817	
-1.82111	
-1.75348	
-1.82187	
-1.90852	
-1.99911	
-1.74258	
-1.67154	
-1.79832	
-1.62322	
0.886828	
0.372481	
-1.73662	
-1.83874	
-1.84419	
-2.15278	
-0.966383	
-1.18728	
-1.63248	
-1.66559	
-1.93073	
-1.94529	
-1.88969	
-1.96084	
-1.24138	
-1.39812	
-2.21001	
-2.23531	
-2.16238	
-2.13693	
-2.17003	
-2.11584	
-2.09428	
-2.0791	
-1.77785	
-2.01493	
-1.41681	
-1.42145	
-2.3032	
-2.73808	
-2.68047	
-2.12414	
-2.44062	
-2.2335	
-0.104414	
-0.409499	
-0.465269	
0.505838	
0.362947	
-1.8334	
-1.89526	
-1.8592	
-0.459822	
-0.461798	
-0.365094	
-2.02863	
-1.91607	
-2.04378	
-1.88382	
-0.615181	
-0.505796	
-0.781371	
-0.904694	
-1.1633	
-1.92909	
-1.78657	
0.839819	
1.13689	
1.43535	
0.964979	
-0.231537	
-0.299101	
0.463878	
0.552546	
0.438806	
0.584271	
-2.32266	
-2.49641	
-2.262	
-2.46147	
-0.899846	
-0.733661	
-0.33186	
2.01565	
2.99739	
-2.41356	
-2.54727	
-2.73041	
-3.2084	
-0.433657	
-0.30269	
-0.751088	
-0.497669	
0.690017	
0.633255	
0.459171	
0.38385	
0.324716	
-0.216199	
-0.46201	
0.0696741	
-0.347133	
0.476272	
0.486335	
-1.86903	
-2.44683	
-1.84759	
-2.01631	
-0.718399	
-0.934052	
-0.881556	
-1.062	
1.6078	
1.43145	
-2.36289	
-2.20356	
0.475615	
0.484833	
0.678147	
0.640648	
0.787439	
0.411732	
-0.0207022	
-0.0930504	
-0.130947	
-0.105799	
-0.0477499	
-0.0333443	
-0.0699218	
0.0455886	
0.0780308	
0.187059	
0.259942	
0.228292	
0.130497	
0.00540446	
-0.150776	
-0.13628	
-0.113949	
-0.122385	
-0.0790102	
0.26006	
-0.0275795	
0.224775	
0.111605	
0.173824	
0.0461726	
-0.163548	
0.225516	
0.162823	
0.0232412	
-0.0766525	
0.0736445	
-0.215492	
-0.251098	
-0.317564	
-0.280025	
-0.311736	
-0.330124	
-0.15808	
0.201955	
0.13069	
-0.216966	
-0.0642823	
-0.128271	
0.021457	
-0.207471	
-0.25052	
-0.238241	
-0.235583	
-0.24368	
-0.251034	
0.242981	
1.54007	
0.151409	
1.47484	
1.4584	
1.39092	
1.76565	
0.86294	
0.804679	
0.822585	
0.848219	
0.99294	
0.293683	
0.150099	
1.44333	
0.423335	
0.126673	
0.304663	
1.61985	
2.80374	
0.622539	
0.795646	
1.25711	
1.08065	
1.19183	
1.02597	
0.874821	
1.13445	
1.10888	
0.587691	
0.647629	
0.660153	
0.930057	
0.454878	
1.02976	
1.0949	
1.11007	
1.22908	
1.05072	
0.851099	
1.01274	
1.06128	
1.16257	
1.14585	
1.30115	
1.2612	
1.13	
1.18767	
1.17716	
1.11544	
1.13661	
1.11089	
1.17655	
1.14109	
0.637809	
0.651433	
1.08718	
1.08716	
1.16973	
1.13697	
1.4008	
1.12765	
1.23798	
0.99122	
1.12844	
0.704177	
1.07645	
1.1537	
1.05894	
1.08933	
1.22827	
1.28028	
1.04927	
1.08754	
1.22513	
1.08259	
1.07856	
1.22119	
1.21158	
1.20597	
1.03269	
1.02778	
1.11845	
0.825915	
1.37599	
1.07188	
0.501787	
1.29329	
1.11501	
0.604341	
1.24989	
1.12463	
1.16257	
1.31291	
1.11141	
1.15963	
1.10225	
1.13003	
0.871851	
0.94368	
0.994358	
1.35652	
1.23348	
0.914103	
1.1338	
1.11597	
1.16144	
1.00647	
0.855125	
0.885739	
0.885391	
1.06299	
1.05724	
1.00687	
0.966584	
1.00257	
1.07972	
1.14029	
1.06756	
1.12014	
1.27576	
1.11549	
1.08064	
1.1277	
1.12784	
1.12273	
1.14252	
1.11712	
1.16075	
1.09009	
1.10789	
1.11327	
1.12319	
1.20173	
1.25075	
1.29998	
1.34029	
0.805588	
0.879283	
1.21463	
1.10642	
0.495905	
1.24182	
1.31836	
0.32897	
1.11776	
0.959705	
0.998077	
0.99348	
1.0161	
1.14406	
1.04724	
1.08042	
0.588447	
0.318863	
0.278716	
0.407483	
1.90488	
0.999845	
0.891016	
0.429193	
1.45559	
1.3598	
1.02541	
1.15284	
1.18532	
1.4479	
1.15248	
1.1015	
1.18524	
1.08099	
2.73112	
2.91059	
0.938136	
0.798578	
0.975663	
0.881964	
1.13014	
1.16507	
0.807601	
0.876985	
0.86005	
0.70601	
0.627331	
1.07427	
1.13267	
1.0826	
0.8694	
0.901168	
0.774406	
1.02914	
0.558208	
0.527082	
0.581168	
0.636224	
0.648088	
0.730104	
0.72132	
0.664926	
0.697503	
0.75109	
0.787698	
1.22215	
1.16764	
1.1566	
0.587334	
0.437802	
0.548559	
0.470076	
1.38883	
1.27519	
1.25436	
0.953888	
0.971601	
1.12376	
1.15832	
1.13885	
1.26132	
1.24803	
1.3457	
1.26032	
1.35732	
0.905238	
1.03071	
0.818749	
1.1729	
1.15346	
0.454624	
0.370623	
1.34994	
1.25305	
1.17229	
1.26371	
1.21015	
1.32025	
0.876243	
1.18672	
1.14475	
1.15494	
1.17603	
1.37243	
1.34248	
1.35718	
1.23324	
0.982701	
0.974793	
0.99355	
1.14189	
1.11359	
1.14595	
1.159	
1.16036	
1.14505	
1.3793	
1.34283	
1.25272	
1.15329	
1.25362	
1.11204	
1.07664	
1.34151	
1.12894	
0.973264	
0.851642	
0.778869	
1.18505	
1.28047	
1.27358	
0.945702	
1.04572	
1.19521	
0.946783	
0.907893	
0.964907	
1.40292	
1.08681	
1.15041	
1.10019	
1.08438	
1.08532	
1.00698	
1.00915	
1.02345	
0.769145	
0.824367	
1.36472	
1.26461	
1.17862	
1.46752	
1.42814	
1.02029	
1.0409	
0.973343	
1.0398	
1.05232	
1.23832	
1.18097	
1.17812	
0.837728	
0.827401	
0.869844	
0.919145	
0.943938	
0.917337	
0.958728	
0.828754	
0.608846	
1.08469	
1.26624	
1.09613	
1.24094	
1.18483	
1.10337	
1.21532	
1.26004	
1.08489	
1.08758	
0.965992	
0.857199	
1.35597	
1.38005	
1.24689	
1.285	
0.881627	
0.8962	
1.1424	
1.05761	
1.15262	
1.13597	
1.08834	
1.13466	
1.1519	
1.22172	
1.22074	
0.962845	
0.953446	
1.13103	
0.975933	
1.09212	
1.09716	
1.06034	
1.08456	
1.09022	
1.11784	
1.10757	
1.0378	
1.00821	
1.02961	
1.00973	
1.08347	
1.12424	
1.03997	
1.18371	
1.09391	
0.939761	
0.900948	
1.00496	
1.17958	
1.13081	
1.15142	
1.13422	
0.999674	
1.28485	
1.21201	
1.20194	
1.22654	
1.29837	
1.00785	
0.992705	
1.02256	
1.00404	
0.991256	
1.00607	
1.0067	
1.01508	
1.17636	
1.26283	
1.30344	
1.25954	
0.909947	
0.516669	
0.39808	
1.09001	
1.10692	
1.1217	
1.20365	
1.3432	
1.32403	
1.32942	
1.31914	
1.02107	
1.0688	
1.00326	
1.1357	
1.18425	
1.28757	
1.29721	
0.908371	
0.942586	
0.915735	
0.969444	
0.235967	
0.252288	
1.41817	
1.32902	
1.22473	
1.2371	
1.08657	
1.22143	
0.959087	
0.880795	
0.941942	
0.899435	
0.914494	
0.958546	
1.05428	
0.925153	
0.962309	
0.912805	
0.967871	
0.98304	
1.08463	
1.06926	
1.10867	
0.406603	
0.464849	
0.533989	
1.09274	
1.14926	
1.09961	
1.1297	
1.18926	
1.28142	
1.30362	
0.612829	
1.02244	
0.952303	
1.0288	
0.955215	
0.829738	
0.751779	
0.962196	
0.892969	
1.1397	
1.14288	
1.17866	
1.16308	
1.2266	
1.13929	
1.17912	
1.14115	
1.20463	
1.18058	
1.32173	
1.23081	
1.25886	
1.32322	
1.36563	
1.32849	
1.33292	
1.36467	
1.2074	
1.33282	
1.01368	
0.981946	
1.4158	
1.28347	
1.16309	
1.13276	
1.194	
1.25788	
1.21793	
1.2597	
1.16711	
1.4884	
1.09853	
1.14191	
1.17219	
1.15954	
1.15041	
1.20204	
1.20433	
1.1017	
1.06836	
1.19058	
1.15466	
1.32619	
1.26328	
0.739438	
0.67893	
0.733615	
0.669564	
0.988629	
1.03705	
0.99958	
0.486995	
0.573912	
1.09556	
1.07162	
0.430594	
0.363203	
0.91129	
0.892482	
1.0145	
0.970224	
1.11454	
1.11229	
1.11355	
1.06432	
1.06715	
1.08931	
1.02677	
0.973278	
0.979884	
1.05503	
0.951824	
0.958982	
0.969537	
1.0962	
1.07353	
1.08913	
1.03622	
1.17866	
1.13984	
1.12702	
1.08708	
1.18609	
1.16159	
1.22408	
1.17989	
1.27282	
0.855145	
0.831013	
0.829348	
0.727107	
1.38284	
1.46824	
1.39323	
1.34887	
1.37875	
1.3749	
1.17723	
1.35558	
1.31329	
1.36776	
1.34661	
1.16799	
1.18005	
1.15742	
1.24015	
0.853506	
0.864731	
0.867158	
1.1095	
1.13678	
1.17296	
0.956872	
0.942253	
1.35545	
0.9956	
0.959033	
0.8748	
0.940112	
1.14185	
1.18203	
0.937593	
0.937949	
0.798069	
0.713336	
0.941056	
0.969789	
0.963903	
0.664757	
0.590312	
1.19994	
0.984992	
0.606836	
0.652033	
1.50958	
1.44142	
1.12883	
1.11698	
1.16639	
0.960373	
0.973884	
1.1019	
1.1187	
0.39527	
1.02763	
1.13921	
1.17954	
1.0987	
1.1127	
0.994022	
1.05005	
1.18108	
1.13786	
1.13713	
0.830134	
0.833602	
0.813842	
0.824229	
1.15081	
1.18557	
1.16043	
1.19317	
1.22261	
1.03204	
1.19801	
1.08029	
1.05714	
1.5407	
2.17131	
1.26909	
0.903821	
0.986738	
1.32148	
1.18918	
1.16732	
0.783228	
1.05371	
1.12864	
1.21248	
1.23265	
1.13794	
1.17592	
1.09321	
1.07323	
1.09023	
1.08545	
1.16094	
1.19089	
1.2195	
1.19323	
0.663443	
0.644129	
1.02521	
0.992955	
1.15638	
1.11942	
1.08609	
1.08713	
1.06952	
1.33924	
1.22891	
0.977903	
0.917207	
1.00747	
0.946185	
1.23808	
1.22515	
1.27209	
1.16847	
1.2894	
1.1891	
1.29477	
1.26946	
0.973709	
0.912867	
0.947178	
0.891247	
0.920749	
1.08589	
1.03401	
1.19655	
1.0408	
1.14788	
1.14206	
1.26121	
1.29983	
0.950627	
0.940991	
0.958305	
0.976604	
1.14004	
1.13427	
1.00875	
1.00948	
0.995311	
0.978008	
1.12404	
1.14909	
1.08113	
1.08182	
1.0891	
0.896973	
0.972867	
0.794314	
0.906122	
1.07071	
1.07121	
1.03011	
1.10592	
1.17206	
1.25759	
1.10397	
1.13323	
1.15164	
1.14866	
1.19026	
1.21877	
1.14467	
1.31026	
1.16773	
0.792976	
0.805616	
1.2602	
1.13333	
1.16658	
1.14886	
1.15367	
1.16527	
1.13996	
1.14478	
1.11375	
1.11808	
1.46575	
1.34291	
1.72941	
1.38116	
0.313971	
0.322818	
0.205861	
0.12704	
0.898162	
0.940398	
0.898211	
0.907741	
1.03216	
1.05865	
1.02166	
1.03465	
1.21219	
1.18707	
1.13604	
1.12967	
0.785996	
0.782555	
0.802171	
0.72582	
1.09901	
1.20894	
1.05669	
1.04722	
1.09082	
1.00607	
1.17093	
1.0603	
1.12453	
1.15075	
1.1962	
1.31298	
1.22711	
1.21628	
1.19805	
1.21387	
1.31292	
1.34614	
0.424179	
1.07994	
1.08055	
0.986801	
0.970181	
0.969637	
1.0728	
1.20536	
0.877763	
0.958132	
0.956792	
1.09599	
0.46394	
0.55589	
0.531358	
0.365759	
0.301409	
0.285959	
0.856519	
1.04412	
1.04514	
0.488668	
0.443313	
0.688509	
0.267472	
0.37314	
0.563914	
0.415386	
0.422092	
1.09202	
1.14026	
1.07025	
1.1742	
1.22567	
1.14536	
1.05688	
1.22817	
0.893213	
0.839915	
0.861	
1.01596	
0.985123	
1.02167	
1.01395	
1.08477	
1.08351	
1.11115	
1.1646	
0.458498	
0.520993	
1.04324	
1.06152	
1.07872	
1.39965	
1.5994	
0.955494	
1.0155	
0.889082	
0.47351	
0.551159	
0.578872	
0.47226	
0.568642	
1.23593	
1.19107	
1.11985	
1.3559	
0.913334	
0.887627	
0.489685	
0.54288	
1.17946	
1.0526	
1.05993	
1.04692	
0.480053	
0.540148	
0.401393	
0.486721	
0.247176	
0.340617	
0.364159	
1.08058	
1.44666	
1.04132	
1.15631	
1.22796	
1.17874	
1.16203	
1.12019	
0.687938	
0.63694	
0.743687	
0.68359	
1.06764	
1.11401	
0.991123	
0.983251	
0.156841	
0.339698	
0.271403	
0.76937	
0.717846	
0.863104	
0.729763	
0.840062	
0.834108	
0.876853	
0.855079	
0.307714	
0.210641	
0.304938	
0.207814	
0.726316	
0.727894	
0.763505	
-2.38728	
-3.78998	
-2.8304	
-3.06579	
-3.72431	
0.860464	
2.52283	
0.576499	
0.708207	
-0.66628	
-0.892088	
0.738344	
-0.715003	
-0.839613	
-1.42999	
-0.92122	
-2.24568	
-2.29939	
-1.67388	
-1.04755	
-2.26788	
-2.32839	
-0.276203	
-0.00665729	
-0.1188	
-1.36549	
-1.95749	
-1.69407	
-1.46862	
-1.05484	
-0.994125	
-2.23652	
-2.27631	
-2.19078	
-2.23062	
-2.11112	
-2.42257	
-0.427223	
-2.78715	
-1.31317	
0.103476	
0.319006	
-1.71092	
-1.96153	
0.538383	
1.27255	
-1.94684	
-1.00984	
0.235049	
-0.680403	
-1.63223	
-1.79226	
-1.66288	
-1.76923	
-2.30245	
-2.95446	
-2.86632	
-0.660477	
-0.210957	
-1.05829	
-1.10572	
-2.30735	
-2.0759	
-1.50236	
-0.983199	
-1.17332	
-0.913119	
-1.17637	
-0.50335	
-1.34479	
-1.00448	
-1.66153	
-0.879794	
-1.9276	
-2.16303	
-0.323851	
-1.40942	
-1.8266	
-0.931632	
-0.804003	
-0.469049	
-2.32509	
-2.99585	
-2.24176	
-1.93778	
-1.18426	
-1.93592	
-1.89526	
-1.90807	
-0.581513	
-0.83296	
-2.11736	
-2.19183	
0.620999	
0.0114363	
0.37061	
0.31718	
-2.16295	
-2.61202	
-2.23564	
-2.70903	
0.0596147	
0.136539	
0.317148	
-0.996385	
-0.920162	
-0.843493	
-0.798997	
-2.0713	
-2.38768	
-2.23987	
-2.35944	
0.528167	
-1.86193	
-1.08071	
0.686345	
-0.190254	
0.243476	
-1.61941	
-2.37695	
-0.929573	
1.8279	
1.05734	
0.620041	
-0.0102938	
0.106866	
-0.0104768	
-0.450243	
-0.33876	
-2.15591	
-1.78058	
-1.93644	
-1.78393	
-1.43784	
-1.20618	
-1.46842	
-1.24396	
-0.397867	
0.388777	
-2.43903	
-2.25489	
-2.24281	
-2.09218	
0.209833	
0.191682	
0.344381	
0.368967	
-1.5375	
-1.7755	
-1.27629	
-1.31701	
-0.185835	
-0.924031	
-0.172947	
-0.872055	
-2.88439	
-1.99607	
-1.71822	
-2.31759	
-2.46071	
-2.52449	
-1.50911	
-2.01652	
-2.08995	
-2.40678	
-1.78306	
-2.68333	
-2.35596	
-1.90489	
-1.82873	
-2.1163	
-2.24904	
0.627227	
0.684098	
-1.4004	
-1.27887	
-1.38937	
-0.935933	
-1.31311	
-1.40641	
-1.29355	
-0.898779	
-1.89185	
1.38968	
1.5883	
0.118564	
-0.0127701	
-2.63194	
-2.72734	
2.10231	
1.12739	
-1.88523	
-1.6833	
-1.95466	
-0.170746	
0.0981656	
-0.0898741	
0.708874	
0.787203	
0.493853	
0.547219	
1.15549	
0.575552	
0.622937	
0.477013	
-2.09098	
-3.21596	
-3.16375	
0.938499	
0.524257	
0.694449	
0.234139	
-0.71562	
-0.39001	
-2.09249	
-2.24708	
-2.09563	
-2.12418	
-1.8527	
-1.83992	
-2.16001	
-1.90696	
-1.97043	
-2.13555	
-2.33485	
-2.76214	
-2.26244	
-2.23597	
-2.25166	
-2.21113	
-0.0141888	
0.0567322	
-1.34817	
-1.27943	
-0.996667	
-1.49743	
-0.030102	
-0.392075	
-0.27966	
0.365139	
-2.26712	
-2.38067	
-2.32334	
-2.26938	
-2.32915	
-2.33951	
-2.54331	
-2.93195	
-2.19038	
-2.19866	
-2.18524	
-2.17359	
-2.64297	
-2.83077	
-2.50688	
-2.743	
-0.507781	
-0.668248	
-0.267977	
-0.527451	
-1.49475	
-1.57213	
-1.90216	
-1.66773	
1.77384	
1.5319	
-0.823864	
-1.0145	
-1.12465	
-1.19824	
-1.03112	
-0.487821	
-0.762225	
-0.763645	
-1.12505	
-2.90506	
-3.17691	
-0.926313	
-0.883338	
-0.630041	
-1.32589	
-1.17348	
-1.1271	
-1.00544	
-0.871298	
-0.756511	
-0.478441	
-1.10456	
-1.40159	
-0.702181	
-0.96799	
-0.302291	
-0.0523864	
-0.48877	
-0.36316	
-1.34721	
-1.75035	
-1.81497	
-1.71521	
0.548135	
-2.31115	
0.0487342	
0.36312	
-3.842	
-3.8933	
0.663626	
0.905791	
1.23669	
1.358	
-1.5454	
-1.77279	
-1.42879	
-1.48514	
-2.26571	
-2.56387	
-2.29453	
-2.15054	
-2.36589	
-2.34405	
-2.76053	
-2.87213	
-1.64247	
-2.31352	
-1.80239	
-2.47321	
-2.56956	
-2.07659	
-2.73617	
-2.10532	
0.325768	
-0.25594	
0.243472	
-2.67053	
-2.73713	
-2.61463	
-3.23219	
-1.93584	
-2.09797	
-2.60927	
-0.85903	
-0.894145	
1.34568	
1.0331	
0.735668	
0.196934	
0.427267	
0.013676	
0.361945	
0.291264	
0.747141	
0.416857	
-1.59902	
-0.518831	
-0.738441	
-2.17955	
-1.76285	
-1.55864	
-1.76115	
-1.64336	
-2.20507	
-1.98926	
-2.24919	
-2.07628	
-1.96721	
-2.08031	
-2.29836	
-1.6061	
-1.86944	
-1.81879	
-0.765713	
-0.601599	
-0.535011	
-0.412672	
0.29496	
0.490742	
0.461484	
0.751429	
-1.24867	
-1.19409	
-1.45992	
-1.36245	
-1.60872	
-2.40172	
-0.934557	
-0.442411	
-1.50805	
-1.77702	
-1.70462	
-1.45886	
0.148397	
1.18109	
0.879707	
0.820747	
0.927941	
-1.83253	
-0.278286	
0.0475232	
-0.201083	
0.172883	
-2.74453	
-1.83021	
-2.24386	
-1.52087	
-1.30895	
-1.26145	
-1.27702	
-1.34269	
-1.36016	
-1.33004	
-1.56383	
-1.6912	
-1.47053	
-1.52559	
-1.76778	
-1.65792	
-2.61579	
-2.5081	
-2.52578	
-2.54443	
-2.1631	
-2.1909	
-2.21453	