<VTKFile type="UnstructuredGrid" version="0.1" byte_order="LittleEndian">
	<UnstructuredGrid>
		<Piece NumberOfPoints="1917" NumberOfCells="3602">
			<CellData Scalars="scalars">
				<DataArray type="Float64" Name="Doublet Strengths" NumberOfComponents="1" Format="ascii">
1.46292	
0.286906	
1.19082	
1.16604	
1.07969	
2.91185	
0.523652	
0.512644	
0.494518	
0.485533	
0.651013	
0.292268	
0.0996759	
2.5272	
0.265341	
0.117407	
0.225014	
2.60732	
0.402791	
0.701672	
0.625849	
0.636109	
0.783902	
0.457107	
0.522662	
0.490849	
0.684652	
0.38848	
0.735151	
0.788194	
0.721753	
0.875988	
0.769015	
0.559491	
0.655939	
0.632185	
0.702322	
0.799412	
0.78601	
0.951325	
0.829695	
0.867435	
0.765825	
0.820631	
0.801086	
0.861523	
0.760297	
0.841538	
0.761965	
0.459937	
0.512628	
0.725563	
0.734544	
0.690959	
0.707755	
1.01739	
0.731473	
0.694727	
0.65916	
0.753421	
0.517224	
0.790088	
0.803437	
0.709159	
0.733068	
0.822805	
0.863014	
0.729712	
0.769193	
0.783515	
0.716462	
0.734226	
0.770046	
0.881806	
0.812578	
0.952229	
0.581831	
1.47683	
0.45216	
0.36093	
0.744541	
0.707403	
0.780859	
0.447693	
0.824969	
0.92604	
0.794084	
0.967252	
0.732045	
0.767942	
0.608436	
0.56298	
0.792844	
0.703838	
0.733473	
0.625095	
0.760667	
0.811483	
0.641479	
0.776904	
0.620164	
0.59789	
0.848962	
0.794303	
0.665556	
0.684812	
0.65993	
0.781033	
0.820349	
0.786855	
0.837354	
0.805142	
0.857383	
0.766952	
0.730612	
0.760964	
0.76847	
0.76707	
0.748933	
0.75595	
0.754267	
0.76164	
0.742561	
0.746453	
0.748413	
0.97134	
0.843225	
0.930513	
0.800952	
0.599392	
0.536513	
0.889075	
0.906757	
0.373376	
0.939727	
1.01068	
0.788324	
0.655615	
0.637465	
0.67287	
0.664487	
0.757239	
0.712663	
0.694965	
0.434214	
0.219925	
0.257939	
0.327724	
1.19602	
1.60049	
1.01416	
0.588205	
0.65427	
0.354043	
0.285962	
1.16087	
1.04412	
0.725392	
0.876368	
0.412849	
0.907466	
0.820039	
0.755326	
0.757485	
0.700411	
2.89708	
2.81489	
0.613036	
0.596515	
0.575442	
0.567491	
0.765117	
0.772685	
0.52275	
0.514484	
0.559784	
0.595654	
0.611651	
0.561077	
0.508923	
0.738128	
0.714209	
0.731936	
0.548347	
0.521983	
0.591407	
0.689952	
0.438966	
0.614575	
0.463061	
0.342963	
0.373752	
0.41861	
0.502905	
0.535407	
0.537139	
0.546707	
0.490403	
0.509072	
0.596462	
0.70852	
0.791676	
0.863514	
0.77721	
0.418317	
0.400551	
0.442757	
0.419188	
1.07805	
1.34259	
1.00269	
0.961947	
0.985479	
0.663863	
0.61046	
0.438607	
0.37538	
0.803115	
0.772786	
0.83655	
0.775348	
1.01546	
0.901202	
1	
0.91051	
0.512591	
0.537147	
0.286744	
1.05703	
0.951801	
0.755442	
0.710905	
0.726808	
0.699204	
0.565289	
0.826784	
0.859026	
0.830774	
0.800562	
0.886129	
0.879617	
1.02511	
1.01459	
0.72113	
0.725335	
0.72182	
0.714173	
0.768421	
0.797997	
0.797712	
0.764118	
0.755258	
0.765974	
0.756249	
1.02505	
0.93412	
1.00533	
0.851486	
0.318823	
0.299661	
0.939532	
0.762599	
0.80238	
0.710653	
0.857261	
0.625521	
0.661671	
0.567887	
0.822626	
0.923642	
0.924404	
0.715241	
0.887731	
0.739246	
0.697262	
0.691454	
0.707284	
0.717336	
0.706268	
0.722852	
0.720927	
0.667747	
0.661369	
0.662786	
0.692476	
0.629359	
0.679299	
0.814406	
0.986608	
0.886915	
1.1249	
1.17972	
0.768973	
0.708279	
0.697321	
0.889861	
0.741484	
0.828933	
0.896182	
0.574068	
0.57663	
0.590479	
0.756554	
0.597323	
0.715762	
0.612773	
0.519215	
0.466183	
0.729121	
0.947859	
0.898683	
0.834878	
0.911035	
0.763596	
0.874272	
0.945519	
0.975045	
0.801825	
0.524781	
0.698605	
0.894907	
1.02869	
1.00417	
1.03774	
0.543496	
0.583367	
0.620479	
0.696919	
0.689823	
0.813164	
0.773666	
0.752792	
0.902571	
0.894472	
0.968533	
0.995183	
0.70923	
0.777902	
0.722967	
0.773363	
0.716967	
0.738676	
0.714616	
0.752739	
0.722918	
0.743808	
0.777245	
0.741508	
0.768081	
0.743898	
0.899472	
0.823723	
1.03623	
0.839404	
0.701273	
0.652948	
0.69283	
0.625293	
0.576702	
0.796011	
0.792181	
0.807469	
0.782112	
0.654854	
0.985428	
0.931644	
0.835352	
0.835908	
0.730895	
0.745485	
0.738711	
0.750548	
0.733161	
0.727234	
0.759035	
0.756791	
0.947564	
0.833961	
0.803401	
0.915141	
0.668357	
0.581865	
0.387677	
0.306657	
0.795276	
0.781337	
0.733071	
0.741497	
0.740945	
0.731633	
0.713803	
0.725871	
0.675468	
0.648322	
0.68407	
0.645759	
0.739532	
0.715057	
0.81546	
0.726013	
0.62441	
0.605918	
0.634536	
0.635025	
0.252967	
0.215347	
1.02587	
1.08726	
0.852588	
0.897821	
0.766614	
0.919847	
0.591012	
0.601057	
0.563695	
0.606909	
0.636326	
0.766792	
0.706052	
0.672217	
0.693693	
0.647675	
0.633226	
0.723484	
0.682983	
0.793094	
0.717427	
0.274051	
0.375428	
0.326822	
0.836951	
0.779322	
0.826245	
0.776684	
0.862814	
0.982448	
0.97449	
0.5486	
0.536957	
0.544087	
0.722723	
0.723347	
0.775432	
0.712957	
0.762557	
0.577491	
0.659818	
0.585585	
0.781301	
0.778247	
0.800861	
0.807183	
0.743721	
0.746156	
0.738161	
0.739006	
0.795145	
0.850597	
0.853588	
0.974159	
0.883755	
0.989909	
0.959153	
0.886012	
1.02009	
0.875382	
0.9881	
0.963835	
0.670352	
0.644561	
0.739547	
0.926484	
0.850344	
0.931373	
0.84663	
0.89778	
0.817182	
0.675248	
0.724698	
0.768726	
0.758983	
0.793207	
0.811592	
0.790609	
0.848634	
0.825707	
0.716012	
0.738057	
0.799815	
0.837736	
0.554465	
0.468067	
0.540977	
0.501183	
0.67164	
0.636005	
0.368948	
0.311511	
0.701931	
0.698585	
0.330394	
0.279749	
0.571991	
0.609542	
0.623818	
0.627899	
0.665792	
0.71234	
0.678802	
0.711702	
0.697197	
0.701611	
0.710431	
0.614121	
0.620666	
0.652223	
0.668782	
0.651471	
0.596844	
0.72626	
0.68603	
0.738926	
0.711381	
0.771308	
0.752398	
0.8075	
0.784264	
0.853647	
0.816255	
0.826415	
0.802891	
0.655439	
0.596226	
0.732595	
0.603783	
0.698364	
1.22413	
1.04898	
1.00681	
1.0402	
0.958827	
0.92186	
0.817386	
1.0241	
0.967001	
0.840221	
1.0191	
0.803528	
0.838341	
0.783873	
0.90114	
0.707329	
0.700947	
0.583069	
0.574685	
0.578157	
0.792522	
0.83879	
0.775808	
0.639803	
0.619082	
0.618487	
0.656695	
0.62368	
0.581903	
0.615723	
0.792784	
0.870695	
0.817051	
0.611833	
0.564686	
0.517228	
0.702697	
0.465666	
0.557302	
0.61883	
0.622915	
0.64255	
0.791565	
0.484192	
0.47598	
0.736142	
0.476031	
0.578006	
0.764762	
0.740258	
0.733092	
0.773582	
0.869864	
0.781771	
0.643456	
0.621114	
0.840695	
0.722993	
0.38747	
0.520036	
0.684082	
0.819192	
0.82712	
0.820379	
0.863118	
0.675853	
0.712374	
0.757731	
0.709213	
0.708569	
0.553456	
0.54396	
0.5609	
0.548155	
0.80733	
0.843741	
0.792696	
0.826852	
0.786222	
0.944487	
0.929593	
0.722199	
0.704668	
0.739553	
0.79094	
0.67615	
0.633487	
0.602474	
0.854487	
0.785782	
0.905049	
0.834446	
0.887892	
0.749182	
0.886403	
0.584826	
0.529572	
0.485223	
0.671894	
0.655675	
0.688352	
0.663783	
0.925217	
0.898943	
0.86304	
0.812852	
0.716784	
0.74219	
0.733123	
0.748047	
0.861633	
0.834824	
0.820793	
0.841972	
0.418376	
0.406877	
0.704321	
0.746755	
0.710592	
0.640786	
0.702897	
0.631862	
0.741062	
0.970928	
0.834457	
0.952759	
0.930646	
0.861508	
0.963666	
0.949023	
0.992625	
0.581934	
0.59519	
0.654082	
0.621629	
0.653828	
0.807249	
0.796928	
0.776696	
0.790699	
0.75723	
0.708249	
0.761132	
0.711762	
0.747513	
0.759824	
0.77754	
0.8102	
0.864607	
0.929017	
0.58633	
0.60654	
0.632213	
0.614715	
0.807794	
0.864946	
0.746254	
0.744157	
0.758635	
0.648039	
0.658625	
0.61625	
0.646848	
0.714227	
0.718577	
0.669791	
0.577686	
0.597182	
0.511268	
0.686486	
0.68664	
0.686023	
0.687123	
0.85571	
0.820811	
0.803894	
0.795508	
0.612467	
0.713771	
0.848942	
0.823849	
0.578163	
0.567797	
0.830899	
0.848511	
0.899544	
0.830411	
0.823521	
0.838142	
0.808537	
0.782187	
0.776394	
0.767217	
1.05204	
1.18604	
1.09569	
1.27107	
0.219721	
0.233568	
0.112735	
0.158685	
0.664033	
0.595762	
0.674096	
0.606923	
0.729732	
0.695556	
0.713521	
0.692027	
0.865905	
0.880903	
0.769862	
0.778153	
0.551289	
0.476172	
0.501383	
0.478201	
0.823804	
0.761825	
0.725134	
0.729138	
0.689741	
0.697861	
0.677809	
0.686387	
0.769305	
0.803769	
0.779663	
0.79226	
0.758204	
0.776352	
0.747759	
0.277866	
0.750806	
0.744848	
0.617114	
0.63611	
0.62848	
0.245716	
0.349221	
0.615269	
0.58483	
0.546883	
0.514937	
0.483742	
0.647271	
0.623371	
0.59765	
0.550875	
0.312836	
0.421523	
0.313562	
0.842877	
0.816095	
0.962625	
0.773021	
0.784149	
0.847748	
0.699424	
0.678141	
0.696759	
0.64671	
0.92223	
0.956529	
1.09945	
1.19534	
0.795625	
0.743864	
0.676938	
0.642812	
0.661033	
0.671508	
0.672887	
0.496685	
0.476683	
0.707523	
0.723996	
0.805344	
0.811241	
0.390952	
0.337164	
0.388034	
0.687385	
0.691911	
0.684875	
1.76908	
1.2561	
0.65505	
0.616219	
0.395294	
0.83488	
0.875157	
0.923031	
1.34329	
0.561253	
0.564692	
0.664815	
0.648377	
0.31107	
0.284515	
0.37303	
0.371343	
0.756974	
0.752276	
0.698859	
0.704649	
1.01792	
0.9345	
0.512154	
0.504454	
0.905423	
0.748033	
0.672502	
0.670244	
0.620019	
0.652925	
0.724667	
0.712813	
0.850896	
0.790785	
0.9158	
0.785922	
0.871013	
0.738039	
0.385735	
0.346004	
0.28622	
0.273386	
0.576385	
0.565017	
0.558723	
0.549551	
0.422341	
0.452776	
-1.75605	
-3.28616	
-2.23216	
-2.24653	
-2.49348	
-1.60585	
0.577247	
2.33851	
0.322847	
0.577383	
-0.444798	
-0.457771	
0.458134	
-0.395552	
-0.465887	
-1.16432	
-0.650743	
-1.50892	
-1.42768	
-1.5349	
-1.11735	
-0.74516	
-1.47166	
-0.205183	
-0.0487899	
-0.07569	
-0.869547	
-1.26005	
-1.13771	
-1.06984	
-0.64547	
-0.759678	
-1.49881	
-2.18876	
-1.48043	
-1.42873	
-1.5209	
-1.36005	
-0.333557	
-2.11015	
-0.947378	
0.0227793	
0.172103	
-1.27064	
-1.41998	
0.288912	
0.732549	
-1.528	
-0.756678	
0.127284	
-0.466119	
-1.23346	
-2.03585	
-1.00868	
-1.33808	
-1.44903	
-2.17696	
-1.95211	
-0.467457	
-0.125534	
-0.861519	
-0.834944	
-1.52532	
-1.14226	
-1.42175	
-0.672815	
-0.932023	
-0.573057	
-0.8023	
-0.132069	
-1.0087	
-0.547015	
-1.01699	
-0.721281	
-1.79609	
-1.76182	
-0.279393	
-2.10013	
-1.29403	
-0.74158	
-0.362511	
-0.642657	
-1.25149	
-1.44093	
-1.49966	
-1.50162	
-1.4145	
-0.978951	
-1.41662	
-1.62131	
-1.49435	
-0.426361	
-0.597151	
-1.52645	
-1.52058	
0.250398	
-0.0568679	
0.187649	
0.174256	
-1.66241	
-2.20152	
-1.50918	
-2.09963	
-0.0104136	
-0.643397	
0.101639	
0.201563	
-0.500464	
-0.530438	
-0.581474	
-0.632901	
-1.62199	
-1.71015	
-1.67057	
-1.60539	
0.282792	
-1.35735	
-0.62812	
0.408406	
-0.193827	
0.112513	
-1.4094	
-1.68156	
-0.485184	
1.19249	
1.60484	
0.519749	
-0.0832029	
-0.249484	
0.0020637	
-0.365824	
-0.273089	
-1.6174	
-1.68668	
-1.7841	
-0.822198	
-0.961266	
-0.776884	
-0.997638	
-0.944265	
-0.349126	
0.334682	
-1.64245	
-1.75414	
-2.02194	
-1.80305	
0.00527295	
0.10145	
0.189946	
0.179627	
-0.961973	
-1.25044	
-1.16233	
-1.37971	
-0.406839	
-0.722725	
-0.128644	
-0.481228	
-1.49994	
-1.35487	
-1.48268	
-1.52222	
-1.46634	
-1.54261	
-1.31723	
-2.22221	
-1.54682	
-2.29385	
-2.18276	
-2.27252	
-2.05223	
-2.12325	
-1.90991	
-1.44428	
-1.3552	
0.24764	
0.451302	
0.406726	
-0.930069	
-0.955218	
-1.0511	
-1.06886	
-1.00555	
-0.6388	
-0.827611	
-0.918207	
-1.33036	
1.0593	
1.20674	
1.39478	
0.016869	
-0.0650126	
-1.50341	
-1.60841	
0.842516	
1.85804	
-1.81239	
-1.3538	
-1.2554	
-0.0907398	
-0.0591619	
0.0429255	
0.425846	
0.379134	
0.283477	
0.331063	
0.728424	
0.359364	
0.337602	
0.272574	
-1.37163	
-2.41718	
-2.32835	
0.290705	
0.198497	
0.77774	
0.433672	
-0.376525	
-0.194497	
-1.43338	
-1.32964	
-1.28669	
-1.41603	
-1.3806	
-1.42535	
-1.48869	
-1.21309	
-1.26581	
-1.37314	
-2.13127	
-1.67604	
-1.57052	
-1.51825	
-1.48137	
-1.47521	
0.0730369	
0.0127624	
-1.12383	
-0.669089	
-0.935328	
-1.20351	
-0.068797	
-0.322636	
0.215507	
-0.0625169	
-1.75072	
-1.59315	
-1.6271	
-1.6064	
-1.50978	
-1.51909	
-1.56669	
-1.49918	
-1.48082	
-1.46258	
-1.47689	
-1.47186	
-2.51522	
-2.08235	
-2.09202	
-1.97415	
-0.199502	
-0.381552	
-0.1979	
-0.47692	
-0.997549	
-0.965676	
-1.10089	
-1.43947	
1.14959	
1.60935	
-0.562631	
-0.49933	
-0.628768	
-0.658364	
-0.834624	
-0.902069	
-0.901276	
-0.40709	
-2.34074	
-2.16253	
-0.764306	
-0.525313	
-0.722237	
-1.55103	
-1.10529	
-0.706497	
-0.614427	
-0.831856	
-0.861538	
-0.635001	
-0.36324	
-0.562171	
-0.766153	
-0.618194	
-1.17952	
-1.979	
-1.50331	
-0.386738	
-0.264614	
-0.228608	
0.0432381	
-0.69284	
-1.33642	
-1.2966	
-1.01134	
0.294189	
-1.76718	
0.326844	
0.0656012	
-2.42014	
-3.06629	
0.501842	
0.606876	
1.24946	
1.4177	
-1.10345	
-1.26826	
-1.29688	
-1.4486	
-1.97239	
-1.84184	
-1.72759	
-1.85431	
-1.50766	
-1.67774	
-1.64815	
-2.10024	
-2.109	
-1.26787	
-2.20724	
-1.94377	
-1.6829	
-2.43079	
-1.66873	
-2.21468	
-0.201115	
0.23196	
-1.5802	
-1.52626	
-1.57577	
-1.60849	
-1.36429	
-1.18129	
-1.29855	
-0.64433	
-0.583639	
0.687902	
1.08213	
0.177181	
0.764245	
-0.0195644	
0.413741	
0.538607	
0.147408	
0.539438	
0.26747	
-1.05736	
-0.471058	
-0.577516	
-1.44379	
-1.15985	
-1.24262	
-1.19007	
-1.26551	
-1.42624	
-1.49205	
-1.48299	
-1.93047	
-1.33829	
-1.26273	
-1.61053	
-1.30536	
-1.14522	
-1.25839	
-1.32696	
-0.439505	
-0.355184	
-0.609437	
-0.498487	
0.297383	
0.145885	
0.48541	
0.372574	
-1.21723	
-1.85822	
-0.71109	
-0.775623	
-0.800472	
-0.927177	
-1.44292	
-0.419927	
-0.243142	
-1.08688	
-1.23553	
-0.897553	
-0.836566	
0.0747358	
0.848399	
1.0802	
0.803303	
0.670928	
-1.01999	
-0.135135	
0.0569162	
-0.200271	
0.0439546	
-1.70143	
-1.27548	
-1.10925	
-0.904675	
-0.824987	
-0.926778	
-0.876428	
-0.896664	
-0.849141	
-1.01337	
-1.24127	
-1.09115	
-1.18716	
-1.00953	
-0.983952	
-2.12172	
-1.6893	
-1.53576	
-1.53407	
-1.72795	
-1.64105	
-1.55987	
-1.54277	
0.258564	
0.196445	
-0.31349	
-1.74859	
-2.40664	
-1.66453	
-2.32874	
-1.57656	
-1.5484	
-1.44442	
-1.53047	
-1.74614	
-0.105776	
-0.617905	
-0.661308	
-0.799408	
-0.82328	
-1.15219	
-1.43361	
-2.23292	
-2.71518	
-1.61399	
-1.52506	
-1.53095	
-1.51382	
0.407976	
0.0258063	
0.833757	
0.163782	
-1.50209	
-0.404837	
-1.18909	
-1.41187	
-0.61649	
-0.770443	
-1.17668	
-1.68452	
-1.13837	
-1.42808	
-1.82136	
-2.41509	
-1.68831	
-1.83527	
-0.541666	
-0.530024	
0.171428	
0.117077	
0.296869	
0.179748	
0.102094	
0.0261932	
0.109246	
-2.19595	
-2.40149	
0.328036	
0.175176	
0.308762	
-1.09336	
-0.760615	
-0.769865	
-0.496657	
-1.01922	
-1.20214	
-0.881964	
-0.948371	
0.0297256	
-0.185104	
-0.00546518	
-0.150589	
-2.8381	
-2.8251	
-2.18658	
-0.450672	
-0.676764	
-0.702131	
-0.542235	
-1.56159	
-1.59613	
-1.85039	
-1.89905	
-1.76114	
-1.77457	
-0.702155	
-0.573822	
-0.541834	
-0.770559	
-0.719465	
-1.06029	
-1.38411	
-1.56117	
-1.83231	
-1.09866	
-1.03452	
-1.43833	
-1.19373	
-1.4997	
0.240873	
0.188341	
-0.0403047	
-0.222373	
-0.11558	
-0.281696	
-0.739753	
-0.903727	
-0.731716	
-0.902027	
-1.34988	
-0.990095	
-1.78855	
-1.2523	
-1.12946	
-1.28564	
-1.43488	
0.44081	
0.292036	
0.240135	
-1.46568	
-1.48442	
-1.54638	
-1.49698	
-1.47656	
-1.38167	
-1.38985	
-1.35932	
0.0186657	
-0.0497978	
0.207429	
0.287349	
-0.363261	
-0.380287	
-0.0450472	
-0.182745	
0.972721	
0.87784	
1.55248	
0.076038	
0.344531	
0.755494	
-1.1786	
-1.23004	
-1.26956	
-1.27277	
-1.36574	
-1.35365	
-1.58839	
-1.54473	
-1.534	
-1.49181	
-1.77896	
-1.80284	
-0.534808	
-0.496693	
-0.656315	
-0.73766	
-0.842124	
-0.860849	
-1.02381	
-1.10406	
-0.873612	
-0.851358	
-1.00784	
-1.11163	
-1.37976	
-1.45941	
-1.41813	
-1.49203	
-1.46361	
-1.38857	
0.209473	
0.362768	
-1.10552	
-1.19664	
-1.17417	
-1.43759	
-1.37646	
-1.56888	
-2.28019	
-1.4515	
-1.4467	
0.338892	
-1.1141	
-1.06694	
-1.12356	
-1.50531	
-1.49216	
-1.68288	
-1.42048	
2.84739	
-1.1752	
-1.23803	
-1.09737	
-1.08741	
0.255069	
0.25081	
0.587972	
0.441799	
0.518982	
0.332168	
1.27105	
-1.3346	
-1.35762	
-1.62673	
-1.67626	
-1.61822	
0.410704	
-1.4722	
-1.61719	
-1.36692	
-1.37279	
0.260366	
0.218085	
-1.33737	
0.342155	
0.320907	
-1.08188	
-1.14607	
-1.01284	
-1.02091	
-1.10912	
-1.17262	
-2.05322	
-2.23962	
-1.27567	
-1.4626	
-1.14203	
-1.0911	
-1.00588	
-1.42901	
-1.21452	
-1.32178	
-1.29436	
-1.53844	
-1.35327	
-1.21676	
-1.12488	
-1.20439	
-1.05059	
-1.12157	
-1.17794	
0.553772	
0.412602	
0.451737	
-1.5377	
0.23539	
0.15253	
0.153011	
0.207215	
0.207082	
-1.46469	
-1.45422	
-1.45406	
0.00752053	
0.0620624	
-0.0476275	
0.0321342	
-1.46212	
-1.38588	
-1.42895	
-1.46922	
-1.45178	
-1.65592	
-1.45749	
-1.76095	
-1.52107	
0.514426	
0.582404	
0.387527	
-2.30415	
-1.59539	
-2.44792	
-1.63589	
-1.33465	
0.18439	
-1.47603	
-1.45038	
1.3849	
0.892233	
0.953684	
0.332644	
-1.27864	
-1.1048	
-1.00856	
-0.630727	
-0.608209	
-0.377542	
-1.12467	
-1.15809	
-2.05447	
-1.5821	
-1.67046	
-1.61492	
-1.83466	
-0.203415	
-0.454555	
0.505958	
0.397074	
0.424249	
0.371247	
0.443895	
0.258446	
0.228963	
0.210358	
0.136866	
-1.79574	
-1.62714	
-1.72152	
-1.62754	
-1.31815	
-1.29716	
-1.45892	
-1.98246	
-2.05697	
0.142358	
0.0415026	
-0.277065	
-1.48735	
-1.64432	
-1.43231	
-1.60888	
-1.55008	
-1.44567	
-1.4305	
-1.36466	
-1.70834	
-1.731	
-1.56748	
-1.26294	
-1.34859	
-1.38722	
-1.51911	
-1.23968	
-1.18262	
-1.29136	
-1.16022	
0.733108	
0.233621	
-1.31845	
-1.38225	
-1.39825	
-1.6224	
-0.795136	
-1.03088	
-1.28584	
-1.30801	
-1.40342	
-1.38939	
-1.33548	
-1.37673	
-1.01676	
-1.17229	
-1.55102	
-1.5452	
-1.50984	
-1.49679	
-1.67116	
-1.60104	
-1.59562	
-1.55434	
-1.47144	
-1.66903	
-1.07082	
-1.07001	
-1.81805	
-2.18866	
-2.13748	
-1.66982	
-1.9284	
-1.7615	
-0.0876936	
-0.32494	
-0.355411	
0.277101	
0.193171	
-1.28056	
-1.32482	
-1.276	
-0.338863	
-0.358396	
-0.273055	
-1.59726	
-1.5244	
-1.60094	
-1.53352	
-0.534483	
-0.456906	
-0.685881	
-0.758476	
-0.977071	
-1.37074	
-1.23402	
0.617717	
0.863422	
1.1517	
0.696698	
-0.183295	
-0.230116	
0.270105	
0.328181	
0.267423	
0.344183	
-1.7468	
-1.90127	
-1.72714	
-1.91831	
-0.674086	
-0.546932	
-0.221927	
1.8638	
2.81839	
-1.79117	
-1.95274	
-2.10697	
-2.63931	
-0.364772	
-0.273523	
-0.591668	
-0.41672	
0.475145	
0.473061	
0.277512	
0.269921	
0.186127	
-0.130691	
-0.327852	
0.0995153	
-0.234428	
0.295887	
0.348096	
-1.43979	
-1.97999	
-1.41811	
-1.52972	
-0.54665	
-0.704932	
-0.646029	
-0.785542	
1.32897	
1.18076	
-1.85479	
-1.72323	
0.287404	
0.324746	
0.374111	
0.355443	
0.67986	
0.247603	
-0.0750767	
-0.139323	
-0.0834146	
-0.0656828	
-0.0354842	
-0.0315052	
-0.0412546	
0.0218892	
0.0443423	
0.120899	
0.164148	
0.146525	
0.0818959	
-0.00436207	
-0.0950407	
-0.0856237	
-0.0897164	
-0.0832751	
-0.067909	
0.16188	
-0.0312672	
0.140362	
0.066764	
0.10848	
0.020103	
-0.105128	
0.132301	
0.0914656	
-0.000465469	
-0.0719824	
0.0336016	
-0.17231	
-0.198867	
-0.231291	
-0.181519	
-0.210017	
-0.262673	
-0.133725	
0.119779	
0.074042	
-0.175734	
-0.0628601	
-0.108314	
0.000191761	
-0.133688	
-0.160823	
-0.156429	
-0.151349	
-0.168579	
-0.192971	
0.146786	
1.2743	
0.0979457	
1.19548	
1.17178	
1.10434	
1.46584	
0.525101	
0.489989	
0.494926	
0.513164	
0.672911	
0.195559	
0.0982153	
1.16037	
0.260114	
0.0832622	
0.210997	
1.31939	
2.56501	
0.402329	
0.483036	
0.984766	
0.734476	
0.922559	
0.68791	
0.656502	
0.848046	
0.821789	
0.425854	
0.473203	
0.480963	
0.694564	
0.320194	
0.76086	
0.7911	
0.778808	
0.920831	
0.777104	
0.57927	
0.685785	
0.738166	
0.835143	
0.817948	
1.01073	
0.830546	
0.847035	
0.886858	
0.864189	
0.817878	
0.846552	
0.793345	
0.866299	
0.844663	
0.43384	
0.455606	
0.778755	
0.764764	
0.850709	
0.7979	
1.04758	
0.834017	
0.953093	
0.688185	
0.834194	
0.515284	
0.800727	
0.818129	
0.746639	
0.767436	
0.956506	
1.03457	
0.74971	
0.796115	
0.941877	
0.761346	
0.766516	
0.870087	
0.957792	
0.964817	
0.780137	
0.784156	
0.806313	
0.617187	
1.10732	
0.898107	
0.34739	
1.00415	
0.804195	
0.419784	
0.952039	
0.837919	
0.869556	
1.0284	
0.819221	
0.869785	
0.815167	
0.804257	
0.561436	
0.71353	
0.781795	
1.11501	
0.890424	
0.653651	
0.839866	
0.800015	
0.857952	
0.795618	
0.643512	
0.586598	
0.580633	
0.807099	
0.787734	
0.718943	
0.674361	
0.707153	
0.79162	
0.843969	
0.788083	
0.829546	
1.02209	
0.846022	
0.828755	
0.80978	
0.834145	
0.832438	
0.837798	
0.823724	
0.858089	
0.805773	
0.816235	
0.821473	
0.829462	
0.893684	
0.937762	
0.868096	
0.88371	
0.593129	
0.68034	
0.929287	
0.816388	
0.356617	
0.954652	
1.01872	
0.230453	
0.830251	
0.658101	
0.676903	
0.696971	
0.701996	
0.783049	
0.722215	
0.750455	
0.414785	
0.222104	
0.192222	
0.286991	
1.60514	
0.675517	
0.605652	
0.302832	
1.16963	
1.07116	
0.745289	
0.914014	
0.866734	
1.12323	
0.822003	
0.818826	
0.88749	
0.80063	
2.4946	
2.66957	
0.730896	
0.592325	
0.756077	
0.637143	
0.799536	
0.805908	
0.482133	
0.555836	
0.643121	
0.545948	
0.457117	
0.756648	
0.809959	
0.771402	
0.526455	
0.551573	
0.55589	
0.712178	
0.400162	
0.375792	
0.419486	
0.461372	
0.47078	
0.531303	
0.527129	
0.488549	
0.512648	
0.559603	
0.591138	
0.928756	
0.861664	
0.854967	
0.422816	
0.309637	
0.391096	
0.330682	
1.07251	
1.01751	
1.01044	
0.660626	
0.678369	
0.81086	
0.842827	
0.810933	
0.870997	
0.943064	
1.04612	
0.948631	
1.05113	
0.704892	
0.732511	
0.576298	
0.865322	
0.818221	
0.335581	
0.266565	
1.0709	
0.967387	
0.874104	
0.97925	
0.907964	
1.03132	
0.583451	
0.853249	
0.845422	
0.847657	
0.877617	
1.05873	
1.0384	
1.02243	
0.916909	
0.730599	
0.725159	
0.734802	
0.822183	
0.789872	
0.834364	
0.832643	
0.855477	
0.839281	
1.08731	
1.04546	
0.850092	
0.795047	
0.969339	
0.819683	
0.78156	
0.838019	
0.739376	
0.754096	
0.633002	
0.575189	
0.888988	
0.997793	
0.990562	
0.635012	
0.735893	
0.910384	
0.710703	
0.684946	
0.721706	
1.11397	
0.749053	
0.758341	
0.800239	
0.754764	
0.734133	
0.685529	
0.691209	
0.708433	
0.604424	
0.613917	
1.0661	
0.952149	
0.881581	
1.18616	
1.144	
0.739236	
0.793658	
0.724978	
0.723232	
0.730177	
0.917053	
0.859951	
0.853711	
0.600699	
0.599391	
0.627601	
0.619839	
0.651136	
0.615431	
0.663295	
0.609603	
0.442232	
0.804986	
1.00142	
0.79898	
0.963698	
0.899567	
0.813889	
0.932259	
0.988541	
0.823625	
0.813203	
0.754806	
0.647334	
1.05933	
1.08651	
0.938949	
0.970523	
0.550612	
0.592496	
0.761165	
0.738921	
0.835557	
0.826383	
0.777551	
0.894217	
0.917206	
0.979317	
0.982641	
0.731926	
0.719394	
0.893265	
0.733818	
0.790127	
0.78728	
0.751989	
0.773121	
0.806831	
0.829314	
0.824079	
0.762846	
0.745479	
0.76433	
0.751125	
0.823431	
0.866392	
0.784556	
0.922235	
0.771332	
0.691785	
0.594518	
0.643304	
0.85474	
0.827829	
0.850536	
0.835684	
0.699086	
0.877524	
0.868166	
0.873586	
0.907515	
0.967911	
0.754164	
0.738495	
0.757731	
0.743842	
0.733042	
0.746653	
0.743438	
0.75816	
0.830387	
0.942927	
0.977052	
0.922806	
0.587013	
0.366819	
0.28702	
0.748415	
0.759176	
0.81279	
0.915508	
1.05749	
1.03219	
1.04467	
1.02804	
0.717535	
0.767702	
0.711517	
0.819683	
0.878307	
0.991633	
1.00214	
0.611171	
0.644594	
0.619208	
0.675025	
0.160575	
0.170724	
1.09313	
1.03371	
0.934319	
0.952206	
0.78258	
0.931274	
0.642392	
0.566112	
0.600423	
0.596203	
0.608034	
0.627477	
0.706739	
0.610887	
0.64969	
0.684544	
0.735062	
0.729006	
0.792673	
0.727405	
0.760488	
0.264461	
0.31416	
0.359859	
0.798818	
0.855028	
0.798135	
0.821818	
0.879103	
0.991219	
1.00878	
0.438393	
0.787944	
0.722672	
0.78874	
0.729995	
0.613177	
0.555869	
0.758607	
0.699138	
0.845432	
0.846609	
0.87909	
0.864061	
0.891061	
0.839607	
0.875846	
0.843868	
0.891942	
0.878006	
1.01541	
0.926188	
0.92055	
0.917227	
0.961246	
0.989633	
1.01871	
1.05214	
0.894601	
1.01752	
0.69543	
0.665006	
1.09393	
1.00087	
0.86957	
0.843576	
0.872577	
0.925979	
0.876441	
0.914755	
0.827046	
1.23119	
0.782325	
0.810703	
0.864627	
0.853261	
0.831013	
0.869031	
0.891007	
0.789148	
0.751832	
0.876754	
0.838339	
0.867841	
0.90509	
0.545953	
0.498407	
0.551303	
0.498487	
0.67206	
0.702389	
0.685384	
0.304851	
0.3612	
0.755453	
0.745502	
0.304424	
0.256227	
0.606372	
0.590144	
0.702075	
0.652953	
0.785072	
0.795238	
0.770175	
0.766101	
0.781104	
0.79874	
0.689354	
0.646611	
0.656259	
0.727988	
0.642095	
0.639077	
0.655076	
0.771473	
0.746341	
0.758485	
0.720088	
0.842356	
0.821049	
0.80585	
0.774156	
0.878681	
0.839264	
0.903411	
0.862562	
1.00005	
0.669217	
0.652277	
0.606872	
0.529207	
1.06764	
1.17656	
1.09752	
1.04253	
1.07994	
1.00999	
0.882891	
1.06511	
1.01758	
1.07644	
1.03657	
0.876988	
0.883783	
0.857433	
0.944163	
0.612605	
0.628132	
0.605865	
0.816856	
0.83417	
0.869422	
0.673129	
0.653717	
1.05709	
0.677261	
0.644313	
0.605493	
0.634611	
0.845088	
0.894678	
0.62535	
0.739211	
0.591195	
0.520529	
0.638429	
0.682697	
0.657124	
0.491446	
0.425455	
0.891185	
0.670219	
0.447922	
0.509749	
1.13799	
1.05323	
0.802954	
0.793259	
0.815217	
0.640628	
0.661387	
0.810805	
0.818596	
0.277197	
0.740182	
0.81394	
0.844199	
0.800951	
0.803496	
0.691847	
0.735033	
0.890503	
0.850959	
0.856905	
0.593601	
0.585375	
0.584755	
0.572306	
0.867363	
0.9054	
0.87545	
0.910351	
0.961733	
0.750841	
0.94758	
0.741894	
0.722434	
1.2013	
1.91036	
1.03094	
0.680966	
0.757091	
1.02544	
0.884091	
0.845178	
0.493465	
0.762354	
0.83502	
0.919952	
0.939453	
0.849801	
0.887325	
0.773877	
0.75497	
0.778472	
0.766891	
0.868022	
0.900294	
0.918673	
0.890001	
0.402322	
0.410949	
0.768785	
0.72747	
0.865077	
0.829442	
0.801328	
0.802064	
0.74996	
0.963334	
0.870753	
0.727944	
0.66988	
0.764638	
0.704953	
0.95562	
0.944958	
0.986411	
0.875935	
0.975771	
0.866564	
0.99593	
0.967189	
0.677622	
0.649626	
0.679514	
0.62432	
0.641289	
0.798676	
0.745826	
0.913407	
0.75363	
0.836388	
0.827985	
0.955312	
0.99227	
0.628279	
0.630678	
0.637666	
0.654579	
0.818182	
0.800675	
0.694491	
0.68599	
0.679704	
0.666886	
0.841125	
0.863686	
0.800319	
0.800382	
0.805701	
0.592564	
0.688926	
0.525174	
0.615125	
0.750316	
0.765228	
0.705222	
0.791028	
0.845137	
0.946318	
0.79396	
0.806477	
0.842444	
0.821647	
0.843861	
0.8759	
0.808545	
1.04837	
0.812094	
0.588705	
0.599448	
0.913329	
0.843101	
0.876787	
0.862494	
0.846092	
0.858886	
0.839269	
0.847829	
0.805725	
0.817989	
1.19294	
1.06278	
1.45883	
1.10367	
0.223247	
0.234044	
0.141867	
0.0826733	
0.668501	
0.696489	
0.658068	
0.667052	
0.715291	
0.751633	
0.712917	
0.733108	
0.927308	
0.899975	
0.842128	
0.835717	
0.595453	
0.612227	
0.614567	
0.551541	
0.785268	
0.849159	
0.751147	
0.733334	
0.799231	
0.714233	
0.886619	
0.772019	
0.832597	
0.85848	
0.889841	
0.947156	
0.925649	
0.905903	
0.89084	
0.909197	
1.0191	
1.05728	
0.294055	
0.798607	
0.797239	
0.660652	
0.666925	
0.666759	
0.736426	
0.81829	
0.543938	
0.594971	
0.617757	
0.720423	
0.324406	
0.394841	
0.377263	
0.256059	
0.207012	
0.196947	
0.576307	
0.701865	
0.697775	
0.345026	
0.308132	
0.461135	
0.182659	
0.261595	
0.404652	
0.295568	
0.297715	
0.807477	
0.872003	
0.808423	
0.87625	
0.926829	
0.852223	
0.726801	
0.815404	
0.542222	
0.519443	
0.549458	
0.703534	
0.682699	
0.714675	
0.708194	
0.784577	
0.773929	
0.81409	
0.870139	
0.322093	
0.373821	
0.751217	
0.768827	
0.771853	
1.1142	
1.32651	
0.645531	
0.682294	
0.740037	
0.335644	
0.394686	
0.417169	
0.345835	
0.426212	
0.941555	
0.891545	
0.862503	
1.08492	
0.577114	
0.573376	
0.345509	
0.388911	
0.884704	
0.748886	
0.73502	
0.733248	
0.338581	
0.382266	
0.279479	
0.345713	
0.166526	
0.234399	
0.251039	
0.813748	
1.14768	
0.757789	
0.885026	
0.948102	
0.883896	
0.884987	
0.838324	
0.497596	
0.453514	
0.535402	
0.496048	
0.774104	
0.795076	
0.693316	
0.678843	
0.100062	
0.23377	
0.18316	
0.539524	
0.483829	
0.589888	
0.488032	
0.568735	
0.569259	
0.592929	
0.586835	
0.211495	
0.141591	
0.20871	
0.137819	
0.447933	
0.487824	
0.483181	
-1.84483	
-3.29247	
-2.24557	
-2.53475	
-3.19135	
0.596748	
2.29735	
0.323165	
0.430134	
-0.4819	
-0.616657	
0.472957	
-0.485503	
-0.558012	
-1.22492	
-0.664498	
-1.6724	
-1.72095	
-1.17497	
-0.795635	
-1.63954	
-1.7983	
-0.183438	
-0.0356709	
-0.0583611	
-1.01819	
-1.40821	
-1.23415	
-1.11677	
-0.79023	
-0.735384	
-1.66583	
-1.69565	
-1.62067	
-1.68565	
-1.57006	
-1.79392	
-0.340688	
-2.17501	
-0.969234	
0.0398685	
0.202363	
-1.27709	
-1.46748	
0.391999	
1.04137	
-1.49565	
-0.782864	
0.12846	
-0.53252	
-1.28547	
-1.33066	
-1.28912	
-1.35359	
-1.60294	
-2.32883	
-2.31359	
-0.560881	
-0.193755	
-0.817229	
-0.842462	
-1.67867	
-1.72991	
-1.16882	
-0.722234	
-0.877806	
-0.680982	
-0.899724	
-0.397005	
-1.02049	
-0.721704	
-1.37868	
-0.664822	
-1.45239	
-1.65158	
-0.282753	
-1.09328	
-1.46382	
-0.721019	
-0.614415	
-0.340482	
-1.93071	
-2.39223	
-1.62585	
-1.45569	
-0.940335	
-1.44458	
-1.3952	
-1.4039	
-0.432177	
-0.599683	
-1.56454	
-1.60093	
0.511132	
-0.0246065	
0.202623	
0.154789	
-1.64372	
-2.14539	
-1.68984	
-2.1938	
-0.00489563	
0.104156	
0.177582	
-0.751096	
-0.698576	
-0.64954	
-0.613435	
-1.59569	
-1.82057	
-1.72222	
-1.83048	
0.279883	
-1.39622	
-0.766359	
0.407531	
-0.189962	
0.108498	
-1.25345	
-1.78112	
-0.611921	
1.69687	
0.910615	
0.550896	
-0.0825706	
0.003277	
-0.0651194	
-0.37258	
-0.272867	
-1.65315	
-1.37	
-1.50434	
-1.37792	
-1.04024	
-0.85139	
-1.06446	
-0.886732	
-0.344996	
0.314975	
-2.0453	
-1.87186	
-1.7511	
-1.61799	
0.0789725	
0.0546681	
0.169203	
0.182417	
-1.2081	
-1.42897	
-0.997641	
-1.04126	
-0.12479	
-0.762709	
-0.126433	
-0.710538	
-2.29107	
-1.52303	
-1.3079	
-1.69819	
-1.81314	
-1.87934	
-1.31542	
-1.72906	
-1.53568	
-2.07531	
-1.4254	
-2.32906	
-1.98536	
-1.46664	
-1.4469	
-1.67419	
-1.90714	
0.387429	
0.435732	
-1.04984	
-0.948293	
-1.07939	
-0.765479	
-1.02325	
-0.978097	
-0.953866	
-0.655291	
-1.47264	
1.18635	
1.32626	
0.0248453	
-0.0572926	
-1.97393	
-2.00475	
1.87129	
0.856686	
-1.36032	
-1.24691	
-1.40909	
-0.157884	
0.0125409	
-0.108838	
0.38289	
0.439815	
0.263542	
0.300044	
0.927424	
0.343143	
0.365075	
0.275911	
-1.58269	
-2.57528	
-2.53137	
0.841134	
0.47055	
0.600864	
0.227607	
-0.602395	
-0.30452	
-1.47545	
-1.5643	
-1.51701	
-1.53076	
-1.35564	
-1.33578	
-1.608	
-1.31685	
-1.3863	
-1.51287	
-1.76562	
-2.26966	
-1.69884	
-1.6301	
-1.64022	
-1.62123	
-0.0588508	
0.00386461	
-1.09432	
-0.918406	
-0.729541	
-1.265	
-0.0654002	
-0.332036	
-0.256767	
0.218051	
-1.72439	
-1.84586	
-1.76857	
-1.74556	
-1.73173	
-1.75066	
-1.91538	
-2.34503	
-1.6258	
-1.62635	
-1.61107	
-1.6039	
-2.12025	
-2.27121	
-1.97	
-2.14286	
-0.360935	
-0.482017	
-0.190679	
-0.383367	
-1.09487	
-1.16365	
-1.54725	
-1.24165	
1.61002	
1.42624	
-0.575817	
-0.73654	
-0.787268	
-0.904188	
-0.737457	
-0.418269	
-0.609814	
-0.634482	
-0.925698	
-2.24936	
-2.46269	
-0.738718	
-0.694482	
-0.510324	
-1.04144	
-0.849862	
-0.797429	
-0.71715	
-0.62579	
-0.569801	
-0.355969	
-0.92386	
-1.16318	
-0.57623	
-0.783371	
-0.204692	
-0.00840165	
-0.356511	
-0.251806	
-1.03321	
-1.27956	
-1.35151	
-1.3321	
0.296727	
-1.74731	
0.0825593	
0.341813	
-3.26903	
-3.35555	
0.620988	
0.851813	
1.16258	
1.26263	