<VTKFile type="UnstructuredGrid" version="0.1" byte_order="LittleEndian">
	<UnstructuredGrid>
		<Piece NumberOfPoints="1917" NumberOfCells="3602">
			<CellData Scalars="scalars">
				<DataArray type="Float64" Name="Doublet Strengths" NumberOfComponents="1" Format="ascii">
1.45242	
0.282834	
1.17982	
1.15438	
1.06844	
2.90317	
0.509857	
0.498321	
0.481314	
0.472296	
0.638901	
0.287134	
0.0974947	
2.51768	
0.2587	
0.115225	
0.220875	
2.5981	
0.39378	
0.688223	
0.613108	
0.62513	
0.772638	
0.449923	
0.514751	
0.483158	
0.674842	
0.382281	
0.724452	
0.776639	
0.709988	
0.863912	
0.758233	
0.548247	
0.643141	
0.619893	
0.689745	
0.786161	
0.773739	
0.939826	
0.810687	
0.855557	
0.753601	
0.808483	
0.7893	
0.850119	
0.747981	
0.829608	
0.750247	
0.451144	
0.504078	
0.713286	
0.721685	
0.678742	
0.695237	
0.999903	
0.719604	
0.682613	
0.647764	
0.741658	
0.509223	
0.779254	
0.79196	
0.697658	
0.721174	
0.811324	
0.851124	
0.717832	
0.757729	
0.772063	
0.7049	
0.722502	
0.759963	
0.872216	
0.802222	
0.942551	
0.573016	
1.46574	
0.444023	
0.353288	
0.732585	
0.69527	
0.768534	
0.439766	
0.813448	
0.914026	
0.782744	
0.955963	
0.720657	
0.756753	
0.593467	
0.549403	
0.784026	
0.694429	
0.722968	
0.614186	
0.748391	
0.799805	
0.632638	
0.768094	
0.60568	
0.584495	
0.837621	
0.783537	
0.653365	
0.672692	
0.647203	
0.770089	
0.809067	
0.775677	
0.825906	
0.793475	
0.846954	
0.754852	
0.71926	
0.749363	
0.756426	
0.755626	
0.7367	
0.744002	
0.742761	
0.750137	
0.7311	
0.73526	
0.736934	
0.953895	
0.830434	
0.918581	
0.787832	
0.587099	
0.528033	
0.877959	
0.895711	
0.367121	
0.928308	
0.998376	
0.776973	
0.641568	
0.624551	
0.659889	
0.65194	
0.743872	
0.699831	
0.681831	
0.426719	
0.215334	
0.253097	
0.321658	
1.18531	
1.58896	
1.00189	
0.577199	
0.641877	
0.348188	
0.28124	
1.14927	
1.0328	
0.714495	
0.866632	
0.406127	
0.892636	
0.80625	
0.743011	
0.746394	
0.689217	
2.88777	
2.80554	
0.603258	
0.58682	
0.565418	
0.557993	
0.752685	
0.759683	
0.50881	
0.500902	
0.545947	
0.58122	
0.602693	
0.55417	
0.501594	
0.72584	
0.701904	
0.720059	
0.534256	
0.508399	
0.581797	
0.677356	
0.432197	
0.607321	
0.455814	
0.337104	
0.367512	
0.411814	
0.495099	
0.527411	
0.528631	
0.537802	
0.482835	
0.501327	
0.588126	
0.700173	
0.779938	
0.852028	
0.765318	
0.41115	
0.392658	
0.435495	
0.412183	
1.06564	
1.32874	
0.992427	
0.952109	
0.974886	
0.651518	
0.59795	
0.431517	
0.368762	
0.790986	
0.760874	
0.823943	
0.763047	
1.00379	
0.889256	
0.988193	
0.898272	
0.502557	
0.52716	
0.281434	
1.04622	
0.940576	
0.742723	
0.698634	
0.714607	
0.687156	
0.553579	
0.814842	
0.847383	
0.817685	
0.788414	
0.873428	
0.867442	
1.01311	
1.00272	
0.710804	
0.714443	
0.711712	
0.704192	
0.756372	
0.786111	
0.785512	
0.751533	
0.743245	
0.754089	
0.744318	
1.01337	
0.921944	
0.993776	
0.833959	
0.315073	
0.294795	
0.928406	
0.750899	
0.790804	
0.695811	
0.836663	
0.616525	
0.652536	
0.559392	
0.810892	
0.912498	
0.913305	
0.702709	
0.876448	
0.730275	
0.687694	
0.681637	
0.695657	
0.705102	
0.69355	
0.70923	
0.706406	
0.655032	
0.647764	
0.649755	
0.679936	
0.622273	
0.671407	
0.802423	
0.974057	
0.874131	
1.11377	
1.16858	
0.75907	
0.698337	
0.684776	
0.877125	
0.728808	
0.816231	
0.88236	
0.563395	
0.566112	
0.579874	
0.743973	
0.584771	
0.701018	
0.600256	
0.509535	
0.458952	
0.717714	
0.936756	
0.887126	
0.823711	
0.900034	
0.752476	
0.863164	
0.935441	
0.964385	
0.79104	
0.514785	
0.689201	
0.882696	
1.01666	
0.992414	
1.0261	
0.530337	
0.571072	
0.608057	
0.684952	
0.678507	
0.801079	
0.761379	
0.740856	
0.893037	
0.88474	
0.95893	
0.985365	
0.699717	
0.768118	
0.713217	
0.763569	
0.705454	
0.726956	
0.703236	
0.741056	
0.711674	
0.732784	
0.766409	
0.730901	
0.757057	
0.733371	
0.888653	
0.812327	
1.02471	
0.828417	
0.688576	
0.64242	
0.678791	
0.611518	
0.564602	
0.784225	
0.780684	
0.79501	
0.770369	
0.643233	
0.97327	
0.918271	
0.82232	
0.821845	
0.720736	
0.73535	
0.728345	
0.740038	
0.722683	
0.716844	
0.748409	
0.74617	
0.93485	
0.821176	
0.790783	
0.90256	
0.65217	
0.566483	
0.380967	
0.300881	
0.782909	
0.769501	
0.720926	
0.728111	
0.728324	
0.719649	
0.70174	
0.714002	
0.663239	
0.635867	
0.67203	
0.633576	
0.727414	
0.702743	
0.803649	
0.71399	
0.61171	
0.593093	
0.622227	
0.622749	
0.248053	
0.211536	
1.01383	
1.07302	
0.841408	
0.886721	
0.754607	
0.90885	
0.579795	
0.586898	
0.550805	
0.594084	
0.623766	
0.749595	
0.689485	
0.65839	
0.676498	
0.638004	
0.623832	
0.713151	
0.672774	
0.781566	
0.703378	
0.267973	
0.368007	
0.32016	
0.825114	
0.767644	
0.814461	
0.764743	
0.851418	
0.970983	
0.963213	
0.538686	
0.528158	
0.536003	
0.713289	
0.714024	
0.765833	
0.703441	
0.753811	
0.569041	
0.650158	
0.576234	
0.769598	
0.766587	
0.789057	
0.795545	
0.731931	
0.734551	
0.726419	
0.72749	
0.783103	
0.836267	
0.841384	
0.962283	
0.869365	
0.977351	
0.946338	
0.87297	
1.00812	
0.86316	
0.97606	
0.95208	
0.657699	
0.631992	
0.728223	
0.915207	
0.837278	
0.916894	
0.834291	
0.88505	
0.80408	
0.663994	
0.713874	
0.755925	
0.746411	
0.780561	
0.799481	
0.778172	
0.83631	
0.812746	
0.703731	
0.72592	
0.787602	
0.825556	
0.54673	
0.460721	
0.532794	
0.493472	
0.658582	
0.623403	
0.360273	
0.304041	
0.690449	
0.68712	
0.324484	
0.274546	
0.560003	
0.597114	
0.611335	
0.615431	
0.652943	
0.699304	
0.666113	
0.698237	
0.685357	
0.689754	
0.695579	
0.601814	
0.60776	
0.639019	
0.655882	
0.639029	
0.584259	
0.713374	
0.673661	
0.726334	
0.698662	
0.758942	
0.740265	
0.794801	
0.77203	
0.840469	
0.803647	
0.814102	
0.790764	
0.643513	
0.586273	
0.724295	
0.5949	
0.690749	
1.21199	
1.03575	
0.994717	
1.02828	
0.942678	
0.90903	
0.805724	
1.01258	
0.955377	
0.828607	
1.00577	
0.791927	
0.826766	
0.771929	
0.889651	
0.696407	
0.689953	
0.572807	
0.564189	
0.567195	
0.780856	
0.827051	
0.764383	
0.627613	
0.606946	
0.602834	
0.643798	
0.611073	
0.570784	
0.603883	
0.78161	
0.859369	
0.805605	
0.599294	
0.555335	
0.508398	
0.693723	
0.458955	
0.551063	
0.607448	
0.610794	
0.630243	
0.776815	
0.475894	
0.468285	
0.724171	
0.46836	
0.566394	
0.753417	
0.729137	
0.721988	
0.761302	
0.853959	
0.76946	
0.630875	
0.608464	
0.829288	
0.711234	
0.381739	
0.514603	
0.671559	
0.80699	
0.814099	
0.807494	
0.847891	
0.663688	
0.699428	
0.746562	
0.69741	
0.697034	
0.543085	
0.533377	
0.550752	
0.537714	
0.796064	
0.83253	
0.781479	
0.815718	
0.774943	
0.933876	
0.91933	
0.708099	
0.690894	
0.72833	
0.779529	
0.665515	
0.623722	
0.592982	
0.842645	
0.773748	
0.893458	
0.820178	
0.874547	
0.735188	
0.872627	
0.568414	
0.514886	
0.473734	
0.659828	
0.643663	
0.675868	
0.651753	
0.913376	
0.887041	
0.851573	
0.801176	
0.705261	
0.730256	
0.721312	
0.736335	
0.849537	
0.822702	
0.808947	
0.830408	
0.408864	
0.396529	
0.693488	
0.736269	
0.69811	
0.630446	
0.692685	
0.621662	
0.731093	
0.959777	
0.823382	
0.941558	
0.919656	
0.84872	
0.951774	
0.937432	
0.981268	
0.570668	
0.584207	
0.642359	
0.610758	
0.642872	
0.795267	
0.784535	
0.7642	
0.778015	
0.745313	
0.696532	
0.749695	
0.70007	
0.734995	
0.747601	
0.765728	
0.798327	
0.852666	
0.917319	
0.574175	
0.593757	
0.61917	
0.601925	
0.796159	
0.853378	
0.735195	
0.733135	
0.747502	
0.635285	
0.646291	
0.603857	
0.634461	
0.702761	
0.707488	
0.658632	
0.565793	
0.585864	
0.500776	
0.673574	
0.673403	
0.673222	
0.674307	
0.841743	
0.807748	
0.79093	
0.78275	
0.601822	
0.700188	
0.836731	
0.810914	
0.569578	
0.55922	
0.819461	
0.837285	
0.88649	
0.819125	
0.811689	
0.826314	
0.797066	
0.769683	
0.764813	
0.755456	
1.0411	
1.17546	
1.08484	
1.26073	
0.215718	
0.229579	
0.110291	
0.155735	
0.653922	
0.585687	
0.664047	
0.596488	
0.716443	
0.682809	
0.701561	
0.679711	
0.854697	
0.869728	
0.758205	
0.766418	
0.542397	
0.468	
0.492124	
0.469078	
0.809129	
0.749335	
0.712383	
0.717012	
0.677802	
0.686025	
0.665574	
0.674477	
0.756453	
0.792304	
0.768145	
0.779799	
0.745938	
0.763869	
0.735629	
0.273191	
0.739703	
0.73383	
0.605337	
0.624789	
0.617376	
0.241085	
0.343802	
0.603754	
0.574299	
0.535384	
0.504093	
0.473574	
0.639937	
0.616693	
0.591477	
0.53979	
0.307141	
0.41463	
0.307327	
0.830924	
0.805045	
0.95093	
0.761325	
0.772202	
0.835822	
0.687663	
0.666172	
0.684922	
0.635219	
0.910954	
0.945677	
1.08803	
1.18384	
0.781671	
0.731521	
0.665305	
0.631785	
0.649717	
0.660214	
0.661729	
0.489612	
0.47017	
0.695254	
0.71191	
0.793625	
0.79876	
0.384405	
0.330819	
0.381618	
0.674855	
0.679421	
0.672294	
1.75825	
1.2435	
0.642529	
0.604623	
0.388189	
0.823084	
0.863443	
0.912073	
1.33112	
0.548856	
0.551643	
0.653289	
0.636964	
0.308017	
0.280238	
0.367964	
0.366186	
0.745577	
0.74078	
0.687118	
0.692518	
1.00558	
0.920763	
0.503384	
0.496214	
0.894263	
0.736637	
0.661096	
0.658751	
0.605509	
0.637612	
0.709289	
0.696811	
0.838459	
0.778389	
0.904104	
0.775821	
0.85877	
0.727403	
0.380357	
0.340806	
0.281972	
0.269011	
0.56489	
0.554029	
0.547392	
0.538645	
0.411454	
0.442683	
-1.73674	
-3.26755	
-2.21011	
-2.22547	
-2.46917	
-1.59683	
0.56716	
2.32999	
0.312905	
0.565779	
-0.439167	
-0.448087	
0.447584	
-0.386629	
-0.454968	
-1.15683	
-0.641866	
-1.48655	
-1.40262	
-1.51118	
-1.09671	
-0.735715	
-1.44778	
-0.201346	
-0.0501178	
-0.0732536	
-0.857082	
-1.24067	
-1.12026	
-1.05652	
-0.636598	
-0.749651	
-1.47524	
-2.16519	
-1.45685	
-1.40773	
-1.50002	
-1.34076	
-0.330403	
-2.08696	
-0.934156	
0.0202775	
0.167684	
-1.25507	
-1.40068	
0.283381	
0.725537	
-1.50965	
-0.74813	
0.122963	
-0.460652	
-1.22041	
-2.0196	
-0.998514	
-1.3226	
-1.42214	
-2.15268	
-1.93163	
-0.463693	
-0.125391	
-0.852348	
-0.822557	
-1.50125	
-1.12979	
-1.40648	
-0.66403	
-0.92103	
-0.565128	
-0.791563	
-0.130594	
-0.998869	
-0.539192	
-1.00465	
-0.710504	
-1.77751	
-1.74154	
-0.277767	
-2.08752	
-1.28246	
-0.73335	
-0.357353	
-0.635151	
-1.23621	
-1.41887	
-1.47575	
-1.47795	
-1.39519	
-0.96983	
-1.39677	
-1.60264	
-1.47532	
-0.420506	
-0.5882	
-1.50516	
-1.49777	
0.244419	
-0.0577787	
0.181095	
0.166925	
-1.64134	
-2.1828	
-1.49076	
-2.08204	
-0.0147969	
-0.637662	
0.100541	
0.196663	
-0.493853	
-0.523715	
-0.573675	
-0.624792	
-1.60214	
-1.69019	
-1.64985	
-1.58783	
0.273003	
-1.33932	
-0.615756	
0.397211	
-0.194069	
0.10722	
-1.39556	
-1.65909	
-0.478617	
1.18448	
1.59977	
0.517199	
-0.0858431	
-0.248766	
-0.00179321	
-0.36262	
-0.270562	
-1.60164	
-1.66904	
-1.76519	
-0.8065	
-0.946831	
-0.763998	
-0.982492	
-0.928242	
-0.347185	
0.332184	
-1.62404	
-1.73833	
-2.00507	
-1.7887	
0.00219168	
0.096043	
0.182871	
0.172742	
-0.951541	
-1.23701	
-1.14999	
-1.36685	
-0.402931	
-0.71666	
-0.126581	
-0.476969	
-1.48119	
-1.33877	
-1.45907	
-1.49718	
-1.4432	
-1.51788	
-1.3102	
-2.20569	
-1.52545	
-2.27934	
-2.16862	
-2.26023	
-2.04034	
-2.10896	
-1.8967	
-1.42733	
-1.33961	
0.239825	
0.442161	
0.397318	
-0.916756	
-0.941601	
-1.04279	
-1.05745	
-0.994781	
-0.62911	
-0.813391	
-0.905196	
-1.31529	
1.05189	
1.1991	
1.38481	
0.0131761	
-0.0667838	
-1.47833	
-1.58159	
0.832083	
1.84918	
-1.79664	
-1.33603	
-1.23549	
-0.0913262	
-0.0605083	
0.0391736	
0.41271	
0.366715	
0.274451	
0.320854	
0.720074	
0.349237	
0.328447	
0.264636	
-1.35016	
-2.39267	
-2.30425	
0.289512	
0.198348	
0.774006	
0.431698	
-0.371009	
-0.192892	
-1.406	
-1.30477	
-1.26753	
-1.39227	
-1.35989	
-1.40244	
-1.46729	
-1.19012	
-1.24313	
-1.34908	
-2.1116	
-1.65428	
-1.54883	
-1.49401	
-1.45769	
-1.45169	
0.0680159	
0.0108306	
-1.11439	
-0.659828	
-0.922275	
-1.19514	
-0.0706407	
-0.320547	
0.209706	
-0.0647673	
-1.73029	
-1.57236	
-1.60757	
-1.58529	
-1.48662	
-1.49366	
-1.54297	
-1.47465	
-1.45838	
-1.43993	
-1.45475	
-1.44897	
-2.4953	
-2.06269	
-2.06943	
-1.95213	
-0.196498	
-0.375961	
-0.194401	
-0.469682	
-0.981603	
-0.951371	
-1.08515	
-1.42552	
1.14685	
1.60316	
-0.551428	
-0.48891	
-0.615512	
-0.647004	
-0.823514	
-0.895391	
-0.893897	
-0.404577	
-2.31389	
-2.13764	
-0.757312	
-0.520843	
-0.715143	
-1.53767	
-1.09463	
-0.695506	
-0.60493	
-0.81942	
-0.847865	
-0.626289	
-0.358323	
-0.557541	
-0.759297	
-0.613427	
-1.17088	
-1.95829	
-1.47971	
-0.381065	
-0.260199	
-0.224503	
0.0451581	
-0.679574	
-1.3183	
-1.27599	
-0.990106	
0.285033	
-1.74505	
0.32638	
0.0671411	
-2.39774	
-3.04416	
0.500736	
0.605377	
1.24586	
1.41373	
-1.09216	
-1.25421	
-1.28717	
-1.43628	
-1.95767	
-1.82824	
-1.70667	
-1.84007	
-1.48782	
-1.65701	
-1.62603	
-2.08069	
-2.09719	
-1.25564	
-2.19507	
-1.93236	
-1.66604	
-2.41719	
-1.65133	
-2.19827	
-0.19945	
0.23121	
-1.55134	
-1.5007	
-1.54746	
-1.57951	
-1.34088	
-1.16023	
-1.27478	
-0.637504	
-0.575994	
0.68127	
1.07247	
0.176828	
0.76269	
-0.017714	
0.413951	
0.533661	
0.146499	
0.535853	
0.26773	
-1.03893	
-0.465347	
-0.573926	
-1.41902	
-1.14302	
-1.22495	
-1.17397	
-1.24813	
-1.40384	
-1.46822	
-1.4624	
-1.90885	
-1.31387	
-1.23963	
-1.59873	
-1.29032	
-1.1285	
-1.24227	
-1.31143	
-0.435537	
-0.352817	
-0.602656	
-0.494072	
0.290238	
0.140411	
0.475509	
0.363384	
-1.19851	
-1.83923	
-0.69792	
-0.76193	
-0.785973	
-0.911502	
-1.41968	
-0.414247	
-0.24066	
-1.07414	
-1.21967	
-0.87937	
-0.820266	
0.0704559	
0.841922	
1.07695	
0.798939	
0.668954	
-1.00065	
-0.132964	
0.0554177	
-0.197578	
0.0447775	
-1.67405	
-1.25427	
-1.09731	
-0.8939	
-0.814813	
-0.914298	
-0.864329	
-0.88322	
-0.835852	
-0.999498	
-1.22744	
-1.07647	
-1.17255	
-0.992864	
-0.966147	
-2.10099	
-1.6656	
-1.51301	
-1.51036	
-1.70532	
-1.6194	
-1.53866	
-1.52158	
0.250678	
0.190298	
-0.310276	
-1.72817	
-2.39222	
-1.64742	
-2.3152	
-1.55259	
-1.52455	
-1.42212	
-1.50349	
-1.72012	
-0.105501	
-0.605758	
-0.648212	
-0.790452	
-0.814529	
-1.14073	
-1.42197	
-2.2111	
-2.69319	
-1.58975	
-1.50286	
-1.50724	
-1.49079	
0.406064	
0.0274629	
0.831785	
0.16448	
-1.4874	
-0.399512	
-1.17609	
-1.39444	
-0.610465	
-0.762943	
-1.1649	
-1.67157	
-1.12949	
-1.41714	
-1.7946	
-2.39075	
-1.6625	
-1.81102	
-0.529368	
-0.518947	
0.166346	
0.113239	
0.295513	
0.179727	
0.0988753	
0.0251535	
0.109583	
-2.17222	
-2.37347	
0.32549	
0.171198	
0.301967	
-1.08535	
-0.754334	
-0.76389	
-0.492231	
-1.00795	
-1.19266	
-0.871754	
-0.940023	
0.0278823	
-0.184997	
-0.00826311	
-0.151308	
-2.81556	
-2.8034	
-2.16384	
-0.44529	
-0.667438	
-0.692436	
-0.535022	
-1.54583	
-1.58008	
-1.83029	
-1.87798	
-1.74197	
-1.75425	
-0.689874	
-0.562744	
-0.53091	
-0.758125	
-0.706283	
-1.05055	
-1.37324	
-1.55057	
-1.82063	
-1.08597	
-1.02129	
-1.42348	
-1.17841	
-1.47815	
0.233761	
0.184271	
-0.042032	
-0.220769	
-0.115667	
-0.27991	
-0.725539	
-0.886698	
-0.717371	
-0.884999	
-1.33549	
-0.978734	
-1.77609	
-1.24042	
-1.112	
-1.26314	
-1.41189	
0.429972	
0.284558	
0.233919	
-1.44624	
-1.46396	
-1.52724	
-1.47803	
-1.45105	
-1.3579	
-1.36913	
-1.33749	
0.0172862	
-0.0490817	
0.204352	
0.284417	
-0.357549	
-0.37431	
-0.0427995	
-0.179238	
0.966866	
0.872171	
1.54201	
0.0728709	
0.337106	
0.744615	
-1.16468	
-1.21487	
-1.25151	
-1.25528	
-1.34671	
-1.33294	
-1.56523	
-1.52443	
-1.51223	
-1.47218	
-1.75023	
-1.7769	
-0.52797	
-0.490316	
-0.647588	
-0.727748	
-0.831534	
-0.850382	
-1.01187	
-1.09246	
-0.862769	
-0.840821	
-0.995947	
-1.09912	
-1.35699	
-1.43584	
-1.39395	
-1.46611	
-1.43908	
-1.36597	
0.20174	
0.351473	
-1.08523	
-1.17405	
-1.1523	
-1.41082	
-1.35188	
-1.54073	
-2.2555	
-1.42718	
-1.42352	
0.328682	
-1.0939	
-1.0476	
-1.10473	
-1.48445	
-1.47131	
-1.65981	
-1.39839	
2.83988	
-1.15378	
-1.21478	
-1.07733	
-1.06735	
0.248296	
0.244653	
0.579579	
0.433493	
0.512468	
0.326736	
1.26155	
-1.31381	
-1.33618	
-1.60272	
-1.64857	
-1.58934	
0.398602	
-1.44931	
-1.59393	
-1.34541	
-1.3514	
0.252102	
0.211712	
-1.31618	
0.331646	
0.310872	
-1.06631	
-1.13098	
-0.998369	
-1.00546	
-1.09341	
-1.15503	
-2.03815	
-2.22339	
-1.25427	
-1.43796	
-1.12954	
-1.08015	
-0.995387	
-1.4044	
-1.19191	
-1.29754	
-1.26971	
-1.52303	
-1.33811	
-1.20331	
-1.11243	
-1.18454	
-1.03153	
-1.10284	
-1.15831	
0.544275	
0.404213	
0.441079	
-1.52284	
0.229205	
0.146615	
0.14695	
0.200196	
0.199512	
-1.44308	
-1.43165	
-1.43073	
0.00531477	
0.0581985	
-0.048978	
0.0289436	
-1.44007	
-1.36524	
-1.4082	
-1.44757	
-1.42891	
-1.63077	
-1.43334	
-1.73699	
-1.49661	
0.503492	
0.572171	
0.380607	
-2.28084	
-1.56927	
-2.42451	
-1.61059	
-1.32151	
0.177338	
-1.45622	
-1.43073	
1.37561	
0.883725	
0.94539	
0.322565	
-1.25802	
-1.08457	
-0.989951	
-0.626147	
-0.603467	
-0.375577	
-1.10381	
-1.13801	
-2.03007	
-1.56022	
-1.64889	
-1.59277	
-1.81117	
-0.204135	
-0.452449	
0.493075	
0.385291	
0.413183	
0.359714	
0.430425	
0.249801	
0.22078	
0.203051	
0.131226	
-1.7742	
-1.60566	
-1.70112	
-1.60759	
-1.29697	
-1.27683	
-1.43365	
-1.96055	
-2.03526	
0.139408	
0.039417	
-0.276964	
-1.46318	
-1.61936	
-1.41898	
-1.5978	
-1.53356	
-1.42859	
-1.4082	
-1.34345	
-1.69719	
-1.7203	
-1.55811	
-1.24494	
-1.33127	
-1.36805	
-1.50141	
-1.22106	
-1.16453	
-1.27285	
-1.14307	
0.726746	
0.227788	
-1.30303	
-1.36531	
-1.3819	
-1.60304	
-0.788976	
-1.02533	
-1.27291	
-1.29467	
-1.3839	
-1.36878	
-1.31493	
-1.35516	
-1.00853	
-1.16396	
-1.52641	
-1.51938	
-1.48542	
-1.47286	
-1.65253	
-1.58177	
-1.57705	
-1.5347	
-1.45996	
-1.65603	
-1.05782	
-1.05675	
-1.7996	
-2.16767	
-2.11674	
-1.65268	
-1.90896	
-1.74363	
-0.0872387	
-0.321953	
-0.351474	
0.26805	
0.186423	
-1.2599	
-1.30359	
-1.25433	
-0.334528	
-0.354569	
-0.26919	
-1.58088	
-1.50964	
-1.58397	
-1.52037	
-0.531982	
-0.455944	
-0.68292	
-0.753282	
-0.970139	
-1.34992	
-1.21346	
0.609178	
0.852996	
1.14088	
0.686431	
-0.181614	
-0.227763	
0.262434	
0.31936	
0.260511	
0.334655	
-1.72542	
-1.87914	
-1.70725	
-1.89806	
-0.665758	
-0.540091	
-0.21796	
1.85791	
2.81147	
-1.76806	
-1.93055	
-2.08382	
-2.61807	
-0.362334	
-0.272662	
-0.585912	
-0.413973	
0.466875	
0.46659	
0.270542	
0.265425	
0.180878	
-0.127653	
-0.322977	
0.100468	
-0.230371	
0.288487	
0.342332	
-1.42409	
-1.96294	
-1.40257	
-1.512	
-0.540298	
-0.696503	
-0.637191	
-0.775262	
1.31841	
1.17115	
-1.83559	
-1.70514	
0.279821	
0.318329	
0.362369	
0.344371	
0.675307	
0.24015	
-0.0777357	
-0.143059	
-0.0817617	
-0.0644381	
-0.0353518	
-0.0317545	
-0.040459	
0.0207357	
0.0427809	
0.117995	
0.160224	
0.143031	
0.0797097	
-0.0049831	
-0.0931388	
-0.0839557	
-0.0890848	
-0.0820486	
-0.0677426	
0.157909	
-0.0316336	
0.136834	
0.0647448	
0.105646	
0.0188434	
-0.103049	
0.128484	
0.0884321	
-0.00160807	
-0.071983	
0.0318043	
-0.17086	
-0.197076	
-0.228159	
-0.177942	
-0.206308	
-0.260294	
-0.132992	
0.116356	
0.0715825	
-0.174378	
-0.0630139	
-0.107761	
-0.000854778	
-0.131031	
-0.157572	
-0.153512	
-0.148311	
-0.165905	
-0.190965	
0.14289	
1.26397	
0.0956829	
1.18439	
1.16012	
1.09303	
1.45434	
0.511732	
0.477637	
0.482152	
0.500156	
0.660725	
0.190956	
0.0961455	
1.14955	
0.253773	
0.0814467	
0.207143	
1.30778	
2.55586	
0.393892	
0.470671	
0.974459	
0.7216	
0.912407	
0.675236	
0.648448	
0.837041	
0.810819	
0.419709	
0.46662	
0.474192	
0.685964	
0.314953	
0.751191	
0.780092	
0.766354	
0.909129	
0.767033	
0.569119	
0.673584	
0.726147	
0.823036	
0.805915	
0.999729	
0.811635	
0.83661	
0.875399	
0.852396	
0.806766	
0.835804	
0.78159	
0.854811	
0.833275	
0.425993	
0.448031	
0.766782	
0.752218	
0.838452	
0.784852	
1.0334	
0.822815	
0.942166	
0.676743	
0.822998	
0.508163	
0.79058	
0.805871	
0.735031	
0.755594	
0.946244	
1.02551	
0.73842	
0.784969	
0.931158	
0.749352	
0.754905	
0.85583	
0.948492	
0.955964	
0.770834	
0.775184	
0.794753	
0.609327	
1.09714	
0.891533	
0.340231	
0.992993	
0.7924	
0.412514	
0.939987	
0.826655	
0.858037	
1.01756	
0.808113	
0.85871	
0.804184	
0.791459	
0.549282	
0.705014	
0.773926	
1.10599	
0.876539	
0.643771	
0.828486	
0.78826	
0.846413	
0.78783	
0.635598	
0.574845	
0.568596	
0.797572	
0.777751	
0.70782	
0.663086	
0.695791	
0.781111	
0.833182	
0.777827	
0.818906	
1.0127	
0.836226	
0.819585	
0.798907	
0.822831	
0.821246	
0.825935	
0.812422	
0.846358	
0.794768	
0.804954	
0.810174	
0.818113	
0.881996	
0.926451	
0.853377	
0.8682	
0.585211	
0.672975	
0.918526	
0.805319	
0.351018	
0.94339	
1.00642	
0.226379	
0.818995	
0.646247	
0.66411	
0.685368	
0.689592	
0.768903	
0.709357	
0.73751	
0.408255	
0.218239	
0.188744	
0.28227	
1.59359	
0.663119	
0.594684	
0.297869	
1.15803	
1.05966	
0.735478	
0.905245	
0.854654	
1.11068	
0.809508	
0.807958	
0.876162	
0.789949	
2.48557	
2.66038	
0.723223	
0.584682	
0.747966	
0.628314	
0.787293	
0.793068	
0.469431	
0.543329	
0.635059	
0.539776	
0.450631	
0.74509	
0.79783	
0.759809	
0.51324	
0.537949	
0.547575	
0.700144	
0.394142	
0.370018	
0.413372	
0.454782	
0.464123	
0.523927	
0.519869	
0.481892	
0.505683	
0.552449	
0.583775	
0.917353	
0.849882	
0.843228	
0.416575	
0.304652	
0.385112	
0.325306	
1.0605	
1.00806	
1.00148	
0.649221	
0.667012	
0.799235	
0.831024	
0.798882	
0.857212	
0.931494	
1.03478	
0.936764	
1.03967	
0.697325	
0.72103	
0.567199	
0.853276	
0.805151	
0.331029	
0.262461	
1.06015	
0.956253	
0.86272	
0.968308	
0.896351	
1.02025	
0.572554	
0.840671	
0.834251	
0.836221	
0.86654	
1.04715	
1.02701	
1.01032	
0.905181	
0.721332	
0.716024	
0.725304	
0.810319	
0.777706	
0.822349	
0.820117	
0.843691	
0.827437	
1.07608	
1.03406	
0.832563	
0.780329	
0.958794	
0.808755	
0.770479	
0.817188	
0.723261	
0.746002	
0.624896	
0.567568	
0.877605	
0.98701	
0.979729	
0.623065	
0.723866	
0.89945	
0.702015	
0.676694	
0.712807	
1.10305	
0.736585	
0.744479	
0.788964	
0.742676	
0.719841	
0.673061	
0.679035	
0.696611	
0.59804	
0.60598	
1.05443	
0.93978	
0.870119	
1.175	
1.13272	
0.729202	
0.784676	
0.715916	
0.711188	
0.717946	
0.904826	
0.847673	
0.841503	
0.592019	
0.590899	
0.61855	
0.608113	
0.63978	
0.603741	
0.651906	
0.601363	
0.435639	
0.794544	
0.991665	
0.787927	
0.953454	
0.888536	
0.802843	
0.921366	
0.978651	
0.814021	
0.803131	
0.7469	
0.639436	
1.04806	
1.07528	
0.927168	
0.958113	
0.537843	
0.580771	
0.746877	
0.72701	
0.823867	
0.814764	
0.766043	
0.88547	
0.908603	
0.970388	
0.9739	
0.723421	
0.710765	
0.88452	
0.724915	
0.778993	
0.775801	
0.740509	
0.761557	
0.795999	
0.818351	
0.813299	
0.752755	
0.735811	
0.754548	
0.741606	
0.813835	
0.856758	
0.775118	
0.91242	
0.759147	
0.682493	
0.583167	
0.630349	
0.842655	
0.816451	
0.83917	
0.824399	
0.687727	
0.862155	
0.855425	
0.8613	
0.895616	
0.954886	
0.744812	
0.729156	
0.747979	
0.73428	
0.723636	
0.737203	
0.733757	
0.748717	
0.817645	
0.930854	
0.964875	
0.909485	
0.574083	
0.360977	
0.281904	
0.735793	
0.746512	
0.801113	
0.904785	
1.04651	
1.02103	
1.03374	
1.01692	
0.705654	
0.755993	
0.700156	
0.807466	
0.866504	
0.980223	
0.990774	
0.599534	
0.632921	
0.607647	
0.663554	
0.15732	
0.166488	
1.07891	
1.0217	
0.923359	
0.941465	
0.771194	
0.920407	
0.630332	
0.553869	
0.587108	
0.584418	
0.596092	
0.614151	
0.692669	
0.598394	
0.637293	
0.676107	
0.726446	
0.719776	
0.782429	
0.713661	
0.746489	
0.258782	
0.307977	
0.352985	
0.787776	
0.844044	
0.786758	
0.810225	
0.86784	
0.980511	
0.99796	
0.431817	
0.779293	
0.714203	
0.779862	
0.721685	
0.605204	
0.548582	
0.751076	
0.691928	
0.834093	
0.835215	
0.867483	
0.852612	
0.878446	
0.828122	
0.864282	
0.832474	
0.8801	
0.866418	
1.00383	
0.914433	
0.908309	
0.903326	
0.947271	
0.977313	
1.00691	
1.04057	
0.882986	
1.00593	
0.68328	
0.652861	
1.08181	
0.99013	
0.858439	
0.832612	
0.860726	
0.913918	
0.863867	
0.902212	
0.813642	
1.22147	
0.770741	
0.79845	
0.853009	
0.84161	
0.819064	
0.85652	
0.879143	
0.777544	
0.740121	
0.865051	
0.826606	
0.850373	
0.890991	
0.538609	
0.491551	
0.544377	
0.491948	
0.659792	
0.689691	
0.673484	
0.297749	
0.352968	
0.743027	
0.73337	
0.299453	
0.251839	
0.594872	
0.578831	
0.690406	
0.641152	
0.772795	
0.783418	
0.757339	
0.754948	
0.770317	
0.787785	
0.676261	
0.634266	
0.644055	
0.715741	
0.630318	
0.627114	
0.643284	
0.759381	
0.734119	
0.746076	
0.708083	
0.830182	
0.809316	
0.794	
0.762556	
0.866816	
0.827104	
0.890675	
0.850409	
0.989741	
0.662152	
0.645423	
0.598467	
0.521611	
1.05539	
1.16537	
1.08601	
1.0304	
1.06833	
0.994261	
0.871699	
1.054	
1.00635	
1.06533	
1.02323	
0.865357	
0.872116	
0.845702	
0.932431	
0.603661	
0.619238	
0.595978	
0.805553	
0.822589	
0.857754	
0.661966	
0.642823	
1.04561	
0.664976	
0.632356	
0.595388	
0.622892	
0.83351	
0.883423	
0.613623	
0.731784	
0.583493	
0.51329	
0.627114	
0.67189	
0.645585	
0.484886	
0.419179	
0.879322	
0.658391	
0.441863	
0.504342	
1.12362	
1.03815	
0.791029	
0.78143	
0.802661	
0.628682	
0.649536	
0.799688	
0.807244	
0.27254	
0.729168	
0.802197	
0.832025	
0.790055	
0.792246	
0.680463	
0.722965	
0.879548	
0.840127	
0.8463	
0.584721	
0.57605	
0.576143	
0.562859	
0.856559	
0.894721	
0.86458	
0.899582	
0.95207	
0.740288	
0.938312	
0.728431	
0.709342	
1.18854	
1.90046	
1.02204	
0.672606	
0.748522	
1.01376	
0.872103	
0.832549	
0.482246	
0.751059	
0.823647	
0.908086	
0.927647	
0.838431	
0.875933	
0.762035	
0.743391	
0.766928	
0.75514	
0.856772	
0.889157	
0.906984	
0.878312	
0.392407	
0.402025	
0.759225	
0.71754	
0.853923	
0.818308	
0.790434	
0.791118	
0.737734	
0.948767	
0.856969	
0.718627	
0.66059	
0.755686	
0.696064	
0.945142	
0.934621	
0.975867	
0.865159	
0.964435	
0.854821	
0.985032	
0.95609	
0.666292	
0.639726	
0.669481	
0.614349	
0.630858	
0.787723	
0.734794	
0.902668	
0.742663	
0.82484	
0.81637	
0.943998	
0.980899	
0.616123	
0.618887	
0.625461	
0.642125	
0.805709	
0.787739	
0.682694	
0.673833	
0.667977	
0.655171	
0.830413	
0.8529	
0.7895	
0.789506	
0.794706	
0.580889	
0.678024	
0.514803	
0.603957	
0.738388	
0.75381	
0.693145	
0.779289	
0.832469	
0.933904	
0.782461	
0.794554	
0.830881	
0.809717	
0.831345	
0.863604	
0.796104	
1.03857	
0.798295	
0.581002	
0.591734	
0.901012	
0.832528	
0.866125	
0.851954	
0.834702	
0.847539	
0.828061	
0.836686	
0.794254	
0.806739	
1.18238	
1.05188	
1.44835	
1.09283	
0.21969	
0.23059	
0.139325	
0.0808972	
0.660088	
0.687601	
0.649128	
0.658066	
0.70317	
0.740136	
0.701191	
0.721755	
0.916543	
0.889086	
0.831048	
0.824564	
0.588254	
0.605778	
0.607531	
0.544974	
0.77331	
0.835001	
0.739574	
0.721404	
0.788068	
0.703018	
0.875701	
0.760888	
0.821239	
0.847094	
0.878186	
0.933811	
0.914201	
0.894198	
0.879084	
0.897605	
1.00782	
1.0462	
0.288927	
0.787762	
0.786288	
0.64824	
0.655438	
0.655273	
0.723508	
0.803409	
0.530686	
0.580642	
0.604123	
0.705042	
0.319019	
0.388709	
0.371393	
0.25161	
0.202944	
0.19265	
0.565853	
0.688666	
0.684575	
0.339491	
0.302885	
0.452436	
0.179225	
0.257164	
0.398495	
0.290496	
0.292026	
0.796951	
0.861952	
0.798673	
0.86491	
0.91545	
0.841073	
0.71442	
0.79994	
0.52849	
0.506804	
0.537218	
0.691792	
0.671295	
0.703158	
0.696688	
0.773253	
0.762357	
0.80282	
0.858985	
0.316285	
0.367872	
0.740263	
0.757825	
0.760319	
1.10336	
1.31618	
0.633639	
0.669585	
0.734383	
0.330319	
0.388706	
0.411022	
0.340934	
0.420762	
0.930314	
0.880175	
0.852888	
1.0747	
0.564289	
0.561284	
0.339949	
0.383016	
0.873698	
0.737547	
0.722911	
0.721422	
0.333128	
0.376155	
0.274683	
0.340263	
0.163045	
0.230135	
0.246591	
0.803566	
1.13627	
0.74699	
0.874793	
0.93753	
0.872802	
0.874586	
0.827807	
0.490444	
0.446608	
0.527661	
0.489044	
0.762925	
0.783194	
0.68197	
0.667281	
0.0976699	
0.229528	
0.17943	
0.530786	
0.47489	
0.579545	
0.478797	
0.558597	
0.559348	
0.582316	
0.576805	
0.207643	
0.138745	
0.204887	
0.134975	
0.437045	
0.478489	
0.472439	
-1.82371	
-3.2739	
-2.22358	
-2.51493	
-3.1712	
0.586505	
2.2887	
0.313352	
0.419244	
-0.474868	
-0.606178	
0.462694	
-0.476787	
-0.547206	
-1.21713	
-0.654953	
-1.65109	
-1.69959	
-1.15635	
-0.786108	
-1.6162	
-1.77864	
-0.180051	
-0.0372196	
-0.056196	
-1.00489	
-1.38757	
-1.21699	
-1.10374	
-0.780211	
-0.725675	
-1.6446	
-1.674	
-1.59946	
-1.66537	
-1.54997	
-1.77071	
-0.337713	
-2.15217	
-0.95639	
0.0371573	
0.197735	
-1.26181	
-1.44892	
0.386337	
1.0327	
-1.47863	
-0.774573	
0.124068	
-0.526991	
-1.2727	
-1.3135	
-1.27595	
-1.33843	
-1.57724	
-2.30486	
-2.29254	
-0.55721	
-0.193305	
-0.808275	
-0.832526	
-1.65532	
-1.71724	
-1.15662	
-0.712382	
-0.866554	
-0.672289	
-0.889256	
-0.393291	
-1.00855	
-0.711298	
-1.36822	
-0.657089	
-1.43463	
-1.63238	
-0.281349	
-1.0815	
-1.44995	
-0.713227	
-0.607398	
-0.335764	
-1.91576	
-2.36983	
-1.60293	
-1.43755	
-0.93133	
-1.42606	
-1.37668	
-1.38523	
-0.426576	
-0.591066	
-1.54409	
-1.57897	
0.506108	
-0.026104	
0.195887	
0.147841	
-1.62478	
-2.12826	
-1.6693	
-2.17473	
-0.00829697	
0.102784	
0.171948	
-0.741851	
-0.690238	
-0.642315	
-0.606475	
-1.57831	
-1.80002	
-1.7032	
-1.81097	
0.27004	
-1.37879	
-0.754392	
0.396323	
-0.190409	
0.103012	
-1.23977	
-1.7591	
-0.600544	
1.69169	
0.904785	
0.548142	
-0.0853994	
-0.00075093	
-0.0675343	
-0.369615	
-0.270574	
-1.63412	
-1.35458	
-1.48806	
-1.36247	
-1.02542	
-0.837466	
-1.04936	
-0.87339	
-0.343322	
0.311813	
-2.03087	
-1.85778	
-1.73289	
-1.60046	
0.0737091	
0.0496351	
0.162331	
0.175275	
-1.19604	
-1.41638	
-0.987474	
-1.03136	
-0.122891	
-0.75695	
-0.12513	
-0.704691	
-2.26867	
-1.50525	
-1.29251	
-1.67523	
-1.78918	
-1.8554	
-1.3084	
-1.71834	
-1.51496	
-2.06288	
-1.41188	
-2.31581	
-1.97144	
-1.45026	
-1.4325	
-1.65769	
-1.89439	
0.378079	
0.426109	
-1.03637	
-0.935716	
-1.06825	
-0.759408	
-1.01274	
-0.962379	
-0.941142	
-0.645872	
-1.45728	
1.17851	
1.31613	
0.0209627	
-0.0592674	
-1.94949	
-1.97793	
1.86233	
0.84613	
-1.34051	
-1.23023	
-1.38808	
-0.15737	
0.00909325	
-0.109687	
0.370485	
0.426528	
0.25441	
0.290305	
0.918566	
0.334015	
0.35494	
0.267965	
-1.56353	
-2.55112	
-2.50767	
0.837239	
0.468373	
0.5971	
0.227228	
-0.598204	
-0.301055	
-1.45213	
-1.53834	
-1.49534	
-1.50854	
-1.33701	
-1.3169	
-1.5875	
-1.29501	
-1.3647	
-1.4899	
-1.7446	
-2.25148	
-1.67797	
-1.60768	
-1.61749	
-1.59935	
-0.060625	
0.00179047	
-1.08494	
-0.904556	
-0.719395	
-1.25621	
-0.0674165	
-0.330129	
-0.256228	
0.212127	
-1.70431	
-1.826	
-1.7481	
-1.72623	
-1.70946	
-1.72872	
-1.89205	
-2.32324	
-1.60485	
-1.60506	
-1.58977	
-1.58273	
-2.10077	
-2.25028	
-1.95	
-2.12047	
-0.355509	
-0.475066	
-0.187919	
-0.378039	
-1.07967	
-1.14808	
-1.53366	
-1.22511	
1.60362	
1.42205	
-0.566403	
-0.726034	
-0.774467	
-0.892917	
-0.726113	
-0.415952	
-0.604292	
-0.629916	
-0.918556	
-2.22477	
-2.43615	
-0.731883	
-0.687577	
-0.506067	
-1.03089	
-0.837774	
-0.784852	
-0.706492	
-0.616595	
-0.562863	
-0.351447	
-0.917407	
-1.15454	
-0.571805	
-0.776737	
-0.20113	
-0.00690978	
-0.351645	
-0.247809	
-1.02134	
-1.26173	
-1.33405	
-1.31765	
0.287414	
-1.72634	
0.0837552	
0.341039	
-3.24738	
-3.33524	
0.619229	
0.849617	
1.1596	