<VTKFile type="UnstructuredGrid" version="0.1" byte_order="LittleEndian">
	<UnstructuredGrid>
		<Piece NumberOfPoints="1917" NumberOfCells="3602">
			<CellData Scalars="scalars">
				<DataArray type="Float64" Name="Doublet Strengths" NumberOfComponents="1" Format="ascii">
1.44235	
0.279303	
1.16852	
1.14306	
1.05771	
2.89525	
0.497188	
0.485131	
0.469239	
0.460161	
0.627826	
0.282367	
0.0957312	
2.50897	
0.252631	
0.112374	
0.217111	
2.58967	
0.385515	
0.675847	
0.601415	
0.615141	
0.762172	
0.443386	
0.507513	
0.476122	
0.665871	
0.376679	
0.714697	
0.766061	
0.699164	
0.852937	
0.748344	
0.537988	
0.631248	
0.608571	
0.678242	
0.77409	
0.762633	
0.929332	
0.792954	
0.844654	
0.742375	
0.797447	
0.778765	
0.8406	
0.736748	
0.818806	
0.739594	
0.443072	
0.49622	
0.702139	
0.709772	
0.667485	
0.683663	
0.983962	
0.708796	
0.671407	
0.637354	
0.730943	
0.501906	
0.769288	
0.781381	
0.68717	
0.710374	
0.800765	
0.840194	
0.707066	
0.747245	
0.761595	
0.694316	
0.711811	
0.750739	
0.863439	
0.792757	
0.933718	
0.564932	
1.45562	
0.436552	
0.34618	
0.721497	
0.683974	
0.757315	
0.432479	
0.802391	
0.902693	
0.772209	
0.945603	
0.710255	
0.746511	
0.57944	
0.536945	
0.775955	
0.685824	
0.713052	
0.604142	
0.737425	
0.789065	
0.624553	
0.760037	
0.592287	
0.572148	
0.827264	
0.773702	
0.642224	
0.661621	
0.635592	
0.760034	
0.79871	
0.765392	
0.81509	
0.782786	
0.837325	
0.743839	
0.708994	
0.738737	
0.745348	
0.74511	
0.725416	
0.732975	
0.732021	
0.739655	
0.720544	
0.724927	
0.726361	
0.938066	
0.818839	
0.907633	
0.775997	
0.575961	
0.520262	
0.867779	
0.88561	
0.361372	
0.917038	
0.986621	
0.766419	
0.628602	
0.612725	
0.647991	
0.640498	
0.731373	
0.687974	
0.670035	
0.419858	
0.21117	
0.248692	
0.31611	
1.17551	
1.57843	
0.990649	
0.567128	
0.630538	
0.342874	
0.276937	
1.13799	
1.0219	
0.704481	
0.857622	
0.400082	
0.879047	
0.793657	
0.731719	
0.735994	
0.678983	
2.87926	
2.79699	
0.594462	
0.577989	
0.556194	
0.549251	
0.741393	
0.747903	
0.495956	
0.488562	
0.533026	
0.567905	
0.594539	
0.547825	
0.494848	
0.714633	
0.690633	
0.708991	
0.521347	
0.495972	
0.572958	
0.665998	
0.426088	
0.600857	
0.449237	
0.33176	
0.361836	
0.405625	
0.488011	
0.520195	
0.52088	
0.529668	
0.475897	
0.494261	
0.580505	
0.692549	
0.769017	
0.841288	
0.754282	
0.404589	
0.385414	
0.428853	
0.405796	
1.05428	
1.31608	
0.983208	
0.943108	
0.965528	
0.640245	
0.586488	
0.425025	
0.362718	
0.780005	
0.750072	
0.812592	
0.751944	
0.993189	
0.878404	
0.977469	
0.887171	
0.493327	
0.518012	
0.276525	
1.03615	
0.930268	
0.73095	
0.68701	
0.703416	
0.67611	
0.542917	
0.803816	
0.836055	
0.805739	
0.77753	
0.861924	
0.85636	
1.00229	
0.991972	
0.701316	
0.704498	
0.702446	
0.695063	
0.745417	
0.775469	
0.774449	
0.739788	
0.731766	
0.743051	
0.733496	
1.00277	
0.910995	
0.983366	
0.817527	
0.31166	
0.290358	
0.918242	
0.74026	
0.78032	
0.681944	
0.817426	
0.608315	
0.644268	
0.551633	
0.80001	
0.902045	
0.902845	
0.691236	
0.866127	
0.722103	
0.678967	
0.672805	
0.685054	
0.693971	
0.682014	
0.696919	
0.693122	
0.643465	
0.635199	
0.637834	
0.668588	
0.615762	
0.66416	
0.791317	
0.962366	
0.862321	
1.10285	
1.15754	
0.750073	
0.689273	
0.673098	
0.86548	
0.717265	
0.804694	
0.869726	
0.553656	
0.55654	
0.570158	
0.732506	
0.573306	
0.687611	
0.588817	
0.500642	
0.452302	
0.707369	
0.927139	
0.876964	
0.813487	
0.889971	
0.742291	
0.853287	
0.926271	
0.954803	
0.781102	
0.505626	
0.680529	
0.871575	
1.00569	
0.981724	
1.01552	
0.5183	
0.559831	
0.596695	
0.673909	
0.668166	
0.790169	
0.750256	
0.730016	
0.884292	
0.875627	
0.950154	
0.976437	
0.691004	
0.759117	
0.704293	
0.754607	
0.694949	
0.716281	
0.69283	
0.730389	
0.701399	
0.722654	
0.7565	
0.721222	
0.746975	
0.72374	
0.878759	
0.801906	
1.01416	
0.818418	
0.676903	
0.632755	
0.665819	
0.599059	
0.553611	
0.773505	
0.770111	
0.783675	
0.759648	
0.632617	
0.962419	
0.906124	
0.810261	
0.8095	
0.711394	
0.726069	
0.718849	
0.730412	
0.713099	
0.707289	
0.738686	
0.736416	
0.92333	
0.809518	
0.779304	
0.891036	
0.637166	
0.552304	
0.374812	
0.295511	
0.77182	
0.758916	
0.709985	
0.716098	
0.716302	
0.708504	
0.690201	
0.702942	
0.652012	
0.624859	
0.660897	
0.622489	
0.71584	
0.691369	
0.792625	
0.70282	
0.599992	
0.581298	
0.61106	
0.611534	
0.243383	
0.207705	
1.00211	
1.05933	
0.831196	
0.876561	
0.743727	
0.898801	
0.569525	
0.573915	
0.539005	
0.582352	
0.612376	
0.733559	
0.674115	
0.645509	
0.660664	
0.62915	
0.615303	
0.703669	
0.663815	
0.770996	
0.689951	
0.262408	
0.361194	
0.314031	
0.814092	
0.756945	
0.803146	
0.753869	
0.84094	
0.960466	
0.952716	
0.52974	
0.52036	
0.528337	
0.704606	
0.705456	
0.757069	
0.69476	
0.745818	
0.561331	
0.641341	
0.567696	
0.759172	
0.755811	
0.778211	
0.784832	
0.721191	
0.724252	
0.715642	
0.716966	
0.772188	
0.823502	
0.830242	
0.951504	
0.856341	
0.966065	
0.934787	
0.861557	
0.997392	
0.852688	
0.965268	
0.941621	
0.646176	
0.620468	
0.717848	
0.904957	
0.825491	
0.904165	
0.823136	
0.87355	
0.791302	
0.653606	
0.70386	
0.744397	
0.735055	
0.769455	
0.788502	
0.767275	
0.82508	
0.801057	
0.692539	
0.714914	
0.776196	
0.814404	
0.539607	
0.453988	
0.525264	
0.486407	
0.646647	
0.611504	
0.352316	
0.297194	
0.679947	
0.676612	
0.319067	
0.269771	
0.54908	
0.585697	
0.599326	
0.603835	
0.640593	
0.687213	
0.654512	
0.685907	
0.674614	
0.67907	
0.681861	
0.590491	
0.595927	
0.626897	
0.643995	
0.627588	
0.572646	
0.701827	
0.662428	
0.714828	
0.687053	
0.747692	
0.729535	
0.783213	
0.760594	
0.828399	
0.792195	
0.802958	
0.779885	
0.632542	
0.577117	
0.716668	
0.586766	
0.683753	
1.2009	
1.02367	
0.983497	
1.01737	
0.927859	
0.897316	
0.795209	
1.00212	
0.944828	
0.81787	
0.993064	
0.781164	
0.816268	
0.760746	
0.879192	
0.686411	
0.6799	
0.563393	
0.554616	
0.557172	
0.770199	
0.816663	
0.753907	
0.616403	
0.595835	
0.588333	
0.632037	
0.599589	
0.560662	
0.593043	
0.77133	
0.848412	
0.794896	
0.587934	
0.54679	
0.5004	
0.685408	
0.45303	
0.545336	
0.597251	
0.599922	
0.619532	
0.762998	
0.468323	
0.461462	
0.71348	
0.461402	
0.55572	
0.742315	
0.718907	
0.711787	
0.750168	
0.839613	
0.758274	
0.619876	
0.597065	
0.818923	
0.700699	
0.376564	
0.510186	
0.660153	
0.795881	
0.802223	
0.795821	
0.834179	
0.652732	
0.687749	
0.736407	
0.686619	
0.686538	
0.533608	
0.523711	
0.541421	
0.528158	
0.785376	
0.82214	
0.771506	
0.805645	
0.764816	
0.924492	
0.910137	
0.69524	
0.678222	
0.718296	
0.768515	
0.655465	
0.614716	
0.58425	
0.831517	
0.7624	
0.882539	
0.80669	
0.861894	
0.722058	
0.859689	
0.553294	
0.501374	
0.463232	
0.648734	
0.632663	
0.664367	
0.640722	
0.90227	
0.875743	
0.840916	
0.790739	
0.6947	
0.719387	
0.710629	
0.725718	
0.837996	
0.811624	
0.797629	
0.819778	
0.400141	
0.387047	
0.683526	
0.726612	
0.687185	
0.620837	
0.682977	
0.612185	
0.72116	
0.949484	
0.813179	
0.931232	
0.909517	
0.837083	
0.940903	
0.926813	
0.970816	
0.560315	
0.574267	
0.632095	
0.600751	
0.632611	
0.784014	
0.773051	
0.752059	
0.765567	
0.734591	
0.685873	
0.739252	
0.689399	
0.723288	
0.736178	
0.755062	
0.787601	
0.842499	
0.906789	
0.563058	
0.582058	
0.607126	
0.590187	
0.785303	
0.842569	
0.724928	
0.722797	
0.737094	
0.623445	
0.634968	
0.592419	
0.623035	
0.692346	
0.697343	
0.648422	
0.554892	
0.575496	
0.491109	
0.661721	
0.661178	
0.661392	
0.662342	
0.829067	
0.79595	
0.779141	
0.771533	
0.592008	
0.687616	
0.825603	
0.799163	
0.561732	
0.551358	
0.809759	
0.826616	
0.875074	
0.808343	
0.800935	
0.815481	
0.78649	
0.758265	
0.754234	
0.744745	
1.03031	
1.1654	
1.07385	
1.2507	
0.211974	
0.225707	
0.108047	
0.152452	
0.644575	
0.577042	
0.654094	
0.586969	
0.70478	
0.671364	
0.690726	
0.668647	
0.844478	
0.85951	
0.747586	
0.755715	
0.533895	
0.460442	
0.483581	
0.460699	
0.79587	
0.737963	
0.701143	
0.70603	
0.666906	
0.675621	
0.654428	
0.66367	
0.7443	
0.781275	
0.757589	
0.768807	
0.734768	
0.752206	
0.724446	
0.268954	
0.729461	
0.723718	
0.59455	
0.614437	
0.607216	
0.236864	
0.338963	
0.5932	
0.564651	
0.524811	
0.494137	
0.464236	
0.633636	
0.611158	
0.586438	
0.529686	
0.301889	
0.408309	
0.301532	
0.820028	
0.794954	
0.940197	
0.750707	
0.761374	
0.825375	
0.676523	
0.655167	
0.674025	
0.624662	
0.900629	
0.935754	
1.07764	
1.17334	
0.768862	
0.720183	
0.654637	
0.621691	
0.639344	
0.649889	
0.651525	
0.483316	
0.464472	
0.684078	
0.701481	
0.782925	
0.787428	
0.378377	
0.324958	
0.375717	
0.663963	
0.668113	
0.660952	
1.74835	
1.232	
0.631065	
0.593972	
0.381664	
0.812387	
0.853199	
0.90206	
1.32	
0.537512	
0.539702	
0.64267	
0.626491	
0.305631	
0.276402	
0.363585	
0.36163	
0.735099	
0.730364	
0.676383	
0.681453	
0.994302	
0.908243	
0.495581	
0.4894	
0.884084	
0.726223	
0.65069	
0.648248	
0.591964	
0.623416	
0.695019	
0.682027	
0.827007	
0.767017	
0.893386	
0.766572	
0.847548	
0.71765	
0.375358	
0.335921	
0.277832	
0.264275	
0.554404	
0.544021	
0.537078	
0.528703	
0.401502	
0.43348	
-1.7186	
-3.24999	
-2.18921	
-2.20564	
-2.44635	
-1.58819	
0.557995	
2.32221	
0.303798	
0.555178	
-0.433943	
-0.43916	
0.437952	
-0.378362	
-0.444906	
-1.14993	
-0.633649	
-1.46571	
-1.37937	
-1.48919	
-1.07762	
-0.727003	
-1.4256	
-0.197798	
-0.051256	
-0.0709472	
-0.845614	
-1.22263	
-1.10392	
-1.04401	
-0.62841	
-0.740411	
-1.45342	
-2.1431	
-1.43496	
-1.38824	
-1.4806	
-1.32276	
-0.327403	
-2.06469	
-0.921927	
0.0180627	
0.163703	
-1.2406	
-1.38289	
0.278371	
0.719159	
-1.49282	
-0.740171	
0.119058	
-0.45559	
-1.2083	
-2.00442	
-0.989185	
-1.30814	
-1.39739	
-2.13	
-1.91249	
-0.460193	
-0.125195	
-0.843744	
-0.811168	
-1.47866	
-1.11805	
-1.39207	
-0.655933	
-0.910868	
-0.557794	
-0.781616	
-0.129098	
-0.989866	
-0.531941	
-0.993306	
-0.700562	
-1.76011	
-1.72261	
-0.276163	
-2.07593	
-1.27182	
-0.725716	
-0.35259	
-0.628223	
-1.22217	
-1.39839	
-1.45345	
-1.45572	
-1.37745	
-0.961247	
-1.37855	
-1.58521	
-1.45763	
-0.414958	
-0.579929	
-1.4854	
-1.47672	
0.238807	
-0.0583875	
0.175144	
0.160276	
-1.62182	
-2.16536	
-1.47368	
-2.06572	
-0.0187774	
-0.632407	
0.0995546	
0.192203	
-0.487713	
-0.517494	
-0.566465	
-0.617301	
-1.5837	
-1.67167	
-1.63065	
-1.57157	
0.264028	
-1.32271	
-0.604344	
0.386994	
-0.194145	
0.102446	
-1.38267	
-1.6383	
-0.472536	
1.17715	
1.59519	
0.514916	
-0.0881814	
-0.248034	
-0.00525227	
-0.359515	
-0.268107	
-1.58693	
-1.65261	
-1.74753	
-0.79199	
-0.933375	
-0.751996	
-0.968205	
-0.913272	
-0.345272	
0.329972	
-1.60696	
-1.72369	
-1.98944	
-1.7754	
-0.000611841	
0.0911116	
0.176405	
0.166452	
-0.941918	
-1.22507	
-1.13865	
-1.35553	
-0.399168	
-0.710942	
-0.124566	
-0.472926	
-1.46397	
-1.32402	
-1.43709	
-1.47405	
-1.42169	
-1.49508	
-1.30343	
-2.19024	
-1.50569	
-2.26602	
-2.15564	
-2.24895	
-2.02941	
-2.09586	
-1.88462	
-1.41185	
-1.32591	
0.232718	
0.433816	
0.388736	
-0.904498	
-0.929115	
-1.035	
-1.04679	
-0.984684	
-0.61994	
-0.800082	
-0.89298	
-1.30125	
1.04514	
1.19217	
1.3757	
0.00986113	
-0.0683224	
-1.4551	
-1.55665	
0.822624	
1.84112	
-1.78217	
-1.31977	
-1.21723	
-0.0917673	
-0.061659	
0.0357884	
0.400668	
0.355341	
0.266326	
0.311538	
0.712451	
0.340019	
0.320103	
0.257419	
-1.33056	
-2.36957	
-2.28163	
0.288457	
0.198276	
0.770696	
0.429954	
-0.365929	
-0.191344	
-1.38087	
-1.28189	
-1.24976	
-1.37019	
-1.34073	
-1.38115	
-1.44759	
-1.169	
-1.22227	
-1.32695	
-2.09329	
-1.63411	
-1.52867	
-1.47168	
-1.43589	
-1.43002	
0.063452	
0.00908143	
-1.10551	
-0.651257	
-0.910236	
-1.18742	
-0.0722113	
-0.318547	
0.204439	
-0.0667623	
-1.71102	
-1.55307	
-1.5894	
-1.5657	
-1.465	
-1.47001	
-1.52084	
-1.45189	
-1.43727	
-1.41929	
-1.43387	
-1.42804	
-2.47662	
-2.04431	
-2.04841	
-1.93112	
-0.193595	
-0.370699	
-0.190811	
-0.462962	
-0.966857	
-0.937562	
-1.0706	
-1.41279	
1.14438	
1.59754	
-0.541097	
-0.479284	
-0.603287	
-0.636772	
-0.813309	
-0.889203	
-0.887092	
-0.402208	
-2.28876	
-2.11419	
-0.750725	
-0.51661	
-0.708475	
-1.52459	
-1.08459	
-0.685341	
-0.596105	
-0.807901	
-0.835203	
-0.618271	
-0.353767	
-0.553202	
-0.752849	
-0.609049	
-1.16282	
-1.93927	
-1.45808	
-0.375827	
-0.256113	
-0.220701	
0.0469907	
-0.66735	
-1.30191	
-1.25721	
-0.97058	
0.276661	
-1.7251	
0.325963	
0.0685445	
-2.37668	
-3.02314	
0.499806	
0.604079	
1.24261	
1.41014	
-1.0814	
-1.24109	
-1.27806	
-1.42477	
-1.94407	
-1.81579	
-1.68733	
-1.8269	
-1.46931	
-1.63774	
-1.60544	
-2.06252	
-2.08635	
-1.24447	
-2.1839	
-1.9219	
-1.65057	
-2.40469	
-1.63535	
-2.1832	
-0.197837	
0.230591	
-1.52452	
-1.47653	
-1.52119	
-1.55268	
-1.31941	
-1.14087	
-1.25291	
-0.631203	
-0.568918	
0.675194	
1.06362	
0.176531	
0.761298	
-0.0159756	
0.414182	
0.529194	
0.145711	
0.532681	
0.268063	
-1.02201	
-0.460053	
-0.570573	
-1.39625	
-1.12678	
-1.20853	
-1.15868	
-1.23202	
-1.38313	
-1.44625	
-1.44339	
-1.8889	
-1.2915	
-1.21842	
-1.58785	
-1.27643	
-1.11303	
-1.22741	
-1.29716	
-0.43148	
-0.350406	
-0.596657	
-0.489916	
0.283771	
0.135465	
0.466615	
0.355007	
-1.18135	
-1.82185	
-0.685732	
-0.749202	
-0.772544	
-0.896923	
-1.39829	
-0.408978	
-0.238328	
-1.06241	
-1.20513	
-0.862641	
-0.805269	
0.0666009	
0.835999	
1.07401	
0.794929	
0.667165	
-0.982892	
-0.130881	
0.0540215	
-0.195006	
0.0456059	
-1.64882	
-1.23493	
-1.08631	
-0.883965	
-0.805425	
-0.902759	
-0.853168	
-0.870682	
-0.823561	
-0.986676	
-1.21466	
-1.06281	
-1.15905	
-0.977458	
-0.949597	
-2.08168	
-1.64359	
-1.4917	
-1.48794	
-1.68483	
-1.59956	
-1.51897	
-1.50209	
0.243437	
0.184708	
-0.307281	
-1.70942	
-2.37897	
-1.63173	
-2.30276	
-1.53058	
-1.50261	
-1.4016	
-1.47873	
-1.69599	
-0.105119	
-0.59456	
-0.636112	
-0.782212	
-0.806479	
-1.13021	
-1.41133	
-2.19065	
-2.67247	
-1.56742	
-1.48283	
-1.48529	
-1.46963	
0.40437	
0.0290538	
0.830035	
0.16513	
-1.47358	
-0.394563	
-1.16391	
-1.37822	
-0.60479	
-0.755885	
-1.15335	
-1.65953	
-1.1211	
-1.40706	
-1.76985	
-2.3682	
-1.63896	
-1.78903	
-0.518038	
-0.508731	
0.161668	
0.109806	
0.294317	
0.179762	
0.0959805	
0.0241823	
0.109989	
-2.14938	
-2.34702	
0.323239	
0.167621	
0.295804	
-1.07783	
-0.748422	
-0.758254	
-0.488042	
-0.997206	
-1.18373	
-0.86221	
-0.932197	
0.0262886	
-0.184783	
-0.0107332	
-0.15185	
-2.79438	
-2.78307	
-2.14261	
-0.440306	
-0.658843	
-0.683492	
-0.528361	
-1.53108	
-1.56508	
-1.81134	
-1.85836	
-1.72388	
-1.73519	
-0.678595	
-0.552571	
-0.520892	
-0.747007	
-0.69418	
-1.04164	
-1.36326	
-1.54085	
-1.80991	
-1.07432	
-1.00914	
-1.40994	
-1.1648	
-1.45857	
0.227324	
0.180507	
-0.0435835	
-0.219249	
-0.115698	
-0.278225	
-0.712403	
-0.870953	
-0.704149	
-0.869349	
-1.32227	
-0.968279	
-1.76465	
-1.22953	
-1.09593	
-1.24249	
-1.39081	
0.420065	
0.277745	
0.228253	
-1.42834	
-1.44542	
-1.50963	
-1.46069	
-1.42782	
-1.3362	
-1.34986	
-1.31778	
0.0161089	
-0.0483179	
0.201601	
0.281797	
-0.352505	
-0.368789	
-0.0405608	
-0.175935	
0.961538	
0.867014	
1.53243	
0.0700271	
0.330364	
0.734692	
-1.15187	
-1.20094	
-1.2352	
-1.23932	
-1.32936	
-1.31401	
-1.54423	
-1.50563	
-1.49223	
-1.45402	
-1.72371	
-1.75294	
-0.521649	
-0.484394	
-0.639538	
-0.718636	
-0.8218	
-0.840717	
-1.00088	
-1.08179	
-0.852805	
-0.831101	
-0.985005	
-1.08763	
-1.33586	
-1.41392	
-1.3715	
-1.44189	
-1.41631	
-1.345	
0.194715	
0.341152	
-1.06652	
-1.15286	
-1.13215	
-1.38626	
-1.32973	
-1.51476	
-2.23256	
-1.4047	
-1.40201	
0.319347	
-1.07533	
-1.0298	
-1.08748	
-1.4653	
-1.45229	
-1.63856	
-1.37778	
2.83304	
-1.13399	
-1.1933	
-1.05885	
-1.04884	
0.242148	
0.2391	
0.571919	
0.425922	
0.506545	
0.321816	
1.25286	
-1.29452	
-1.31624	
-1.58041	
-1.62286	
-1.56256	
0.387571	
-1.42758	
-1.57179	
-1.32565	
-1.3319	
0.244543	
0.205889	
-1.29661	
0.32205	
0.301713	
-1.05116	
-1.11637	
-0.984895	
-0.990974	
-1.07865	
-1.13853	
-2.0241	
-2.20822	
-1.23469	
-1.41566	
-1.11786	
-1.06963	
-0.985508	
-1.38207	
-1.171	
-1.27536	
-1.24706	
-1.50865	
-1.32398	
-1.19072	
-1.10076	
-1.16637	
-1.01411	
-1.08562	
-1.1403	
0.535596	
0.396573	
0.43131	
-1.50899	
0.223411	
0.141243	
0.141448	
0.193792	
0.192604	
-1.42325	
-1.41091	
-1.40944	
0.00405318	
0.0548603	
-0.0500772	
0.0261421	
-1.42046	
-1.34637	
-1.38931	
-1.42779	
-1.40859	
-1.60758	
-1.4112	
-1.7145	
-1.47383	
0.493468	
0.562791	
0.374252	
-2.25922	
-1.54524	
-2.40289	
-1.5875	
-1.30923	
0.170929	
-1.43805	
-1.41273	
1.36711	
0.875989	
0.937821	
0.313348	
-1.2391	
-1.06598	
-0.972858	
-0.621831	
-0.598976	
-0.373639	
-1.08465	
-1.11962	
-2.00723	
-1.54026	
-1.6291	
-1.57294	
-1.78954	
-0.204667	
-0.450351	
0.481267	
0.374502	
0.403037	
0.349133	
0.418062	
0.2419	
0.213301	
0.196394	
0.126103	
-1.75401	
-1.58578	
-1.68211	
-1.58908	
-1.27727	
-1.25787	
-1.41021	
-1.94015	
-2.01553	
0.136778	
0.0375953	
-0.276742	
-1.44095	
-1.59636	
-1.40646	
-1.58733	
-1.51842	
-1.41298	
-1.38841	
-1.32403	
-1.68655	
-1.71	
-1.5492	
-1.22851	
-1.31547	
-1.35027	
-1.48499	
-1.20372	
-1.14761	
-1.25579	
-1.12669	
0.720986	
0.222515	
-1.28863	
-1.34955	
-1.3664	
-1.5853	
-0.783459	
-1.0199	
-1.2612	
-1.28226	
-1.36547	
-1.34988	
-1.29554	
-1.33507	
-1.00083	
-1.15629	
-1.50365	
-1.4955	
-1.46278	
-1.45026	
-1.63486	
-1.56391	
-1.55943	
-1.51651	
-1.44936	
-1.64404	
-1.04582	
-1.0445	
-1.78232	
-2.14797	
-2.09757	
-1.63673	
-1.89118	
-1.72698	
-0.0867919	
-0.319171	
-0.347813	
0.25981	
0.180292	
-1.24098	
-1.28411	
-1.23451	
-0.330487	
-0.350993	
-0.26552	
-1.56538	
-1.49566	
-1.56777	
-1.50756	
-0.529447	
-0.454885	
-0.679966	
-0.747948	
-0.963183	
-1.33119	
-1.19471	
0.601354	
0.843448	
1.13097	
0.677022	
-0.17997	
-0.225523	
0.255479	
0.311429	
0.254259	
0.326119	
-1.70549	
-1.85811	
-1.68873	
-1.87908	
-0.658015	
-0.533716	
-0.214256	
1.85257	
2.80516	
-1.7472	
-1.90985	
-2.06227	
-2.59833	
-0.359996	
-0.271787	
-0.580547	
-0.411386	
0.459292	
0.460546	
0.264159	
0.261298	
0.176058	
-0.124813	
-0.318495	
0.1014	
-0.22665	
0.281836	
0.337062	
-1.40948	
-1.9471	
-1.3882	
-1.49557	
-0.53418	
-0.688575	
-0.628537	
-0.76557	
1.30876	
1.16238	
-1.81776	
-1.68859	
0.272919	
0.312459	
0.351628	
0.334253	
0.671178	
0.233307	
-0.0800817	
-0.146473	
-0.080344	
-0.0633421	
-0.0351862	
-0.0319576	
-0.0396667	
0.0197124	
0.0413836	
0.115359	
0.15665	
0.139852	
0.0777332	
-0.00552188	
-0.0914641	
-0.0823942	
-0.0884751	
-0.0808657	
-0.0675609	
0.154289	
-0.0319349	
0.133631	
0.0629309	
0.103088	
0.0177253	
-0.101164	
0.125019	
0.0857249	
-0.00256858	
-0.0719266	
0.0302632	
-0.169492	
-0.195398	
-0.225249	
-0.174663	
-0.202858	
-0.25808	
-0.132276	
0.113259	
0.0694049	
-0.173102	
-0.0631094	
-0.107216	
-0.00175743	
-0.128615	
-0.154623	
-0.150815	
-0.145567	
-0.163402	
-0.189091	
0.139341	
1.25396	
0.0935954	
1.1732	
1.14881	
1.08223	
1.44381	
0.49947	
0.466278	
0.470441	
0.488212	
0.649587	
0.186584	
0.0942873	
1.13964	
0.248308	
0.0795461	
0.20347	
1.29717	
2.54751	
0.386189	
0.459303	
0.965036	
0.709776	
0.903119	
0.663627	
0.640998	
0.826758	
0.801009	
0.413924	
0.459929	
0.467906	
0.678043	
0.310057	
0.742279	
0.770184	
0.755001	
0.89845	
0.757848	
0.559705	
0.662268	
0.715181	
0.812051	
0.794968	
0.989705	
0.794022	
0.827074	
0.864909	
0.84162	
0.796689	
0.826268	
0.770936	
0.844403	
0.822817	
0.418832	
0.441109	
0.755844	
0.740687	
0.82753	
0.772859	
1.0204	
0.812707	
0.932237	
0.666296	
0.812828	
0.501618	
0.781296	
0.794507	
0.724414	
0.744799	
0.93685	
1.01723	
0.728188	
0.774762	
0.92129	
0.738415	
0.744337	
0.842659	
0.939943	
0.947789	
0.76224	
0.766856	
0.784272	
0.602166	
1.08784	
0.88543	
0.333592	
0.982756	
0.781705	
0.405866	
0.928669	
0.816236	
0.847031	
1.00759	
0.797969	
0.84859	
0.794166	
0.779411	
0.537904	
0.697102	
0.766608	
1.09774	
0.863524	
0.634574	
0.818056	
0.777594	
0.835821	
0.780557	
0.628256	
0.56395	
0.557445	
0.788875	
0.768698	
0.697709	
0.652817	
0.685428	
0.77162	
0.823305	
0.76854	
0.809453	
1.00412	
0.82727	
0.81127	
0.788978	
0.812437	
0.810932	
0.814996	
0.801971	
0.835482	
0.784593	
0.794534	
0.799739	
0.807604	
0.871391	
0.91643	
0.840905	
0.854491	
0.577839	
0.666198	
0.908549	
0.795178	
0.345873	
0.932254	
0.994706	
0.222827	
0.808576	
0.635202	
0.651839	
0.674676	
0.678115	
0.755795	
0.697754	
0.725589	
0.402277	
0.214603	
0.185315	
0.277886	
1.58303	
0.651779	
0.584654	
0.293221	
1.14676	
1.04862	
0.726423	
0.897063	
0.843668	
1.09922	
0.798131	
0.797783	
0.865804	
0.780188	
2.47732	
2.65199	
0.716108	
0.57782	
0.740428	
0.620205	
0.77609	
0.781378	
0.457764	
0.531804	
0.62771	
0.534162	
0.444729	
0.733955	
0.787258	
0.749342	
0.501151	
0.525462	
0.539977	
0.689291	
0.388561	
0.364641	
0.407668	
0.44869	
0.457952	
0.51712	
0.513169	
0.475567	
0.4991	
0.545761	
0.576895	
0.906705	
0.839004	
0.832321	
0.410839	
0.3	
0.379618	
0.320348	
1.0495	
0.999403	
0.993221	
0.638843	
0.656667	
0.788595	
0.820255	
0.787898	
0.844866	
0.920942	
1.02444	
0.925941	
1.02923	
0.690281	
0.710523	
0.558761	
0.841994	
0.792925	
0.326857	
0.258726	
1.05017	
0.946039	
0.852375	
0.958305	
0.88572	
1.01007	
0.562465	
0.829224	
0.823634	
0.825756	
0.856093	
1.03664	
1.01663	
0.999385	
0.894485	
0.712617	
0.707502	
0.716058	
0.799617	
0.766589	
0.810967	
0.808473	
0.83301	
0.816465	
1.06587	
1.02372	
0.816165	
0.766571	
0.949067	
0.798792	
0.76038	
0.79794	
0.708262	
0.738564	
0.617428	
0.56057	
0.866974	
0.976535	
0.969248	
0.612147	
0.712862	
0.889448	
0.693994	
0.669193	
0.704749	
1.09308	
0.725123	
0.731837	
0.778547	
0.731838	
0.706612	
0.661638	
0.668012	
0.685827	
0.592216	
0.598748	
1.0437	
0.928378	
0.859245	
1.16395	
1.12172	
0.719844	
0.776419	
0.707536	
0.700167	
0.706918	
0.893797	
0.836524	
0.830422	
0.583737	
0.582941	
0.610096	
0.59772	
0.629382	
0.593081	
0.641529	
0.593703	
0.429603	
0.784995	
0.982764	
0.777866	
0.944191	
0.878725	
0.792761	
0.911419	
0.96962	
0.80519	
0.793872	
0.739435	
0.632064	
1.03779	
1.06505	
0.91643	
0.946785	
0.526166	
0.570063	
0.733818	
0.716179	
0.813551	
0.804251	
0.755645	
0.877365	
0.900673	
0.96213	
0.96583	
0.715261	
0.702695	
0.876389	
0.716624	
0.768238	
0.765139	
0.729958	
0.75092	
0.786101	
0.808323	
0.803444	
0.743619	
0.727012	
0.745672	
0.732945	
0.80506	
0.84795	
0.766486	
0.903466	
0.748198	
0.674006	
0.572718	
0.618452	
0.831595	
0.805953	
0.828786	
0.814045	
0.677354	
0.848211	
0.843688	
0.850134	
0.88509	
0.942968	
0.736157	
0.720313	
0.739038	
0.725491	
0.714416	
0.728408	
0.725184	
0.740048	
0.806115	
0.919928	
0.953838	
0.897325	
0.562137	
0.355602	
0.277094	
0.724574	
0.735025	
0.790504	
0.895049	
1.0364	
1.01066	
1.0237	
1.00661	
0.69471	
0.745255	
0.689782	
0.796501	
0.855295	
0.969774	
0.980243	
0.588749	
0.621854	
0.597049	
0.653315	
0.154286	
0.162488	
1.06525	
1.01006	
0.913323	
0.931575	
0.760981	
0.910313	
0.619309	
0.542677	
0.574897	
0.573709	
0.585204	
0.601792	
0.679469	
0.586794	
0.625693	
0.668443	
0.718602	
0.711582	
0.773092	
0.700526	
0.733397	
0.253793	
0.302352	
0.346725	
0.777648	
0.833671	
0.776416	
0.799839	
0.857651	
0.970662	
0.988117	
0.425722	
0.77146	
0.706536	
0.771415	
0.713768	
0.597841	
0.541825	
0.744071	
0.685195	
0.823714	
0.825049	
0.856765	
0.842097	
0.866734	
0.817489	
0.853346	
0.821938	
0.869605	
0.855867	
0.99339	
0.903696	
0.897191	
0.890728	
0.934871	
0.966204	
0.996245	
1.0301	
0.872753	
0.99543	
0.672428	
0.641728	
1.07072	
0.980409	
0.848168	
0.822553	
0.849964	
0.902798	
0.852494	
0.891154	
0.80069	
1.21259	
0.759772	
0.787273	
0.842512	
0.831059	
0.808503	
0.84519	
0.86834	
0.767169	
0.729353	
0.854339	
0.815648	
0.834255	
0.877743	
0.53202	
0.485305	
0.538202	
0.486113	
0.649278	
0.678639	
0.662774	
0.291369	
0.345491	
0.731602	
0.722288	
0.294843	
0.247725	
0.584193	
0.568409	
0.679591	
0.629874	
0.761429	
0.772423	
0.745855	
0.74484	
0.760612	
0.777859	
0.664272	
0.622915	
0.63289	
0.704473	
0.619573	
0.616114	
0.632425	
0.748488	
0.7231	
0.735121	
0.697691	
0.819064	
0.798346	
0.783217	
0.751983	
0.855973	
0.816353	
0.87905	
0.839403	
0.98031	
0.655737	
0.639175	
0.590791	
0.514671	
1.0442	
1.15515	
1.07551	
1.01919	
1.05773	
0.979851	
0.86159	
1.04397	
0.996135	
1.05522	
1.01056	
0.854728	
0.861525	
0.834811	
0.921695	
0.595135	
0.610878	
0.586775	
0.79527	
0.812053	
0.847352	
0.651542	
0.632653	
1.03509	
0.653686	
0.62131	
0.585983	
0.612169	
0.823262	
0.872664	
0.602714	
0.724731	
0.576231	
0.506499	
0.616734	
0.662202	
0.635313	
0.478759	
0.413398	
0.868606	
0.647576	
0.436262	
0.499367	
1.11046	
1.02434	
0.780271	
0.770796	
0.791497	
0.617757	
0.638968	
0.790007	
0.797286	
0.268163	
0.719253	
0.791817	
0.821883	
0.780325	
0.782271	
0.670102	
0.711938	
0.869582	
0.830294	
0.836668	
0.576385	
0.567356	
0.568128	
0.554085	
0.84692	
0.8852	
0.854215	
0.889422	
0.943212	
0.730612	
0.929759	
0.716064	
0.697217	
1.17686	
1.89141	
1.01392	
0.664979	
0.740706	
1.0027	
0.860831	
0.820724	
0.47199	
0.740741	
0.813233	
0.896886	
0.916679	
0.827856	
0.865686	
0.75115	
0.732286	
0.756426	
0.744542	
0.846585	
0.878919	
0.895883	
0.867546	
0.383376	
0.393884	
0.750364	
0.708346	
0.843133	
0.807506	
0.780531	
0.781419	
0.726994	
0.935435	
0.84436	
0.709924	
0.651924	
0.747104	
0.687536	
0.935544	
0.925128	
0.966195	
0.855334	
0.954274	
0.844242	
0.975173	
0.94603	
0.655916	
0.630529	
0.660025	
0.605026	
0.621205	
0.777725	
0.724755	
0.892876	
0.732775	
0.814402	
0.805875	
0.933776	
0.970657	
0.604868	
0.607756	
0.614157	
0.630366	
0.794118	
0.775751	
0.671951	
0.662437	
0.656893	
0.644449	
0.820642	
0.843092	
0.779408	
0.779437	
0.784472	
0.570213	
0.668056	
0.505322	
0.593743	
0.72755	
0.743419	
0.681625	
0.768481	
0.820649	
0.921991	
0.772116	
0.784164	
0.820449	
0.799085	
0.820091	
0.852598	
0.784743	
1.02962	
0.785467	
0.573989	
0.584688	
0.889941	
0.82265	
0.856703	
0.84213	
0.82441	
0.837226	
0.817393	
0.826102	
0.783688	
0.796327	
1.17237	
1.04115	
1.43832	
1.08189	
0.216394	
0.227421	
0.136762	
0.079447	
0.652292	
0.679319	
0.640793	
0.649651	
0.692191	
0.729737	
0.69058	
0.711477	
0.906618	
0.879256	
0.82062	
0.814404	
0.581542	
0.599768	
0.600672	
0.538784	
0.762517	
0.822284	
0.729165	
0.710951	
0.778305	
0.692849	
0.865844	
0.750762	
0.810859	
0.836179	
0.867672	
0.921891	
0.903406	
0.883237	
0.868193	
0.88656	
0.997363	
1.03595	
0.284138	
0.778179	
0.776318	
0.636895	
0.644957	
0.644783	
0.711658	
0.789602	
0.518495	
0.567604	
0.591536	
0.69081	
0.314015	
0.383038	
0.365952	
0.247416	
0.19906	
0.188278	
0.556102	
0.676569	
0.672499	
0.334383	
0.298028	
0.44449	
0.175983	
0.252994	
0.392855	
0.2858	
0.286731	
0.787457	
0.852798	
0.789801	
0.854638	
0.905456	
0.830955	
0.703136	
0.785787	
0.515845	
0.495169	
0.525897	
0.681137	
0.660915	
0.693019	
0.686248	
0.763552	
0.75189	
0.792971	
0.84885	
0.31093	
0.362412	
0.730457	
0.747895	
0.750339	
1.09348	
1.30675	
0.622765	
0.657963	
0.729162	
0.325413	
0.383473	
0.404819	
0.336491	
0.415758	
0.92045	
0.869835	
0.844108	
1.06537	
0.552562	
0.550226	
0.334737	
0.377424	
0.863507	
0.727057	
0.711865	
0.710602	
0.328121	
0.370639	
0.270256	
0.335487	
0.159819	
0.226204	
0.242495	
0.794247	
1.12582	
0.737104	
0.865436	
0.927908	
0.86274	
0.865113	
0.818288	
0.483697	
0.4402	
0.520455	
0.482551	
0.752691	
0.772366	
0.671593	
0.656714	
0.0953868	
0.225531	
0.175897	
0.522802	
0.46672	
0.57009	
0.470354	
0.549168	
0.550127	
0.572039	
0.56741	
0.204185	
0.136216	
0.201163	
0.132165	
0.4271	
0.469972	
0.462636	
-1.80382	
-3.25637	
-2.20272	
-2.4963	
-3.1518	
0.577163	
2.2808	
0.304406	
0.409292	
-0.468453	
-0.596753	
0.453338	
-0.46877	
-0.53731	
-1.21003	
-0.646238	
-1.63118	
-1.67961	
-1.13889	
-0.777454	
-1.59446	
-1.76041	
-0.176837	
-0.0385444	
-0.054084	
-0.992599	
-1.36837	
-1.20098	
-1.09155	
-0.771138	
-0.71701	
-1.6253	
-1.65378	
-1.5798	
-1.64648	
-1.5313	
-1.74936	
-0.334897	
-2.13002	
-0.944458	
0.0347603	
0.193564	
-1.2476	
-1.43169	
0.381216	
1.02483	
-1.4629	
-0.766812	
0.120097	
-0.521918	
-1.26082	
-1.29787	
-1.26398	
-1.32428	
-1.55344	
-2.28226	
-2.27255	
-0.55382	
-0.192985	
-0.799778	
-0.82311	
-1.63332	
-1.70546	
-1.1452	
-0.703371	
-0.856232	
-0.664422	
-0.879761	
-0.389628	
-0.997432	
-0.70155	
-1.3585	
-0.649139	
-1.41801	
-1.61424	
-0.279931	
-1.07068	
-1.43715	
-0.705469	
-0.600766	
-0.331299	
-1.90186	
-2.3491	
-1.58131	
-1.42075	
-0.922788	
-1.40892	
-1.35943	
-1.36785	
-0.421239	
-0.583014	
-1.52457	
-1.55846	
0.501564	
-0.0272118	
0.18977	
0.141496	
-1.60738	
-2.11234	
-1.65026	
-2.15701	
-0.011329	
0.101631	
0.166876	
-0.733853	
-0.682695	
-0.635703	
-0.600127	
-1.56223	
-1.78101	
-1.68548	
-1.79285	
0.261027	
-1.36265	
-0.743392	
0.386098	
-0.190573	
0.0980947	
-1.22693	
-1.7386	
-0.59014	
1.68701	
0.899493	
0.545692	
-0.0879124	
-0.00437023	
-0.0696904	
-0.366686	
-0.26831	
-1.61606	
-1.34006	
-1.47268	
-1.34813	
-1.01155	
-0.824443	
-1.03527	
-0.861159	
-0.34159	
0.30904	
-2.01749	
-1.84471	
-1.71599	
-1.58421	
0.0688929	
0.0450744	
0.156057	
0.168766	
-1.18487	
-1.40499	
-0.978007	
-1.02201	
-0.12101	
-0.751473	
-0.123744	
-0.699108	
-2.24746	
-1.48882	
-1.27831	
-1.65391	
-1.76708	
-1.83357	
-1.30163	
-1.70802	
-1.49554	
-2.05141	
-1.39938	
-2.30356	
-1.95859	
-1.43513	
-1.41906	
-1.6424	
-1.88256	
0.36958	
0.417333	
-1.0239	
-0.924139	
-1.05784	
-0.753691	
-1.00292	
-0.947739	
-0.929216	
-0.636939	
-1.44299	
1.17137	
1.30686	
0.0174779	
-0.0609838	
-1.92682	
-1.95305	
1.85417	
0.836519	
-1.32214	
-1.21472	
-1.3686	
-0.156856	
0.00593985	
-0.110567	
0.359155	
0.414371	
0.246085	
0.281409	
0.910484	
0.32569	
0.345687	
0.260737	
-1.54582	
-2.52823	
-2.48522	
0.833739	
0.466456	
0.59372	
0.226974	
-0.594321	
-0.297808	
-1.43042	
-1.51428	
-1.4752	
-1.48782	
-1.31975	
-1.29936	
-1.56838	
-1.27469	
-1.34469	
-1.46866	
-1.72508	
-2.23454	
-1.65854	
-1.58691	
-1.59635	
-1.57909	
-0.062196	
-3.43753e-05	
-1.07606	
-0.891858	
-0.710127	
-1.24826	
-0.0690896	
-0.328331	
-0.25569	
0.206755	
-1.68558	
-1.80728	
-1.72905	
-1.70826	
-1.68838	
-1.70823	
-1.87036	
-2.30305	
-1.58505	
-1.58547	
-1.56968	
-1.56334	
-2.0825	
-2.23052	
-1.93118	
-2.09953	
-0.350626	
-0.468571	
-0.185224	
-0.372993	
-1.06556	
-1.13366	
-1.52103	
-1.20977	
1.5978	
1.41828	
-0.557797	
-0.716371	
-0.762721	
-0.882559	
-0.715639	
-0.413819	
-0.599159	
-0.625929	
-0.911957	
-2.20142	
-2.41106	
-0.725375	
-0.681002	
-0.501934	
-1.02088	
-0.826555	
-0.773151	
-0.696586	
-0.608025	
-0.556337	
-0.347184	
-0.911474	
-1.14645	
-0.567708	
-0.770533	
-0.197759	
-0.00545145	
-0.347057	
-0.244035	
-1.01037	
-1.24523	
-1.31794	
-1.30425	
0.278933	
-1.70684	
0.0849579	
0.34043	