<VTKFile type="UnstructuredGrid" version="0.1" byte_order="LittleEndian">
	<UnstructuredGrid>
		<Piece NumberOfPoints="1917" NumberOfCells="3602">
			<CellData Scalars="scalars">
				<DataArray type="Float64" Name="Doublet Strengths" NumberOfComponents="1" Format="ascii">
1.93004	
0.441882	
1.66921	
1.65126	
1.56558	
3.30864	
1.11818	
1.13258	
1.07433	
1.06441	
1.19942	
0.457864	
0.194497	
2.96405	
0.553408	
0.20735	
0.396411	
3.02502	
0.799668	
1.34644	
1.22143	
1.2725	
1.29116	
0.789478	
0.891573	
0.844479	
1.18345	
0.660502	
1.27223	
1.32801	
1.25767	
1.43103	
1.27752	
1.09397	
1.26499	
1.20761	
1.30281	
1.44087	
1.37832	
1.48325	
1.48334	
1.43855	
1.31467	
1.38511	
1.35057	
1.39603	
1.32099	
1.40025	
1.28326	
0.842681	
0.883134	
1.26155	
1.29591	
1.22272	
1.24443	
1.79776	
1.27077	
1.24099	
1.18333	
1.28879	
0.884273	
1.30198	
1.34325	
1.24802	
1.30016	
1.35257	
1.39875	
1.27973	
1.29285	
1.30978	
1.24547	
1.27467	
1.25018	
1.34328	
1.30456	
1.41739	
0.978643	
1.99206	
0.832416	
0.624406	
1.27685	
1.24534	
1.34456	
0.785979	
1.32581	
1.43009	
1.28665	
1.48422	
1.2522	
1.27622	
1.25709	
1.16145	
1.22265	
1.15517	
1.21867	
1.13607	
1.33961	
1.34475	
1.05977	
1.2008	
1.26795	
1.1886	
1.37393	
1.30563	
1.22351	
1.24578	
1.26705	
1.29573	
1.35391	
1.31271	
1.37838	
1.36348	
1.34905	
1.43516	
1.32659	
1.27819	
1.29809	
1.27759	
1.30107	
1.28595	
1.26414	
1.26789	
1.25219	
1.24148	
1.25623	
1.76036	
1.44854	
1.49454	
1.41022	
1.26813	
0.946887	
1.40639	
1.41914	
0.634005	
1.43318	
1.5156	
1.28576	
1.27655	
1.20579	
1.22445	
1.20741	
1.29738	
1.24892	
1.24373	
0.775955	
0.392505	
0.456397	
0.578431	
1.67458	
2.11776	
1.56258	
1.08129	
1.21309	
0.607245	
0.486584	
1.64591	
1.53196	
1.31295	
1.36215	
0.689439	
1.56059	
1.46044	
1.31692	
1.25708	
1.21776	
3.3242	
3.24536	
1.1076	
1.10157	
1.09147	
1.0459	
1.35796	
1.43614	
1.12847	
1.11398	
1.16254	
1.22442	
1.03326	
0.866488	
0.835834	
1.32181	
1.30438	
1.28889	
1.17015	
1.13127	
1.01138	
1.27154	
0.748254	
0.952818	
0.801725	
0.597578	
0.649764	
0.726104	
0.876993	
0.917087	
0.956054	
0.987527	
0.841998	
0.873015	
0.991368	
1.11337	
1.30667	
1.36902	
1.30094	
0.735018	
0.713095	
0.770163	
0.731592	
1.6508	
1.9889	
1.4912	
1.43465	
1.48549	
1.23022	
1.17054	
0.761301	
0.659594	
1.37141	
1.33702	
1.42869	
1.368	
1.55109	
1.45128	
1.55289	
1.47185	
0.983612	
1.00793	
0.532775	
1.54097	
1.44536	
1.31622	
1.25241	
1.27739	
1.24493	
1.12616	
1.38213	
1.40099	
1.42842	
1.35765	
1.51179	
1.45764	
1.59604	
1.57012	
1.22304	
1.27444	
1.20439	
1.19628	
1.32859	
1.36138	
1.36609	
1.32793	
1.28634	
1.28894	
1.28259	
1.54771	
1.48254	
1.52762	
1.46408	
0.472963	
0.495182	
1.45979	
1.3032	
1.34032	
1.30734	
1.51915	
1.05266	
1.09615	
0.963002	
1.35115	
1.42879	
1.43052	
1.27956	
1.40075	
1.16767	
1.15716	
1.16788	
1.24513	
1.29788	
1.32617	
1.36314	
1.4813	
1.24962	
1.27396	
1.24966	
1.28456	
0.94003	
1.03267	
1.34569	
1.52393	
1.43603	
1.60658	
1.65833	
1.255	
1.19179	
1.27576	
1.47278	
1.33191	
1.41606	
1.49846	
1.10829	
1.09461	
1.10588	
1.35398	
1.16826	
1.49383	
1.18823	
0.975808	
0.77445	
1.26206	
1.46602	
1.43784	
1.34054	
1.40398	
1.26831	
1.36884	
1.42668	
1.48178	
1.31196	
0.995119	
1.14604	
1.44744	
1.56033	
1.5461	
1.56571	
1.13449	
1.14133	
1.18569	
1.23669	
1.21338	
1.38093	
1.34214	
1.30526	
1.36934	
1.36972	
1.43242	
1.46648	
1.16772	
1.24696	
1.19258	
1.24295	
1.25639	
1.29121	
1.24416	
1.3036	
1.23779	
1.2452	
1.28633	
1.24551	
1.28436	
1.23942	
1.40632	
1.37009	
1.57197	
1.35575	
1.29141	
1.12024	
1.25437	
1.33769	
1.16334	
1.34	
1.32532	
1.39858	
1.32996	
1.18488	
1.55193	
1.51886	
1.45457	
1.55512	
1.21381	
1.22536	
1.22907	
1.24604	
1.2445	
1.22401	
1.2675	
1.25995	
1.54641	
1.41495	
1.40724	
1.49987	
1.33156	
1.24799	
0.678324	
0.510671	
1.36486	
1.34136	
1.30354	
1.40708	
1.2965	
1.26454	
1.25034	
1.25293	
1.20841	
1.19268	
1.21934	
1.18516	
1.27414	
1.25374	
1.33937	
1.25741	
1.18737	
1.17552	
1.18224	
1.18689	
0.399843	
0.365887	
1.52748	
1.62272	
1.37486	
1.41688	
1.33405	
1.43115	
1.09557	
1.22588	
1.13919	
1.1815	
1.21148	
1.41172	
1.38745	
1.26067	
1.52399	
1.10162	
1.0783	
1.22495	
1.18459	
1.32311	
1.28427	
0.529228	
0.690271	
0.595674	
1.37416	
1.31588	
1.37052	
1.32433	
1.40008	
1.52517	
1.5035	
1.04242	
0.95881	
0.924231	
1.17813	
1.17666	
1.24346	
1.18237	
1.19529	
0.985573	
1.16004	
1.04823	
1.30548	
1.29984	
1.33377	
1.32971	
1.2723	
1.26209	
1.26466	
1.25097	
1.33135	
1.49893	
1.39333	
1.50547	
1.66378	
1.60347	
1.58593	
1.51572	
1.58678	
1.44948	
1.55966	
1.51879	
1.25309	
1.22573	
1.26041	
1.44623	
1.47201	
1.66808	
1.42906	
1.50034	
1.35636	
1.16872	
1.21312	
1.37808	
1.35499	
1.37841	
1.37318	
1.37349	
1.41563	
1.43091	
1.30308	
1.31542	
1.38032	
1.41116	
0.901802	
0.797719	
0.910192	
0.849946	
1.28922	
1.21819	
0.748528	
0.635029	
1.23163	
1.22233	
0.579348	
0.487526	
1.14223	
1.18612	
1.22004	
1.21658	
1.27946	
1.32905	
1.28312	
1.34475	
1.24852	
1.25309	
1.33646	
1.18404	
1.22174	
1.27482	
1.27694	
1.23113	
1.19089	
1.33454	
1.26978	
1.33929	
1.31591	
1.36455	
1.32717	
1.43499	
1.37303	
1.4153	
1.38692	
1.37508	
1.35662	
1.1768	
1.02584	
1.09601	
1.00258	
1.0351	
1.77602	
1.64424	
1.53578	
1.56604	
1.55695	
1.47394	
1.34917	
1.54901	
1.50063	
1.33669	
1.53598	
1.30996	
1.33994	
1.29907	
1.39672	
1.20504	
1.20443	
1.0671	
1.07441	
1.09137	
1.32059	
1.36762	
1.28558	
1.18548	
1.19195	
1.28402	
1.24198	
1.20969	
1.10655	
1.14862	
1.2995	
1.36658	
1.31395	
1.20527	
1.01701	
0.941138	
1.13234	
0.771689	
0.849988	
1.15354	
1.19706	
1.22093	
1.36053	
0.878687	
0.838931	
1.28886	
0.8398	
1.08199	
1.27725	
1.24117	
1.23621	
1.34317	
1.60553	
1.35727	
1.22975	
1.22658	
1.3695	
1.2627	
0.641942	
0.745402	
1.28816	
1.38753	
1.42983	
1.42534	
1.60855	
1.24441	
1.29928	
1.2754	
1.25514	
1.24356	
1.04311	
1.04474	
1.04038	
1.04163	
1.32168	
1.3572	
1.30465	
1.3369	
1.31533	
1.44154	
1.41355	
1.33567	
1.31811	
1.24892	
1.30858	
1.1558	
1.07704	
1.02612	
1.36323	
1.29911	
1.40555	
1.38545	
1.42598	
1.30717	
1.43356	
1.30866	
1.17261	
0.997696	
1.20458	
1.19206	
1.25969	
1.20885	
1.4242	
1.3973	
1.35938	
1.32701	
1.25248	
1.29494	
1.28952	
1.29677	
1.39555	
1.37593	
1.34971	
1.36357	
0.83907	
0.872173	
1.21482	
1.2444	
1.28328	
1.133	
1.1955	
1.12468	
1.2262	
1.49449	
1.35666	
1.47449	
1.44763	
1.46084	
1.52487	
1.49442	
1.52763	
1.07396	
1.11095	
1.2007	
1.13239	
1.16995	
1.31727	
1.31869	
1.30427	
1.3214	
1.31492	
1.25628	
1.28981	
1.25469	
1.28516	
1.29148	
1.33367	
1.36689	
1.42702	
1.47953	
1.15632	
1.20386	
1.22162	
1.20522	
1.31319	
1.36552	
1.23915	
1.23834	
1.25234	
1.24678	
1.24063	
1.19878	
1.22982	
1.24386	
1.2314	
1.17381	
1.115	
1.10667	
0.980744	
1.29622	
1.32805	
1.29061	
1.29361	
1.49601	
1.42737	
1.4015	
1.38696	
1.06939	
1.27863	
1.42544	
1.44652	
0.977169	
0.95904	
1.3664	
1.37605	
1.5156	
1.3631	
1.37628	
1.39025	
1.34347	
1.38686	
1.31668	
1.32063	
1.53573	
1.65684	
1.57432	
1.72937	
0.402617	
0.417152	
0.220814	
0.290834	
1.17485	
1.09944	
1.16706	
1.11743	
1.37359	
1.28047	
1.27013	
1.26053	
1.38618	
1.40001	
1.30464	
1.31928	
0.97335	
0.863472	
0.938113	
0.903854	
1.45145	
1.32869	
1.30383	
1.28633	
1.25125	
1.24204	
1.24473	
1.23044	
1.30639	
1.30691	
1.28366	
1.3501	
1.3104	
1.33843	
1.29147	
0.454806	
1.24503	
1.23779	
1.14793	
1.15083	
1.13194	
0.391945	
0.571699	
1.13361	
1.05512	
1.04403	
0.990029	
0.927719	
0.980982	
0.91885	
0.862359	
1.07805	
0.534433	
0.725457	
0.533085	
1.39455	
1.33178	
1.50313	
1.30521	
1.32409	
1.38461	
1.23232	
1.21502	
1.22916	
1.16487	
1.43874	
1.45859	
1.62718	
1.7261	
1.41476	
1.29959	
1.19271	
1.14605	
1.17582	
1.18924	
1.18434	
0.819792	
0.761939	
1.28738	
1.28685	
1.34849	
1.37666	
0.663076	
0.583395	
0.68691	
1.27304	
1.27561	
1.27393	
2.27282	
1.84164	
1.21965	
1.13413	
0.725504	
1.3757	
1.40423	
1.43588	
1.92234	
1.12043	
1.15868	
1.18586	
1.15855	
0.419566	
0.447711	
0.580618	
0.588734	
1.28935	
1.28796	
1.23836	
1.27469	
1.58654	
1.55908	
0.935267	
0.895904	
1.42328	
1.26965	
1.19785	
1.19323	
1.22117	
1.27119	
1.3403	
1.32197	
1.40846	
1.34372	
1.43941	
1.23636	
1.43137	
1.21692	
0.633921	
0.579817	
0.491211	
0.465216	
1.12386	
1.08679	
1.10009	
1.06722	
0.892894	
0.897896	
-2.61902	
-4.15686	
-3.24731	
-3.22378	
-3.56973	
-2.03441	
1.01822	
2.71654	
0.75414	
1.09576	
-0.710499	
-0.908347	
0.93158	
-0.807009	
-0.958658	
-1.50817	
-1.06498	
-2.55853	
-2.6121	
-2.65293	
-2.08832	
-1.1937	
-2.596	
-0.39501	
-0.0211624	
-0.196337	
-1.43805	
-2.16637	
-1.9626	
-1.70188	
-1.06354	
-1.23534	
-2.59749	
-3.29277	
-2.57605	
-2.41708	
-2.50594	
-2.27444	
-0.499717	
-3.18264	
-1.5685	
0.113704	
0.358309	
-2.06585	
-2.31616	
0.529674	
1.04575	
-2.38414	
-1.16872	
0.296656	
-0.742144	
-1.85819	
-2.79818	
-1.51154	
-2.08879	
-2.73686	
-3.2674	
-2.88818	
-0.683454	
-0.172926	
-1.28012	
-1.27975	
-2.65983	
-1.74434	
-2.13172	
-1.09058	
-1.44083	
-0.950085	
-1.29601	
-0.229472	
-1.47731	
-0.917414	
-1.60731	
-1.23104	
-2.66205	
-2.69894	
-0.362107	
-2.70106	
-1.84312	
-1.13477	
-0.614029	
-1.00478	
-1.95575	
-2.47874	
-2.61348	
-2.61544	
-2.31727	
-1.40934	
-2.34625	
-2.50232	
-2.39186	
-0.699538	
-1.02117	
-2.5193	
-2.58602	
0.473302	
-0.0360824	
0.458107	
0.436635	
-2.63422	
-3.09255	
-2.37832	
-2.94368	
0.103254	
-0.927942	
0.137529	
0.403994	
-0.830757	
-0.862981	
-0.95578	
-1.02307	
-2.56708	
-2.66007	
-2.68888	
-2.45363	
0.687746	
-2.20104	
-1.19402	
0.871772	
-0.212051	
0.330105	
-2.05252	
-2.746	
-0.801887	
1.52504	
1.81756	
0.624986	
0.0329613	
-0.307958	
0.172816	
-0.503084	
-0.403041	
-2.34361	
-2.50435	
-2.6711	
-1.53781	
-1.63798	
-1.36008	
-1.70888	
-1.70901	
-0.457035	
0.42544	
-2.51462	
-2.51087	
-2.83222	
-2.4918	
0.125594	
0.310358	
0.496969	
0.464624	
-1.46729	
-1.93237	
-1.75673	
-2.00655	
-0.597395	
-1.00717	
-0.251545	
-0.700564	
-2.3761	
-2.12232	
-2.58586	
-2.69548	
-2.5567	
-2.70927	
-1.66032	
-2.99532	
-2.53621	
-2.98001	
-2.85408	
-2.85815	
-2.6194	
-2.7983	
-2.53312	
-2.23954	
-2.08635	
0.578093	
0.849926	
0.82004	
-1.53141	
-1.56363	
-1.463	
-1.63222	
-1.53119	
-1.06965	
-1.44337	
-1.52382	
-2.05874	
1.38561	
1.54314	
1.83216	
0.160314	
-0.00606202	
-2.66716	
-2.85204	
1.29565	
2.24696	
-2.53781	
-2.17036	
-2.16507	
-0.0931918	
-0.0297903	
0.181647	
1.01031	
0.936006	
0.666444	
0.767939	
1.09349	
0.794348	
0.731767	
0.611413	
-2.37688	
-3.5388	
-3.44307	
0.334214	
0.194986	
0.931167	
0.512398	
-0.743369	
-0.296602	
-2.6806	
-2.47704	
-2.1834	
-2.51107	
-2.34609	
-2.49453	
-2.48976	
-2.30298	
-2.3428	
-2.51902	
-3.06248	
-2.70846	
-2.5951	
-2.66887	
-2.59814	
-2.57931	
0.29737	
0.0877214	
-1.57036	
-1.0955	
-1.53392	
-1.59049	
-0.0341197	
-0.446275	
0.453375	
0.01395	
-2.71383	
-2.57592	
-2.56257	
-2.60943	
-2.59171	
-2.69894	
-2.67373	
-2.64027	
-2.53684	
-2.52308	
-2.5181	
-2.54077	
-3.44378	
-3.00125	
-3.1442	
-3.00103	
-0.350568	
-0.647412	
-0.371786	
-0.816078	
-1.72849	
-1.61261	
-1.81429	
-2.06202	
1.25657	
1.87231	
-1.08282	
-0.995754	
-1.24112	
-1.16049	
-1.33496	
-1.2369	
-1.26869	
-0.546699	
-3.59897	
-3.31313	
-1.09675	
-0.740764	
-1.05393	
-2.16319	
-1.60614	
-1.22875	
-1.05733	
-1.41469	
-1.503	
-1.06841	
-0.606475	
-0.799249	
-1.1069	
-0.861202	
-1.60666	
-2.95609	
-2.61974	
-0.667506	
-0.490264	
-0.432962	
-0.0622703	
-1.30633	
-2.17601	
-2.25859	
-1.99787	
0.724228	
-2.80113	
0.347614	
-0.0154299	
-3.43471	
-4.07578	
0.536936	
0.660543	
1.39576	
1.58059	
-1.61873	
-1.93918	
-1.76609	
-2.05088	
-2.68105	
-2.5014	
-2.74849	
-2.54348	
-2.44092	
-2.63846	
-2.6945	
-3.02655	
-2.67415	
-1.86883	
-2.78809	
-2.48958	
-2.4729	
-3.07593	
-2.48379	
-2.98596	
-0.300336	
0.24013	
-2.89941	
-2.71396	
-2.87071	
-2.96146	
-2.4685	
-2.17116	
-2.39817	
-0.963465	
-0.937157	
0.967698	
1.49119	
0.177684	
0.816349	
-0.124338	
0.389106	
0.747797	
0.179754	
0.685199	
0.242389	
-1.91522	
-0.745409	
-0.753356	
-2.60228	
-1.95178	
-2.08158	
-1.94504	
-2.08142	
-2.4716	
-2.61424	
-2.44024	
-2.93548	
-2.49539	
-2.35622	
-2.15947	
-1.99178	
-1.8836	
-1.99534	
-2.04212	
-0.627282	
-0.479956	
-0.892601	
-0.704363	
0.608139	
0.381228	
0.907511	
0.771882	
-2.09052	
-2.74244	
-1.31138	
-1.39302	
-1.46277	
-1.64495	
-2.52497	
-0.720432	
-0.40461	
-1.68056	
-1.97071	
-1.73487	
-1.58756	
0.239585	
1.11828	
1.20798	
0.979184	
0.741096	
-1.91471	
-0.259906	
0.102587	
-0.350345	
-0.0220869	
-3.01116	
-2.25689	
-1.66478	
-1.41084	
-1.30234	
-1.49641	
-1.4282	
-1.49505	
-1.44367	
-1.64249	
-1.87539	
-1.7546	
-1.85625	
-1.78526	
-1.79894	
-3.105	
-2.82574	
-2.60248	
-2.63983	
-2.78914	
-2.65347	
-2.54848	
-2.53229	
0.600006	
0.454079	
-0.481744	
-2.70033	
-3.08879	
-2.46814	
-2.97107	
-2.662	
-2.66717	
-2.47804	
-2.79806	
-2.96056	
-0.133234	
-1.17976	
-1.26542	
-1.23587	
-1.24917	
-1.70382	
-1.99382	
-3.22717	
-3.72455	
-2.77609	
-2.5696	
-2.64352	
-2.59962	
0.490716	
-0.0654291	
0.90869	
0.120612	
-2.17953	
-0.672422	
-1.7987	
-2.22401	
-0.914928	
-1.14078	
-1.74244	
-2.30875	
-1.5739	
-1.96737	
-3.06986	
-3.56568	
-2.91648	
-2.98208	
-1.08361	
-1.03185	
0.384575	
0.265131	
0.33387	
0.155567	
0.21732	
0.0479482	
0.0606739	
-3.27989	
-3.64771	
0.396369	
0.318106	
0.575611	
-1.486	
-1.07587	
-1.06325	
-0.725826	
-1.52375	
-1.64401	
-1.32186	
-1.31714	
0.0903608	
-0.209669	
0.0967406	
-0.141338	
-3.88826	
-3.84226	
-3.23097	
-0.717045	
-1.11988	
-1.15499	
-0.889363	
-2.28913	
-2.33959	
-2.77604	
-2.86442	
-2.65168	
-2.71249	
-1.25487	
-1.07041	
-1.02552	
-1.3209	
-1.27896	
-1.52689	
-1.90266	
-2.07291	
-2.38831	
-1.69889	
-1.65808	
-2.12557	
-1.91354	
-2.51041	
0.539426	
0.352687	
0.0188887	
-0.316368	
-0.142991	
-0.394665	
-1.39316	
-1.68129	
-1.39261	
-1.68494	
-2.03899	
-1.52705	
-2.38184	
-1.81394	
-1.91733	
-2.34976	
-2.5246	
0.909724	
0.608117	
0.496087	
-2.35701	
-2.42547	
-2.42767	
-2.38623	
-2.66777	
-2.48244	
-2.35628	
-2.37564	
0.0694107	
-0.0942367	
0.333691	
0.406276	
-0.634815	
-0.664701	
-0.160647	
-0.350767	
1.21915	
1.11321	
2.02481	
0.190816	
0.668759	
1.24178	
-1.8264	
-1.94011	
-2.10007	
-2.08099	
-2.27233	
-2.32884	
-2.6908	
-2.49641	
-2.55021	
-2.41277	
-3.14608	
-3.03388	
-0.865362	
-0.805277	
-1.07163	
-1.21079	
-1.34472	
-1.35268	
-1.58521	
-1.64816	
-1.3854	
-1.3502	
-1.56615	
-1.70227	
-2.45114	
-2.56652	
-2.55303	
-2.6946	
-2.61686	
-2.45128	
0.544103	
0.832821	
-2.0639	
-2.24952	
-2.20545	
-2.67238	
-2.52664	
-2.91745	
-3.44627	
-2.60762	
-2.54393	
0.780273	
-2.06626	
-1.97802	
-2.0066	
-2.48844	
-2.47225	
-2.77619	
-2.45752	
3.17902	
-2.17576	
-2.3118	
-2.03826	
-2.0315	
0.547137	
0.514888	
0.952415	
0.799685	
0.806459	
0.571981	
1.69097	
-2.31092	
-2.36345	
-2.74553	
-2.97386	
-2.95188	
0.922414	
-2.54067	
-2.70403	
-2.37528	
-2.37716	
0.612217	
0.491568	
-2.33188	
0.794046	
0.754753	
-1.8172	
-1.86298	
-1.69219	
-1.7448	
-1.84689	
-1.99967	
-2.75541	
-2.99801	
-2.26549	
-2.62187	
-1.72336	
-1.60392	
-1.49388	
-2.5919	
-2.27568	
-2.46418	
-2.45573	
-2.25731	
-2.06085	
-1.84331	
-1.70053	
-2.11899	
-1.92554	
-1.97828	
-2.08085	
0.963363	
0.774477	
0.928687	
-2.22759	
0.497589	
0.395939	
0.393337	
0.50007	
0.517778	
-2.47826	
-2.51427	
-2.54792	
0.0815659	
0.200393	
-0.0107146	
0.146932	
-2.49863	
-2.35678	
-2.40407	
-2.48466	
-2.52752	
-2.84819	
-2.60231	
-2.8932	
-2.6717	
1.00113	
1.03536	
0.686424	
-3.40593	
-2.83866	
-3.55643	
-2.8358	
-1.94994	
0.398686	
-2.40531	
-2.37382	
1.7899	
1.28557	
1.31625	
0.768385	
-2.22016	
-2.02663	
-1.86341	
-0.859456	
-0.841003	
-0.485457	
-2.11407	
-2.10321	
-3.20927	
-2.60594	
-2.68007	
-2.65547	
-2.94672	
-0.171809	
-0.579332	
1.08899	
0.940366	
0.913383	
0.863543	
1.02723	
0.630339	
0.577922	
0.517578	
0.368948	
-2.79468	
-2.62513	
-2.66804	
-2.55605	
-2.30192	
-2.24823	
-2.66711	
-2.99573	
-3.06793	
0.24365	
0.112525	
-0.307103	
-2.6219	
-2.81497	
-2.05515	
-2.13009	
-2.33499	
-2.24632	
-2.47799	
-2.36129	
-2.23066	
-2.23105	
-2.0112	
-2.12503	
-2.18286	
-2.30318	
-2.36102	
-2.11838	
-2.03791	
-2.18049	
-1.96976	
0.98269	
0.457823	
-2.05208	
-2.18023	
-2.18381	
-2.56053	
-1.0961	
-1.31025	
-1.88797	
-1.92871	
-2.32637	
-2.36109	
-2.30331	
-2.39893	
-1.40957	
-1.56703	
-2.69861	
-2.74475	
-2.64557	
-2.61217	
-2.5406	
-2.49717	
-2.46637	
-2.46816	
-2.00448	
-2.26982	
-1.67201	
-1.67842	
-2.65267	
-3.1298	
-3.06958	
-2.45618	
-2.81095	
-2.57642	
-0.123898	
-0.480522	
-0.555096	
0.661774	
0.480416	
-2.24413	
-2.3213	
-2.29672	
-0.558777	
-0.541202	
-0.424946	
-2.33722	
-2.19997	
-2.35577	
-2.13993	
-0.68561	
-0.559997	
-0.865558	
-1.01789	
-1.30208	
-2.34689	
-2.20011	
0.996899	
1.33362	
1.6386	
1.15629	
-0.272638	
-0.3607	
0.595791	
0.706323	
0.552128	
0.74659	
-2.75409	
-2.94221	
-2.66108	
-2.86531	
-1.06961	
-0.875825	
-0.417358	
2.1197	
3.12023	
-2.88052	
-2.99107	
-3.19784	
-3.63324	
-0.484751	
-0.328552	
-0.87206	
-0.564035	
0.841756	
0.733021	
0.586367	
0.452656	
0.421833	
-0.284594	
-0.565326	
0.0425405	
-0.435031	
0.591697	
0.574506	
-2.19625	
-2.80354	
-2.17182	
-2.38707	
-0.843902	
-1.10478	
-1.05305	
-1.26654	
1.80984	
1.60911	
-2.7325	
-2.55487	
0.600727	
0.594103	
0.895705	
0.843059	
0.854789	
0.497825	
0.00838013	
-0.0971819	
-0.165058	
-0.13634	
-0.0589454	
-0.0372189	
-0.0919638	
0.0605057	
0.0997837	
0.229297	
0.323982	
0.281047	
0.161675	
0.0104072	
-0.191657	
-0.173839	
-0.133502	
-0.151733	
-0.0892065	
0.326192	
-0.0270912	
0.279833	
0.139561	
0.215198	
0.0619548	
-0.205495	
0.286439	
0.206914	
0.0355912	
-0.0831151	
0.0967504	
-0.249115	
-0.290985	
-0.379255	
-0.35081	
-0.384542	
-0.380043	
-0.178564	
0.254782	
0.16542	
-0.248709	
-0.0682555	
-0.145233	
0.0328445	
-0.260526	
-0.315116	
-0.297386	
-0.29627	
-0.297706	
-0.293764	
0.307136	
1.73196	
0.188807	
1.67381	
1.65693	
1.59105	
1.97939	
1.09157	
1.01928	
1.05016	
1.08156	
1.22384	
0.35179	
0.18812	
1.64631	
0.540159	
0.157897	
0.371235	
1.83058	
2.97409	
0.782471	
1.00709	
1.45599	
1.35132	
1.39228	
1.28289	
1.04612	
1.34275	
1.31809	
0.709138	
0.780074	
0.796635	
1.11927	
0.55502	
1.25431	
1.32077	
1.34558	
1.45867	
1.25308	
1.05708	
1.26522	
1.31199	
1.41593	
1.40097	
1.51861	
1.49218	
1.3393	
1.40483	
1.41208	
1.337	
1.35036	
1.3394	
1.40604	
1.35191	
0.785608	
0.794624	
1.29773	
1.29852	
1.39438	
1.36452	
1.63369	
1.33945	
1.44334	
1.21379	
1.3417	
0.846935	
1.28068	
1.41161	
1.29435	
1.33608	
1.43197	
1.47472	
1.27255	
1.29913	
1.43511	
1.31368	
1.30222	
1.44735	
1.40194	
1.38972	
1.22355	
1.21436	
1.3522	
0.983046	
1.57035	
1.20334	
0.595774	
1.49872	
1.34398	
0.737149	
1.455	
1.32637	
1.36824	
1.52366	
1.32519	
1.37072	
1.31289	
1.34021	
1.08491	
1.12205	
1.15885	
1.54183	
1.44265	
1.10842	
1.34031	
1.35653	
1.38379	
1.16997	
1.0177	
1.08797	
1.08838	
1.25333	
1.25344	
1.20971	
1.17472	
1.21373	
1.28994	
1.35188	
1.2715	
1.33152	
1.47457	
1.33393	
1.28575	
1.42843	
1.33844	
1.33083	
1.35811	
1.32718	
1.37508	
1.29238	
1.31502	
1.32047	
1.33277	
1.41635	
1.46574	
1.55983	
1.57167	
0.968329	
1.03441	
1.42711	
1.31859	
0.595537	
1.44635	
1.5232	
0.399893	
1.32283	
1.16283	
1.20512	
1.1933	
1.21961	
1.35088	
1.25318	
1.28656	
0.723157	
0.388469	
0.340482	
0.495055	
2.1159	
1.23302	
1.09517	
0.521119	
1.65374	
1.56074	
1.27314	
1.3388	
1.40862	
1.67298	
1.38571	
1.3073	
1.40493	
1.28566	
2.90127	
3.08388	
1.09879	
0.960259	
1.14639	
1.08223	
1.38501	
1.46482	
1.03258	
1.09888	
1.0294	
0.826346	
0.755976	
1.32166	
1.37969	
1.32106	
1.11257	
1.14482	
0.936167	
1.26568	
0.677388	
0.640788	
0.703529	
0.769768	
0.783462	
0.885443	
0.870426	
0.79868	
0.83882	
0.897513	
0.938814	
1.4297	
1.38398	
1.36821	
0.711618	
0.533058	
0.667697	
0.573064	
1.61888	
1.46812	
1.44015	
1.15671	
1.17678	
1.36181	
1.39603	
1.39263	
1.57758	
1.47615	
1.56991	
1.49351	
1.58936	
1.05383	
1.24102	
1.00057	
1.38584	
1.3728	
0.542487	
0.446373	
1.55143	
1.45771	
1.38745	
1.46781	
1.42697	
1.52861	
1.10217	
1.42865	
1.36541	
1.38063	
1.39574	
1.61217	
1.57319	
1.61728	
1.47566	
1.17517	
1.16852	
1.19216	
1.37474	
1.34525	
1.36246	
1.38813	
1.37422	
1.35815	
1.59074	
1.55687	
1.47243	
1.36669	
1.46428	
1.32889	
1.29486	
1.57202	
1.35127	
1.14385	
1.02079	
0.934168	
1.40064	
1.48839	
1.48082	
1.16717	
1.26492	
1.39995	
1.13053	
1.08206	
1.15949	
1.61882	
1.35324	
1.48701	
1.32738	
1.34528	
1.33101	
1.24345	
1.2449	
1.26609	
0.891957	
0.983503	
1.57666	
1.48327	
1.39278	
1.66436	
1.62674	
1.25044	
1.24019	
1.16949	
1.27502	
1.29431	
1.47547	
1.41807	
1.4193	
1.01969	
1.00036	
1.05238	
1.12842	
1.1507	
1.13113	
1.16849	
0.992112	
0.729774	
1.29575	
1.4646	
1.32357	
1.44762	
1.39053	
1.31476	
1.41979	
1.45929	
1.28017	
1.29034	
1.12535	
1.01361	
1.5772	
1.59623	
1.47243	
1.50375	
1.11601	
1.11093	
1.41819	
1.29448	
1.38357	
1.35328	
1.30707	
1.32698	
1.33513	
1.40743	
1.40343	
1.14106	
1.13502	
1.31327	
1.16333	
1.31792	
1.33041	
1.2925	
1.32006	
1.29818	
1.3296	
1.31522	
1.24022	
1.20336	
1.22612	
1.20517	
1.2847	
1.31857	
1.23464	
1.37574	
1.33629	
1.12424	
1.14146	
1.31105	
1.42783	
1.35772	
1.37421	
1.35397	
1.22085	
1.57532	
1.47538	
1.45111	
1.46716	
1.53971	
1.19804	
1.18477	
1.21898	
1.19847	
1.19467	
1.21329	
1.20617	
1.21374	
1.44781	
1.50397	
1.55424	
1.50311	
1.11781	
0.628273	
0.470189	
1.36047	
1.39042	
1.35151	
1.42138	
1.54806	
1.53394	
1.53443	
1.52888	
1.22389	
1.27546	
1.20349	
1.35262	
1.39882	
1.49691	
1.50627	
1.11192	
1.14594	
1.12125	
1.17153	
0.286953	
0.294931	
1.62802	
1.53409	
1.44024	
1.44907	
1.31277	
1.43871	
1.18574	
1.10113	
1.17805	
1.11306	
1.12693	
1.16778	
1.26635	
1.13103	
1.16811	
1.09307	
1.15069	
1.19136	
1.34384	
1.2793	
1.31899	
0.507183	
0.568116	
0.657649	
1.3094	
1.36673	
1.32126	
1.35521	
1.42036	
1.49476	
1.51793	
0.745166	
1.2049	
1.1324	
1.21251	
1.12944	
1.00018	
0.902982	
1.12021	
1.04238	
1.35185	
1.35633	
1.39342	
1.38019	
1.46881	
1.35261	
1.39598	
1.35236	
1.42625	
1.3954	
1.54169	
1.44717	
1.52653	
1.6765	
1.6789	
1.59566	
1.5698	
1.60219	
1.44253	
1.5721	
1.25006	
1.21857	
1.65302	
1.49391	
1.37975	
1.34627	
1.43582	
1.51052	
1.47772	
1.52427	
1.37765	
1.68104	
1.34187	
1.39703	
1.40212	
1.38474	
1.39232	
1.45367	
1.43842	
1.34125	
1.31405	
1.43033	
1.39791	
1.53787	
1.47175	
0.884839	
0.814955	
0.870818	
0.797998	
1.22484	
1.29262	
1.2358	
0.617713	
0.727657	
1.35631	
1.31076	
0.522982	
0.439113	
1.14267	
1.12474	
1.25165	
1.21439	
1.36486	
1.35393	
1.37249	
1.28917	
1.27997	
1.30534	
1.27402	
1.2186	
1.22376	
1.3037	
1.18358	
1.20164	
1.20739	
1.34708	
1.32519	
1.34108	
1.27722	
1.4483	
1.38807	
1.37613	
1.32774	
1.40667	
1.40255	
1.44544	
1.41275	
1.47486	
0.995644	
0.964979	
0.995534	
0.873675	
1.60005	
1.67272	
1.60468	
1.56132	
1.59302	
1.58935	
1.39316	
1.56797	
1.53285	
1.58278	
1.55161	
1.3708	
1.38646	
1.36693	
1.44504	
1.03316	
1.04128	
1.06229	
1.32031	
1.35813	
1.39456	
1.15888	
1.15234	
1.57257	
1.23176	
1.19728	
1.0784	
1.15903	
1.35433	
1.38811	
1.17782	
1.08874	
0.955232	
0.859101	
1.17294	
1.18527	
1.19767	
0.795081	
0.713494	
1.42607	
1.21731	
0.725402	
0.758165	
1.76883	
1.71024	
1.3573	
1.33659	
1.38712	
1.2099	
1.21174	
1.31268	
1.34126	
0.48151	
1.23527	
1.35954	
1.40287	
1.30833	
1.33264	
1.22274	
1.27949	
1.39724	
1.35107	
1.34632	
1.00798	
1.02045	
0.985678	
1.01431	
1.35897	
1.39242	
1.37045	
1.40248	
1.41979	
1.24323	
1.38847	
1.32394	
1.30244	
1.79266	
2.36303	
1.45041	
1.07128	
1.16168	
1.52635	
1.39869	
1.38472	
0.988059	
1.25828	
1.33585	
1.41567	
1.43649	
1.34259	
1.38021	
1.32746	
1.31112	
1.3223	
1.32557	
1.37255	
1.40174	
1.43388	
1.41101	
0.855358	
0.813842	
1.21953	
1.19338	
1.36925	
1.33005	
1.2933	
1.29356	
1.30244	
1.60081	
1.48058	
1.16803	
1.10374	
1.19535	
1.13403	
1.44771	
1.43254	
1.48304	
1.38435	
1.50556	
1.41785	
1.51018	
1.48861	
1.18754	
1.1107	
1.14928	
1.09219	
1.13192	
1.29626	
1.24306	
1.40581	
1.25012	
1.37866	
1.38012	
1.48934	
1.53134	
1.19345	
1.1754	
1.19801	
1.2146	
1.35857	
1.35199	
1.24868	
1.25554	
1.23554	
1.21288	
1.33468	
1.36118	
1.2846	
1.28469	
1.29282	
1.11514	
1.17569	
0.986135	
1.11424	
1.31752	
1.30383	
1.28054	
1.34494	
1.39789	
1.46988	
1.32091	
1.35317	
1.36774	
1.37484	
1.44418	
1.44349	
1.38876	
1.50521	
1.38381	
0.948414	
0.964618	
1.49546	
1.34366	
1.37774	
1.35945	
1.37873	
1.38906	
1.36624	
1.36653	
1.34543	
1.34196	
1.66246	
1.54516	
1.92493	
1.58144	
0.380951	
0.388292	
0.253477	
0.159581	
1.08027	
1.13658	
1.08193	
1.09117	
1.26943	
1.29211	
1.2524	
1.26125	
1.42375	
1.39878	
1.35425	
1.34418	
0.928116	
0.910786	
0.944184	
0.857618	
1.32754	
1.452	
1.28246	
1.27907	
1.30119	
1.21445	
1.37538	
1.265	
1.33104	
1.35739	
1.4148	
1.56822	
1.44335	
1.43844	
1.41628	
1.43263	
1.52251	
1.55336	
0.519654	
1.28262	
1.28395	
1.22112	
1.18939	
1.18903	
1.31037	
1.47522	
1.10168	
1.20449	
1.17396	
1.32906	
0.567438	
0.677115	
0.647245	
0.443633	
0.363827	
0.338869	
1.0723	
1.28484	
1.29393	
0.595404	
0.542767	
0.853728	
0.327485	
0.454208	
0.683772	
0.497021	
0.500121	
1.29478	
1.33554	
1.26172	
1.39038	
1.44108	
1.35943	
1.29747	
1.52134	
1.13397	
1.0557	
1.07288	
1.24474	
1.20594	
1.24737	
1.23793	
1.31046	
1.32034	
1.33142	
1.38559	
0.551117	
0.626327	
1.26261	
1.27992	
1.30999	
1.60271	
1.79542	
1.17661	
1.25507	
1.0018	
0.575174	
0.668401	
0.700685	
0.56497	
0.673903	
1.44981	
1.41241	
1.31134	
1.55248	
1.15611	
1.11206	
0.59735	
0.658193	
1.39992	
1.27924	
1.30362	
1.27771	
0.584762	
0.655679	
0.490199	
0.590781	
0.301704	
0.417111	
0.446776	
1.27457	
1.66367	
1.24786	
1.35676	
1.42775	
1.38676	
1.36113	
1.32004	
0.832508	
0.776591	
0.90473	
0.827704	
1.28206	
1.35507	
1.20655	
1.20424	
0.196835	
0.41685	
0.331696	
0.937257	
0.888239	
1.06328	
0.905401	
1.04675	
1.03545	
1.09582	
1.05973	
0.37731	
0.259732	
0.375229	
0.258284	
0.918573	
0.894904	
0.964941	
-2.76043	
-4.16127	
-3.25826	
-3.45948	
-4.10909	
1.04455	
2.68347	
0.754718	
0.899774	
-0.798571	
-1.09031	
0.925738	
-0.879785	
-1.03721	
-1.57587	
-1.11382	
-2.67596	
-2.73514	
-2.04462	
-1.23413	
-2.73998	
-2.72555	
-0.346146	
0.00393599	
-0.163945	
-1.61326	
-2.36367	
-2.03659	
-1.73336	
-1.25055	
-1.18785	
-2.66427	
-2.70986	
-2.61806	
-2.63931	
-2.51827	
-2.89916	
-0.498024	
-3.23837	
-1.56902	
0.142055	
0.399614	
-2.05916	
-2.32586	
0.643365	
1.44333	
-2.27687	
-1.1816	
0.301386	
-0.790818	
-1.89551	
-2.13582	
-1.95723	
-2.08903	
-2.83406	
-3.40228	
-3.2643	
-0.737168	
-0.228994	
-1.2274	
-1.27348	
-2.77972	
-2.33951	
-1.7572	
-1.17448	
-1.38634	
-1.08657	
-1.37963	
-0.579822	
-1.5889	
-1.21202	
-1.87375	
-1.03981	
-2.27746	
-2.5377	
-0.353894	
-1.64692	
-2.08894	
-1.08946	
-0.947107	
-0.565834	
-2.61215	
-3.45061	
-2.70302	
-2.29207	
-1.36515	
-2.29636	
-2.26937	
-2.28567	
-0.691444	
-1.00566	
-2.5283	
-2.63155	
0.678759	
0.0344716	
0.482502	
0.410747	
-2.56307	
-2.96867	
-2.63842	
-3.0984	
0.0869094	
0.156683	
0.411135	
-1.17783	
-1.08467	
-0.989881	
-0.93798	
-2.43438	
-2.82361	
-2.6343	
-2.7599	
0.69544	
-2.20638	
-1.30574	
0.8696	
-0.200097	
0.333523	
-1.88726	
-2.82552	
-1.1823	
1.91653	
1.15571	
0.668017	
0.0431659	
0.182525	
0.0196691	
-0.497193	
-0.390073	
-2.52006	
-2.08138	
-2.25182	
-2.07573	
-1.73362	
-1.4509	
-1.76833	
-1.50921	
-0.441532	
0.434023	
-2.73942	
-2.54633	
-2.61324	
-2.45027	
0.294066	
0.289973	
0.46332	
0.501058	
-1.78803	
-2.04112	
-1.48922	
-1.53116	
-0.240528	
-1.04731	
-0.216708	
-0.986588	
-3.31848	
-2.34286	
-2.02232	
-2.78461	
-2.94887	
-3.00797	
-1.65812	
-2.22952	
-2.49957	
-2.65223	
-2.04498	
-2.94587	
-2.62988	
-2.22974	
-2.10815	
-2.44351	
-2.50332	
0.794374	
0.858841	
-1.64822	
-1.51575	
-1.63049	
-1.07106	
-1.53642	
-1.72626	
-1.54403	
-1.07157	
-2.21249	
1.53361	
1.77277	
0.178259	
0.012547	
-3.12651	
-3.26839	
2.26413	
1.31521	
-2.27063	
-1.99628	
-2.34076	
-0.181177	
0.152585	
-0.0808024	
0.945493	
1.03684	
0.64956	
0.716865	
1.31403	
0.734687	
0.799414	
0.614089	
-2.46358	
-3.68228	
-3.62884	
1.0037	
0.560896	
0.756628	
0.23708	
-0.80255	
-0.4482	
-2.54218	
-2.7377	
-2.52499	
-2.56495	
-2.22075	
-2.21373	
-2.5712	
-2.35047	
-2.40969	
-2.60561	
-2.76526	
-3.13597	
-2.68659	
-2.69211	
-2.71032	
-2.65366	
0.0133263	
0.0927948	
-1.53735	
-1.53224	
-1.18885	
-1.66413	
-0.0237773	
-0.446465	
-0.30613	
0.461845	
-2.67538	
-2.78222	
-2.74264	
-2.66676	
-2.77541	
-2.78008	
-3.01453	
-3.37437	
-2.61481	
-2.62576	
-2.61704	
-2.59972	
-3.03098	
-3.24343	
-2.90583	
-3.18778	
-0.616936	
-0.805496	
-0.328327	
-0.634991	
-1.78328	
-1.86622	
-2.15467	
-1.96595	
1.88597	
1.60221	
-1.0027	
-1.21557	
-1.36811	
-1.40592	
-1.23474	
-0.547735	
-0.877831	
-0.866443	
-1.28108	
-3.38792	
-3.70771	
-1.06411	
-1.01831	
-0.716972	
-1.53648	
-1.41325	
-1.36355	
-1.22111	
-1.05209	
-0.897859	
-0.573219	
-1.24706	
-1.58653	
-0.802943	
-1.11314	
-0.376485	
-0.0907721	
-0.589334	
-0.453117	
-1.5756	
-2.09332	
-2.15538	
-1.99354	
0.739956	
-2.73067	
0.0226755	
0.38187	
-4.25873	
-4.28461	
0.690703	
0.940423	
1.28435	
1.42114	
-1.74373	
-2.02993	
-1.61082	
-1.73933	
-2.54543	
-2.90769	
-2.58647	
-2.50991	
-2.7712	
-2.77295	
-3.15141	
-3.28488	
-1.8721	
-2.54683	
-2.01134	
-2.71069	
-2.84609	
-2.388	
-3.01208	
-2.42809	
0.338394	
-0.29884	
0.244034	
-3.17439	
-3.22325	
-3.0719	
-3.65435	
-2.34832	
-2.51435	
-2.98156	
-1.02115	
-1.03602	
1.51794	
1.14837	
0.768271	
0.202485	
0.422872	
-0.0235973	
0.383871	
0.283672	
0.836218	
0.468879	
-1.90057	
-0.627499	
-0.901573	
-2.65005	
-2.10701	
-1.86274	
-2.09528	
-1.95357	
-2.66696	
-2.38484	
-2.70652	
-2.46611	
-2.4124	
-2.55349	
-2.55719	
-1.89886	
-2.18882	
-2.16006	
-0.865995	
-0.681569	
-0.607727	
-0.463186	
0.39512	
0.621758	
0.598547	
0.925384	
-1.49668	
-1.43296	
-1.72097	
-1.62393	
-1.93033	
-2.83147	
-1.06863	
-0.502889	
-1.75002	
-2.0853	
-1.96528	
-1.70809	
0.212743	
1.23733	
0.999914	
0.846244	
1.0034	
-2.12304	
-0.34441	
0.0539045	
-0.256157	
0.159855	
-3.25369	
-2.20123	
-2.4873	
-1.74953	
-1.52504	
-1.47258	
-1.50842	
-1.58157	
-1.61433	
-1.58002	
-1.83716	
-1.97248	
-1.72986	
-1.77814	
-2.07283	
-1.96567	
-3.08023	
-2.96296	
-2.95628	
-3.02472	
-2.57298	
-2.59918	
-2.62908	
-2.86057	
0.458616	
0.605362	
-2.76034	
-2.90902	
-2.66843	
-2.9301	
-2.69994	
-2.8372	
-2.67488	
-2.96189	
-3.20455	
-0.247408	
-1.42657	
-1.36166	
-1.16902	
-1.12104	
-1.78446	
-1.554	
-4.0902	
-4.02839	
-2.73598	
-2.64411	
-2.8241	
-2.71241	
0.0774409	
0.527183	
0.155561	
0.568479	
-2.19163	
-1.07599	
-2.12424	
-1.8994	
-1.14456	
-0.914464	
-2.15899	
-1.75961	