<VTKFile type="UnstructuredGrid" version="0.1" byte_order="LittleEndian">
	<UnstructuredGrid>
		<Piece NumberOfPoints="1917" NumberOfCells="3602">
			<CellData Scalars="scalars">
				<DataArray type="Float64" Name="Doublet Strengths" NumberOfComponents="1" Format="ascii">
2.77723	
0.661649	
2.56805	
2.53039	
2.44241	
3.90376	
2.00996	
2.0078	
1.90016	
1.89004	
2.04826	
0.680199	
0.334607	
3.63624	
0.975924	
0.363547	
0.654046	
3.62616	
1.3862	
2.44197	
2.24959	
1.93719	
2.18608	
1.28622	
1.47529	
1.41537	
1.91147	
1.07794	
2.04417	
2.0808	
2.02069	
2.30765	
2.05808	
1.99341	
2.3286	
2.17805	
2.33067	
2.6174	
2.24662	
2.42047	
2.2534	
2.51964	
2.17886	
2.26511	
2.26125	
2.22075	
2.11419	
2.23487	
2.12636	
1.40169	
1.42242	
2.14509	
2.2678	
2.06691	
2.10115	
2.55664	
2.11333	
2.11836	
2.00023	
2.13007	
1.47253	
2.11648	
2.16202	
2.05252	
2.13975	
2.10966	
2.17105	
2.20457	
2.08144	
2.1101	
1.99927	
2.03659	
2.00145	
2.08445	
2.08173	
2.17267	
1.57983	
2.81049	
1.43451	
0.955149	
2.16094	
2.11382	
2.25331	
1.27941	
2.19801	
2.29182	
2.1231	
2.39116	
2.17686	
2.18571	
2.11406	
2.01092	
1.89277	
1.86326	
1.92237	
1.94774	
2.31937	
2.29587	
1.72181	
1.87301	
2.06163	
1.98118	
2.10431	
2.06604	
2.04701	
2.04483	
2.05568	
2.07313	
2.20557	
2.08358	
2.18007	
2.15434	
2.06964	
2.26494	
2.26433	
2.14845	
2.17716	
2.1354	
2.29031	
2.18608	
2.14458	
2.11947	
2.12136	
2.07649	
2.10177	
2.44384	
2.17643	
2.27617	
2.13152	
1.93001	
1.52563	
2.21266	
2.21414	
1.06124	
2.33884	
2.38402	
2.16393	
2.07182	
1.99979	
2.00801	
2.00226	
2.09573	
2.0535	
2.0336	
1.50458	
0.662561	
0.755925	
0.962925	
2.34042	
2.83912	
2.30655	
1.81612	
2.05955	
0.99081	
0.797123	
2.52463	
2.39827	
2.22597	
2.14115	
1.09051	
2.3707	
2.42624	
2.12408	
2.1519	
2.16498	
3.95695	
3.90442	
1.83063	
1.78459	
1.74819	
1.70619	
2.21685	
2.42047	
1.97751	
1.98304	
1.99328	
2.07746	
1.68867	
1.38562	
1.38308	
2.36573	
2.32893	
2.26727	
2.05449	
2.0428	
1.61753	
2.25269	
1.22879	
1.47873	
1.3167	
0.991403	
1.07204	
1.19215	
1.43931	
1.49321	
1.55488	
1.59728	
1.39537	
1.41919	
1.61127	
1.733	
2.1986	
2.25104	
2.19738	
1.28746	
1.15928	
1.30841	
1.21931	
2.57052	
3.03342	
2.2863	
2.21688	
2.31165	
2.02749	
1.9609	
1.26734	
1.09197	
2.21179	
2.17137	
2.25506	
2.21006	
2.4247	
2.32177	
2.43168	
2.33656	
1.72305	
1.7627	
0.927997	
2.40443	
2.32533	
2.19046	
2.12667	
2.14773	
2.09838	
2.0729	
2.24528	
2.26902	
2.32364	
2.21994	
2.37945	
2.33906	
2.45474	
2.43689	
1.98621	
2.10462	
1.93435	
1.93166	
2.1415	
2.20111	
2.20544	
2.36059	
2.18888	
2.18089	
2.16587	
2.41098	
2.32861	
2.38548	
2.23957	
0.711379	
0.784302	
2.31987	
2.18456	
2.21866	
2.10509	
2.27163	
1.76604	
1.77153	
1.59372	
2.27403	
2.33728	
2.34859	
2.08694	
2.16467	
1.85052	
1.88477	
1.9086	
2.22254	
2.2854	
2.36208	
2.41405	
2.74136	
2.2213	
2.29802	
2.24469	
2.35457	
1.43239	
1.58728	
2.23826	
2.41249	
2.3212	
2.481	
2.53632	
1.99601	
1.93292	
2.25376	
2.44304	
2.3242	
2.32288	
2.42232	
1.85419	
1.93543	
1.87324	
2.12916	
1.96684	
2.24543	
1.98421	
1.70016	
1.23927	
2.15458	
2.32168	
2.3666	
2.24521	
2.27533	
2.19133	
2.24276	
2.19793	
2.26979	
2.1146	
1.74571	
1.88642	
2.33871	
2.43491	
2.42826	
2.4373	
2.00504	
1.94618	
2.02087	
2.01149	
1.98728	
2.21757	
2.10706	
2.06257	
2.11913	
2.14416	
2.19084	
2.24398	
1.88727	
1.98667	
1.92489	
1.98679	
2.06495	
2.10123	
2.04967	
2.11057	
2.13265	
2.15479	
2.02732	
2.00636	
2.03148	
1.97481	
2.17474	
2.22958	
2.38065	
2.12436	
2.30367	
1.80891	
1.93573	
2.57645	
2.15883	
2.20188	
2.17154	
2.38731	
2.19472	
2.01043	
2.39435	
2.36789	
2.31032	
2.38816	
1.95668	
1.95775	
1.97469	
1.99694	
2.00128	
1.98018	
2.0221	
2.01283	
2.47834	
2.35013	
2.38437	
2.48715	
2.18664	
2.26058	
1.19625	
0.808248	
2.33468	
2.31442	
2.33112	
2.72626	
2.17319	
2.10942	
2.12244	
2.10068	
2.02335	
1.9746	
2.06304	
1.97402	
2.19186	
2.12841	
2.22045	
2.12953	
1.98069	
1.96256	
1.96523	
1.96972	
0.577843	
0.604486	
2.43735	
2.5216	
2.18953	
2.22187	
2.32199	
2.2307	
1.8528	
2.08943	
1.95313	
1.98632	
2.00011	
2.20325	
2.20548	
2.05875	
2.32344	
1.78499	
1.76444	
1.9807	
1.98196	
2.26011	
2.08593	
0.901743	
1.15479	
0.980463	
2.2496	
2.17265	
2.24694	
2.1879	
2.30231	
2.39772	
2.3621	
1.69292	
1.56628	
1.50742	
1.89826	
1.88056	
1.96621	
1.88691	
1.84376	
1.58922	
1.83043	
1.67078	
2.18561	
2.18574	
2.2424	
2.19982	
2.15163	
2.09625	
2.16655	
2.09814	
2.17035	
2.3222	
2.24661	
2.3624	
2.53688	
2.46462	
2.48474	
2.38818	
2.43552	
2.27886	
2.40753	
2.35491	
2.22296	
2.20065	
2.17483	
2.37031	
2.43332	
2.50396	
2.30845	
2.36455	
2.19971	
1.8587	
1.91939	
2.52178	
2.42176	
2.40319	
2.33919	
2.34673	
2.36187	
2.50304	
2.30204	
2.25586	
2.32322	
2.3347	
1.45836	
1.37184	
1.49185	
1.41134	
2.38673	
2.2168	
1.31524	
1.10798	
2.00565	
1.9789	
0.9956	
0.819442	
2.11589	
2.18406	
2.27036	
2.21421	
2.35255	
2.37562	
2.32924	
2.41174	
2.2019	
2.18732	
2.34788	
2.14708	
2.25467	
2.36674	
2.3354	
2.21173	
2.20906	
2.37609	
2.25957	
2.3913	
2.34885	
2.29647	
2.25857	
2.35469	
2.30836	
2.33791	
2.36819	
2.27771	
2.28567	
1.91457	
1.6347	
1.6335	
1.62731	
1.55628	
2.52705	
2.38303	
2.41629	
2.43865	
2.4351	
2.34996	
2.20591	
2.41424	
2.36854	
2.17641	
2.41283	
2.19192	
2.19324	
2.15775	
2.24448	
2.08447	
2.09515	
1.84976	
1.84017	
1.91463	
2.28133	
2.33587	
2.17658	
2.00723	
2.01788	
2.17847	
2.2427	
2.20026	
1.96746	
1.94771	
2.04829	
2.26943	
2.20321	
2.2077	
1.74204	
1.60845	
1.84493	
1.25264	
1.33647	
2.02542	
2.1701	
2.19522	
2.16012	
1.51953	
1.43373	
2.21763	
1.44812	
1.80755	
2.19381	
2.10054	
2.10916	
2.09487	
2.28483	
2.16765	
2.20768	
2.24889	
2.21696	
2.10049	
1.04052	
1.10422	
2.0817	
2.11334	
2.17671	
2.15296	
2.27827	
2.22374	
2.24029	
2.21014	
2.20085	
2.17072	
1.83918	
1.86713	
1.83408	
1.86176	
2.23578	
2.26955	
2.18767	
2.21667	
2.19756	
2.27531	
2.21858	
2.35619	
2.34754	
2.12822	
2.23515	
1.83253	
1.72742	
1.64641	
2.23559	
2.13515	
2.28426	
2.21457	
2.2483	
2.11129	
2.23835	
2.39899	
2.14904	
1.74447	
2.02179	
2.01209	
2.2333	
2.05534	
2.28245	
2.27888	
2.22317	
2.23326	
2.04447	
2.10288	
2.11463	
2.09917	
2.29642	
2.27009	
2.24727	
2.23465	
1.47596	
1.60939	
2.06144	
2.04751	
2.22271	
1.89244	
1.9729	
1.86726	
2.00614	
2.35997	
2.21161	
2.33614	
2.29546	
2.25683	
2.33795	
2.33298	
2.37695	
1.77656	
1.94146	
2.0926	
1.96916	
2.02567	
2.15266	
2.15143	
2.16616	
2.1764	
2.26022	
2.07928	
2.09615	
2.05437	
2.18204	
2.18833	
2.16109	
2.20064	
2.25454	
2.3122	
2.12385	
2.21975	
2.23481	
2.20763	
2.18703	
2.24094	
2.10709	
2.1203	
2.13025	
2.28429	
2.25588	
2.18164	
2.25221	
2.17862	
2.16181	
1.92743	
1.92754	
1.87133	
1.68046	
2.32602	
2.43311	
2.3146	
2.32231	
2.23899	
2.1748	
2.19858	
2.12449	
1.69953	
1.9847	
2.26923	
2.36789	
1.59836	
1.56108	
2.22096	
2.22146	
2.30139	
2.18043	
2.2007	
2.22922	
2.16596	
2.2328	
2.13919	
2.13967	
2.43088	
2.49855	
2.47458	
2.56598	
0.685637	
0.719264	
0.375498	
0.51857	
1.95289	
1.80647	
1.93761	
1.87432	
2.68427	
2.29482	
2.23629	
2.22258	
2.20475	
2.21672	
2.14629	
2.17638	
1.6708	
1.5034	
1.62732	
1.57262	
2.39342	
2.25108	
2.2367	
2.21341	
2.06455	
2.05711	
2.07579	
2.04825	
2.17297	
2.18566	
2.13514	
2.18543	
2.2097	
2.19953	
2.16033	
0.716607	
2.09315	
2.07979	
1.94414	
1.93566	
1.88761	
0.576927	
0.908411	
1.90294	
1.73704	
1.74659	
1.68746	
1.57205	
1.50757	
1.39466	
1.28633	
1.95826	
0.870224	
1.31328	
0.83286	
2.11549	
2.07754	
2.27631	
2.15393	
2.18122	
2.21836	
2.00125	
1.9854	
1.99422	
1.92592	
2.21421	
2.21764	
2.4453	
2.54071	
2.26459	
2.08171	
1.91599	
1.89807	
1.93142	
1.96451	
1.93741	
1.31963	
1.19163	
2.29227	
2.22438	
2.3079	
2.34106	
1.0814	
0.938779	
1.16879	
2.23936	
2.26275	
2.25755	
3.04369	
2.71874	
2.0731	
1.90262	
1.25193	
2.24328	
2.2424	
2.20887	
2.92415	
1.95274	
2.07962	
1.94304	
1.88855	
0.585642	
0.684547	
0.890011	
0.91828	
2.10308	
2.14344	
2.05652	
2.20666	
2.35559	
2.29721	
1.55624	
1.50116	
2.24807	
2.07102	
2.03087	
1.99869	
2.07776	
2.10255	
2.18255	
2.10474	
2.15229	
2.10836	
2.15612	
1.8657	
2.31392	
1.94527	
1.02574	
0.962364	
0.810943	
0.781596	
2.06475	
1.97497	
2.00652	
1.9288	
1.55294	
1.55942	
-3.96682	
-5.69606	
-4.92524	
-4.87144	
-5.21881	
-2.81311	
1.65686	
3.27872	
1.37396	
1.88261	
-1.13974	
-1.60641	
1.66274	
-1.44776	
-1.67788	
-2.04216	
-1.72388	
-4.34102	
-4.64073	
-4.52826	
-3.72464	
-1.94161	
-4.47462	
-0.726627	
-0.000515283	
-0.371396	
-2.33158	
-3.64753	
-3.33928	
-2.71337	
-1.75859	
-2.03054	
-4.46857	
-5.1735	
-4.44366	
-4.05946	
-4.1466	
-3.81837	
-0.807454	
-5.00493	
-2.5785	
0.241553	
0.637501	
-3.32207	
-3.78399	
0.897529	
1.51201	
-3.81002	
-1.82171	
0.489147	
-1.20173	
-2.87818	
-4.13932	
-2.28895	
-3.34355	
-4.95564	
-5.02324	
-4.44395	
-1.03716	
-0.291644	
-1.99955	
-1.82352	
-4.57968	
-2.75371	
-3.23995	
-1.77267	
-2.25959	
-1.56359	
-2.07134	
-0.493284	
-2.2511	
-1.49504	
-2.58442	
-1.97927	
-4.14783	
-4.2756	
-0.419726	
-3.75988	
-2.78764	
-1.79612	
-1.0482	
-1.6202	
-3.10748	
-4.22538	
-4.46493	
-4.49662	
-3.82084	
-2.17274	
-3.90602	
-4.05529	
-3.96026	
-1.0953	
-1.68493	
-4.22677	
-4.40151	
0.689314	
-0.0345735	
0.835369	
0.669362	
-4.2488	
-4.62282	
-3.84564	
-4.39727	
0.10329	
-1.37273	
0.152652	
0.657839	
-1.36572	
-1.41317	
-1.56261	
-1.67243	
-4.15623	
-4.22563	
-4.35667	
-3.8386	
1.22225	
-3.58488	
-2.08428	
1.45915	
-0.341119	
0.609288	
-3.14697	
-4.63368	
-1.3239	
1.96333	
2.10777	
0.77818	
0.304422	
-0.435374	
0.515317	
-0.489669	
-0.561181	
-3.57821	
-3.89207	
-4.23831	
-2.67386	
-2.72146	
-2.21699	
-2.81742	
-2.74118	
-0.699464	
0.495374	
-3.96045	
-3.78853	
-4.17079	
-3.64363	
0.246802	
0.539825	
0.935569	
0.840721	
-2.2729	
-2.88421	
-2.71394	
-2.99139	
-0.975248	
-1.52676	
-0.546428	
-1.13569	
-3.81529	
-3.49945	
-4.42729	
-4.62799	
-4.39665	
-4.66734	
-2.31252	
-4.35216	
-4.21048	
-4.16439	
-4.03171	
-3.88111	
-3.61299	
-3.93549	
-3.58185	
-3.54787	
-3.28614	
1.04334	
1.42412	
1.43184	
-2.47109	
-2.5042	
-2.1914	
-2.58467	
-2.4266	
-1.67741	
-2.27493	
-2.42882	
-3.27905	
1.87088	
2.04087	
2.46577	
0.371805	
0.0861632	
-4.55998	
-4.90405	
1.94233	
2.81814	
-3.73213	
-3.51341	
-3.64136	
-0.140967	
-0.0390393	
0.330049	
1.88204	
1.7905	
1.18603	
1.3783	
1.61126	
1.39669	
1.28099	
1.07458	
-4.04841	
-5.37467	
-5.29585	
0.40413	
0.185598	
1.13367	
0.621737	
-1.22043	
-0.47457	
-4.62497	
-4.35656	
-3.64726	
-4.27543	
-3.93604	
-4.2687	
-4.19838	
-4.18093	
-4.18485	
-4.47455	
-4.66709	
-4.48147	
-4.33297	
-4.6938	
-4.534	
-4.46374	
0.516067	
0.155618	
-2.36649	
-1.75328	
-2.40633	
-2.19129	
-0.132679	
-0.693859	
0.772878	
0.105426	
-4.3266	
-4.22415	
-4.13279	
-4.29994	
-4.41471	
-4.63716	
-4.52985	
-4.51303	
-4.3546	
-4.31391	
-4.30101	
-4.33145	
-5.04136	
-4.58923	
-4.94395	
-4.78303	
-0.593634	
-1.06853	
-0.652632	
-1.33526	
-2.89213	
-2.63717	
-2.95608	
-3.04722	
1.39354	
2.23692	
-1.91035	
-1.75846	
-2.20689	
-1.89769	
-2.09314	
-1.79331	
-1.86094	
-0.791942	
-5.68022	
-5.25313	
-1.69486	
-1.14413	
-1.64453	
-3.19072	
-2.49178	
-2.06584	
-1.7469	
-2.348	
-2.52691	
-1.91418	
-1.05452	
-1.2141	
-1.69684	
-1.26756	
-2.31755	
-4.61662	
-4.46006	
-1.19465	
-0.967975	
-0.804047	
-0.275348	
-2.28387	
-3.58294	
-3.85857	
-3.55993	
1.50288	
-4.57601	
0.479882	
-0.135373	
-5.09144	
-5.7499	
0.575016	
0.73642	
1.59339	
1.79986	
-2.50926	
-3.0992	
-2.59425	
-3.08036	
-3.86072	
-3.58193	
-4.34927	
-3.67684	
-4.0017	
-4.19547	
-4.4724	
-4.58189	
-3.65564	
-2.86753	
-3.7912	
-3.42796	
-3.79183	
-4.19236	
-3.83059	
-4.26523	
-0.499456	
0.197708	
-5.00103	
-4.694	
-4.93531	
-5.14787	
-4.36273	
-3.86825	
-4.2247	
-1.46819	
-1.48912	
1.34845	
2.02883	
0.132069	
0.857398	
-0.357261	
0.33411	
1.0395	
0.251616	
0.874569	
0.198146	
-3.31509	
-1.20304	
-1.05082	
-4.51163	
-3.26294	
-3.45005	
-3.18853	
-3.41384	
-4.20731	
-4.49459	
-4.01359	
-4.58488	
-4.47438	
-4.22107	
-3.07694	
-3.10812	
-3.00935	
-3.1976	
-3.21613	
-0.991594	
-0.758711	
-1.33572	
-1.07713	
1.07927	
0.753934	
1.49058	
1.35163	
-3.53011	
-4.22228	
-2.24482	
-2.34651	
-2.50385	
-2.78914	
-4.37301	
-1.18749	
-0.653304	
-2.67142	
-3.18895	
-3.06523	
-2.78146	
0.434084	
1.47444	
1.36587	
1.19379	
0.798752	
-3.34939	
-0.523291	
0.123518	
-0.666874	
-0.211748	
-5.29108	
-3.86319	
-2.5843	
-2.24983	
-2.08273	
-2.3854	
-2.27435	
-2.36996	
-2.28284	
-2.64069	
-2.91214	
-2.79647	
-2.93352	
-3.02722	
-3.09717	
-4.78637	
-4.80063	
-4.40106	
-4.48676	
-4.63353	
-4.389	
-4.25139	
-4.21713	
1.09699	
0.796549	
-0.795193	
-4.17132	
-4.24989	
-3.78655	
-4.06746	
-4.34493	
-4.51469	
-4.15809	
-4.83163	
-4.99616	
-0.196221	
-2.06868	
-2.23766	
-2.01621	
-1.98676	
-2.66297	
-2.94823	
-4.87527	
-5.41815	
-4.82457	
-4.36121	
-4.55405	
-4.47389	
0.645779	
-0.232807	
1.00874	
0.0563928	
-3.31709	
-1.10963	
-2.83788	
-3.6049	
-1.44244	
-1.78502	
-2.68292	
-3.32606	
-2.31316	
-2.82767	
-5.16186	
-5.54006	
-5.03436	
-4.92931	
-1.83626	
-1.7957	
0.688165	
0.429691	
0.334954	
0.0550023	
0.311742	
0.0153461	
-0.121207	
-5.06846	
-5.55794	
0.362646	
0.432401	
0.867246	
-2.19248	
-1.65022	
-1.61119	
-1.17112	
-2.38352	
-2.41969	
-2.03337	
-1.93916	
0.109137	
-0.316683	
0.178812	
-0.205133	
-5.69188	
-5.6242	
-4.99024	
-1.17099	
-1.86192	
-1.91598	
-1.49742	
-3.52357	
-3.61597	
-4.33572	
-4.46057	
-4.18255	
-4.29048	
-2.09364	
-1.79768	
-1.71158	
-2.16717	
-2.00563	
-2.30924	
-2.77425	
-2.94693	
-3.33449	
-2.69304	
-2.68531	
-3.23779	
-3.09748	
-4.27493	
0.943074	
0.568811	
0.0437652	
-0.51287	
-0.237248	
-0.61418	
-2.44776	
-2.92008	
-2.44205	
-2.92732	
-3.27653	
-2.44428	
-3.42668	
-2.77023	
-3.19788	
-4.18055	
-4.41083	
1.57436	
1.04273	
0.832124	
-3.81325	
-3.92551	
-3.85275	
-3.82139	
-4.59504	
-4.25182	
-3.95434	
-4.03712	
0.170405	
-0.154353	
0.524484	
0.577874	
-1.05154	
-1.09662	
-0.345597	
-0.571127	
1.56099	
1.43139	
2.7521	
0.315788	
1.16118	
1.98676	
-2.91874	
-3.15457	
-3.484	
-3.42279	
-3.78297	
-3.95725	
-4.62214	
-4.13163	
-4.2768	
-4.00363	
-5.42939	
-5.12343	
-1.42546	
-1.33834	
-1.76833	
-2.02112	
-2.20183	
-2.18748	
-2.52485	
-2.56805	
-2.24177	
-2.20026	
-2.50401	
-2.71309	
-4.24831	
-4.41478	
-4.45365	
-4.68891	
-4.5575	
-4.24937	
1.03359	
1.44092	
-3.6913	
-4.02528	
-3.96224	
-4.64843	
-4.43022	
-5.22095	
-5.43079	
-4.57041	
-4.39642	
1.41934	
-3.68535	
-3.51946	
-3.48291	
-4.20491	
-4.16906	
-4.70682	
-4.20763	
3.6635	
-3.87888	
-4.10062	
-3.62276	
-3.62702	
0.980892	
0.91297	
1.47095	
1.30903	
1.23559	
0.951035	
2.30725	
-3.9673	
-4.06899	
-4.63746	
-5.11321	
-5.08867	
1.5958	
-4.37132	
-4.56173	
-4.09176	
-4.09443	
1.1011	
0.878526	
-4.02711	
1.42183	
1.36628	
-3.01051	
-3.03849	
-2.79241	
-2.90943	
-3.06324	
-3.36993	
-3.98221	
-4.33066	
-3.88374	
-4.57266	
-2.72589	
-2.50711	
-2.34826	
-4.56992	
-4.09205	
-4.39064	
-4.44233	
-3.50306	
-3.27756	
-2.9078	
-2.6816	
-3.5974	
-3.33281	
-3.3658	
-3.54879	
1.53584	
1.29188	
1.65073	
-3.41385	
0.849689	
0.715895	
0.678305	
0.889932	
0.897877	
-4.23696	
-4.35317	
-4.42384	
0.141022	
0.333842	
0.00762082	
0.265545	
-4.28431	
-4.05071	
-4.08819	
-4.25612	
-4.3758	
-4.87436	
-4.53785	
-4.83242	
-4.62427	
1.73188	
1.70602	
1.11487	
-5.30106	
-4.97227	
-5.46641	
-4.88818	
-3.01742	
0.440803	
-3.96856	
-3.91918	
2.3581	
1.8868	
1.8331	
1.39439	
-3.73539	
-3.49279	
-3.22983	
-1.29497	
-1.27593	
-0.726798	
-3.82623	
-3.7005	
-5.25951	
-4.38667	
-4.43831	
-4.4541	
-4.90302	
-0.144466	
-0.868946	
1.98752	
1.84303	
1.63669	
1.55602	
1.8497	
1.16178	
1.07038	
0.932943	
0.674744	
-4.50816	
-4.33806	
-4.29052	
-4.15679	
-3.90292	
-3.80967	
-4.65461	
-4.7285	
-4.79871	
0.317566	
0.152727	
-0.422507	
-4.53146	
-4.7883	
-3.13198	
-3.05245	
-3.71964	
-3.61319	
-4.2722	
-4.08931	
-3.15094	
-3.11065	
-2.81048	
-3.59274	
-3.608	
-3.8737	
-3.77139	
-3.56769	
-3.45746	
-3.67834	
-3.30737	
1.25621	
0.695195	
-3.31231	
-3.53714	
-3.52687	
-4.18737	
-1.6551	
-1.86333	
-2.91632	
-2.98729	
-3.88035	
-3.96822	
-3.9094	
-4.08321	
-2.11597	
-2.27306	
-4.60809	
-4.70475	
-4.53667	
-4.48001	
-4.04414	
-4.02439	
-3.9852	
-4.02336	
-2.88564	
-3.26853	
-2.65862	
-2.6672	
-4.00833	
-4.61674	
-4.54916	
-3.778	
-4.23649	
-3.92797	
-0.229523	
-0.779206	
-0.921464	
1.1871	
0.874868	
-3.85541	
-3.99866	
-4.02434	
-0.933077	
-0.836462	
-0.624884	
-3.51826	
-3.31339	
-3.52665	
-3.17248	
-1.03766	
-0.863628	
-1.28074	
-1.52523	
-1.89798	
-3.99273	
-3.82069	
1.56969	
2.05806	
2.38607	
1.85362	
-0.429899	
-0.587154	
1.03401	
1.2221	
0.906168	
1.27731	
-4.51679	
-4.77951	
-4.28373	
-4.49614	
-1.71477	
-1.42758	
-0.729484	
2.48435	
3.55002	
-4.78336	
-4.80288	
-5.10169	
-5.37556	
-0.597465	
-0.389872	
-1.28957	
-0.802886	
1.39277	
1.03428	
1.05995	
0.64723	
0.748038	
-0.540433	
-0.955456	
-0.0569421	
-0.773623	
0.938122	
0.833891	
-3.46812	
-4.20381	
-3.40404	
-3.80148	
-1.24131	
-1.71003	
-1.64178	
-1.98494	
2.56713	
2.25378	
-4.17357	
-3.9366	
1.01038	
0.952856	
1.69831	
1.58083	
1.04224	
0.656101	
0.0639492	
-0.239415	
-0.28775	
-0.245482	
-0.100648	
-0.0545029	
-0.170538	
0.110453	
0.17528	
0.37448	
0.542879	
0.459535	
0.270866	
0.0246952	
-0.338279	
-0.308181	
-0.206084	
-0.256713	
-0.130671	
0.551679	
-0.0304679	
0.464298	
0.234028	
0.353378	
0.114279	
-0.360508	
0.485254	
0.343432	
0.0690319	
-0.113214	
0.165994	
-0.379356	
-0.444181	
-0.596882	
-0.603	
-0.642328	
-0.564623	
-0.261473	
0.425901	
0.275294	
-0.369922	
-0.0897637	
-0.21425	
0.065882	
-0.455881	
-0.550037	
-0.507524	
-0.514002	
-0.488565	
-0.448215	
0.521976	
2.5675	
0.365919	
2.57403	
2.537	
2.47168	
2.75092	
1.9047	
1.79839	
1.8734	
1.94489	
2.10848	
0.580001	
0.345066	
2.38659	
0.974293	
0.322563	
0.658876	
2.57712	
3.59594	
1.37359	
1.75993	
2.19438	
2.42329	
2.1259	
2.3527	
1.74099	
2.22647	
2.18498	
1.21638	
1.34162	
1.36964	
1.86339	
0.980985	
2.01495	
2.35001	
2.21673	
2.34675	
2.07734	
1.9083	
2.30312	
2.32243	
2.3903	
2.31926	
2.4319	
2.25585	
2.22039	
2.26746	
2.31093	
2.25505	
2.21522	
2.22294	
2.2728	
2.18477	
1.33859	
1.32834	
2.17572	
2.1678	
2.39751	
2.36175	
2.43949	
2.1935	
2.28278	
2.0834	
2.19385	
1.44215	
2.12424	
2.29766	
2.22442	
2.28212	
2.16889	
2.17128	
2.20041	
2.11274	
2.25795	
2.22576	
2.17509	
2.25601	
2.18608	
2.15545	
1.99261	
1.97049	
2.24356	
1.5857	
2.29412	
1.76073	
0.930489	
2.35554	
2.25825	
1.23241	
2.3198	
2.16275	
2.24419	
2.4097	
2.23202	
2.27398	
2.2318	
2.18589	
1.87694	
1.83725	
1.83941	
2.2129	
2.24455	
1.90874	
2.18628	
2.32741	
2.32826	
1.85109	
1.68668	
1.84295	
1.84217	
1.96049	
2.01589	
2.00657	
1.98724	
2.03473	
2.18004	
2.22578	
2.11201	
2.23494	
2.18315	
2.08596	
2.03124	
2.24132	
2.19861	
2.1801	
2.22853	
2.18471	
2.26169	
2.12078	
2.15218	
2.16612	
2.20286	
2.22194	
2.31307	
2.30463	
2.31641	
1.66115	
1.71504	
2.25957	
2.14399	
1.02455	
2.35172	
2.39281	
0.723085	
2.19918	
1.94554	
1.98969	
1.96667	
1.99773	
2.1351	
2.03927	
2.09076	
1.45657	
0.685252	
0.611633	
0.878119	
2.87173	
2.1122	
1.85571	
0.90572	
2.53301	
2.43404	
2.17964	
2.11726	
2.23204	
2.47683	
2.23316	
2.19186	
2.34638	
2.15064	
3.52594	
3.72366	
1.7964	
1.6363	
1.87475	
1.91022	
2.29739	
2.51028	
1.84723	
1.92807	
1.68331	
1.34805	
1.33349	
2.32777	
2.42463	
2.2774	
2.02736	
2.0297	
1.52997	
2.24298	
1.18024	
1.1313	
1.22718	
1.33897	
1.3663	
1.59824	
1.50521	
1.35459	
1.42916	
1.51206	
1.56658	
2.31152	
2.26598	
2.26841	
1.25431	
0.942216	
1.22474	
1.02856	
2.4737	
2.27087	
2.22432	
1.93851	
1.97611	
2.22841	
2.26169	
2.27357	
2.44557	
2.35632	
2.45674	
2.37066	
2.46526	
1.66297	
1.98637	
1.74062	
2.31426	
2.28539	
0.914696	
0.765931	
2.41173	
2.33496	
2.26644	
2.30378	
2.29732	
2.38034	
2.02073	
2.34016	
2.25872	
2.26742	
2.28608	
2.48422	
2.45852	
2.4889	
2.36154	
1.91936	
1.91221	
1.95951	
2.26831	
2.24712	
2.29299	
2.41105	
2.25573	
2.25498	
2.45257	
2.40995	
2.23578	
2.16034	
2.34322	
2.21626	
2.18321	
2.27811	
2.117	
1.83052	
1.73782	
1.56872	
2.30878	
2.39042	
2.37529	
2.01721	
2.09144	
2.18529	
1.86267	
1.75886	
1.90014	
2.56207	
2.41552	
2.71531	
2.27284	
2.35418	
2.32664	
2.22774	
2.20909	
2.3323	
1.38283	
1.60854	
2.45174	
2.36052	
2.28004	
2.54299	
2.50558	
2.08121	
1.98047	
1.9128	
2.24591	
2.29773	
2.44024	
2.35645	
2.33722	
1.82274	
1.74209	
1.81261	
1.92538	
1.95097	
1.93995	
1.98357	
1.66207	
1.19635	
2.17721	
2.29602	
2.29649	
2.30904	
2.26407	
2.21826	
2.28617	
2.25844	
2.07523	
2.11416	
1.81419	
1.6583	
2.45698	
2.47147	
2.36442	
2.37862	
1.99318	
1.92389	
2.40352	
2.28142	
2.26482	
2.16435	
2.13922	
2.11038	
2.09227	
2.19379	
2.16994	
1.87045	
1.86287	
2.06501	
1.90514	
2.18637	
2.18787	
2.18524	
2.19047	
2.19721	
2.21013	
2.19109	
2.07417	
1.98299	
1.99674	
1.95864	
2.00986	
2.03207	
1.94994	
2.09537	
2.32093	
1.76949	
2.11861	
2.55415	
2.43608	
2.24465	
2.25403	
2.22801	
2.09539	
2.55641	
2.36914	
2.30494	
2.3286	
2.40816	
1.95315	
1.94874	
2.00737	
1.98204	
1.95987	
1.95901	
1.98603	
1.94775	
2.61913	
2.4873	
2.4867	
2.43235	
1.87322	
1.14558	
0.767002	
2.66962	
2.70876	
2.3252	
2.35329	
2.39828	
2.39167	
2.37889	
2.38234	
2.0197	
2.11364	
1.98516	
2.27201	
2.30485	
2.38692	
2.38748	
1.88127	
1.92841	
1.90455	
1.95071	
0.526339	
0.474002	
2.52691	
2.44318	
2.29886	
2.28114	
2.21646	
2.28115	
2.03519	
1.91588	
2.03867	
1.9187	
1.92845	
1.92704	
2.04688	
1.89362	
1.94513	
1.7784	
1.83066	
1.98826	
2.28072	
2.07042	
2.11487	
0.886161	
0.957319	
1.12577	
2.17599	
2.25663	
2.1942	
2.23115	
2.54192	
2.37959	
2.40043	
1.32643	
1.93623	
1.84807	
1.9616	
1.8441	
1.70929	
1.54455	
1.78281	
1.67323	
2.22769	
2.22673	
2.27585	
2.27646	
2.35882	
2.18908	
2.25503	
2.17813	
2.24914	
2.22642	
2.38575	
2.29529	
2.40014	
2.55222	
2.52782	
2.49753	
2.43588	
2.47055	
2.30712	
2.4431	
2.21172	
2.20337	
2.56957	
2.3867	
2.29409	
2.24184	
2.33746	
2.39435	
2.45433	
2.40698	
2.21838	
2.38174	
2.36898	
2.52837	
2.34887	
2.29983	
2.3598	
2.52088	
2.38341	
2.26452	
2.29846	
2.35423	
2.33795	
2.31233	
2.28353	
1.46987	
1.38038	
1.42972	
1.34831	
2.18726	
2.37754	
2.1967	
1.09966	
1.30151	
2.73883	
2.32447	
0.940101	
0.772284	
2.08789	
2.07648	
2.20938	
2.22931	
2.37421	
2.32593	
2.375	
2.18351	
2.13987	
2.19132	
2.28349	
2.22839	
2.23056	
2.33414	
2.12656	
2.19126	
2.16587	
2.39021	
2.34489	
2.37336	
2.25284	
2.36678	
2.31954	
2.30538	
2.25903	
2.29819	
2.41618	
2.36098	
2.38671	
2.22052	
1.54866	
1.48538	
1.60545	
1.42298	
2.38018	
2.42439	
2.47497	
2.4433	
2.46756	
2.46257	
2.25601	
2.42701	
2.40856	
2.45264	
2.42956	
2.2125	
2.25012	
2.26818	
2.30668	
1.76654	
1.78662	
1.85808	
2.20884	
2.32282	
2.36575	
1.96134	
1.95366	
2.35102	
2.22195	
2.17455	
1.91254	
1.98282	
2.25845	
2.29215	
2.16865	
1.75098	
1.64593	
1.49234	
2.13728	
2.06557	
2.16399	
1.34138	
1.24863	
2.35433	
2.08523	
1.2166	
1.20882	
2.67536	
2.62823	
2.23109	
2.15862	
2.17719	
2.22463	
2.17989	
2.17323	
2.33174	
0.866158	
2.07107	
2.16415	
2.21346	
2.11084	
2.2215	
2.19598	
2.2132	
2.29528	
2.23178	
2.24584	
1.76209	
1.80643	
1.68669	
1.79228	
2.22097	
2.24826	
2.26602	
2.29343	
2.2557	
2.13213	
2.19503	
2.33717	
2.32476	
2.7647	
3.07724	
2.10479	
1.69303	
1.80811	
2.41741	
2.29138	
2.3048	
1.74426	
2.07006	
2.16987	
2.2972	
2.29463	
2.23048	
2.24283	
2.26783	
2.34859	
2.21938	
2.27721	
2.23021	
2.25791	
2.32522	
2.29337	
1.60071	
1.45459	
2.02053	
2.03565	
2.28225	
2.23648	
2.15547	
2.14642	
2.23215	
2.50498	
2.35729	
1.94368	
1.85821	
1.97762	
1.90995	
2.32238	
2.29849	
2.37256	
2.31633	
2.36715	
2.30366	
2.42214	
2.36261	
1.9534	
1.93607	
1.99645	
1.90642	
1.99046	
2.12662	
2.06674	
2.24825	
2.10079	
2.26108	
2.27059	
2.35876	
2.39956	
2.18426	
2.15556	
2.17808	
2.20978	
2.29064	
2.26629	
2.24583	
2.2698	
2.24215	
2.1624	
2.24442	
2.2582	
2.1576	
2.14564	
2.16631	
1.94482	
1.94987	
1.70451	
1.90133	
2.31426	
2.22895	
2.31115	
2.3074	
2.40911	
2.37817	
2.13912	
2.16665	
2.18051	
2.25268	
2.41462	
2.2883	
2.1354	
2.18311	
2.26037	
1.55305	
1.58813	
2.29373	
2.17773	
2.21158	
2.22019	
2.23925	
2.26037	
2.21914	
2.21675	
2.1974	
2.19164	
2.50371	
2.43911	
2.77105	
2.48123	
0.678748	
0.662249	
0.481865	
0.302033	
1.83947	
1.92866	
1.84401	
1.83394	
2.27923	
2.32106	
2.21159	
2.22811	
2.26337	
2.27108	
2.2201	
2.20218	
1.51207	
1.44368	
1.56642	
1.42677	
2.25252	
2.39247	
2.21155	
2.21803	
2.15504	
2.04299	
2.20461	
2.07926	
2.18028	
2.23607	
2.25933	
2.39479	
2.30164	
2.29454	
2.28111	
2.30315	
2.39042	
2.41139	
0.92438	
2.11829	
2.12691	
2.10073	
2.02623	
2.03229	
2.15079	
2.3973	
1.89994	
2.10489	
1.96123	
2.1753	
1.01923	
1.19414	
1.15228	
0.765606	
0.618888	
0.557586	
1.94825	
2.13907	
2.2133	
1.047	
0.975961	
1.46574	
0.585101	
0.804421	
1.27554	
0.834459	
0.803079	
2.07991	
2.07196	
1.98953	
2.24898	
2.27589	
2.21442	
2.21934	
2.49423	
2.00657	
1.84072	
1.85174	
2.134	
2.05555	
2.14664	
2.11029	
2.20173	
2.2879	
2.21615	
2.31503	
0.9063	
1.04357	
2.13004	
2.15612	
2.21191	
2.36792	
2.53619	
1.99699	
2.15729	
1.4837	
1.00998	
1.16577	
1.21811	
0.94795	
1.1093	
2.29118	
2.29047	
2.02575	
2.29466	
2.0916	
1.95716	
1.05493	
1.13984	
2.26142	
2.15809	
2.29491	
2.17309	
1.04544	
1.15313	
0.884034	
1.03329	
0.536816	
0.746003	
0.808079	
1.9783	
2.44997	
1.99032	
2.08399	
2.17927	
2.17583	
2.1167	
2.08237	
1.44818	
1.38435	
1.6178	
1.47119	
2.11238	
2.38434	
2.04134	
2.06514	
0.375299	
0.750548	
0.5921	
1.55282	
1.51649	
1.80249	
1.54685	
1.88756	
1.85907	
2.01345	
1.91911	
0.67496	
0.473434	
0.686995	
0.487595	
1.60232	
1.50073	
1.72687	
-4.11193	
-5.69729	
-4.93192	
-5.05089	
-5.62607	
1.71374	
3.27631	
1.39376	
1.57717	
-1.247	
-1.79821	
1.61654	
-1.47604	
-1.71496	
-2.09277	
-1.77923	
-4.39233	
-4.45995	
-3.49012	
-1.93926	
-4.59548	
-4.32363	
-0.608496	
0.0561276	
-0.298559	
-2.51807	
-3.918	
-3.35852	
-2.71225	
-1.99509	
-1.94867	
-4.36822	
-4.4571	
-4.34703	
-4.23764	
-4.11657	
-4.79019	
-0.782777	
-5.04644	
-2.53027	
0.300213	
0.709976	
-3.28331	
-3.7143	
1.0555	
2.07536	
-3.54837	
-1.80433	
0.510477	
-1.21171	
-2.88497	
-3.51869	
-2.87883	
-3.30811	
-4.95522	
-5.12575	
-4.81944	
-1.03419	
-0.315088	
-1.92756	
-1.9607	
-4.65185	
-3.32417	
-2.73519	
-1.84566	
-2.1491	
-1.7022	
-2.13224	
-0.938473	
-2.51313	
-1.91207	
-2.68794	
-1.63193	
-3.66622	
-4.01587	
-0.381999	
-2.60896	
-3.09061	
-1.68824	
-1.48807	
-0.932757	
-3.72651	
-5.26499	
-4.5249	
-3.65149	
-2.11659	
-3.67897	
-3.79291	
-3.81705	
-1.05249	
-1.62499	
-4.18496	
-4.38999	
0.776223	
0.103248	
0.887885	
0.656762	
-4.15247	
-4.38343	
-4.21043	
-4.6577	
0.0845575	
0.213291	
0.700255	
-1.84161	
-1.70205	
-1.51602	
-1.45658	
-3.81667	
-4.39212	
-4.16494	
-4.29166	
1.26261	
-3.51871	
-2.13519	
1.46582	
-0.31356	
0.626386	
-2.95509	
-4.68125	
-1.95943	
2.23638	
1.50668	
0.858007	
0.341449	
0.550337	
0.135248	
-0.452747	
-0.515899	
-3.94728	
-3.28245	
-3.50908	
-3.17832	
-2.803	
-2.24409	
-2.88864	
-2.49009	
-0.670791	
0.531441	
-3.89126	
-3.6702	
-4.0435	
-3.84504	
0.554661	
0.542987	
0.871117	
0.974122	
-2.71608	
-2.99632	
-2.26327	
-2.27853	
-0.516044	
-1.57169	
-0.462498	
-1.4821	
-5.04618	
-3.65842	
-3.23311	
-4.6373	
-4.87572	
-4.89904	
-2.30961	
-3.10882	
-4.12665	
-3.61807	
-3.06387	
-3.9801	
-3.71284	
-3.46701	
-3.15953	
-3.68363	
-3.48726	
1.40134	
1.50253	
-2.549	
-2.38057	
-2.5546	
-1.62066	
-2.40342	
-2.72016	
-2.4149	
-1.64206	
-3.45017	
2.06591	
2.43746	
0.417688	
0.133959	
-5.1042	
-5.36783	
2.86071	
1.98836	
-3.77409	
-3.18331	
-3.75872	
-0.225178	
0.324418	
-0.0689244	
1.82662	
1.94371	
1.17587	
1.30281	
1.88177	
1.2978	
1.41766	
1.09062	
-3.8791	
-5.49895	
-5.45645	
1.24132	
0.706629	
0.98114	
0.265067	
-1.1191	
-0.641158	
-4.25752	
-4.53293	
-4.1915	
-4.28006	
-3.62417	
-3.6432	
-4.22034	
-4.11695	
-4.15163	
-4.4668	
-4.48672	
-4.62361	
-4.37017	
-4.54474	
-4.5557	
-4.43214	
0.0765439	
0.201151	
-2.32523	
-2.36587	
-1.85328	
-2.25224	
-0.106396	
-0.669691	
-0.408706	
0.803137	
-4.2746	
-4.35138	
-4.38536	
-4.21635	
-4.55227	
-4.53396	
-4.88888	
-5.14714	
-4.32211	
-4.31781	
-4.36032	
-4.29639	
-4.60491	
-4.88224	
-4.51811	
-4.97761	
-0.995381	
-1.28863	
-0.53425	
-1.02032	
-2.85908	
-2.96036	
-3.09248	
-3.0475	
2.28837	
1.85966	
-1.64589	
-1.96483	
-2.26658	
-2.1396	
-1.94053	
-0.767063	
-1.26853	
-1.24779	
-1.84339	
-5.30806	
-5.7666	
-1.65117	
-1.59448	
-1.10582	
-2.40685	
-2.30123	
-2.17871	
-2.01469	
-1.70181	
-1.45147	
-0.964741	
-1.77533	
-2.29539	
-1.19248	
-1.67607	
-0.668706	
-0.273341	
-0.998075	
-0.89914	
-2.43239	
-3.41104	
-3.47164	
-3.05371	
1.55446	
-4.41952	
-0.0422246	
0.565707	
-5.90983	
-5.84714	
0.811251	
1.08	
1.46306	
1.65544	
-2.54489	
-3.03014	
-2.36158	
-2.75078	
-3.59608	
-4.21972	
-3.68889	
-3.86458	
-4.3175	
-4.46969	
-4.67836	
-4.92644	
-2.75867	
-3.46508	
-2.81903	
-3.64475	
-3.93378	
-3.58395	
-4.08781	
-3.65678	
0.36045	
-0.474888	
0.223874	
-5.13466	
-5.14175	
-4.89402	
-5.36796	
-3.94286	
-4.11186	
-4.41995	
-1.58056	
-1.5354	
2.09907	
1.54858	
0.873978	
0.203565	
0.422551	
-0.178288	
0.487314	
0.276177	
1.1604	
0.673155	
-3.05376	
-0.976177	
-1.41097	
-4.45459	
-3.41562	
-3.0269	
-3.36419	
-3.13927	
-4.46774	
-3.90602	
-4.46365	
-3.9611	
-4.17159	
-4.42776	
-3.56313	
-2.99704	
-3.42644	
-3.4491	
-1.29099	
-1.0384	
-0.95441	
-0.725783	
0.792909	
1.117	
1.09072	
1.53406	
-2.3969	
-2.3027	
-2.68987	
-2.58791	
-3.15744	
-4.57137	
-1.53054	
-0.715639	
-2.67102	
-3.27887	
-2.95881	
-2.64345	
0.42617	
1.43878	
1.4247	
0.936903	
1.26028	
-3.22312	
-0.639502	
0.0393955	
-0.497706	
0.0799131	
-5.26378	
-3.6005	
-3.42976	
-2.61657	
-2.31855	
-2.26896	
-2.32998	
-2.44419	
-2.47149	
-2.43704	
-2.84371	
-3.03219	
-2.69218	
-2.73191	
-3.21591	
-3.11625	
-4.93967	
-4.76179	
-4.66752	
-4.93988	
-4.2285	
-4.23227	
-4.29788	
-4.59687	
0.816398	
1.11872	
-3.82473	
-3.93009	
-4.04242	
-4.11253	
-4.50389	
-4.76695	
-4.25432	
-4.52122	
-5.13143	
-0.307325	
-2.31251	
-2.16094	
-1.81636	
-1.76638	
-2.71115	
-2.42645	
-5.65769	
-5.6852	
-4.69347	
-4.46014	
-4.81685	
-4.59266	
0.0215344	
0.722249	
0.140038	
0.65011	
-3.35434	
-1.76613	
-3.47311	
-3.02889	
-1.76222	
-1.41718	
-3.23573	
-2.66954	
-2.81812	
-2.30134	
-5.12047	
-5.49997	
-5.42457	
-5.59453	
-1.83678	
-1.8749	
0.453075	
0.594489	
0.147623	
0.333425	
-0.0946449	
-0.185618	
-5.59373	
-5.10332	
0.452742	
0.385764	
0.883758	
-2.15777	
-2.14961	
-1.14077	
-1.10222	
-2.43445	
-2.29644	
-1.88716	
-1.7688	
0.200228	
-0.180161	
0.134236	
-0.29091	
-5.75805	
-5.15112	
-1.14487	
-0.75655	
-1.78055	
-1.4059	
-1.64581	
-3.83459	
-3.5512	
-4.51916	