<VTKFile type="UnstructuredGrid" version="0.1" byte_order="LittleEndian">
	<UnstructuredGrid>
		<Piece NumberOfPoints="1917" NumberOfCells="3602">
			<CellData Scalars="scalars">
				<DataArray type="Float64" Name="Doublet Strengths" NumberOfComponents="1" Format="ascii">
5.54096	
1.19518	
5.00796	
4.83394	
4.79541	
6.49261	
6.85285	
6.84742	
6.83682	
6.85073	
6.79112	
1.15991	
0.752489	
6.45533	
3.97499	
0.645478	
1.4601	
6.55502	
5.37298	
4.76539	
5.10636	
3.25874	
4.82137	
2.73035	
3.08171	
3.03571	
3.47666	
2.20294	
4.06892	
4.33627	
5.23208	
4.72703	
4.19921	
4.53055	
4.81757	
4.78699	
4.67645	
4.55383	
4.70686	
4.79852	
5.47752	
4.31945	
4.82077	
4.76263	
4.18986	
4.08453	
4.70624	
4.52764	
4.76027	
4.63393	
4.03288	
4.87444	
4.89036	
4.91124	
4.91193	
5.39103	
4.88115	
4.90067	
5.85842	
4.84685	
3.18576	
4.16707	
4.97309	
4.92039	
4.79188	
4.60131	
5.05981	
4.32178	
5.59359	
5.26808	
4.99357	
4.81662	
3.99983	
3.82626	
4.01975	
3.86384	
3.77453	
5.63626	
3.30176	
2.4117	
4.82259	
4.88662	
4.41259	
3.57578	
4.79318	
4.80673	
4.8057	
4.80241	
5.60315	
5.19229	
6.03627	
6.15397	
3.46668	
3.65649	
4.6158	
3.78626	
4.66374	
5.50376	
3.39306	
3.50671	
5.64791	
5.64	
4.60067	
4.41203	
5.05283	
5.47218	
5.50767	
4.26798	
4.31137	
4.31026	
4.35253	
4.41978	
4.45442	
4.1803	
4.08503	
4.76562	
4.77972	
4.79124	
4.79765	
4.7946	
4.78448	
4.79711	
4.77766	
4.80221	
4.78722	
5.00385	
4.43643	
4.40644	
4.58817	
3.24728	
2.96231	
4.98337	
5.14907	
2.45008	
4.96024	
4.85996	
4.83077	
5.24304	
5.17917	
5.0231	
4.99013	
4.94016	
4.93753	
4.98955	
2.70336	
1.5253	
1.74569	
2.13076	
6.56758	
6.68371	
6.6104	
6.72555	
6.91261	
2.0647	
1.69496	
4.82317	
4.79665	
3.53643	
3.65618	
2.04765	
5.51426	
5.25243	
5.36069	
4.8386	
5.43246	
6.61802	
6.55979	
3.40313	
3.28843	
3.27692	
3.19296	
4.79252	
4.75076	
6.9927	
6.9701	
6.22907	
6.02816	
3.6802	
2.91382	
3.01633	
4.71743	
4.71537	
4.87752	
6.99198	
6.84961	
4.24474	
4.39648	
2.47998	
2.65032	
2.69039	
2.13259	
2.27983	
2.56749	
2.8453	
2.80973	
3.00608	
3.07386	
2.92503	
2.93644	
3.23896	
3.22641	
4.79458	
4.78789	
4.78685	
2.66205	
2.35041	
2.80606	
2.6403	
6.36285	
6.49578	
3.94167	
3.81753	
3.988	
5.19668	
5.45911	
2.71362	
2.3592	
4.76167	
4.78809	
4.72578	
4.77041	
4.67578	
4.69038	
4.63312	
4.67056	
3.78532	
4.04785	
2.15136	
5.40915	
5.0529	
4.85307	
4.87843	
4.87378	
4.91098	
4.79161	
4.4281	
4.37822	
4.43037	
4.39013	
4.58856	
4.61548	
4.60643	
4.63385	
4.04083	
3.92478	
4.03513	
3.93	
4.62753	
4.66596	
4.59885	
4.82568	
4.8294	
4.80552	
4.80691	
4.72684	
4.76067	
4.73169	
5.13207	
1.30915	
1.56505	
4.23454	
4.29432	
4.2388	
5.16467	
5.29563	
3.4496	
3.68445	
3.38019	
4.81744	
4.83496	
4.88692	
5.7675	
5.81547	
3.61896	
3.70858	
3.83306	
5.49991	
4.80905	
4.7821	
4.986	
4.81744	
4.46295	
4.70049	
4.49573	
4.18356	
3.17976	
3.51594	
4.75207	
4.71655	
4.74003	
4.7986	
4.80641	
3.90249	
3.84748	
4.50087	
4.49713	
4.54649	
4.46291	
4.48029	
3.37364	
3.40536	
3.51599	
5.35847	
5.88831	
5.32596	
5.85379	
3.74767	
3.10339	
4.00125	
4.06272	
4.11605	
5.2287	
5.20334	
5.05728	
5.05354	
3.95299	
3.98373	
4.09658	
4.03622	
3.60324	
4.66107	
4.69328	
4.6547	
4.69279	
6.95014	
6.13531	
6.12434	
5.35755	
5.03995	
4.54918	
4.80857	
4.76275	
3.70472	
3.72062	
3.80855	
3.85588	
3.73362	
3.72446	
3.85757	
3.8956	
4.94907	
4.86709	
5.1005	
4.9262	
5.06411	
5.07053	
4.35233	
4.17761	
4.30016	
4.20426	
4.81634	
4.5154	
4.97164	
4.54258	
4.54737	
6.13773	
4.85322	
4.41338	
4.60246	
4.80423	
4.86169	
4.79829	
4.82748	
6.13935	
4.64922	
4.68276	
4.70165	
4.73213	
4.07183	
4.06307	
4.16293	
4.154	
4.12096	
4.08721	
4.26071	
4.25802	
4.52199	
4.46383	
4.5626	
4.50421	
5.87688	
6.97843	
2.45621	
1.75523	
4.18633	
4.1039	
4.23733	
4.17353	
4.85549	
4.82482	
4.86814	
4.83397	
4.93359	
5.04418	
4.90613	
5.03745	
4.84399	
4.88987	
4.84017	
4.87469	
5.24581	
5.45966	
5.1474	
5.22892	
0.824464	
1.14856	
4.94634	
4.89812	
5.17824	
5.11079	
5.53941	
5.21778	
6.76812	
6.02195	
6.19717	
5.63428	
5.58935	
5.31032	
5.52906	
5.14849	
5.47675	
4.01812	
3.84373	
4.18446	
3.91354	
4.92989	
5.04954	
2.92106	
3.57574	
2.9829	
4.31379	
4.32691	
4.35651	
4.37879	
4.27436	
4.3854	
4.35811	
3.09923	
2.97259	
2.80881	
3.67081	
3.5545	
3.66041	
3.55365	
3.34142	
3.08172	
3.35548	
3.1032	
4.78035	
4.7622	
4.78413	
4.77173	
4.77925	
4.76927	
4.785	
4.77598	
4.75749	
4.77392	
4.74523	
4.74219	
4.57336	
4.57911	
4.53826	
4.52585	
4.60996	
4.66109	
4.58105	
4.59926	
4.51885	
4.59037	
5.02886	
4.94796	
4.49672	
4.55117	
4.51679	
4.55021	
4.90669	
5.23377	
5.08434	
4.6909	
4.75995	
4.70097	
4.76205	
4.6541	
4.65215	
4.66488	
4.67045	
4.63526	
4.63037	
4.62883	
3.28043	
2.93384	
3.32236	
3.14196	
4.60759	
4.66147	
4.77423	
4.26507	
4.95664	
5.05304	
2.18189	
1.85765	
4.73052	
4.63879	
4.96156	
5.1605	
5.04656	
5.44896	
5.0524	
5.72916	
5.2508	
5.16006	
4.64361	
4.86129	
5.20426	
5.39526	
5.37615	
4.79155	
5.06533	
4.58453	
4.64149	
4.59083	
4.63877	
4.5964	
4.64319	
4.59285	
4.61788	
4.6968	
4.68225	
4.72537	
4.72838	
6.13618	
4.39552	
3.95691	
3.78239	
3.51005	
5.74359	
5.73176	
4.72192	
4.712	
4.69584	
4.68142	
4.78639	
4.71692	
4.73707	
4.80517	
4.82445	
4.79315	
4.79064	
4.81947	
4.79251	
5.2991	
5.27734	
3.67464	
3.57771	
3.90932	
4.97619	
4.9874	
4.90746	
3.76016	
3.63004	
6.15656	
4.43219	
4.48136	
4.0349	
6.83083	
5.31784	
4.92846	
4.84695	
4.27831	
3.30176	
3.12334	
3.42589	
2.42135	
2.54083	
4.05639	
4.15989	
4.18981	
5.02682	
3.01505	
2.67106	
5.008	
2.74724	
5.86345	
4.88508	
4.90914	
4.98053	
4.62321	
4.51815	
4.59112	
4.27679	
4.39019	
4.93467	
4.93092	
2.09351	
1.90783	
5.15079	
4.53589	
4.4255	
4.58095	
4.50154	
4.12798	
4.05757	
5.07617	
5.66191	
5.28659	
4.39512	
4.27166	
3.84117	
3.96408	
4.83443	
4.83081	
4.89516	
4.89446	
4.02193	
3.95876	
3.87433	
4.3368	
4.27088	
4.98511	
4.91277	
4.48495	
4.13327	
4.0465	
4.81095	
4.83433	
4.79827	
4.91549	
4.92767	
5.00562	
4.9662	
6.98348	
6.84239	
6.8248	
4.93014	
4.98125	
4.92544	
4.97999	
4.86502	
4.84424	
4.89557	
4.88428	
4.81608	
4.72724	
4.76359	
4.69759	
4.7342	
4.74097	
4.74973	
4.76807	
5.26208	
5.06816	
3.91064	
3.84773	
4.40644	
3.72098	
3.76325	
3.61603	
3.69606	
4.30232	
4.21489	
4.28037	
4.19769	
4.48647	
4.42808	
4.45288	
4.39961	
5.96907	
3.99005	
4.01537	
3.88434	
3.9225	
4.82911	
4.85611	
4.86993	
4.88107	
4.97557	
5.10622	
5.1732	
5.23994	
4.87392	
4.83494	
4.66252	
4.61042	
4.63828	
4.57921	
4.85491	
5.29819	
4.74757	
5.03854	
4.80153	
4.79587	
4.82545	
4.84003	
4.83585	
4.77621	
4.6868	
4.87058	
4.66875	
5.4452	
5.12513	
6.26034	
6.9287	
6.74626	
6.73149	
5.42909	
4.95567	
5.56186	
5.35779	
4.87191	
4.68272	
4.96635	
4.6748	
4.41629	
4.83682	
4.49651	
4.54423	
3.54262	
3.54232	
4.14218	
4.14933	
4.051	
4.09932	
4.50784	
4.46161	
4.92674	
4.90093	
4.8478	
4.82998	
5.12854	
5.33595	
5.10266	
5.2206	
1.60615	
1.58431	
0.816876	
1.16646	
3.50873	
3.40436	
3.60218	
3.51812	
4.23766	
4.31178	
4.29739	
4.3439	
4.99107	
4.93257	
4.86412	
4.83802	
3.3956	
3.16121	
3.51883	
3.64343	
4.45573	
4.40969	
4.45391	
4.37355	
5.0941	
4.97758	
5.04222	
4.96145	
4.88795	
4.79164	
4.79814	
4.76832	
4.78275	
4.79937	
4.80348	
1.3532	
4.88558	
4.88264	
6.86743	
6.05917	
6.01232	
0.880356	
1.75094	
6.83403	
6.67457	
5.59078	
5.73072	
5.40362	
2.64576	
2.42986	
2.22079	
4.69245	
2.06318	
2.58151	
1.94443	
4.62346	
4.48369	
4.86633	
4.81856	
4.80724	
4.77172	
5.4547	
5.58539	
5.82446	
6.06542	
5.19327	
5.06581	
5.67635	
5.49031	
6.63224	
5.86733	
6.62971	
5.68335	
5.5237	
5.36143	
5.23292	
2.48688	
2.27062	
4.86804	
4.9796	
4.85226	
4.92578	
2.71193	
2.41453	
2.59435	
5.07293	
5.41585	
5.3099	
5.65424	
5.48061	
6.90361	
6.77102	
3.0406	
4.77826	
4.75798	
4.79787	
5.41735	
6.98022	
6.8728	
6.06819	
6.80493	
0.835459	
1.22698	
1.66789	
1.77826	
5.07551	
5.38744	
5.324	
5.49371	
5.04424	
4.89336	
3.03759	
2.84425	
5.47462	
5.688	
5.89151	
6.10458	
6.24725	
5.9151	
6.00623	
5.73131	
6.0215	
6.53884	
6.62322	
6.55453	
6.32325	
6.19615	
2.17924	
2.01345	
1.8535	
1.64908	
4.30805	
4.20363	
4.56359	
4.40179	
6.6063	
6.43707	
-8.72289	
-11.9984	
-12.3117	
-12.291	
-10.8961	
-5.01694	
6.55693	
6.36631	
5.30114	
6.57666	
-2.95239	
-5.78501	
6.51803	
-4.70441	
-4.89317	
-4.14076	
-4.60586	
-10.9387	
-12.2004	
-12.0261	
-11.1626	
-4.99621	
-10.7083	
-1.37424	
0.912429	
-0.414958	
-6.13842	
-9.12237	
-7.70128	
-5.7165	
-3.77264	
-4.95666	
-12.0905	
-12.2181	
-12.2232	
-10.3124	
-10.0718	
-9.11548	
-0.774856	
-12.2848	
-5.7875	
2.0052	
3.51427	
-5.62631	
-9.30951	
4.15999	
5.01191	
-9.20826	
-3.35516	
3.52999	
-2.87955	
-5.89576	
-8.73186	
-4.05622	
-6.62543	
-11.7966	
-11.4756	
-10.7488	
-1.95467	
-0.270142	
-4.03687	
-3.03203	
-10.924	
-5.25261	
-5.8977	
-4.66389	
-5.71709	
-4.07782	
-5.35523	
-0.110578	
-4.40611	
-2.79385	
-4.95912	
-3.64554	
-9.87703	
-10.8541	
-0.249315	
-7.08733	
-5.61378	
-3.48325	
-1.9887	
-3.17487	
-8.31963	
-10.7624	
-11.1875	
-10.8036	
-10.0792	
-4.5208	
-10.2622	
-9.18532	
-9.01224	
-1.77484	
-3.28268	
-11.0707	
-11.331	
3.27863	
0.353797	
3.78648	
1.97515	
-9.21838	
-9.14633	
-8.5174	
-8.36774	
1.15324	
-2.16114	
0.520959	
3.85562	
-3.41103	
-3.56835	
-4.13753	
-4.37257	
-9.20849	
-8.88508	
-8.16701	
-7.5056	
3.74002	
-8.68773	
-6.99554	
6.14767	
0.611601	
3.21564	
-7.22934	
-12.0169	
-3.33604	
4.57478	
4.21294	
2.24083	
1.43881	
0.247079	
2.08029	
-1.08602	
-0.619592	
-8.08356	
-9.44126	
-9.59129	
-8.53331	
-6.16005	
-4.25774	
-6.07585	
-5.0676	
-0.451016	
2.39795	
-8.37366	
-7.44129	
-7.83453	
-6.88661	
0.909947	
1.80929	
2.51427	
2.78151	
-4.37445	
-4.73923	
-5.35672	
-5.61751	
-1.13873	
-2.26344	
-0.24815	
-1.42547	
-9.6567	
-7.75992	
-11.1471	
-11.5219	
-10.9285	
-11.4007	
-3.91396	
-9.17063	
-10.4993	
-8.23011	
-7.89302	
-7.02467	
-6.65013	
-7.51698	
-6.77197	
-8.11407	
-7.37158	
4.08895	
6.52543	
6.42093	
-6.8268	
-6.94778	
-3.53954	
-4.61996	
-4.44029	
-3.02895	
-4.20129	
-4.85813	
-6.41269	
5.09608	
5.1868	
6.38162	
2.20335	
1.4954	
-11.6028	
-12.0131	
6.47983	
6.57064	
-8.93945	
-9.32033	
-9.68879	
0.16506	
0.481903	
1.545	
5.80701	
5.62514	
6.35672	
6.58454	
6.54269	
6.4953	
6.4967	
6.16031	
-10.7148	
-11.9398	
-11.8958	
1.49504	
1.03889	
3.07013	
2.01101	
-1.93005	
-0.845064	
-11.2061	
-11.3154	
-9.28941	
-10.0193	
-9.81048	
-10.3842	
-11.7536	
-11.5735	
-11.5754	
-11.8129	
-9.53488	
-10.2007	
-10.4204	
-11.3634	
-11.7867	
-11.8631	
1.20077	
0.581229	
-4.80573	
-4.47788	
-5.24537	
-4.45719	
0.973055	
-0.422347	
3.62408	
1.51898	
-9.37144	
-10.022	
-8.89804	
-9.95316	
-11.1143	
-11.7095	
-10.8548	
-11.5458	
-11.2736	
-11.6555	
-11.2154	
-11.6075	
-12.2068	
-11.9334	
-12.2905	
-12.2286	
-0.572294	
-1.66705	
-0.810792	
-2.47907	
-8.55317	
-7.69506	
-8.47601	
-7.58898	
2.64014	
4.54885	
-6.8166	
-5.9919	
-7.11877	
-5.43768	
-5.17052	
-2.72927	
-2.98207	
-0.668771	
-12.0819	
-12.2645	
-3.232	
-1.65215	
-3.0427	
-6.68117	
-5.47822	
-3.96837	
-3.42174	
-4.9307	
-5.12528	
-3.28697	
-2.00695	
-1.62751	
-2.71908	
-1.74607	
-3.7229	
-10.4851	
-10.3658	
-2.21286	
-1.59167	
-1.50997	
-0.414064	
-8.08489	
-9.12803	
-9.81605	
-9.38078	
3.18697	
-11.8128	
0.643174	
-0.179651	
-11.2838	
-11.6621	
1.44301	
1.64474	
3.26027	
3.49457	
-5.073	
-6.34127	
-4.43359	
-5.48793	
-7.07071	
-6.36627	
-8.06704	
-6.53738	
-9.46485	
-9.04388	
-10.2971	
-9.29099	
-6.53976	
-5.03724	
-6.76082	
-6.07894	
-8.974	
-7.83537	
-9.16601	
-8.6517	
-0.049576	
1.40237	
-12.103	
-12.1323	
-11.872	
-11.8287	
-10.9509	
-11.0557	
-11.2051	
-3.52447	
-3.7771	
3.82201	
4.74313	
0.466284	
1.65454	
-0.4942	
0.595776	
3.20928	
1.28394	
2.69803	
0.90409	
-9.87019	
-2.92035	
-2.0877	
-11.1923	
-8.06367	
-8.7157	
-7.64204	
-8.47985	
-10.3221	
-10.7319	
-9.80551	
-10.2435	
-11.6994	
-11.6826	
-6.7838	
-7.72287	
-8.0441	
-8.88165	
-8.4483	
-1.13898	
-0.511069	
-2.08045	
-1.46959	
4.2106	
3.3609	
5.17868	
5.13994	
-10.2764	
-10.3631	
-7.45996	
-7.18193	
-8.13921	
-8.20718	
-12.2519	
-2.70643	
-1.1485	
-6.74362	
-8.51413	
-9.10478	
-9.08783	
2.0319	
3.81982	
2.70762	
2.67899	
1.63915	
-9.77637	
-0.155398	
1.71014	
-0.453678	
0.594891	
-11.5268	
-9.97704	
-6.41169	
-5.71484	
-5.37842	
-6.22395	
-5.9921	
-5.64863	
-5.14029	
-7.28699	
-7.54686	
-7.86514	
-8.02965	
-8.93287	
-9.13253	
-9.97028	
-10.2687	
-10.843	
-11.0693	
-11.5149	
-11.9274	
-11.3391	
-11.749	
5.0672	
4.71274	
-1.69627	
-8.72812	
-8.0464	
-8.16115	
-7.47893	
-10.1696	
-10.6613	
-10.4558	
-10.9124	
-11.9809	
-0.203915	
-7.51992	
-7.70974	
-3.95109	
-3.9117	
-5.13631	
-5.64211	
-11.239	
-11.5625	
-10.5241	
-10.5654	
-11.0858	
-11.139	
1.53983	
-0.17465	
2.11639	
0.288191	
-7.8541	
-2.65993	
-6.13996	
-8.14267	
-2.13509	
-2.96499	
-4.95796	
-5.76055	
-3.82844	
-4.68189	
-11.8064	
-11.8009	
-11.3092	
-11.3742	
-5.02249	
-5.81118	
3.42303	
2.91732	
1.80954	
1.12181	
2.83764	
1.54193	
0.726227	
-12.2596	
-12.1374	
1.89842	
3.01012	
4.14278	
-3.52015	
-2.46703	
-2.39015	
-1.48418	
-4.95506	
-4.26789	
-3.95862	
-3.19682	
1.9373	
0.71124	
2.29082	
1.07016	
-12.0437	
-12.1814	
-11.7475	
-2.81842	
-3.8097	
-3.62672	
-3.05951	
-8.5693	
-8.6297	
-10.6892	
-11.0768	
-10.1822	
-10.2815	
-6.55388	
-5.593	
-4.59046	
-6.39752	
-4.69308	
-4.45597	
-5.13754	
-5.22662	
-6.05414	
-5.78401	
-6.0695	
-6.69082	
-7.15227	
-12.2595	
4.62746	
3.04207	
0.350169	
-0.925102	
-0.199399	
-1.06401	
-8.33065	
-9.00298	
-8.5666	
-9.29722	
-7.00358	
-5.70288	
-6.70707	
-5.88565	
-9.16633	
-10.9453	
-10.8316	
6.4394	
4.94472	
3.93854	
-9.39291	
-9.81602	
-9.17561	
-9.61304	
-10.7951	
-10.9588	
-10.4135	
-10.7615	
1.24728	
0.511222	
2.66557	
2.53087	
-1.86248	
-2.02466	
-0.198966	
-0.932568	
4.0869	
3.81829	
6.32671	
2.15576	
4.42591	
6.37662	
-7.46889	
-7.91875	
-9.36083	
-8.98557	
-9.64502	
-9.96653	
-10.2752	
-9.59458	
-10.2192	
-9.55113	
-11.9705	
-11.9195	
-3.39007	
-2.97646	
-4.21142	
-4.4942	
-4.59991	
-4.46907	
-5.44731	
-5.27952	
-5.5849	
-5.24132	
-6.35036	
-6.48952	
-12.0136	
-12.1026	
-12.2042	
-12.1648	
-12.1913	
-11.9658	
4.46027	
6.13155	
-10.9742	
-11.3316	
-11.4265	
-11.3151	
-11.5034	
-11.9636	
-12.039	
-11.7016	
-11.7322	
6.5635	
-10.9283	
-10.8292	
-10.3633	
-12.1419	
-12.2733	
-12.2811	
-12.0823	
6.47743	
-11.1654	
-11.2673	
-11.0664	
-11.0201	
4.61728	
4.50931	
6.40235	
6.24145	
4.93488	
3.90424	
6.43452	
-11.786	
-12.1572	
-12.1116	
-12.2064	
-12.136	
6.50957	
-12.2358	
-12.2167	
-12.2638	
-12.2725	
4.97206	
4.34754	
-12.15	
6.53649	
6.58922	
-6.62207	
-6.49166	
-6.59499	
-6.57689	
-7.40666	
-8.2477	
-8.2734	
-9.00396	
-10.2362	
-11.5675	
-5.99191	
-5.58674	
-5.12458	
-11.7619	
-11.4508	
-11.5873	
-11.4846	
-7.90096	
-7.50763	
-6.646	
-5.92519	
-10.092	
-9.52436	
-9.54527	
-9.78504	
6.49929	
6.25116	
5.94793	
-7.63392	
4.5582	
3.13504	
2.71744	
3.8906	
2.932	
-11.954	
-11.9645	
-12.1952	
0.867078	
1.54047	
0.578253	
1.51092	
-12.3066	
-11.9439	
-12.2256	
-12.1689	
-12.2438	
-11.8631	
-11.8374	
-11.7386	
-11.6923	
5.94796	
6.17381	
3.4973	
-11.5925	
-11.0915	
-11.6097	
-11.1116	
-6.65289	
1.9855	
-10.1428	
-9.71823	
6.5291	
4.43387	
6.46551	
6.43932	
-10.1593	
-9.86766	
-9.64171	
-2.12115	
-2.11736	
-0.648194	
-10.7206	
-10.7064	
-12.2882	
-12.2626	
-12.1455	
-12.3214	
-12.3093	
0.31745	
-1.0057	
5.80971	
4.43197	
5.90315	
4.53513	
5.85023	
4.42224	
3.72636	
4.00107	
2.93387	
-11.4236	
-11.2509	
-11.022	
-10.8589	
-9.42141	
-9.10394	
-10.2149	
-11.7123	
-11.9248	
2.11858	
1.7345	
0.0158045	
-11.367	
-11.3689	
-6.86454	
-6.01556	
-8.21827	
-8.82576	
-12.299	
-12.0069	
-6.11592	
-5.78953	
-5.15559	
-7.69234	
-7.24925	
-8.57273	
-8.18721	
-8.52516	
-7.93632	
-8.29953	
-7.39127	
4.1999	
3.13535	
-7.17716	
-7.98883	
-7.2972	
-8.10103	
-2.93887	
-3.01339	
-6.65802	
-6.83596	
-9.43961	
-9.96911	
-9.39054	
-9.92167	
-4.08876	
-4.30461	
-11.9886	
-11.98	
-11.7215	
-11.5303	
-10.032	
-10.5158	
-9.78506	
-10.2971	
-6.44358	
-7.39543	
-6.64577	
-7.15274	
-9.31911	
-9.91599	
-10.4	
-9.28016	
-10.2301	
-9.50215	
-0.229974	
-1.40685	
-1.92747	
6.35703	
4.62114	
-10.4443	
-10.5557	
-10.7988	
-2.02119	
-1.85433	
-1.14077	
-8.0831	
-7.75599	
-7.36925	
-6.84313	
-1.35431	
-0.975556	
-1.83795	
-2.49245	
-3.22961	
-10.5634	
-10.7255	
4.6904	
6.32614	
6.23467	
6.2189	
-0.798708	
-1.17144	
6.13109	
6.51842	
5.13237	
6.41819	
-12.0972	
-12.2633	
-11.7256	
-12.0343	
-3.29415	
-2.76167	
-1.15567	
4.87383	
6.40054	
-12.3182	
-12.2155	
-12.3046	
-12.1279	
-0.716103	
0.0818775	
-2.16076	
-0.770053	
4.51911	
2.62816	
2.91433	
1.62537	
1.67883	
-0.757799	
-1.74976	
0.272678	
-1.36792	
4.50038	
3.70334	
-6.92672	
-7.89981	
-6.74039	
-7.56559	
-2.35162	
-3.2933	
-3.08242	
-3.99863	
6.46189	
6.37688	
-10.3238	
-9.76572	
4.9074	
4.54684	
6.56658	
6.35644	
3.45587	
2.45026	
1.01657	
0.246371	
-1.08924	
-0.972308	
-0.496875	
-0.312249	
-0.74897	
0.21438	
0.405862	
1.02013	
1.78074	
1.35928	
0.689951	
-0.0653813	
-1.22978	
-1.11317	
-0.679493	
-0.902444	
-0.440393	
1.92755	
-0.140155	
1.47855	
0.658439	
1.04853	
0.300594	
-1.3305	
1.70781	
1.1633	
0.353869	
-0.151086	
0.636165	
-0.955877	
-1.1351	
-1.60076	
-1.86529	
-1.88763	
-1.40922	
-0.582696	
1.42296	
0.91614	
-0.962936	
-0.152843	
-0.536182	
0.289259	
-1.6186	
-1.8271	
-1.59313	
-1.67669	
-1.43879	
-1.20126	
1.89331	
5.215	
0.809716	
5.00958	
4.83789	
4.79542	
6.5607	
6.8762	
6.88965	
6.83412	
6.97046	
6.7899	
1.17721	
0.787842	
6.44525	
3.97327	
0.650447	
1.60889	
6.57494	
6.55594	
5.38082	
6.83847	
5.58771	
4.72602	
5.15015	
5.38495	
3.34948	
4.81356	
4.96835	
2.73819	
2.92397	
3.03018	
3.47034	
2.23828	
4.06405	
4.33113	
5.29934	
4.72261	
4.19545	
4.51644	
4.77518	
4.65008	
4.54913	
4.70684	
4.77584	
5.50171	
4.21153	
4.81676	
4.75944	
4.18563	
4.13843	
4.63029	
4.52478	
4.75306	
4.6086	
4.0074	
4.91273	
4.91341	
4.88993	
4.89023	
5.4607	
4.87955	
4.90685	
5.86281	
4.84425	
3.17664	
4.16342	
4.90131	
4.92423	
4.79434	
5.04026	
4.45023	
4.31482	
5.59326	
5.14891	
5.04035	
4.83016	
6.10852	
3.94803	
3.85813	
3.99462	
3.88925	
4.66335	
3.75401	
5.66456	
3.58004	
2.40595	
4.88691	
4.40537	
3.56163	
4.80379	
4.80573	
4.78891	
4.78095	
5.55927	
5.20355	
5.03906	
4.86732	
6.04464	
3.64913	
3.49984	
4.62843	
4.96392	
3.78688	
4.91092	
4.64736	
5.46441	
3.46034	
3.38587	
5.66157	
5.75571	
4.5619	
4.47303	
5.10643	
5.34794	
5.4701	
4.30776	
4.35108	
4.26479	
4.30895	
4.59498	
4.41394	
4.17885	
4.17527	
4.75767	
4.78576	
4.77068	
4.77172	
4.78211	
4.79277	
4.77711	
4.78891	
4.77798	
5.025	
4.40556	
4.50223	
4.5196	
3.2357	
3.10675	
4.98269	
5.26761	
2.4422	
4.95106	
4.86284	
1.65243	
4.82737	
5.19148	
5.17349	
5.04301	
5.03181	
4.93961	
4.99614	
4.94002	
2.69463	
1.74676	
1.52095	
2.12948	
6.68736	
6.91253	
6.72454	
2.16668	
4.8191	
4.79651	
3.5303	
3.71617	
5.28131	
5.60383	
5.40097	
4.82856	
5.47945	
5.27287	
6.49299	
6.61836	
3.24457	
3.12627	
3.37837	
3.26734	
4.79312	
4.75188	
6.82259	
6.16543	
3.67063	
2.9025	
2.9237	
4.68915	
4.72926	
4.76643	
6.84878	
6.99295	
4.291	
4.38954	
2.61165	
2.51224	
2.70625	
2.8096	
2.86096	
2.9426	
3.01337	
2.93495	
3.07689	
3.07805	
3.23197	
4.78544	
4.79077	
4.79245	
2.80327	
2.23809	
2.65639	
2.35034	
6.48021	
3.93732	
3.85126	
5.23913	
5.21651	
4.78686	
4.75926	
4.76975	
4.73053	
4.68512	
4.64687	
4.66561	
4.6276	
3.91535	
6.59653	
4.41563	
4.79924	
4.85527	
2.12184	
1.86802	
5.37567	
5.02927	
4.87148	
4.89784	
4.84989	
4.85084	
4.76725	
4.42558	
4.35218	
4.42452	
4.37469	
4.60041	
4.62545	
4.57199	
4.60608	
4.02982	
3.9234	
4.08323	
4.59938	
4.71298	
4.84332	
4.82463	
4.80502	
4.8039	
4.7196	
4.73498	
5.13534	
5.02483	
4.27642	
4.2342	
4.28879	
5.32036	
5.35492	
3.61149	
3.44194	
3.3712	
4.80556	
4.87213	
4.82271	
6.12392	
5.76681	
5.81483	
3.70148	
3.67651	
3.82591	
5.5694	
4.8777	
4.76258	
4.83345	
4.74513	
4.62802	
4.48727	
4.45526	
4.17989	
3.16531	
3.7538	
4.71266	
4.72987	
4.73826	
4.80331	
4.79841	
3.91859	
3.89622	
3.84078	
4.48534	
4.53446	
4.48404	
4.45572	
4.45723	
3.41682	
3.37216	
3.51716	
5.60136	
5.38688	
5.86188	
5.50997	
4.11239	
3.09118	
4.0196	
3.98421	
4.09968	
4.0587	
5.03262	
5.15964	
5.15785	
3.97924	
4.01509	
4.0925	
3.66056	
3.8967	
4.66906	
4.68576	
4.65099	
4.67282	
6.95046	
6.13627	
5.7882	
5.03924	
4.54849	
4.98391	
4.77274	
3.65125	
3.69897	
3.81356	
3.80299	
3.66386	
3.72602	
3.81986	
3.85031	
5.07821	
4.92759	
4.95254	
4.86868	
5.04659	
5.05183	
5.26346	
4.2939	
4.20048	
4.34826	
4.2606	
4.5126	
4.83001	
4.41693	
5.00464	
4.53311	
4.35191	
4.58613	
4.4005	
4.7954	
4.82531	
4.80095	
4.83544	
5.89371	
5.94355	
4.70002	
4.72302	
4.65865	
4.67904	
4.05814	
4.06685	
4.14958	
4.15855	
4.03655	
4.11769	
4.17459	
4.26437	
4.53886	
4.49212	
4.51336	
4.47285	
6.04431	
2.44831	
1.7501	
4.23505	
4.17042	
4.18328	
4.11227	
4.8665	
4.81292	
4.87394	
4.81848	
4.99077	
4.93329	
5.03595	
4.87444	
4.82821	
4.87453	
4.83944	
5.47486	
5.25724	
5.46923	
5.1542	
1.11288	
0.770814	
4.89713	
4.9397	
5.47544	
5.21822	
5.39032	
5.11161	
6.75641	
6.20337	
6.03167	
5.89925	
5.64589	
5.67221	
5.18987	
5.61187	
5.27527	
3.8342	
4.01013	
3.90607	
4.07833	
5.0577	
5.0051	
2.91659	
2.97618	
3.56623	
4.32156	
4.30924	
4.37279	
4.38496	
4.31708	
4.35502	
4.3975	
2.76828	
3.65405	
3.54751	
3.71782	
3.54807	
3.25443	
3.10188	
3.33599	
3.22097	
4.75178	
4.77329	
4.74119	
4.77156	
4.78236	
4.76958	
4.77285	
4.76284	
4.76097	
4.74994	
4.75435	
4.73755	
4.57965	
4.5638	
4.54488	
4.53052	
4.64563	
4.60536	
4.63641	
4.57705	
4.50202	
4.64767	
6.36775	
4.92442	
4.90472	
5.01347	
4.51264	
4.54555	
4.49138	
4.51909	
4.90244	
5.09234	
4.69314	
4.67101	
4.73844	
4.709	
4.63814	
4.65118	
4.64059	
4.62686	
4.6528	
4.61681	
4.61613	
4.91215	
4.92459	
3.30965	
3.13152	
3.266	
3.00449	
4.57281	
4.59175	
4.76789	
4.26128	
4.76855	
4.96031	
5.09178	
2.17549	
1.85207	
4.84203	
4.71644	
5.10102	
4.89871	
5.37857	
5.26021	
4.90709	
5.24689	
5.10933	
5.32681	
4.69237	
5.19024	
5.09317	
5.35187	
4.84402	
5.02621	
4.83844	
4.57238	
4.6163	
4.56829	
4.61812	
4.58091	
4.60269	
4.58414	
4.61946	
4.70962	
4.68357	
4.68574	
4.66884	
5.36204	
3.49486	
3.48755	
4.1685	
3.91993	
5.78889	
5.77206	
4.70398	
4.70668	
4.68513	
4.68649	
4.78201	
4.72546	
4.73219	
4.71088	
4.81775	
4.80052	
4.78839	
4.79119	
4.79193	
3.59921	
3.70864	
3.91866	
4.89369	
4.96528	
4.96676	
3.76196	
3.63833	
5.31994	
4.42415	
4.47607	
4.03666	
6.83035	
4.87022	
4.92284	
4.26865	
3.45381	
3.32522	
3.13261	
4.15347	
4.01408	
4.18551	
3.04014	
2.69655	
4.89547	
5.78942	
2.80162	
2.63375	
6.66435	
6.61856	
4.59362	
4.62744	
4.59139	
4.38497	
4.27009	
4.93026	
4.97468	
1.94454	
5.09226	
4.58082	
4.43589	
4.52673	
4.41989	
4.12319	
4.05407	
5.50351	
5.29835	
5.05057	
3.8768	
3.98337	
4.09936	
4.27617	
4.87574	
4.87532	
4.8157	
4.80989	
3.9558	
3.99889	
3.87043	
4.33169	
4.26693	
6.34479	
6.21617	
4.49328	
4.02384	
4.12083	
4.79696	
4.80982	
4.8253	
6.82408	
4.98218	
4.92665	
4.83523	
4.85864	
4.83844	
4.88346	
4.73346	
4.82349	
4.70021	
4.76681	
4.75725	
4.74917	
4.72082	
4.72433	
5.06446	
5.25494	
3.84366	
3.90718	
4.8984	
4.87456	
4.97015	
4.90341	
4.44379	
6.62182	
6.64904	
3.75873	
3.71856	
3.69008	
3.59391	
4.2304	
4.19396	
4.29898	
4.27133	
4.4273	
4.49611	
4.38359	
4.4511	
5.9566	
3.8857	
3.92036	
3.98817	
4.0525	
5.17211	
5.23794	
4.98973	
5.10458	
4.61026	
4.66558	
4.57727	
4.5967	
5.29104	
4.62918	
5.02694	
4.73593	
4.83294	
4.87159	
4.65921	
4.74332	
4.64927	
4.75831	
5.10034	
5.29979	
4.82442	
4.81314	
4.82856	
6.92797	
6.25987	
6.73061	
6.74565	
4.93878	
5.16864	
4.9672	
5.43104	
4.81618	
4.79381	
4.81975	
4.68029	
4.88127	
4.68608	
4.54455	
4.48657	
4.79383	
4.82223	
4.88132	
3.52907	
3.53216	
4.04686	
4.09535	
4.08039	
4.14545	
4.50563	
4.459	
4.97335	
4.92611	
4.82909	
4.84633	
5.31891	
5.11843	
5.51884	
5.09799	
1.56939	
1.59982	
1.14981	
0.728465	
3.37875	
3.49937	
3.50975	
3.60995	
4.30628	
4.2343	
4.33917	
4.29185	
4.93131	
4.93329	
4.85975	
4.86195	
3.66229	
3.33204	
3.41361	
3.20541	
4.40319	
4.44621	
4.36733	
4.39773	
4.97748	
5.1604	
4.95542	
5.00947	
4.79214	
4.7874	
4.77486	
4.76734	
4.79695	
4.79381	
4.79504	
4.7887	
4.82228	
4.83248	
2.05912	
4.86919	
4.86952	
6.86942	
6.01549	
6.06351	
6.8109	
6.01146	
6.9935	
7.00025	
6.08263	
5.89296	
2.25253	
2.59968	
2.51656	
1.88464	
1.48598	
1.17953	
4.54037	
6.71087	
6.82027	
2.38004	
2.16143	
5.39793	
1.46143	
1.95196	
2.57278	
2.05721	
1.93937	
4.57514	
4.82792	
4.57898	
4.80293	
4.7663	
4.81477	
5.47131	
5.66677	
6.97198	
6.96211	
6.21054	
5.50693	
5.67892	
5.2315	
5.36785	
4.92342	
4.81308	
4.96748	
4.8242	
2.40779	
2.70299	
5.09431	
5.27847	
4.9874	
5.49371	
5.64772	
6.76704	
6.90396	
3.03802	
2.38274	
2.6588	
2.73216	
2.26167	
2.59035	
4.7526	
4.77411	
4.82858	
5.4223	
6.87189	
6.9794	
2.38117	
2.59438	
5.18043	
5.10463	
5.49853	
5.32965	
2.32416	
2.46149	
1.97196	
2.27264	
1.17491	
1.71202	
1.85077	
6.09245	
6.24472	
6.09423	
5.26895	
5.11025	
4.9446	
4.87713	
4.74671	
3.02922	
2.82629	
3.08052	
2.9318	
5.68833	
5.54125	
6.10485	
6.14034	
0.869049	
1.73634	
1.36006	
4.89052	
5.52639	
5.6788	
5.67045	
4.66454	
4.38745	
4.29706	
4.19788	
1.62663	
1.16872	
1.60588	
1.14342	
6.43775	
6.45078	
6.48668	
-8.71152	
-11.9861	
-12.3028	
-12.1921	
-10.903	
6.5459	
6.34891	
5.30767	
6.60503	
-2.91056	
-5.95847	
6.42136	
-4.67557	
-4.87199	
-4.13162	
-4.00217	
-10.9243	
-11.6718	
-10.9919	
-4.9917	
-10.7069	
-12.1721	
-1.37174	
0.909067	
-0.414776	
-6.81224	
-9.41363	
-8.24253	
-5.71372	
-4.95678	
-4.55122	
-12.2047	
-12.1868	
-12.0492	
-9.47621	
-9.47114	
-10.4159	
-0.774029	
-12.2657	
-5.78471	
2.00026	
3.50641	
-5.62229	
-9.3051	
3.89567	
4.42765	
-9.19246	
-3.35386	
3.52929	
-2.87352	
-5.89277	
-8.63121	
-4.73657	
-6.62058	
-11.7767	
-11.4627	
-10.7529	
-1.94482	
-0.260975	
-4.03584	
-3.95483	
-10.9177	
-5.75685	
-5.24917	
-4.54802	
-5.33185	
-4.0971	
-5.36525	
-1.13818	
-4.9564	
-3.64357	
-5.13456	
-3.29188	
-9.62713	
-10.3065	
-0.250795	
-5.54332	
-6.57696	
-3.48029	
-3.17153	
-1.98585	
-8.35298	
-11.2266	
-10.7921	
-10.069	
-4.52462	
-10.2576	
-9.15169	
-9.0015	
-1.77523	
-3.2812	
-11.052	
-11.3131	
2.44533	
0.860392	
3.78006	
1.97616	
-8.09475	
-8.36087	
-9.21126	
-9.52663	
1.14336	
0.517952	
3.86014	
-4.64637	
-4.36299	
-3.37696	
-3.55821	
-7.55933	
-8.05721	
-8.88949	
-8.87193	
3.75045	
-8.68318	
-6.96812	
6.14272	
0.610763	
3.21138	
-7.28445	
-11.9777	
-3.10209	
4.20959	
3.81699	
2.24016	
1.43675	
2.07817	
1.51784	
-1.08684	
-0.6211	
-9.67569	
-8.15457	
-8.67052	
-9.01342	
-6.07292	
-4.19974	
-6.57362	
-5.12304	
-0.449678	
2.40476	
-7.06648	
-6.88336	
-8.37039	
-8.18815	
1.81578	
1.20617	
2.78944	
2.52084	
-5.35394	
-5.61434	
-4.37238	
-4.05417	
-0.247607	
-2.38853	
-0.11058	
-2.26193	
-11.7305	
-9.64351	
-7.77112	
-10.9455	
-11.4071	
-11.5351	
-3.91411	
-5.78951	
-10.4895	
-7.00682	
-7.01439	
-7.81663	
-7.87477	
-8.10978	
-6.6873	
-8.15609	
-6.76823	
5.1315	
6.39076	
-6.93131	
-6.12618	
-4.61695	
-2.46527	
-4.43742	
-5.06549	
-4.85606	
-3.02827	
-6.92175	
5.18636	
6.37689	
2.19982	
1.492	
-11.5654	
-11.8056	
6.56649	
6.47369	
-9.28671	
-8.81745	
-9.91448	
0.115082	
1.54471	
0.481169	
5.63749	
5.83421	
6.30893	
6.47412	
6.45372	
6.49539	
6.49406	
6.15884	
-10.7151	
-11.9272	
-11.8933	
3.06743	
2.00972	
2.69474	
1.0379	
-1.90762	
-0.874873	
-11.31	
-11.1986	
-10.3133	
-10.3745	
-9.28345	
-9.11597	
-11.7367	
-11.5657	
-11.5596	
-11.8074	
-10.1896	
-9.13808	
-10.4057	
-11.7664	
-11.0745	
-11.8372	
0.350818	
0.582107	
-4.80807	
-5.11718	
-4.42206	
-4.44334	
0.972402	
-0.421948	
0.246776	
3.62241	
-10.0093	
-9.36231	
-9.94097	
-9.19707	
-11.5125	
-11.0961	
-11.5001	
-11.034	
-11.1987	
-11.5826	
-11.2583	
-11.6336	
-11.9015	
-12.2711	
-11.9939	
-12.2796	
-1.86225	
-2.47858	
-0.573528	
-1.66738	
-8.1911	
-8.53299	
-7.56941	
-8.0152	
4.55246	
3.49781	
-5.75482	
-6.77611	
-7.09739	
-5.15976	
-5.4271	
-0.668729	
-2.16024	
-1.74524	
-2.98072	
-12.2477	
-12.0773	
-3.23478	
-3.04463	
-1.65248	
-5.49172	
-4.92851	
-4.25613	
-3.96666	
-3.42068	
-3.30741	
-2.06451	
-2.72793	
-3.8261	
-1.62653	
-2.71731	
-1.51208	
-0.503009	
-2.24089	
-1.62734	
-8.0592	
-9.88234	
-9.20936	
-9.43686	
3.19185	
-11.9107	
-0.177957	
0.645561	
-11.6534	
-11.2884	
1.64733	
2.11722	
2.64514	
3.26092	
-4.43019	
-5.48373	
-4.26443	
-6.13038	
-6.36185	
-7.82622	
-6.5326	
-7.49918	
-9.01999	
-10.0013	
-9.26095	
-9.93977	
-5.63648	
-6.53229	
-5.22312	
-6.75564	
-8.21058	
-8.95463	
-8.03613	
-9.14702	
1.80918	
-0.0492224	
1.40202	
-11.8334	
-11.9705	
-12.0173	
-12.089	
-11.2623	
-11.2021	
-10.9589	
-3.73021	
-3.51178	
4.75014	
3.83204	
1.64232	
0.460716	
0.597752	
-0.418382	
1.49295	
0.902124	
3.20449	
2.52618	
-9.9658	
-1.94664	
-2.72003	
-11.1845	
-8.71084	
-7.40282	
-8.47551	
-7.63815	
-10.7271	
-9.80453	
-10.655	
-9.80177	
-11.6675	
-11.6879	
-7.76592	
-8.44378	
-8.4195	
-8.86401	
-2.07966	
-1.46973	
-1.13871	
-0.51145	
3.3574	
4.20713	
4.08267	
5.17316	
-7.1632	
-7.43717	
-7.67606	
-8.12842	
-10.3517	
-12.2172	
-2.66059	
-1.1259	
-6.75855	
-8.63433	
-8.97502	
-8.50505	
2.02826	
2.71537	
3.83209	
1.65955	
2.68014	
-9.78686	
-0.452882	
1.5419	
-0.154767	
1.12191	
-11.7879	
-10.0666	
-7.39684	
-6.41603	
-5.70249	
-5.70976	
-5.98023	
-6.21226	
-5.22954	
-5.62987	
-7.83785	
-8.00724	
-7.2722	
-7.14166	
-9.13188	
-8.9014	
-10.7552	
-10.8375	
-10.2043	
-10.2522	
-11.3277	
-11.7322	
-11.2399	
-11.8057	
4.71175	
5.06614	
-7.51199	
-7.47292	
-8.72028	
-8.63997	
-10.7874	
-10.9058	
-10.1679	
-10.238	
-11.945	
-0.243497	
-7.68084	
-7.50585	
-3.90879	
-3.94812	
-5.0343	
-5.1298	
-11.2382	
-11.5566	
-11.3489	
-11.1277	
-10.5114	
-10.2663	
0.273506	
1.54003	
0.289769	
1.44456	
-7.84351	
-2.45339	
-8.12977	
-6.33394	
-2.96307	
-2.1336	
-5.89375	
-4.95484	
-4.67919	
-3.72086	
-11.2971	
-11.5966	
-11.5148	
-11.7791	
-5.78911	
-5.00493	
2.91685	
3.04128	
1.71009	
2.83714	
0.72639	
0.595253	
-12.1325	
-12.2544	
3.00917	
1.89771	
4.14087	
-3.53717	
-3.51785	
-1.48292	
-1.42421	
-5.06605	
-4.9475	
-3.19443	
-3.03002	
2.28799	
1.06858	
1.93627	
0.711428	
-12.0302	
-12.2848	
-2.81672	
-1.69857	
-4.02506	
-3.27175	
-3.79492	
-9.48154	
-8.57543	
-11.0654	
-10.7009	
-10.8244	
-10.2474	
-5.57538	
-6.5367	
-4.57737	
-4.68344	
-6.38482	
-4.40339	
-4.45278	
-6.05059	
-6.07522	
-6.06652	
-5.78098	
-7.14867	
-7.36786	
-12.2407	
3.42225	
4.62641	
-0.189806	
-1.05568	
0.916491	
-0.923425	
-9.10724	
-9.2806	
-8.31664	
-8.51371	
-6.67364	
-5.81472	
-7.03818	
-6.53249	
-9.10278	