<VTKFile type="UnstructuredGrid" version="0.1" byte_order="LittleEndian">
	<UnstructuredGrid>
		<Piece NumberOfPoints="1917" NumberOfCells="3602">
			<CellData Scalars="scalars">
				<DataArray type="Float64" Name="Doublet Strengths" NumberOfComponents="1" Format="ascii">
5.37309	
1.43752	
5.06445	
4.8612	
4.61834	
5.18616	
4.09846	
3.80927	
3.61769	
3.62065	
3.88818	
1.31642	
1.01318	
5.0524	
1.85241	
0.927679	
1.32884	
4.91164	
2.56367	
4.5362	
4.99885	
3.43812	
4.55279	
2.6205	
2.86868	
2.73623	
3.54031	
2.25956	
3.57199	
3.6713	
3.5198	
4.04564	
3.65344	
4.65052	
4.51522	
4.50249	
4.39006	
4.46003	
3.79325	
4.73138	
4.03659	
4.0119	
4.14215	
3.96474	
4.54043	
4.03885	
3.68613	
3.90269	
4.27717	
2.57212	
2.54477	
4.15527	
4.34111	
3.97826	
4.03379	
4.05848	
4.1784	
4.04977	
3.55183	
4.10784	
2.91639	
3.7216	
3.72192	
3.59384	
3.74741	
3.60452	
3.74031	
4.20842	
3.68802	
3.72775	
3.4958	
3.56079	
3.5835	
3.64141	
3.6768	
3.74416	
3.0548	
4.62111	
3.35488	
1.63467	
4.26069	
4.03857	
4.10587	
2.29746	
4.43449	
4.70324	
4.45984	
4.69339	
5.06653	
5.17418	
3.88949	
3.90112	
3.42832	
3.56169	
3.44071	
3.9239	
4.46055	
5.33477	
3.37987	
3.46746	
3.76606	
3.70587	
3.72685	
3.71585	
4.04066	
3.81107	
3.83503	
3.63767	
3.74194	
3.64283	
3.71578	
3.66141	
3.51578	
3.643	
3.62183	
4.32755	
4.41477	
4.46388	
4.51626	
4.44467	
4.33126	
4.46481	
4.28255	
4.35377	
4.33529	
3.98346	
3.72489	
3.79998	
3.67767	
3.66974	
3.29474	
3.8248	
3.79612	
1.89765	
4.9454	
4.87841	
4.60324	
3.80984	
3.77205	
3.86001	
3.91148	
3.98689	
3.95122	
3.92232	
2.49394	
1.24737	
1.47062	
1.80777	
3.67719	
4.33101	
3.78371	
3.31366	
3.78063	
2.1082	
1.57053	
4.80471	
4.6235	
3.68419	
3.73022	
2.23386	
3.8777	
4.02245	
3.64083	
4.52951	
4.89123	
5.35095	
5.32316	
3.55145	
3.45466	
3.56687	
3.65109	
3.74868	
3.83017	
3.73733	
3.90583	
3.73638	
3.86743	
3.22869	
2.40194	
2.48768	
4.6217	
4.44346	
4.59443	
3.89025	
4.04542	
3.01526	
5.04355	
2.61457	
3.15628	
2.7287	
1.97359	
2.25744	
2.43881	
3.01439	
3.56612	
3.1371	
3.37585	
2.72794	
2.8512	
3.11392	
3.2396	
4.32199	
4.40592	
4.37272	
2.3331	
2.10356	
2.47888	
2.40023	
4.66537	
5.18415	
3.94729	
3.89918	
4.05169	
3.94485	
3.73543	
2.49876	
2.14655	
3.87672	
3.77635	
3.89213	
3.77181	
4.20858	
4.06155	
4.21456	
4.04556	
3.7152	
3.87511	
2.36341	
5.17841	
5.07599	
4.22971	
4.06957	
4.58148	
4.10156	
4.55593	
3.92833	
3.94248	
4.04302	
3.99716	
4.18713	
4.2008	
4.15289	
4.1591	
3.56957	
3.63399	
3.53362	
3.49809	
3.69911	
3.791	
3.79245	
4.37751	
4.23332	
4.27201	
4.32283	
4.31628	
4.26619	
4.24161	
4.01954	
1.35037	
1.64164	
4.10034	
4.13172	
4.22141	
3.87493	
4.02243	
3.91364	
3.46681	
3.25021	
4.76931	
4.78321	
4.94667	
3.80868	
3.77188	
3.62429	
3.94719	
3.83048	
4.94966	
4.5616	
4.50059	
4.74263	
4.69722	
4.67851	
4.69802	
4.55672	
4.36676	
2.45946	
2.9274	
4.41509	
4.46432	
4.39974	
4.67154	
4.75531	
3.64608	
3.64236	
4.44509	
4.39058	
4.43252	
4.05737	
4.19961	
3.73309	
3.96805	
3.82171	
3.89708	
3.71177	
3.93091	
3.73497	
3.69431	
2.19559	
4.13023	
4.12616	
4.24428	
5.25739	
5.14793	
5.09366	
5.14656	
3.78734	
3.90087	
3.73194	
3.82194	
3.8264	
4.28637	
4.33075	
4.24586	
4.25915	
3.87679	
3.73346	
3.94532	
3.51408	
3.50881	
3.83753	
3.65584	
3.59484	
3.70009	
3.80901	
3.77945	
3.87877	
3.49047	
3.55742	
3.50305	
3.55389	
3.59583	
3.63407	
3.57374	
3.64947	
4.91202	
4.87321	
3.68348	
4.0614	
3.69492	
3.64672	
3.78353	
3.85915	
4.1398	
4.05866	
4.44713	
3.23851	
3.29315	
4.74594	
4.58758	
4.00492	
3.9278	
4.05882	
3.88728	
3.7002	
4.03912	
4.02555	
3.8957	
3.9259	
3.55527	
3.53981	
3.59538	
3.61721	
3.5719	
3.65053	
3.64638	
3.72059	
4.26249	
4.17842	
4.25546	
4.35412	
4.02355	
4.6662	
2.1057	
1.41042	
4.31221	
4.23509	
4.28168	
4.45662	
4.14531	
4.09558	
4.06494	
4.09734	
3.93142	
3.82193	
3.95351	
3.82712	
4.20366	
4.07404	
4.22516	
4.07802	
3.74549	
3.70771	
3.81036	
3.80261	
1.21139	
1.39533	
4.94325	
4.96622	
3.71778	
3.76184	
3.90384	
3.78097	
3.43808	
3.8968	
3.70055	
3.80956	
3.80272	
3.95829	
3.95638	
3.82995	
3.95614	
3.24971	
3.29995	
3.41779	
3.84792	
5.48688	
3.89664	
1.75437	
2.14476	
1.8064	
4.01343	
4.01544	
3.97345	
4.00711	
3.90127	
3.93593	
3.98288	
3.49841	
3.31996	
3.31962	
3.46657	
3.44312	
3.56541	
3.48962	
3.3657	
3.24044	
3.4354	
3.22022	
4.6937	
4.42884	
5.05385	
4.58623	
4.26813	
4.21642	
4.29193	
4.22463	
4.28823	
4.27934	
4.34772	
4.32173	
4.27408	
4.18345	
4.23641	
4.12485	
4.09469	
3.92821	
4.053	
3.97947	
4.62106	
4.49923	
5.01224	
4.81109	
4.14282	
4.16695	
3.98635	
4.03109	
4.26751	
3.27435	
3.3981	
4.89824	
4.95428	
5.25806	
4.82611	
4.48515	
4.32004	
4.57396	
4.34064	
4.23632	
4.27307	
4.23862	
2.69358	
2.48437	
2.80482	
2.68013	
4.63662	
4.54125	
2.48204	
2.0753	
3.54015	
3.48196	
1.80504	
1.4923	
4.68841	
4.60026	
4.54926	
4.62273	
4.63872	
4.82627	
4.66812	
5.09539	
4.96906	
4.80396	
4.71048	
4.63781	
5.02321	
5.06392	
4.85222	
4.64547	
4.68053	
4.4757	
4.35387	
4.36473	
4.43652	
4.20655	
4.27643	
4.2054	
4.23044	
4.47414	
4.58023	
4.5965	
4.68668	
3.3807	
2.93065	
2.80756	
3.62568	
2.71284	
4.28025	
3.96174	
4.41934	
4.36414	
4.45654	
4.33043	
4.05807	
4.21953	
4.13482	
4.50048	
4.75908	
4.3287	
4.42665	
4.29505	
4.46023	
4.80908	
4.79351	
3.83593	
3.80762	
4.18238	
5.74285	
5.65107	
5.14128	
4.01582	
3.95172	
4.06924	
4.51618	
4.63524	
4.41731	
3.57213	
3.62666	
5.00191	
4.78982	
4.65012	
3.67502	
3.63141	
3.76324	
3.14254	
3.13617	
4.44778	
5.25414	
4.78598	
3.98725	
3.9232	
4.35295	
4.71564	
4.31797	
3.3387	
4.68364	
4.7087	
4.7959	
3.63279	
3.78628	
3.70456	
4.54509	
4.64685	
3.98275	
4.00208	
2.51417	
2.25749	
3.88556	
3.68693	
3.7288	
3.75969	
3.79007	
4.38685	
4.35164	
4.7693	
4.87906	
4.83264	
4.11437	
4.22318	
3.88441	
4.04448	
4.68625	
4.63454	
4.83701	
4.65819	
4.14915	
4.07099	
3.99137	
4.51448	
4.5004	
4.81132	
4.80453	
3.29225	
3.15551	
3.06911	
4.46822	
4.26962	
4.46153	
4.14928	
4.19193	
3.94488	
4.11478	
4.76155	
4.42851	
3.33046	
3.91767	
3.86331	
4.08669	
3.93645	
4.82154	
4.72825	
4.92782	
5.43575	
3.62307	
3.77911	
3.82676	
3.70244	
4.46268	
4.63115	
4.46703	
4.53991	
2.7999	
3.18828	
4.01937	
3.97731	
4.55818	
3.80016	
3.88448	
3.79411	
3.75836	
3.99399	
3.83732	
4.05122	
3.99807	
3.79124	
3.86342	
3.92225	
3.95399	
3.17816	
4.2051	
4.46835	
4.02736	
4.07839	
4.36737	
4.47891	
4.2492	
4.31715	
4.04072	
3.81322	
3.75429	
3.75411	
4.21176	
4.28721	
3.75335	
3.79841	
3.90891	
3.92659	
4.6562	
4.96966	
4.68986	
4.8534	
4.31267	
4.39833	
4.44298	
4.49459	
4.56872	
4.48511	
4.39715	
4.51439	
4.4584	
4.86315	
4.79941	
3.51167	
3.65122	
3.45246	
3.12656	
4.8415	
4.64957	
4.75434	
4.7102	
3.83156	
3.99805	
3.7546	
3.77621	
3.07717	
3.36932	
3.82115	
3.87816	
3.08047	
2.97009	
4.18758	
3.96694	
3.95713	
3.8418	
3.85433	
3.92026	
3.77366	
3.75882	
3.77515	
3.73577	
5.05227	
5.14073	
5.03836	
5.14445	
1.77541	
1.75734	
1.06276	
1.30462	
3.61863	
3.74539	
3.70665	
4.08383	
4.50435	
4.39996	
4.28271	
4.48959	
3.88642	
3.89087	
4.082	
4.15612	
3.63026	
3.53565	
3.59899	
3.53668	
4.35835	
4.18216	
4.39862	
4.24747	
3.84773	
3.95209	
4.22504	
4.00193	
4.18688	
4.40622	
4.49249	
4.26385	
4.43334	
4.17035	
4.18972	
1.46869	
4.7173	
4.62076	
3.56717	
3.49261	
3.39858	
1.14354	
1.88923	
3.48376	
3.10502	
3.13711	
3.13284	
2.87378	
3.15189	
2.9605	
2.61997	
4.41969	
1.558	
2.30295	
1.436	
3.69601	
3.78594	
3.97806	
4.06154	
4.10919	
4.15308	
3.49083	
3.49491	
3.49046	
3.48472	
3.8457	
3.80971	
4.16159	
4.24628	
3.81829	
3.57649	
3.29945	
3.391	
3.42809	
3.48802	
3.42954	
3.11613	
2.59369	
4.57783	
4.67133	
4.63443	
4.7522	
1.92492	
1.66001	
2.86594	
4.72461	
4.94251	
4.83495	
4.84102	
5.22279	
3.79051	
3.42959	
2.97405	
4.05191	
4.14227	
3.90279	
5.02867	
3.74509	
4.08298	
3.50641	
3.32731	
1.19444	
1.56344	
1.92832	
2.10088	
3.63259	
3.70294	
3.58787	
3.75424	
4.15314	
3.93098	
3.55736	
3.86103	
3.80009	
3.65989	
3.61459	
3.64665	
4.0346	
3.97776	
4.10036	
3.91648	
3.59901	
3.57022	
3.5778	
3.10472	
4.34224	
3.5265	
2.50574	
2.31754	
1.98512	
1.84179	
4.44626	
4.34775	
4.42834	
4.3738	
2.85405	
2.95073	
-6.60392	
-9.39333	
-8.81171	
-8.81778	
-8.42816	
-4.47935	
2.95741	
4.41359	
2.50053	
3.54544	
-2.01709	
-3.12178	
3.28642	
-2.72062	
-2.91626	
-3.08342	
-3.07969	
-7.87127	
-9.49114	
-8.51856	
-7.68951	
-3.51605	
-7.93449	
-1.41083	
-0.0471686	
-0.632895	
-4.28761	
-6.64349	
-6.37628	
-4.65522	
-3.09948	
-3.68956	
-8.44797	
-9.05176	
-8.43061	
-7.32323	
-7.49422	
-6.97886	
-1.29963	
-9.03478	
-4.51624	
0.479147	
1.25858	
-5.21269	
-6.75504	
1.73672	
2.34992	
-6.8803	
-3.41179	
0.940041	
-2.15305	
-4.86515	
-7.17086	
-3.69446	
-5.58553	
-9.56887	
-8.61692	
-7.72714	
-1.66746	
-0.5326	
-3.62679	
-3.06964	
-8.21635	
-4.66929	
-5.22608	
-3.27668	
-3.96319	
-2.96191	
-3.62985	
-1.02439	
-3.78628	
-2.55439	
-4.31991	
-3.28019	
-7.54985	
-7.76401	
-0.687259	
-6.07318	
-4.63764	
-3.05258	
-1.93885	
-2.78429	
-5.65162	
-7.59075	
-8.01612	
-8.10611	
-7.03629	
-3.93518	
-7.31213	
-7.9631	
-7.82113	
-1.95097	
-2.93808	
-7.89276	
-8.36182	
0.987776	
-0.0866878	
1.66045	
0.953559	
-7.35798	
-7.49254	
-6.74785	
-7.03366	
-0.127998	
-2.29928	
0.252427	
1.18348	
-2.42519	
-2.52327	
-2.89162	
-3.0236	
-7.05969	
-7.0338	
-6.96498	
-6.47907	
2.02584	
-6.55425	
-3.83625	
2.55224	
-0.65555	
1.39161	
-5.69421	
-9.55161	
-2.57212	
2.72568	
2.62393	
1.0927	
1.65268	
-0.519607	
2.11532	
-1.3655	
-1.10753	
-6.29991	
-7.14153	
-8.25329	
-4.9791	
-4.89773	
-3.74301	
-4.89439	
-4.40713	
-1.37463	
0.54945	
-6.92556	
-6.33272	
-6.65788	
-5.87718	
0.350938	
0.810239	
1.48513	
1.36524	
-3.89606	
-4.38254	
-4.64187	
-4.85762	
-1.75251	
-2.56688	
-1.10873	
-1.96239	
-6.91525	
-7.02954	
-7.95134	
-8.3722	
-7.88113	
-8.4543	
-3.72961	
-7.38277	
-7.77737	
-6.70754	
-6.69745	
-5.96261	
-5.66095	
-6.2415	
-5.65908	
-6.41354	
-5.87269	
2.05292	
2.57667	
2.71191	
-4.36765	
-4.32929	
-3.58178	
-4.49244	
-4.27598	
-2.85276	
-3.74321	
-4.11712	
-5.68668	
2.8734	
3.06403	
3.68365	
0.957594	
0.275308	
-8.29481	
-8.77256	
3.25697	
4.03295	
-6.26143	
-6.31188	
-6.68784	
-0.279773	
-0.108974	
0.504835	
3.43714	
3.39869	
2.25478	
2.64119	
2.6096	
2.61299	
2.4027	
2.04871	
-7.94937	
-9.52669	
-9.41073	
0.639698	
0.215504	
1.5058	
0.864396	
-1.69364	
-0.855945	
-8.60128	
-8.48266	
-6.64146	
-7.51963	
-7.09866	
-7.66005	
-8.06104	
-8.96074	
-8.57873	
-8.92215	
-7.77475	
-8.11208	
-7.91291	
-9.32412	
-9.06345	
-8.74547	
0.616421	
0.144366	
-4.19862	
-3.02488	
-3.89044	
-3.34513	
-0.355623	
-1.12163	
1.54213	
0.558267	
-7.31988	
-7.49219	
-6.92958	
-7.52446	
-7.93878	
-8.44905	
-8.01198	
-8.26873	
-8.11544	
-8.21023	
-7.9088	
-8.08215	
-8.93621	
-8.568	
-9.29077	
-8.98456	
-1.04862	
-1.94327	
-1.16653	
-2.35198	
-5.38047	
-4.66169	
-5.27738	
-4.98722	
1.57382	
2.90955	
-3.83323	
-3.37605	
-4.15403	
-3.23505	
-3.70895	
-2.81141	
-2.96074	
-1.14495	
-9.73212	
-9.41486	
-3.19638	
-2.14195	
-3.14263	
-5.28573	
-4.50178	
-3.52691	
-3.01536	
-4.06666	
-4.42543	
-3.16573	
-1.87635	
-2.1272	
-2.8064	
-2.03784	
-3.60432	
-8.32695	
-8.18215	
-2.10798	
-1.73836	
-1.53041	
-0.727897	
-4.50973	
-6.65521	
-7.31466	
-6.63359	
2.545	
-8.70765	
0.216104	
-0.488613	
-8.49004	
-9.28937	
0.597687	
0.738485	
1.94298	
2.17967	
-4.37914	
-5.79129	
-4.21541	
-5.04867	
-6.09137	
-5.58266	
-6.90495	
-5.76265	
-7.06733	
-7.16047	
-8.24616	
-7.49186	
-5.59459	
-4.4765	
-5.76068	
-5.23338	
-6.68439	
-6.50084	
-6.74312	
-6.85668	
-0.799737	
0.235131	
-8.96916	
-8.6037	
-8.77109	
-9.03357	
-9.16188	
-7.96119	
-8.36139	
-2.55014	
-2.5679	
2.01192	
2.916	
0.0771908	
0.861953	
-0.786204	
0.0892222	
1.52295	
0.69411	
1.22986	
0.199654	
-6.54154	
-2.33241	
-1.72106	
-8.36842	
-5.91139	
-6.30925	
-5.73119	
-6.23485	
-7.63027	
-8.43757	
-7.15727	
-7.90297	
-9.32824	
-8.79979	
-5.0059	
-5.43412	
-5.20831	
-5.67933	
-5.8231	
-1.7701	
-1.38549	
-2.36203	
-1.97443	
2.28195	
1.85616	
2.68763	
2.55632	
-6.94956	
-7.58304	
-4.16114	
-4.20546	
-4.67284	
-5.17431	
-8.44206	
-2.03546	
-1.07283	
-4.80356	
-5.90314	
-5.87747	
-5.40296	
0.715069	
2.06915	
1.58792	
1.52267	
0.86342	
-6.47214	
-0.947407	
0.316622	
-1.22012	
-0.524791	
-9.41041	
-7.22046	
-4.52524	
-4.10378	
-3.80365	
-4.27992	
-4.01139	
-4.01413	
-3.7352	
-4.67073	
-5.0756	
-4.97362	
-5.26896	
-5.68703	
-5.74497	
-7.99622	
-8.27357	
-7.90325	
-8.01811	
-8.75395	
-8.41093	
-7.9475	
-8.05445	
2.26495	
1.56889	
-1.45048	
-6.90245	
-6.60489	
-6.6198	
-6.2569	
-7.6125	
-8.4146	
-7.54803	
-8.63187	
-8.88864	
-0.367482	
-4.0894	
-4.27898	
-3.39296	
-3.32195	
-4.49003	
-4.82568	
-8.29961	
-8.9867	
-8.71548	
-8.27048	
-8.47913	
-8.77178	
0.956174	
-0.573848	
1.17323	
0.00367902	
-5.86644	
-2.04676	
-5.1592	
-6.61235	
-2.40549	
-3.00212	
-4.40631	
-5.17256	
-3.67373	
-4.34402	
-9.10941	
-9.48363	
-9.21223	
-8.88706	
-3.06302	
-3.18624	
1.55394	
0.879809	
0.465193	
-0.0265148	
0.538328	
0.030381	
-0.447669	
-8.94709	
-9.45451	
0.307521	
0.666515	
1.41123	
-3.54447	
-2.72717	
-2.67649	
-1.9942	
-4.23439	
-3.99914	
-3.58735	
-3.22061	
0.0894159	
-0.65302	
0.390702	
-0.380788	
-9.52272	
-9.6578	
-8.69466	
-2.13047	
-3.24613	
-3.21902	
-2.61418	
-6.21309	
-6.45067	
-7.68941	
-7.93613	
-7.63724	
-7.72646	
-3.76379	
-3.17508	
-2.84886	
-3.77839	
-3.21886	
-3.88959	
-4.42923	
-4.56989	
-5.1667	
-4.5848	
-4.68495	
-5.41829	
-5.62484	
-8.36046	
1.85803	
1.15528	
-0.0664197	
-0.95235	
-0.4627	
-1.05834	
-4.64303	
-5.46069	
-4.74999	
-5.64468	
-6.48685	
-4.39321	
-5.78748	
-4.83815	
-5.83414	
-8.85475	
-9.24099	
2.90463	
1.98135	
1.59422	
-6.741	
-6.98352	
-6.68233	
-6.81939	
-8.34228	
-8.0295	
-7.32365	
-7.74593	
0.419504	
-0.217617	
0.96475	
0.961152	
-1.88411	
-1.95844	
-0.669228	
-1.09012	
2.19551	
2.0027	
4.23371	
0.703208	
2.41854	
3.61278	
-5.28371	
-5.91365	
-6.41376	
-6.30577	
-7.22021	
-7.66794	
-8.52652	
-7.44015	
-7.9132	
-7.43082	
-9.73847	
-9.60635	
-2.60456	
-2.39319	
-3.19105	
-3.67807	
-3.94889	
-3.74965	
-4.43737	
-4.3573	
-4.12128	
-3.96983	
-4.59177	
-5.0735	
-8.20725	
-8.34306	
-8.68258	
-8.66663	
-8.93859	
-8.42889	
2.37466	
2.61565	
-7.7056	
-8.11181	
-8.3092	
-8.71138	
-8.78216	
-9.72901	
-9.34397	
-8.68481	
-8.33364	
2.82896	
-7.79623	
-7.4117	
-7.135	
-8.56879	
-8.42006	
-9.73088	
-8.22134	
4.63232	
-7.86998	
-8.1594	
-7.54455	
-7.56628	
1.94134	
1.78452	
2.47173	
2.31321	
2.1138	
1.87817	
3.53297	
-7.89041	
-8.0606	
-8.54043	
-9.30189	
-9.14992	
2.8359	
-8.31172	
-8.5032	
-8.17586	
-8.24889	
1.97624	
1.61557	
-8.06192	
2.72636	
2.65986	
-5.31794	
-5.2898	
-5.02891	
-5.2166	
-5.50918	
-6.16779	
-6.69831	
-7.34046	
-7.31139	
-8.99955	
-5.12383	
-4.54006	
-4.2695	
-9.23151	
-8.42243	
-9.04881	
-9.39364	
-6.23227	
-5.93499	
-5.2863	
-4.95295	
-6.82749	
-6.273	
-6.24471	
-6.66601	
2.61999	
2.32307	
2.98165	
-6.01258	
1.57688	
1.25621	
1.13312	
1.55542	
1.45077	
-8.17769	
-8.47888	
-8.71408	
0.211856	
0.5048	
-0.019098	
0.414794	
-8.72426	
-8.16712	
-8.25748	
-8.29118	
-8.85111	
-9.29524	
-8.92633	
-8.91517	
-8.89478	
3.03483	
2.97771	
1.79167	
-9.18223	
-9.05906	
-9.31487	
-8.96349	
-5.61587	
0.470458	
-7.37768	
-7.30288	
3.40088	
2.67866	
2.79445	
2.73558	
-6.95652	
-6.566	
-6.19627	
-2.53577	
-2.46567	
-1.48855	
-8.40549	
-7.74649	
-10.236	
-8.50088	
-8.45732	
-8.9324	
-9.89094	
-0.725392	
-1.6991	
3.52074	
3.25911	
2.94916	
2.62493	
3.20533	
2.10787	
1.94747	
1.65975	
1.18862	
-8.21348	
-8.04225	
-7.80933	
-7.63894	
-6.97319	
-6.84896	
-7.95761	
-8.47661	
-8.76142	
0.294017	
0.00889124	
-0.957426	
-8.49905	
-8.74478	
-5.74963	
-5.14329	
-7.30693	
-6.69823	
-8.70459	
-8.20503	
-5.15243	
-4.94517	
-4.56108	
-6.79744	
-6.34208	
-7.45828	
-6.7502	
-6.56497	
-6.43018	
-6.97659	
-6.0136	
1.83923	
1.32852	
-5.89337	
-6.4264	
-6.00171	
-6.91945	
-3.22344	
-3.09691	
-5.33017	
-5.42722	
-6.96545	
-7.15212	
-7.01528	
-7.27246	
-3.89531	
-3.94086	
-8.6015	
-8.68289	
-8.35747	
-8.14472	
-7.38595	
-7.42222	
-7.44099	
-7.48191	
-4.76277	
-5.36336	
-4.97062	
-4.7582	
-6.74932	
-7.53136	
-7.62638	
-6.59811	
-7.29252	
-6.744	
-0.470186	
-1.3783	
-1.66325	
2.27544	
1.79689	
-7.39821	
-7.69369	
-8.21511	
-1.90424	
-1.54901	
-1.03369	
-5.96709	
-5.73173	
-5.80432	
-5.34958	
-1.92966	
-1.63247	
-2.24388	
-2.74237	
-3.24431	
-7.94926	
-7.80402	
2.70843	
3.57087	
3.92396	
3.24825	
-0.774129	
-1.08181	
1.94973	
2.28987	
1.62343	
2.32154	
-8.97516	
-9.17305	
-8.44094	
-8.56724	
-2.91579	
-2.48337	
-1.32143	
3.10778	
4.36162	
-9.54028	
-8.97735	
-9.77888	
-9.33361	
-0.885882	
-0.273462	
-2.24734	
-1.15144	
2.40991	
1.44535	
1.69488	
0.861963	
1.00767	
-1.04922	
-1.76618	
-0.259772	
-1.59275	
1.57906	
1.29748	
-5.81167	
-6.70232	
-5.7932	
-6.49957	
-2.30243	
-3.09528	
-2.8517	
-3.44608	
4.23646	
3.57683	
-7.30927	
-7.03795	
1.85151	
1.69639	
3.57267	
3.2814	
1.34531	
0.724315	
-0.0936077	
-0.723015	
-0.36444	
-0.300878	
-0.0494725	
0.0133586	
-0.168357	
0.27078	
0.374717	
0.68176	
0.995895	
0.829964	
0.516796	
0.133214	
-0.468691	
-0.420486	
-0.245177	
-0.327427	
-0.135532	
1.00902	
0.0201811	
0.839315	
0.440979	
0.638058	
0.250909	
-0.513536	
0.854909	
0.593387	
0.133487	
-0.168018	
0.295431	
-0.609742	
-0.713466	
-0.920013	
-0.960441	
-1.02251	
-0.867532	
-0.413746	
0.752718	
0.488796	
-0.554986	
-0.114126	
-0.320051	
0.140623	
-0.706516	
-0.89251	
-0.783409	
-0.795651	
-0.738666	
-0.663517	
0.938691	
5.14466	
0.835083	
5.07123	
4.8725	
4.66806	
4.2384	
3.69119	
3.50653	
3.59614	
3.88115	
3.95978	
1.10335	
0.887712	
3.845	
1.8575	
0.761092	
1.32532	
3.91776	
4.80115	
2.54486	
3.37227	
3.71565	
4.42657	
3.61867	
4.95257	
3.225	
4.57319	
4.8234	
2.41492	
2.58807	
2.63791	
3.37092	
1.9571	
3.48433	
3.84359	
3.6816	
4.0935	
3.61159	
4.36068	
4.39383	
4.30425	
4.20461	
3.84327	
4.66941	
4.09999	
3.79205	
4.32593	
4.02039	
4.4623	
4.11014	
3.74069	
3.89829	
4.321	
2.48108	
2.43228	
4.1653	
4.18999	
4.52388	
4.55269	
3.91893	
4.48924	
4.46286	
3.64433	
4.28446	
2.83043	
3.67059	
3.83105	
3.71215	
3.83286	
3.66078	
3.55	
4.13948	
3.75405	
3.87688	
3.80659	
3.6748	
4.20767	
3.70111	
3.64549	
3.50378	
3.46134	
3.79841	
3.03019	
3.78186	
3.23401	
1.60851	
4.31687	
4.05972	
2.24027	
4.75338	
4.51516	
4.52512	
4.65091	
5.07564	
5.27389	
5.11679	
4.82421	
3.64138	
3.45775	
3.34939	
3.58805	
4.14496	
3.7496	
4.12573	
4.4077	
5.34024	
3.2887	
3.26793	
3.56472	
3.54938	
3.41889	
3.55256	
3.97449	
3.89168	
3.88011	
3.68466	
3.72998	
3.61985	
3.72356	
3.61345	
3.65848	
3.40958	
3.57904	
4.368	
4.48841	
4.45581	
4.35452	
4.50242	
4.3953	
4.38008	
4.51728	
4.41747	
3.86712	
3.81331	
3.79099	
3.77975	
3.35742	
3.18822	
3.9112	
3.80722	
1.84939	
4.95032	
4.88909	
1.55494	
4.64596	
3.7439	
3.79389	
3.81625	
3.88213	
4.11621	
3.98163	
4.06624	
2.42122	
1.37053	
1.17947	
1.72201	
4.27719	
3.84543	
3.36726	
1.86795	
4.82357	
4.6999	
3.51699	
3.67072	
3.7358	
3.92178	
3.68507	
4.55299	
5.03906	
4.83305	
4.76465	
5.00518	
3.3503	
3.04994	
3.49592	
3.27538	
3.815	
3.89488	
3.57094	
3.81603	
3.17467	
2.34354	
2.41421	
4.36407	
4.87361	
4.43815	
4.04187	
3.87716	
2.81128	
4.95121	
2.36562	
2.23237	
2.40988	
2.66712	
2.63644	
3.2459	
2.8415	
2.66095	
2.74649	
3.00271	
2.98081	
4.53314	
4.67546	
4.49499	
2.38818	
1.92018	
2.26128	
2.10816	
4.23334	
3.85088	
3.77003	
3.8267	
3.96162	
3.83615	
3.92602	
3.83013	
3.97277	
4.0959	
4.25952	
4.07318	
4.17327	
3.29979	
3.29612	
3.81722	
4.63077	
5.97541	
2.05368	
1.70451	
5.16693	
5.06996	
5.28597	
4.3215	
4.5401	
4.43982	
4.34411	
4.01667	
3.93792	
3.9074	
3.91573	
4.16074	
4.22222	
4.17883	
4.19049	
3.45094	
3.40671	
3.57267	
3.81777	
3.76806	
4.43251	
4.64942	
4.52319	
4.47395	
4.36609	
4.37928	
4.02638	
4.01478	
4.00668	
4.1512	
4.06424	
4.04127	
3.90332	
3.54145	
3.83192	
3.17005	
4.76138	
4.93591	
4.78534	
3.98032	
3.86086	
3.82666	
3.85436	
3.39516	
3.75896	
5.21154	
4.49094	
4.55883	
4.48248	
4.38444	
4.59976	
4.45609	
4.57977	
4.25902	
2.3977	
3.59511	
4.44687	
4.43177	
4.47573	
4.7713	
4.7229	
3.54394	
3.56719	
3.55426	
4.36438	
4.37246	
4.33262	
4.13872	
4.03341	
3.69503	
3.45654	
3.60298	
3.78176	
3.82478	
3.74727	
3.86893	
3.49647	
2.14151	
4.03338	
3.95421	
4.12838	
4.03646	
5.149	
5.18323	
5.13117	
3.8153	
3.60123	
3.66801	
3.49361	
3.38318	
4.23544	
4.29237	
4.28713	
4.33879	
3.88488	
3.7524	
3.90492	
3.70965	
3.84288	
3.66282	
3.63007	
3.58779	
3.57331	
3.77714	
3.66906	
3.35027	
3.38541	
3.54002	
3.40734	
3.71714	
3.72295	
3.69114	
3.70778	
4.88583	
4.94064	
4.84336	
3.61732	
3.58315	
3.54346	
3.56748	
3.51241	
3.49054	
3.41253	
3.57263	
4.36035	
3.14038	
4.40372	
4.58088	
4.12892	
3.96476	
4.08579	
4.25668	
3.6911	
3.99469	
3.93722	
3.93126	
3.95397	
4.05706	
3.46569	
3.48106	
3.55977	
3.53571	
3.47806	
3.46196	
4.03682	
3.46356	
4.40572	
4.30495	
4.2303	
4.16783	
3.61809	
2.04128	
1.36342	
4.41453	
4.35723	
4.23153	
4.15347	
4.37317	
4.40405	
4.3948	
4.39352	
3.9273	
4.05093	
3.8537	
4.40384	
4.43761	
4.39678	
4.43648	
3.64566	
3.72211	
3.71178	
3.84525	
1.12743	
0.939794	
4.97105	
4.94457	
3.87183	
3.85733	
3.78467	
3.83949	
3.67885	
3.68604	
3.86553	
3.70682	
3.78119	
3.68409	
3.84722	
3.63331	
3.72247	
3.26158	
3.24121	
3.78873	
3.57925	
3.91974	
3.9948	
1.74264	
1.78234	
2.11096	
3.95776	
3.96849	
3.95697	
3.95644	
3.98755	
3.95662	
3.93666	
2.73203	
3.43492	
3.34285	
3.4433	
3.30851	
3.11536	
2.91504	
3.19218	
3.06453	
4.45561	
4.70829	
4.43859	
5.04569	
4.44413	
4.31018	
4.33539	
4.28618	
4.31434	
4.33279	
4.34562	
4.39093	
4.17129	
4.25074	
4.15928	
4.2127	
4.06307	
4.1081	
3.93185	
4.06176	
4.5212	
4.44411	
4.66449	
4.71871	
5.39418	
5.01013	
3.97973	
4.03081	
4.12713	
4.10443	
4.40928	
3.83182	
4.55418	
4.84428	
4.76047	
4.63879	
4.44773	
4.55449	
4.31226	
4.21899	
4.26557	
4.22503	
4.24629	
4.4066	
4.33232	
2.74556	
2.60751	
2.63685	
2.42548	
4.39729	
4.55134	
4.52947	
2.06941	
2.46762	
3.89297	
3.83493	
1.73631	
1.43098	
4.48949	
4.51309	
4.47691	
4.38265	
4.68981	
4.54025	
4.54187	
4.41944	
4.48257	
4.63023	
4.59937	
4.88011	
4.87444	
4.74606	
4.51146	
4.54469	
4.38978	
4.30088	
4.35989	
4.40562	
4.26657	
4.17233	
4.19438	
4.15509	
4.17226	
4.5678	
5.2166	
4.46543	
4.5603	
3.83336	
2.87223	
2.63217	
3.00624	
2.60351	
3.84425	
3.90407	
4.39888	
4.47778	
4.35675	
4.46299	
4.15033	
4.29884	
4.19065	
4.26761	
4.7893	
4.56073	
4.54784	
4.51766	
4.58671	
3.55291	
3.56378	
3.95814	
5.15308	
5.76952	
5.64613	
3.81687	
3.72868	
3.92063	
4.40589	
4.49741	
4.19709	
3.62391	
5.43934	
5.01719	
4.4938	
3.3427	
3.27418	
3.0348	
5.1061	
4.31513	
4.64279	
2.80313	
2.61763	
4.63613	
4.01626	
2.57848	
2.56327	
4.23017	
4.12625	
3.72672	
3.64624	
3.66591	
4.50254	
4.40027	
4.30836	
4.23304	
1.86226	
4.09525	
3.71089	
3.77839	
3.70078	
4.09109	
4.26155	
4.22063	
4.86415	
4.69718	
4.67692	
3.62584	
3.80239	
3.61061	
3.96236	
4.78115	
4.60131	
4.6573	
4.59176	
3.96111	
4.00928	
3.86797	
4.40935	
4.38644	
4.90231	
4.56035	
3.46039	
3.08144	
3.18501	
4.6618	
4.62823	
4.95295	
3.34739	
3.98525	
4.11355	
4.75244	
4.83378	
4.81762	
4.93769	
3.87503	
3.79032	
3.7671	
3.91191	
4.57514	
4.51044	
4.4651	
4.60793	
3.18137	
2.77172	
3.83499	
3.88577	
4.8123	
4.70125	
4.80113	
4.73136	
4.32135	
4.02211	
3.82982	
3.72817	
3.62799	
3.60569	
3.53641	
4.04566	
3.9441	
3.95914	
3.86607	
3.85766	
3.81977	
3.92019	
3.9119	
3.46703	
3.86923	
3.93327	
4.03294	
4.28167	
3.85005	
3.85597	
4.00008	
3.97502	
3.8254	
3.8311	
3.93981	
3.99532	
4.80097	
4.46307	
4.70432	
4.56717	
4.64819	
4.53697	
4.30477	
4.37874	
4.36812	
4.38419	
4.81102	
4.86885	
4.51917	
4.4775	
4.60421	
3.68926	
3.55741	
3.16747	
3.49983	
4.46004	
4.4456	
4.4621	
4.56696	
4.97545	
4.64543	
3.6333	
3.72388	
3.73124	
3.83461	
3.88656	
3.78867	
3.51292	
3.56602	
4.69174	
2.92342	
3.02293	
3.87975	
3.77525	
3.95421	
3.90359	
3.84689	
3.90427	
3.7985	
3.85305	
3.80039	
3.84656	
5.14244	
5.05719	
5.36254	
5.04381	
1.49624	
1.52693	
1.10603	
0.850458	
3.33802	
3.4375	
3.94158	
3.61748	
4.29827	
4.2012	
4.39631	
4.20509	
3.99003	
4.13067	
4.02258	
4.21838	
3.10663	
2.90242	
3.10369	
2.88346	
4.12849	
4.29991	
4.18361	
4.47681	
4.63125	
4.18751	
4.30437	
4.04663	
4.55715	
4.50034	
4.39356	
4.36715	
4.33179	
4.30553	
4.46904	
4.35706	
4.44273	
4.41109	
1.82631	
4.63798	
4.73251	
3.7592	
3.54249	
3.59634	
3.60014	
3.84445	
3.66168	
4.23307	
3.85344	
4.44472	
2.02831	
2.48547	
2.30967	
1.5656	
1.24573	
1.06231	
4.21039	
3.6387	
3.91448	
2.18675	
1.96946	
2.7137	
1.22458	
1.62403	
2.24703	
1.51487	
1.40236	
3.66839	
3.5556	
3.46541	
4.25178	
4.24413	
4.20102	
3.69044	
3.92585	
3.84745	
3.5853	
3.57675	
3.59965	
3.54029	
3.59191	
3.61856	
4.48222	
4.44636	
4.5332	
4.543	
1.62488	
1.88008	
4.39079	
4.48213	
4.47095	
3.97252	
4.11733	
3.54266	
3.89039	
2.80354	
2.03885	
2.3198	
2.39489	
2.10901	
2.3843	
4.21661	
4.12908	
3.4777	
3.87435	
4.11437	
3.77265	
2.38754	
2.34684	
3.79884	
3.67126	
3.85834	
3.69802	
2.17552	
2.40855	
1.85585	
2.4629	
1.19711	
1.61369	
1.66868	
3.36686	
4.01379	
3.47519	
3.63167	
3.70098	
3.78143	
3.61494	
3.60377	
3.04192	
3.08197	
3.39229	
2.9721	
3.72487	
3.97843	
3.70556	
3.76675	
0.87269	
1.51044	
1.1987	
2.84506	
2.79534	
3.37178	
2.81575	
4.16432	
4.13098	
4.24338	
4.12281	
1.42141	
1.04663	
1.40691	
1.05076	
2.94812	
2.65896	
3.36426	
-6.69848	
-9.38896	
-8.80854	
-8.93356	
-8.69753	
3.02843	
4.448	
2.5483	
2.89221	
-1.92286	
-3.3019	
3.02385	
-2.65264	
-2.8785	
-3.05015	
-2.90129	
-7.83573	
-8.11544	
-6.99483	
-3.35348	
-7.97007	
-8.18818	
-1.22477	
0.045611	
-0.508803	
-4.29615	
-6.87894	
-6.04936	
-4.59588	
-3.49395	
-3.48345	
-8.37493	
-8.33255	
-8.1638	
-7.26536	
-7.19139	
-8.34746	
-1.24553	
-9.04177	
-4.38061	
0.569276	
1.36016	
-5.13621	
-6.49185	
2.01089	
2.88629	
-6.20689	
-3.34468	
0.978623	
-2.04446	
-4.81616	
-6.91976	
-4.33297	
-5.51028	
-9.34024	
-8.6185	
-7.96275	
-1.58221	
-0.4854	
-3.52065	
-3.48576	
-8.15637	
-5.12703	
-4.61155	
-2.98968	
-3.53923	
-2.82578	
-3.68827	
-1.69484	
-4.16456	
-3.14138	
-4.25793	
-2.76477	
-6.81978	
-7.27428	
-0.61039	
-5.10384	
-5.20334	
-2.88136	
-2.59508	
-1.75946	
-6.0605	
-8.89155	
-7.9874	
-6.43897	
-3.8468	
-6.53688	
-7.66436	
-7.60279	
-1.86131	
-2.80914	
-7.75713	
-8.24839	
0.820343	
0.230603	
1.73739	
0.985679	
-6.83256	
-6.96564	
-7.25971	
-7.69917	
-0.0363421	
0.392802	
1.30413	
-3.17496	
-2.89993	
-2.39139	
-2.42683	
-6.45194	
-6.88343	
-6.89569	
-7.0226	
2.12586	
-6.31886	
-3.75251	
2.56913	
-0.604776	
1.43009	
-5.3915	
-9.5399	
-2.5814	
2.77231	
2.1085	
1.21231	
1.7196	
2.17751	
0.614233	
-1.28708	
-1.02148	
-6.91248	
-5.87168	
-6.1745	
-5.45232	
-4.81048	
-3.65364	
-5.11617	
-4.31496	
-1.31819	
0.638667	
-6.06653	
-5.84712	
-6.95062	
-6.76828	
0.889299	
0.716287	
1.46026	
1.59684	
-4.58885	
-4.80942	
-3.83849	
-3.64074	
-1.05905	
-2.61283	
-0.974409	
-2.50072	
-8.66679	
-6.41006	
-6.25435	
-8.06993	
-8.5372	
-8.57436	
-3.72402	
-4.94118	
-7.60817	
-5.61935	
-5.23319	
-6.10522	
-6.09676	
-6.17289	
-5.22724	
-6.3444	
-5.44822	
2.62562	
2.79871	
-4.25568	
-4.2278	
-4.42379	
-2.67009	
-4.21346	
-4.32561	
-4.04628	
-2.76761	
-5.74788	
3.12742	
3.68589	
1.03181	
0.354855	
-9.50412	
-9.18185	
4.09008	
3.3182	
-6.76282	
-5.55236	
-6.51652	
-0.303594	
0.563877	
-0.0691205	
3.47291	
3.54115	
2.2536	
2.52921	
2.90009	
2.4323	
2.64724	
2.07835	
-6.88993	
-9.60815	
-9.50864	
1.64	
0.988652	
1.36495	
0.339655	
-1.61883	
-0.99443	
-7.87278	
-8.05392	
-7.44405	
-7.52923	
-6.4703	
-6.51405	
-7.96945	
-8.59119	
-8.28456	
-8.67898	
-8.03553	
-7.43064	
-7.86117	
-8.9318	
-8.38366	
-8.54041	
0.044312	
0.267014	
-4.13265	
-3.66976	
-2.93723	
-3.29753	
-0.308705	
-1.06784	
-0.464217	
1.59263	
-7.45781	
-7.27559	
-7.51409	
-7.0427	
-8.14297	
-7.99456	
-8.9792	
-8.72165	
-7.82828	
-7.93026	
-8.01374	
-8.04832	
-8.54823	
-8.81035	
-8.54737	
-9.30196	
-1.76975	
-2.2448	
-0.946658	
-1.84586	
-5.08544	
-5.28363	
-4.90065	
-5.11792	
3.00856	
2.28575	
-3.04078	
-3.67999	
-4.06627	
-3.66743	
-3.19389	
-1.0875	
-2.1793	
-1.9799	
-2.90444	
-9.42647	
-9.76699	
-3.12446	
-3.06391	
-2.07632	
-4.37189	
-3.94373	
-3.64246	
-3.40592	
-2.90819	
-2.60789	
-1.69974	
-2.75687	
-3.62151	
-2.0707	
-2.75271	
-1.31536	
-0.61094	
-1.82221	
-1.51934	
-4.39917	
-6.15782	
-6.3357	
-5.53719	
2.68489	
-8.3421	
-0.333237	
0.361573	
-9.40612	
-9.08524	
0.866845	
1.28912	
1.69562	
2.04594	
-4.13383	
-4.95972	
-3.90951	
-5.0265	
-5.54484	
-6.64653	
-5.72333	
-6.44092	
-7.20447	
-7.66254	
-7.48303	
-7.97584	
-4.68233	
-5.35289	
-4.3802	
-5.51269	
-6.22579	
-6.14301	
-6.25478	
-6.24911	
0.512761	
-0.745695	
0.28513	
-8.9689	
-8.80005	
-8.52741	
-8.83315	
-7.39447	
-7.47415	
-7.46337	
-2.48751	
-2.51263	
3.04885	
2.20673	
1.00239	
0.225954	
0.240487	
-0.554152	
0.764275	
0.317354	
1.67121	
1.08879	
-5.8269	
-1.49446	
-2.04344	
-8.02476	
-6.13242	
-5.36546	
-6.03673	
-5.55975	
-8.20376	
-6.90053	
-8.11989	
-6.90972	
-8.46385	
-8.99611	
-5.62975	
-5.18397	
-6.2906	
-6.0423	
-2.28932	
-1.90783	
-1.71015	
-1.32947	
1.92064	
2.34213	
2.12291	
2.74955	
-4.12883	
-4.08338	
-4.574	
-4.60801	
-6.13027	
-8.46967	
-2.1503	
-1.08271	
-4.56663	
-5.77611	
-5.27088	
-4.78443	
0.76553	
1.7183	
2.15376	
1.00121	
1.65307	
-5.78196	
-1.17016	
0.0760925	
-0.897578	
0.0207666	
-9.03185	
-6.48297	
-5.35332	
-4.37093	
-3.86075	
-3.95493	
-3.94706	
-4.20581	
-3.82984	
-3.93013	
-4.90986	
-5.31925	
-4.60024	
-4.69605	
-5.68687	
-5.5884	
-8.81046	
-8.19895	
-7.93222	
-8.27551	
-7.83119	
-7.96403	
-7.90475	
-8.63622	
1.60474	
2.30355	
-5.9865	
-5.97503	
-6.56322	
-6.47235	
-7.89394	
-8.27906	
-7.24219	
-7.60424	
-8.82315	
-0.395686	
-4.14551	
-3.97208	
-3.12056	
-3.14379	
-4.3013	
-4.58727	
-8.89771	
-9.15445	
-9.21203	
-8.65285	
-8.62663	
-8.42237	
-0.130267	
1.07741	
0.144207	
0.723442	
-5.96614	
-2.17032	
-6.44169	
-5.66532	
-2.9471	
-2.35113	
-5.17692	
-4.35403	
-4.29519	
-3.55277	
-9.10881	
-9.16246	
-9.33879	
-9.3484	
-3.13309	
-3.02967	
0.922233	
1.20305	
0.363383	
0.577073	
-0.402998	
-0.478366	
-9.47478	
-8.96349	
0.703899	
0.347311	
1.44289	
-3.51801	
-3.47536	
-1.93999	
-1.90643	
-4.26716	
-4.10853	
-3.14204	
-2.98842	
0.438415	
-0.330626	
0.148849	
-0.598285	
-9.52402	
-9.76723	
-1.99173	
-1.31764	
-3.1336	
-2.49264	
-2.94806	
-6.70705	
-6.17627	
-7.85936	
-7.64704	
-7.56103	
-7.26419	
-3.1317	
-3.70174	
-2.82444	
-3.18637	
-3.71872	
-3.61792	
-3.71047	
-4.96993	
-5.02392	
-4.53305	
-4.42368	
-5.4476	
-5.66827	
-8.35195	
1.59816	
1.8986	
-0.384248	