<VTKFile type="UnstructuredGrid" version="0.1" byte_order="LittleEndian">
	<UnstructuredGrid>
		<Piece NumberOfPoints="1917" NumberOfCells="3602">
			<CellData Scalars="scalars">
				<DataArray type="Float64" Name="Doublet Strengths" NumberOfComponents="1" Format="ascii">
1.78582	
0.396159	
1.52331	
1.50634	
1.4198	
3.18821	
0.941178	
0.946893	
0.899432	
0.890161	
1.03144	
0.412536	
0.164477	
2.83011	
0.466684	
0.179503	
0.344395	
2.89992	
0.679419	
1.13727	
1.03218	
1.03748	
1.13434	
0.683277	
0.774205	
0.732575	
1.01522	
0.575836	
1.09326	
1.16738	
1.0983	
1.25808	
1.12144	
0.922909	
1.06917	
1.02452	
1.10943	
1.23269	
1.18882	
1.31563	
1.31583	
1.26217	
1.14834	
1.2079	
1.17877	
1.23185	
1.15294	
1.22763	
1.12513	
0.726821	
0.77068	
1.09991	
1.12638	
1.06283	
1.08446	
1.58576	
1.10495	
1.07286	
1.02085	
1.1243	
0.769075	
1.14467	
1.17363	
1.07976	
1.1205	
1.18584	
1.23392	
1.10781	
1.13048	
1.14586	
1.08787	
1.11352	
1.09959	
1.19655	
1.15188	
1.27028	
0.856365	
1.83379	
0.711938	
0.552792	
1.11516	
1.08168	
1.1701	
0.683774	
1.17415	
1.27931	
1.13714	
1.32253	
1.09043	
1.11823	
1.06299	
0.980896	
1.08285	
1.01039	
1.0682	
0.974262	
1.15523	
1.17861	
0.926055	
1.06428	
1.07059	
1.01029	
1.21875	
1.14499	
1.0513	
1.07138	
1.07561	
1.13992	
1.19259	
1.15537	
1.21828	
1.18253	
1.19263	
1.19385	
1.1195	
1.12033	
1.13728	
1.12117	
1.13134	
1.12452	
1.10831	
1.11331	
1.09647	
1.09037	
1.10157	
1.5607	
1.27894	
1.3321	
1.24541	
1.04539	
0.812949	
1.24448	
1.25897	
0.555356	
1.28262	
1.36558	
1.13365	
1.08785	
1.03377	
1.06152	
1.04548	
1.14265	
1.09213	
1.08328	
0.667425	
0.340734	
0.396515	
0.503286	
1.53253	
1.96427	
1.40104	
0.930851	
1.0421	
0.528778	
0.425271	
1.50098	
1.38529	
1.1061	
1.2019	
0.606252	
1.37465	
1.27025	
1.15067	
1.10242	
1.05472	
3.19532	
3.11381	
0.942766	
0.928799	
0.921396	
0.886769	
1.16907	
1.21264	
0.946514	
0.932617	
0.981403	
1.03592	
0.898876	
0.772163	
0.73455	
1.13448	
1.11355	
1.11155	
0.981875	
0.945041	
0.884369	
1.08832	
0.650142	
0.84407	
0.693065	
0.519111	
0.563578	
0.629063	
0.755312	
0.793121	
0.817308	
0.841636	
0.730074	
0.755902	
0.864754	
0.981304	
1.15021	
1.21504	
1.14157	
0.63701	
0.623291	
0.667853	
0.634276	
1.47356	
1.7876	
1.33855	
1.28376	
1.32892	
1.05542	
0.99954	
0.659611	
0.5728	
1.19268	
1.1587	
1.2419	
1.17888	
1.38428	
1.27959	
1.37879	
1.2967	
0.834281	
0.857944	
0.455936	
1.39186	
1.29397	
1.14669	
1.08706	
1.1086	
1.0769	
0.944064	
1.21164	
1.23464	
1.24585	
1.18614	
1.30901	
1.27387	
1.41581	
1.39546	
1.06192	
1.0927	
1.05222	
1.04195	
1.16016	
1.18461	
1.19321	
1.1544	
1.12514	
1.13021	
1.12262	
1.38811	
1.3184	
1.36705	
1.3052	
0.426251	
0.436165	
1.29868	
1.13493	
1.17275	
1.13596	
1.35699	
0.915587	
0.956794	
0.837753	
1.18768	
1.27196	
1.27272	
1.10632	
1.24244	
1.03022	
1.00918	
1.01279	
1.07543	
1.11176	
1.12323	
1.16014	
1.21878	
1.06689	
1.08282	
1.0664	
1.0941	
0.844796	
0.923594	
1.18378	
1.36333	
1.27162	
1.46184	
1.51465	
1.09619	
1.03517	
1.09456	
1.29164	
1.1455	
1.2334	
1.31409	
0.934571	
0.926031	
0.940114	
1.16579	
0.992293	
1.23644	
1.00967	
0.830573	
0.68091	
1.0937	
1.30424	
1.26749	
1.18382	
1.25188	
1.11104	
1.21639	
1.27662	
1.32617	
1.15526	
0.846117	
1.00307	
1.27642	
1.39836	
1.37683	
1.4024	
0.953705	
0.969694	
1.0114	
1.07452	
1.05172	
1.20785	
1.17743	
1.14334	
1.21804	
1.21584	
1.28458	
1.31709	
1.02064	
1.09714	
1.04229	
1.09416	
1.08757	
1.11728	
1.07914	
1.13048	
1.0769	
1.08894	
1.1317	
1.08842	
1.12875	
1.08743	
1.24817	
1.19572	
1.40869	
1.1966	
1.10514	
0.978755	
1.09558	
1.09246	
0.970767	
1.17048	
1.15876	
1.21042	
1.15817	
1.02142	
1.37457	
1.33828	
1.25846	
1.31923	
1.0629	
1.07594	
1.07775	
1.09341	
1.07931	
1.06743	
1.107	
1.10397	
1.35607	
1.23476	
1.21336	
1.31589	
1.13933	
1.04888	
0.588989	
0.452592	
1.18668	
1.16222	
1.12227	
1.18476	
1.12862	
1.10338	
1.08695	
1.09321	
1.04869	
1.02908	
1.05647	
1.02179	
1.11197	
1.09105	
1.17998	
1.09598	
1.01627	
1.00219	
1.01583	
1.01835	
0.362528	
0.321119	
1.37714	
1.46986	
1.21135	
1.25416	
1.15424	
1.27119	
0.942808	
1.03724	
0.963751	
1.00631	
1.03388	
1.23382	
1.18872	
1.08589	
1.2599	
0.957114	
0.935743	
1.06127	
1.01896	
1.15706	
1.12176	
0.453067	
0.596066	
0.516717	
1.20827	
1.1496	
1.20289	
1.15495	
1.23544	
1.36202	
1.3416	
0.881726	
0.821708	
0.801803	
1.03177	
1.02961	
1.0916	
1.02804	
1.05239	
0.852	
0.98868	
0.893674	
1.14458	
1.14011	
1.16916	
1.16898	
1.11135	
1.10536	
1.10363	
1.09514	
1.16981	
1.31675	
1.23066	
1.34459	
1.39529	
1.40788	
1.38377	
1.31653	
1.40868	
1.2696	
1.38043	
1.34565	
1.07003	
1.04251	
1.09709	
1.28282	
1.27589	
1.43582	
1.24727	
1.31112	
1.20392	
1.02031	
1.06338	
1.18226	
1.16414	
1.19409	
1.19604	
1.18864	
1.23789	
1.23919	
1.11401	
1.13044	
1.19501	
1.22907	
0.794157	
0.694811	
0.795383	
0.740999	
1.09181	
1.03417	
0.633188	
0.537601	
1.06957	
1.06459	
0.503738	
0.425355	
0.958116	
1.00239	
1.02813	
1.02861	
1.08183	
1.13202	
1.08872	
1.14358	
1.07474	
1.07904	
1.14681	
1.00357	
1.0311	
1.07562	
1.08243	
1.04726	
1.001	
1.14059	
1.08363	
1.14647	
1.12214	
1.17373	
1.1436	
1.22948	
1.18358	
1.24741	
1.20958	
1.20675	
1.18393	
1.01982	
0.896432	
0.985402	
0.879433	
0.931821	
1.61467	
1.47387	
1.37577	
1.40634	
1.39603	
1.30839	
1.18519	
1.38665	
1.33477	
1.18689	
1.38566	
1.15659	
1.18839	
1.14558	
1.24757	
1.05044	
1.04743	
0.913439	
0.915072	
0.928298	
1.15629	
1.20326	
1.12842	
1.01652	
1.01138	
1.08665	
1.0581	
1.02252	
0.938815	
0.985396	
1.1433	
1.21441	
1.16253	
1.01381	
0.871378	
0.804943	
0.99458	
0.674046	
0.756868	
0.982954	
1.01227	
1.03559	
1.2032	
0.751997	
0.721869	
1.11522	
0.722678	
0.930736	
1.11832	
1.08611	
1.07992	
1.17969	
1.43672	
1.18775	
1.04211	
1.02907	
1.20434	
1.09551	
0.561745	
0.675119	
1.09614	
1.22386	
1.25694	
1.25598	
1.41449	
1.06359	
1.1173	
1.11211	
1.0836	
1.07516	
0.886798	
0.88465	
0.887712	
0.884321	
1.16113	
1.19663	
1.14501	
1.17734	
1.14768	
1.28444	
1.25969	
1.14652	
1.12676	
1.09067	
1.14763	
1.00957	
0.940041	
0.896777	
1.21188	
1.14777	
1.25552	
1.22997	
1.27384	
1.14882	
1.28133	
1.08939	
0.979006	
0.841323	
1.04344	
1.0284	
1.08196	
1.04097	
1.27409	
1.24768	
1.20819	
1.16924	
1.08807	
1.1263	
1.11588	
1.12692	
1.2331	
1.20991	
1.18755	
1.20247	
0.71092	
0.729104	
1.05287	
1.08584	
1.1044	
0.975726	
1.03771	
0.965693	
1.06925	
1.3337	
1.19634	
1.31338	
1.28828	
1.29307	
1.36202	
1.32933	
1.36553	
0.925801	
0.946628	
1.02758	
0.970282	
1.00626	
1.16747	
1.16769	
1.14996	
1.16844	
1.1395	
1.08435	
1.12461	
1.08491	
1.12471	
1.13181	
1.16065	
1.1954	
1.25142	
1.30896	
0.973708	
1.01339	
1.03658	
1.01816	
1.16104	
1.21513	
1.08748	
1.08582	
1.10071	
1.05589	
1.05487	
1.013	
1.04384	
1.07721	
1.06986	
1.01916	
0.95005	
0.950679	
0.837517	
1.10159	
1.11863	
1.09791	
1.09968	
1.31936	
1.25685	
1.22868	
1.22037	
0.933315	
1.11544	
1.25405	
1.25635	
0.850583	
0.836447	
1.20049	
1.21399	
1.33787	
1.20138	
1.20719	
1.2214	
1.17607	
1.1942	
1.14757	
1.14664	
1.38665	
1.51168	
1.4269	
1.58788	
0.345296	
0.359467	
0.187002	
0.249631	
1.00422	
0.934192	
1.00632	
0.951868	
1.16266	
1.0956	
1.09476	
1.08133	
1.22346	
1.23768	
1.13909	
1.15095	
0.838767	
0.739651	
0.79923	
0.769165	
1.26725	
1.15419	
1.12468	
1.11299	
1.0748	
1.07323	
1.06836	
1.06245	
1.14906	
1.15388	
1.13008	
1.18424	
1.14295	
1.17071	
1.12712	
0.402969	
1.0931	
1.0858	
0.986619	
0.993239	
0.978544	
0.353491	
0.504331	
0.976796	
0.913598	
0.89471	
0.8468	
0.793623	
0.873777	
0.824565	
0.778817	
0.908167	
0.46945	
0.631033	
0.472351	
1.23535	
1.17629	
1.34215	
1.14158	
1.15963	
1.22189	
1.07287	
1.05306	
1.06976	
1.00863	
1.27914	
1.30322	
1.46404	
1.56287	
1.23097	
1.13438	
1.03857	
0.991772	
1.01871	
1.02992	
1.02749	
0.717044	
0.672786	
1.1019	
1.10823	
1.17695	
1.20072	
0.581504	
0.512018	
0.593015	
1.08726	
1.09088	
1.08709	
2.12042	
1.66718	
1.0473	
0.977124	
0.621872	
1.20791	
1.24222	
1.27793	
1.74229	
0.948713	
0.975437	
1.02918	
1.00546	
0.387324	
0.399155	
0.517347	
0.521265	
1.12294	
1.12034	
1.07136	
1.09534	
1.42078	
1.38463	
0.798684	
0.769748	
1.26134	
1.1078	
1.03468	
1.032	
1.04646	
1.09434	
1.16613	
1.15463	
1.24568	
1.1798	
1.28481	
1.10247	
1.25851	
1.07055	
0.555825	
0.506281	
0.427191	
0.405647	
0.947223	
0.919343	
0.924702	
0.900993	
0.752912	
0.763462	
-2.35684	
-3.88243	
-2.93178	
-2.91829	
-3.24493	
-1.89892	
0.886072	
2.60231	
0.625486	
0.937492	
-0.62709	
-0.769122	
0.786721	
-0.680283	
-0.80935	
-1.40236	
-0.935347	
-2.22781	
-2.23733	
-2.29943	
-1.78079	
-1.05058	
-2.24136	
-0.333816	
-0.0238946	
-0.157997	
-1.26243	
-1.88211	
-1.70221	
-1.50191	
-0.931154	
-1.08411	
-2.25263	
-2.94519	
-2.23265	
-2.10557	
-2.19542	
-1.9854	
-0.444789	
-2.84787	
-1.37344	
0.0900831	
0.303253	
-1.80364	
-2.03579	
0.457348	
0.950757	
-2.11605	
-1.0381	
0.249928	
-0.650414	
-1.65954	
-2.55818	
-1.34996	
-1.84814	
-2.32544	
-2.93348	
-2.5985	
-0.605154	
-0.149107	
-1.15324	
-1.18612	
-2.30144	
-1.55236	
-1.91094	
-0.957292	
-1.28206	
-0.830433	
-1.14289	
-0.194473	
-1.32885	
-0.80109	
-1.42027	
-1.07229	
-2.39084	
-2.40701	
-0.336048	
-2.51035	
-1.66911	
-1.00991	
-0.533463	
-0.88872	
-1.73592	
-2.15164	
-2.26419	
-2.26404	
-2.03423	
-1.27416	
-2.05438	
-2.22386	
-2.10837	
-0.613904	
-0.888219	
-2.20761	
-2.25135	
0.413705	
-0.0379463	
0.38015	
0.370313	
-2.33091	
-2.80951	
-2.10385	
-2.67435	
0.0821486	
-0.836288	
0.130017	
0.344428	
-0.72134	
-0.753874	
-0.835479	
-0.897692	
-2.26718	
-2.35918	
-2.36046	
-2.18323	
0.571236	
-1.93614	
-1.01994	
0.738012	
-0.201643	
0.266463	
-1.85196	
-2.40886	
-0.699963	
1.42927	
1.75569	
0.594087	
-0.00350892	
-0.285226	
0.119741	
-0.465344	
-0.360957	
-2.11781	
-2.24939	
-2.39213	
-1.3173	
-1.42563	
-1.18122	
-1.48584	
-1.46873	
-0.420918	
0.401001	
-2.23883	
-2.27043	
-2.57458	
-2.2728	
0.0939181	
0.254046	
0.405751	
0.382761	
-1.30626	
-1.71131	
-1.56753	
-1.80637	
-0.538835	
-0.92064	
-0.208594	
-0.628655	
-2.1019	
-1.87757	
-2.23927	
-2.32672	
-2.21246	
-2.34065	
-1.5502	
-2.75241	
-2.22687	
-2.76348	
-2.64148	
-2.67248	
-2.43941	
-2.58556	
-2.33689	
-1.98934	
-1.85651	
0.481034	
0.730966	
0.695597	
-1.34674	
-1.37788	
-1.32969	
-1.45016	
-1.36246	
-0.938446	
-1.25926	
-1.33465	
-1.82624	
1.28757	
1.44207	
1.70096	
0.120685	
-0.0201641	
-2.30363	
-2.46339	
1.16028	
2.12988	
-2.31115	
-1.9159	
-1.88225	
-0.0858629	
-0.0316018	
0.146296	
0.832547	
0.765573	
0.553536	
0.638492	
0.985308	
0.665366	
0.614866	
0.511178	
-2.06063	
-3.19181	
-3.09558	
0.322607	
0.197373	
0.887027	
0.489694	
-0.597195	
-0.258052	
-2.29602	
-2.11957	
-1.90215	
-2.17022	
-2.0437	
-2.1592	
-2.17492	
-1.95669	
-2.00039	
-2.15414	
-2.76739	
-2.38086	
-2.2712	
-2.30342	
-2.24482	
-2.23119	
0.231776	
0.0679618	
-1.42982	
-0.963609	
-1.34981	
-1.4708	
-0.0351044	
-0.403004	
0.385148	
-0.00480271	
-2.40998	
-2.26537	
-2.26476	
-2.29159	
-2.25193	
-2.33018	
-2.32615	
-2.28307	
-2.20336	
-2.18945	
-2.18956	
-2.20519	
-3.15263	
-2.71293	
-2.81437	
-2.67872	
-0.301498	
-0.563204	
-0.315855	
-0.709676	
-1.50211	
-1.41351	
-1.59437	
-1.87095	
1.22722	
1.79527	
-0.921901	
-0.842921	
-1.05189	
-1.00927	
-1.18208	
-1.12825	
-1.1501	
-0.499183	
-3.20411	
-2.9543	
-0.993202	
-0.673876	
-0.952354	
-1.97451	
-1.44905	
-1.06379	
-0.918952	
-1.23202	
-1.30156	
-0.926582	
-0.52653	
-0.721476	
-0.996544	
-0.781684	
-1.46911	
-2.6476	
-2.2672	
-0.575907	
-0.414794	
-0.366289	
-0.0260351	
-1.11601	
-1.91319	
-1.95632	
-1.69012	
0.588151	
-2.47624	
0.340469	
0.0114976	
-3.12298	
-3.76437	
0.528928	
0.646682	
1.35423	
1.53409	
-1.45938	
-1.72622	
-1.61678	
-1.85728	
-2.45547	
-2.2909	
-2.42171	
-2.32379	
-2.14705	
-2.3385	
-2.36328	
-2.73359	
-2.49462	
-1.67491	
-2.60403	
-2.31636	
-2.22473	
-2.87213	
-2.22804	
-2.74381	
-0.265898	
0.242472	
-2.49123	
-2.34216	
-2.46981	
-2.5376	
-2.11901	
-1.85865	
-2.05477	
-0.863895	
-0.827583	
0.886632	
1.37202	
0.18078	
0.804139	
-0.0875948	
0.399592	
0.686704	
0.171229	
0.643578	
0.252403	
-1.64686	
-0.657609	
-0.696559	
-2.23855	
-1.70306	
-1.81817	
-1.70815	
-1.82518	
-2.14366	
-2.25989	
-2.14092	
-2.62114	
-2.12774	
-2.009	
-1.98763	
-1.77926	
-1.65964	
-1.76656	
-1.8189	
-0.571529	
-0.44018	
-0.817593	
-0.643041	
0.514653	
0.310732	
0.782799	
0.652398	
-1.81622	
-2.46506	
-1.1264	
-1.20393	
-1.25815	
-1.42263	
-2.18539	
-0.616468	
-0.341838	
-1.49422	
-1.74055	
-1.47469	
-1.35467	
0.195487	
1.04082	
1.17279	
0.930084	
0.723707	
-1.63565	
-0.21663	
0.0926753	
-0.298914	
0.00372617	
-2.59308	
-1.95014	
-1.49067	
-1.25081	
-1.15156	
-1.32026	
-1.25793	
-1.31361	
-1.26381	
-1.44872	
-1.67859	
-1.55026	
-1.64841	
-1.5447	
-1.54712	
-2.79312	
-2.46279	
-2.26658	
-2.29279	
-2.45487	
-2.33519	
-2.23838	
-2.22152	
0.497807	
0.378644	
-0.42438	
-2.4037	
-2.8738	
-2.21541	
-2.76831	
-2.32839	
-2.31496	
-2.15566	
-2.39968	
-2.57922	
-0.121311	
-1.00549	
-1.07807	
-1.09486	
-1.11217	
-1.5273	
-1.8149	
-2.92007	
-3.41142	
-2.40466	
-2.23978	
-2.29268	
-2.25646	
0.465304	
-0.0343562	
0.888358	
0.135984	
-1.96962	
-0.583502	
-1.60757	
-1.96934	
-0.818323	
-1.02114	
-1.5627	
-2.11035	
-1.43399	
-1.79422	
-2.67767	
-3.20105	
-2.52558	
-2.6184	
-0.921662	
-0.87895	
0.322011	
0.224564	
0.327122	
0.167758	
0.188261	
0.0461112	
0.0820245	
-2.94459	
-3.2702	
0.385035	
0.281911	
0.501886	
-1.36005	
-0.97317	
-0.969754	
-0.650076	
-1.37077	
-1.50721	
-1.19696	
-1.2106	
0.0753462	
-0.199467	
0.0693055	
-0.140755	
-3.55923	
-3.52193	
-2.90648	
-0.629502	
-0.979078	
-1.01282	
-0.77807	
-2.06279	
-2.10774	
-2.48874	
-2.56527	
-2.37382	
-2.42087	
-1.08574	
-0.919521	
-0.880174	
-1.1531	
-1.11599	
-1.3784	
-1.73851	
-1.90957	
-2.21249	
-1.5097	
-1.46184	
-1.91156	
-1.68708	
-2.19179	
0.452153	
0.305788	
0.00612696	
-0.281462	
-0.126858	
-0.35177	
-1.19074	
-1.44118	
-1.18764	
-1.44198	
-1.81869	
-1.35707	
-2.19329	
-1.63608	
-1.6729	
-2.01232	
-2.17854	
0.770037	
0.515383	
0.422341	
-2.07844	
-2.13279	
-2.15215	
-2.10836	
-2.29433	
-2.13888	
-2.05364	
-2.05722	
0.0553596	
-0.0786052	
0.297485	
0.372404	
-0.548844	
-0.574993	
-0.122854	
-0.297962	
1.14768	
1.04555	
1.88031	
0.16117	
0.570842	
1.09311	
-1.62341	
-1.71673	
-1.84043	
-1.82853	
-1.98712	
-2.02143	
-2.3399	
-2.19644	
-2.23099	
-2.12259	
-2.71201	
-2.64294	
-0.758579	
-0.705714	
-0.939218	
-1.05976	
-1.18509	
-1.19757	
-1.40823	
-1.47682	
-1.22322	
-1.19197	
-1.38985	
-1.51501	
-2.11295	
-2.21725	
-2.19541	
-2.31838	
-2.2532	
-2.11612	
0.443001	
0.696437	
-1.75955	
-1.91872	
-1.8786	
-2.28821	
-2.16443	
-2.48697	
-3.0772	
-2.24	
-2.19634	
0.647814	
-1.7649	
-1.68944	
-1.72807	
-2.17843	
-2.16358	
-2.4297	
-2.13096	
3.0796	
-1.86115	
-1.97668	
-1.74099	
-1.73254	
0.459789	
0.43594	
0.84426	
0.693689	
0.719836	
0.499066	
1.56456	
-2.00319	
-2.04679	
-2.39453	
-2.56615	
-2.53706	
0.772407	
-2.20494	
-2.3627	
-2.05771	
-2.06045	
0.508818	
0.410484	
-2.0188	
0.659354	
0.624879	
-1.58562	
-1.63626	
-1.47878	
-1.51777	
-1.61527	
-1.7397	
-2.53545	
-2.75998	
-1.95646	
-2.2554	
-1.54251	
-1.44374	
-1.34258	
-2.22332	
-1.9405	
-2.10258	
-2.08803	
-2.03194	
-1.83879	
-1.64773	
-1.52215	
-1.83406	
-1.65372	
-1.71248	
-1.79957	
0.842576	
0.667111	
0.782929	
-2.01217	
0.419849	
0.326245	
0.326591	
0.415069	
0.428985	
-2.15883	
-2.17982	
-2.20334	
0.0640177	
0.165365	
-0.0165613	
0.11797	
-2.17174	
-2.05037	
-2.097	
-2.16447	
-2.18728	
-2.46983	
-2.23885	
-2.53429	
-2.30791	
0.853498	
0.898366	
0.597934	
-3.05664	
-2.4431	
-3.20463	
-2.45482	
-1.75717	
0.355623	
-2.11325	
-2.08344	
1.66991	
1.16338	
1.20831	
0.637875	
-1.92876	
-1.74182	
-1.59784	
-0.786385	
-0.76758	
-0.449698	
-1.80012	
-1.80434	
-2.84318	
-2.28371	
-2.36231	
-2.32749	
-2.59437	
-0.183844	
-0.536567	
0.909822	
0.770794	
0.765208	
0.718383	
0.853487	
0.520197	
0.474898	
0.42794	
0.302284	
-2.48226	
-2.31269	
-2.37209	
-2.26504	
-1.99447	
-1.95001	
-2.28299	
-2.67947	
-2.75107	
0.217917	
0.0943452	
-0.294765	
-2.26436	
-2.44604	
-1.86041	
-1.96636	
-2.08556	
-1.99455	
-2.14757	
-2.04695	
-2.06698	
-2.07459	
-1.87122	
-1.85099	
-1.91658	
-2.01206	
-2.09421	
-1.84158	
-1.76798	
-1.89886	
-1.71466	
0.913604	
0.396362	
-1.81943	
-1.9286	
-1.93327	
-2.2592	
-1.00029	
-1.2193	
-1.69991	
-1.7352	
-2.03496	
-2.05467	
-1.9986	
-2.07603	
-1.28562	
-1.44253	
-2.33873	
-2.36974	
-2.28989	
-2.26229	
-2.26807	
-2.21656	
-2.19253	
-2.18181	
-1.83784	
-2.08249	
-1.48424	
-1.48966	
-2.39656	
-2.84312	
-2.78438	
-2.21253	
-2.53919	
-2.32497	
-0.109091	
-0.427511	
-0.488568	
0.548283	
0.394718	
-1.94175	
-2.00751	
-1.97401	
-0.484908	
-0.482207	
-0.381144	
-2.11121	
-1.99174	
-2.12779	
-1.95208	
-0.633032	
-0.51879	
-0.802684	
-0.934353	
-1.19995	
-2.03884	
-1.89509	
0.882293	
1.1898	
1.48971	
1.01642	
-0.241741	
-0.314168	
0.499793	
0.594302	
0.470063	
0.628568	
-2.43608	
-2.61366	
-2.36696	
-2.56771	
-0.94487	
-0.771213	
-0.354296	
2.04359	
3.03058	
-2.53629	
-2.66431	
-2.85314	
-3.32059	
-0.447141	
-0.30929	
-0.782888	
-0.514841	
0.731036	
0.660858	
0.493396	
0.40306	
0.350893	
-0.23424	
-0.489127	
0.0627581	
-0.370087	
0.508289	
0.510719	
-1.95477	
-2.54012	
-1.93268	
-2.11346	
-0.751829	
-0.979051	
-0.927057	
-1.11604	
1.66166	
1.4792	
-2.46118	
-2.29671	
0.509896	
0.514354	
0.736126	
0.694746	
0.806221	
0.437299	
-0.0122436	
-0.0917081	
-0.140029	
-0.113837	
-0.0505594	
-0.0341627	
-0.0756928	
0.0498215	
0.0841073	
0.198776	
0.277456	
0.242859	
0.139161	
0.00697292	
-0.16163	
-0.146219	
-0.118992	
-0.130113	
-0.081507	
0.278129	
-0.0271877	
0.239962	
0.119459	
0.185354	
0.0506875	
-0.174705	
0.242351	
0.175258	
0.0270161	
-0.0780034	
0.0803703	
-0.224173	
-0.261474	
-0.334035	
-0.298915	
-0.331174	
-0.343291	
-0.163178	
0.216644	
0.14051	
-0.225211	
-0.0650151	
-0.132492	
0.0249004	
-0.221581	
-0.267714	
-0.253991	
-0.251765	
-0.258083	
-0.262336	
0.260586	
1.59069	
0.161282	
1.52794	
1.51211	
1.44535	
1.82289	
0.924918	
0.862903	
0.883968	
0.911112	
1.05467	
0.309404	
0.159916	
1.49759	
0.454675	
0.134742	
0.322397	
1.67663	
2.84929	
0.665518	
0.853138	
1.31009	
1.15063	
1.24476	
1.09301	
0.919089	
1.18999	
1.1643	
0.619114	
0.68237	
0.695815	
0.97848	
0.480932	
1.08631	
1.15549	
1.1739	
1.29017	
1.10471	
0.904796	
1.07866	
1.12632	
1.22882	
1.21268	
1.35811	
1.32783	
1.18635	
1.24634	
1.23932	
1.17407	
1.19364	
1.1728	
1.2383	
1.19803	
0.677405	
0.689469	
1.14431	
1.14512	
1.22993	
1.19883	
1.46473	
1.18461	
1.29309	
1.05034	
1.18581	
0.741691	
1.13111	
1.22181	
1.12099	
1.15414	
1.28194	
1.33105	
1.10837	
1.14385	
1.28092	
1.14498	
1.13899	
1.28323	
1.26243	
1.25457	
1.08319	
1.07707	
1.18056	
0.867616	
1.42771	
1.10588	
0.527624	
1.34872	
1.17603	
0.639728	
1.30513	
1.17863	
1.21804	
1.36832	
1.16824	
1.21569	
1.15797	
1.18805	
0.929687	
0.990461	
1.03746	
1.40563	
1.29212	
0.965424	
1.18933	
1.17883	
1.2203	
1.04922	
0.897927	
0.940872	
0.940966	
1.11342	
1.11002	
1.06142	
1.02241	
1.05917	
1.13656	
1.19834	
1.12234	
1.17727	
1.32769	
1.17143	
1.13324	
1.19986	
1.18444	
1.17828	
1.20047	
1.17368	
1.21851	
1.14438	
1.16358	
1.16871	
1.17966	
1.26034	
1.31114	
1.38172	
1.41655	
0.847879	
0.919469	
1.27112	
1.16275	
0.522117	
1.29643	
1.37343	
0.347627	
1.17259	
1.01505	
1.05525	
1.04795	
1.07217	
1.20362	
1.10429	
1.13804	
0.623422	
0.336975	
0.294989	
0.430082	
1.96165	
1.06218	
0.945577	
0.453415	
1.50931	
1.41424	
1.08646	
1.20124	
1.24613	
1.50919	
1.21581	
1.15648	
1.2432	
1.13545	
2.77647	
2.95685	
0.979861	
0.840325	
1.01999	
0.932996	
1.19683	
1.24089	
0.868398	
0.937091	
0.903928	
0.738151	
0.661073	
1.13853	
1.19692	
1.1446	
0.934629	
0.966769	
0.817463	
1.09124	
0.589253	
0.556779	
0.613067	
0.670899	
0.683372	
0.770175	
0.760145	
0.69973	
0.734803	
0.788987	
0.827575	
1.27818	
1.22594	
1.21367	
0.619884	
0.46292	
0.579669	
0.496634	
1.45007	
1.32665	
1.30343	
1.00871	
1.0269	
1.18677	
1.22129	
1.20568	
1.34443	
1.30874	
1.40537	
1.32236	
1.41889	
0.944217	
1.08723	
0.86589	
1.23072	
1.21381	
0.477759	
0.390456	
1.40355	
1.30745	
1.23018	
1.31856	
1.26864	
1.37656	
0.934646	
1.25181	
1.20393	
1.21565	
1.23515	
1.4361	
1.40373	
1.42638	
1.29726	
1.03317	
1.02505	
1.04559	
1.20468	
1.17607	
1.20456	
1.22047	
1.21793	
1.20244	
1.43622	
1.40071	
1.31577	
1.21329	
1.31	
1.16956	
1.13442	
1.41325	
1.19242	
1.01755	
0.895397	
0.819153	
1.24247	
1.33576	
1.32883	
1.00512	
1.10452	
1.24995	
0.994303	
0.95295	
1.01481	
1.45971	
1.15579	
1.23447	
1.15975	
1.15143	
1.15067	
1.06924	
1.07109	
1.08612	
0.802133	
0.866553	
1.42176	
1.32364	
1.23579	
1.52095	
1.4821	
1.07901	
1.09193	
1.02373	
1.10189	
1.11603	
1.30127	
1.24404	
1.24237	
0.884988	
0.872605	
0.917733	
0.975421	
0.999571	
0.974616	
1.01512	
0.8715	
0.641073	
1.14006	
1.31898	
1.1554	
1.29593	
1.23936	
1.15938	
1.2696	
1.31394	
1.13725	
1.14225	
1.00756	
0.89785	
1.41496	
1.43786	
1.30687	
1.34366	
0.944537	
0.953943	
1.21641	
1.12033	
1.21489	
1.19522	
1.1481	
1.18418	
1.19965	
1.2705	
1.26884	
1.00957	
1.00113	
1.17906	
1.02483	
1.15196	
1.15888	
1.12171	
1.1467	
1.1454	
1.17369	
1.16267	
1.09209	
1.05996	
1.08199	
1.06133	
1.13572	
1.17564	
1.09108	
1.23485	
1.15766	
0.9894	
0.962458	
1.08134	
1.24487	
1.19102	
1.21071	
1.19287	
1.0585	
1.36318	
1.2817	
1.26797	
1.29033	
1.36276	
1.05823	
1.04342	
1.07472	
1.05563	
1.04396	
1.05927	
1.0592	
1.06683	
1.24677	
1.32654	
1.36968	
1.32457	
0.96741	
0.54583	
0.41723	
1.15936	
1.17881	
1.18233	
1.26094	
1.39852	
1.38086	
1.38471	
1.37596	
1.07658	
1.1247	
1.05759	
1.1943	
1.24234	
1.34407	
1.35377	
0.963452	
0.997832	
0.971148	
1.02412	
0.249533	
0.264238	
1.47539	
1.3842	
1.28189	
1.29338	
1.14645	
1.27909	
1.01996	
0.939978	
1.00577	
0.956694	
0.971925	
1.01656	
1.11372	
0.981666	
1.01862	
0.959675	
1.01539	
1.03605	
1.14852	
1.12813	
1.16789	
0.433598	
0.492855	
0.567262	
1.15038	
1.20744	
1.15867	
1.18996	
1.25101	
1.33891	
1.36178	
0.647336	
1.06994	
0.998946	
1.07706	
1.00075	
0.873793	
0.791084	
1.0034	
0.93202	
1.19658	
1.19979	
1.23625	
1.22067	
1.29197	
1.19683	
1.23783	
1.19808	
1.26494	
1.23868	
1.38163	
1.28923	
1.32919	
1.41382	
1.45149	
1.39895	
1.39582	
1.42785	
1.26985	
1.39671	
1.07575	
1.04418	
1.47876	
1.33895	
1.22021	
1.18909	
1.2588	
1.32577	
1.28696	
1.33037	
1.2263	
1.53967	
1.162	
1.2083	
1.23241	
1.21875	
1.21386	
1.26795	
1.26629	
1.16427	
1.13211	
1.25389	
1.21866	
1.39294	
1.32307	
0.777817	
0.714651	
0.770029	
0.703608	
1.05058	
1.10372	
1.06144	
0.522298	
0.614967	
1.16401	
1.13558	
0.454821	
0.38324	
0.971434	
0.952617	
1.07653	
1.03413	
1.18019	
1.17564	
1.18158	
1.12346	
1.12316	
1.14633	
1.092	
1.03763	
1.04379	
1.11994	
1.01267	
1.02256	
1.03176	
1.16172	
1.13917	
1.15508	
1.09916	
1.24901	
1.20494	
1.19214	
1.14985	
1.24447	
1.22478	
1.28331	
1.24146	
1.32649	
0.892711	
0.86696	
0.873907	
0.766023	
1.44158	
1.52327	
1.45012	
1.40604	
1.43623	
1.43383	
1.23503	
1.41259	
1.3718	
1.4253	
1.40238	
1.22241	
1.23567	
1.21414	
1.29551	
0.900667	
0.911048	
0.918219	
1.16553	
1.19543	
1.23151	
1.0106	
0.998099	
1.41317	
1.05756	
1.021	
0.92785	
0.998685	
1.19839	
1.23694	
0.999711	
0.977285	
0.839079	
0.751383	
1.00112	
1.02594	
1.02444	
0.698642	
0.622495	
1.25984	
1.04691	
0.637628	
0.679676	
1.57956	
1.51412	
1.19169	
1.1783	
1.23078	
1.02444	
1.03535	
1.15811	
1.1775	
0.417795	
1.08306	
1.20158	
1.24378	
1.15642	
1.17312	
1.05348	
1.1106	
1.23794	
1.19402	
1.19239	
0.87661	
0.882431	
0.85858	
0.873683	
1.20582	
1.24008	
1.21609	
1.24852	
1.27462	
1.08749	
1.24809	
1.14455	
1.12147	
1.60741	
2.22213	
1.31738	
0.948431	
1.03304	
1.37725	
1.2461	
1.22661	
0.838129	
1.10865	
1.18427	
1.26723	
1.28721	
1.1928	
1.23033	
1.15584	
1.13638	
1.15193	
1.14897	
1.21706	
1.24661	
1.27686	
1.25093	
0.714529	
0.689465	
1.07611	
1.04555	
1.21298	
1.17568	
1.14089	
1.14181	
1.13119	
1.40989	
1.29671	
1.02756	
0.966069	
1.05618	
0.994846	
1.29406	
1.28079	
1.3288	
1.22663	
1.34984	
1.25204	
1.3535	
1.329	
1.03077	
0.964804	
1.00015	
0.943721	
0.975888	
1.14172	
1.08968	
1.25218	
1.09653	
1.20976	
1.20511	
1.32231	
1.36159	
1.01386	
1.00219	
1.02105	
1.0392	
1.19941	
1.19419	
1.07145	
1.07398	
1.05823	
1.03957	
1.17968	
1.20482	
1.13553	
1.13603	
1.14359	
0.955371	
1.02731	
0.84577	
0.961903	
1.13521	
1.13219	
1.09563	
1.16874	
1.23313	
1.31548	
1.16359	
1.195	
1.21077	
1.21152	
1.25886	
1.28323	
1.21086	
1.3626	
1.22877	
0.833705	
0.846928	
1.3272	
1.19046	
1.22342	
1.20554	
1.21443	
1.22573	
1.20008	
1.20381	
1.17531	
1.1776	
1.51778	
1.39658	
1.78107	
1.43433	
0.33143	
0.339881	
0.218356	
0.135286	
0.945117	
0.990654	
0.946061	
0.95556	
1.09431	
1.11958	
1.08231	
1.09414	
1.26848	
1.2434	
1.19421	
1.18717	
0.82313	
0.815824	
0.839377	
0.760095	
1.15981	
1.27496	
1.1164	
1.10831	
1.14692	
1.0619	
1.22567	
1.11513	
1.17977	
1.20645	
1.25537	
1.38469	
1.28589	
1.27695	
1.25697	
1.2731	
1.36962	
1.40221	
0.449147	
1.13371	
1.13454	
1.04959	
1.02889	
1.0283	
1.13668	
1.27844	
0.938633	
1.02485	
1.01682	
1.1608	
0.491104	
0.587486	
0.561651	
0.3862	
0.317707	
0.300326	
0.912201	
1.10891	
1.11194	
0.516562	
0.469482	
0.732733	
0.282966	
0.394515	
0.595399	
0.436875	
0.443361	
1.14727	
1.19278	
1.12132	
1.23254	
1.28376	
1.20281	
1.12117	
1.30762	
0.95842	
0.898736	
0.918487	
1.07703	
1.04398	
1.08169	
1.07351	
1.14366	
1.14542	
1.16912	
1.22273	
0.483755	
0.549399	
1.10084	
1.11912	
1.13913	
1.45446	
1.65207	
1.01481	
1.07961	
0.918159	
0.499841	
0.581759	
0.61077	
0.496399	
0.595764	
1.29327	
1.25012	
1.17066	
1.40852	
0.978142	
0.947633	
0.517782	
0.572921	
1.23791	
1.1127	
1.12418	
1.10817	
0.507504	
0.570491	
0.424725	
0.513675	
0.261606	
0.360692	
0.385923	
1.13215	
1.50449	
1.0963	
1.2097	
1.2821	
1.23536	
1.2158	
1.17443	
0.725518	
0.673197	
0.785362	
0.721047	
1.12462	
1.17745	
1.04873	
1.0423	
0.167289	
0.360189	
0.287424	
0.814358	
0.763397	
0.91655	
0.776928	
0.89339	
0.886371	
0.933572	
0.908292	
0.326073	
0.2236	
0.3234	
0.221004	
0.77837	
0.773008	
0.817177	
-2.4883	
-3.88746	
-2.94354	
-3.16958	
-3.82736	
0.910049	
2.56572	
0.624496	
0.760125	
-0.701615	
-0.944869	
0.788588	
-0.758962	
-0.892771	
-1.46917	
-0.972198	
-2.35909	
-2.41395	
-1.77163	
-1.09689	
-2.39236	
-2.43285	
-0.295148	
-0.00318961	
-0.131164	
-1.43209	
-2.06524	
-1.78479	
-1.53841	
-1.1067	
-1.04527	
-2.34888	
-2.39068	
-2.30347	
-2.33849	
-2.21849	
-2.54778	
-0.445537	
-2.90662	
-1.38125	
0.114292	
0.340624	
-1.80104	
-2.05836	
0.566207	
1.31761	
-2.03457	
-1.05531	
0.253805	
-0.709764	
-1.70138	
-1.88267	
-1.74021	
-1.85296	
-2.44174	
-3.07433	
-2.97284	
-0.680755	
-0.215488	
-1.10316	
-1.15115	
-2.43195	
-2.14528	
-1.56922	
-1.03442	
-1.23043	
-0.958928	
-1.23039	
-0.523307	
-1.40956	
-1.06023	
-1.71788	
-0.922517	
-2.02032	
-2.26233	
-0.332252	
-1.47183	
-1.89677	
-0.973613	
-0.841954	
-0.494999	
-2.40153	
-3.11568	
-2.36358	
-2.03216	
-1.23182	
-2.03191	
-1.99375	
-2.00757	
-0.610813	
-0.879139	
-2.22605	
-2.3079	
0.638165	
0.0178735	
0.401161	
0.3439	
-2.26749	
-2.70576	
-2.34224	
-2.8116	
0.0682467	
0.142056	
0.342708	
-1.04446	
-0.963818	
-0.882122	
-0.836034	
-2.16658	
-2.50222	
-2.34369	
-2.46499	
0.573602	
-1.9531	
-1.14084	
0.736887	
-0.191696	
0.268108	
-1.69032	
-2.49479	
-0.995055	
1.85161	
1.08393	
0.632485	
0.00349711	
0.126665	
-0.00175933	
-0.464318	
-0.352389	
-2.25302	
-1.86025	
-2.02039	
-1.86173	
-1.51641	
-1.27239	
-1.54787	
-1.31435	
-0.408648	
0.401644	
-2.51794	
-2.3315	
-2.34037	
-2.18637	
0.232759	
0.218307	
0.376225	
0.403977	
-1.60335	
-1.84525	
-1.33243	
-1.37341	
-0.199328	
-0.956124	
-0.183472	
-0.9023	
-2.99994	
-2.08836	
-1.79841	
-2.44065	
-2.58903	
-2.65182	
-1.54815	
-2.07299	
-2.19828	
-2.472	
-1.85278	
-2.75302	
-2.42861	
-1.99097	
-1.90321	
-2.2031	
-2.31659	
0.672199	
0.731029	
-1.46703	
-1.34192	
-1.45218	
-0.970889	
-1.37143	
-1.49156	
-1.36007	
-0.94533	
-1.97599	
1.42795	
1.63764	
0.135038	
-0.00556313	
-2.76224	
-2.87018	
2.14593	
1.17806	
-1.98732	
-1.76699	
-2.05814	
-0.173405	
0.113259	
-0.0871602	
0.771768	
0.853834	
0.53636	
0.593145	
1.19833	
0.618822	
0.670816	
0.514251	
-2.18997	
-3.3398	
-3.28689	
0.955912	
0.533721	
0.711131	
0.234603	
-0.738384	
-0.405022	
-2.21205	
-2.37818	
-2.20932	
-2.24086	
-1.9502	
-1.93892	
-2.26849	
-2.02346	
-2.08589	
-2.25874	
-2.44796	
-2.86061	
-2.37405	
-2.35585	
-2.37252	
-2.32759	
-0.00641752	
0.0663022	
-1.39788	
-1.34774	
-1.04819	
-1.5421	
-0.0265098	
-0.405836	
-0.286113	
0.39174	
-2.37453	
-2.48673	
-2.43355	
-2.37408	
-2.44696	
-2.45574	
-2.66751	
-3.04852	
-2.3022	
-2.31132	
-2.29895	
-2.28586	
-2.74537	
-2.93958	
-2.61188	
-2.86031	
-0.536826	
-0.704832	
-0.284076	
-0.556124	
-1.57157	
-1.65052	
-1.96986	
-1.74801	
1.80362	
1.55036	
-0.871427	
-1.06804	
-1.18946	
-1.25394	
-1.08619	
-0.50327	
-0.792865	
-0.79031	
-1.16598	
-3.03304	
-3.31725	
-0.962759	
-0.919152	
-0.652642	
-1.38153	
-1.23726	
-1.19056	
-1.06258	
-0.919499	
-0.79386	
-0.503234	
-1.14177	
-1.45	
-0.728256	
-1.00563	
-0.322305	
-0.0627165	
-0.515575	
-0.386547	
-1.40728	
-1.84154	
-1.90529	
-1.78896	
0.597971	
-2.42192	
0.0414622	
0.367161	
-3.95317	
-3.99782	
0.67046	
0.914671	
1.24903	
1.3746	
-1.59729	
-1.83995	
-1.47686	
-1.55202	
-2.33916	
-2.65426	
-2.37123	
-2.24494	
-2.47325	
-2.45715	
-2.86365	
-2.98085	
-1.70313	
-2.37538	
-1.8577	
-2.5362	
-2.64292	
-2.15905	
-2.80943	
-2.19086	
0.329858	
-0.26689	
0.244345	
-2.80421	
-2.86574	
-2.73576	
-3.34388	
-2.04545	
-2.20876	
-2.70828	
-0.902456	
-0.931978	
1.3922	
1.06417	
0.744068	
0.198196	
0.425593	
0.00353994	
0.367645	
0.289109	
0.771105	
0.43071	
-1.67887	
-0.547579	
-0.781744	
-2.30414	
-1.85397	
-1.63934	
-1.84966	
-1.72576	
-2.32692	
-2.09422	
-2.37005	
-2.17976	
-2.08405	
-2.20464	
-2.36733	
-1.68447	
-1.95422	
-1.90999	
-0.793363	
-0.622719	
-0.554303	
-0.425557	
0.321825	
0.525771	
0.498597	
0.79847	
-1.31509	
-1.25781	
-1.52968	
-1.43209	
-1.69373	
-2.51512	
-0.969453	
-0.458075	
-1.57226	
-1.85912	
-1.77365	
-1.52478	
0.166108	
1.19581	
0.911996	
0.827147	
0.947965	
-1.9092	
-0.29495	
0.0501939	
-0.214944	
0.17019	
-2.87883	
-1.92897	
-2.30877	
-1.58197	
-1.36689	
-1.31748	
-1.33884	
-1.40651	
-1.42834	
-1.39747	
-1.63694	
-1.76614	
-1.54	
-1.59304	
-1.84902	
-1.74	
-2.73776	
-2.6281	
-2.63926	
-2.67033	
-2.27157	
-2.29862	
-2.32429	
-2.54305	
0.382551	
0.502632	
-2.55842	
-2.71707	
-2.3872	
-2.7027	
-2.3474	
-2.45676	
-2.3585	
-2.6625	
-2.84695	
-0.23047	
-1.25407	
-1.20312	
-1.04532	