<VTKFile type="UnstructuredGrid" version="0.1" byte_order="LittleEndian">
	<UnstructuredGrid>
		<Piece NumberOfPoints="1917" NumberOfCells="3602">
			<CellData Scalars="scalars">
				<DataArray type="Float64" Name="Doublet Strengths" NumberOfComponents="1" Format="ascii">
1.47442	
0.290908	
1.20316	
1.1788	
1.09208	
2.92129	
0.538657	
0.528231	
0.50888	
0.499936	
0.664188	
0.297546	
0.101954	
2.53758	
0.272525	
0.119685	
0.229352	
2.61735	
0.41258	
0.716257	
0.63966	
0.648046	
0.796135	
0.464782	
0.531186	
0.499134	
0.695281	
0.394996	
0.746746	
0.800745	
0.734545	
0.889045	
0.780687	
0.571696	
0.669823	
0.645496	
0.715936	
0.813695	
0.799306	
0.963801	
0.850155	
0.880297	
0.779082	
0.833782	
0.81371	
0.873719	
0.773648	
0.854352	
0.77468	
0.469475	
0.521893	
0.738922	
0.748546	
0.704254	
0.721374	
1.03654	
0.744357	
0.707892	
0.671559	
0.766173	
0.525858	
0.801798	
0.815913	
0.721648	
0.745975	
0.835298	
0.875959	
0.742441	
0.781659	
0.795963	
0.729027	
0.746965	
0.780954	
0.892177	
0.823772	
0.962683	
0.591432	
1.4889	
0.46094	
0.369046	
0.757561	
0.720634	
0.794025	
0.456258	
0.837493	
0.939125	
0.806361	
0.9795	
0.744428	
0.780097	
0.624814	
0.577755	
0.802377	
0.714015	
0.745233	
0.636974	
0.773937	
0.824188	
0.651028	
0.786426	
0.635958	
0.612474	
0.861275	
0.805992	
0.678823	
0.698001	
0.673799	
0.79289	
0.832567	
0.798984	
0.849788	
0.817812	
0.868776	
0.780113	
0.742865	
0.773559	
0.781536	
0.77949	
0.762244	
0.768941	
0.766743	
0.774021	
0.754999	
0.75858	
0.760863	
0.990499	
0.857162	
0.943487	
0.815268	
0.612802	
0.545491	
0.901151	
0.918765	
0.380058	
0.952176	
1.0241	
0.800642	
0.670908	
0.651519	
0.686982	
0.678134	
0.77175	
0.726609	
0.709239	
0.44228	
0.224382	
0.262981	
0.33415	
1.20768	
1.61305	
1.02754	
0.60017	
0.667751	
0.360221	
0.290948	
1.17367	
1.05667	
0.737243	
0.886919	
0.419833	
0.923645	
0.835082	
0.768734	
0.769534	
0.712586	
2.90723	
2.82507	
0.623663	
0.607024	
0.586561	
0.577774	
0.778607	
0.786817	
0.537922	
0.529266	
0.57486	
0.611365	
0.621319	
0.568525	
0.516849	
0.751446	
0.727546	
0.744837	
0.563675	
0.536769	
0.601877	
0.703513	
0.446106	
0.622099	
0.470774	
0.349191	
0.380384	
0.425864	
0.511228	
0.54385	
0.546267	
0.556263	
0.498547	
0.517388	
0.605454	
0.717521	
0.804454	
0.875994	
0.790125	
0.426007	
0.408976	
0.450559	
0.426684	
1.09159	
1.3577	
1.01371	
0.972524	
0.996761	
0.6773	
0.624073	
0.446215	
0.38244	
0.816249	
0.785706	
0.850185	
0.788695	
1.02805	
0.914105	
1.01273	
0.923707	
0.523463	
0.547975	
0.292479	
1.0688	
0.964005	
0.769262	
0.724147	
0.740061	
0.712301	
0.577996	
0.83959	
0.871501	
0.844756	
0.813267	
0.899788	
0.892726	
1.03801	
1.02737	
0.732335	
0.737158	
0.732773	
0.724984	
0.781487	
0.810853	
0.810914	
0.777837	
0.768347	
0.778915	
0.769225	
1.03765	
0.947262	
1.01775	
0.870372	
0.322745	
0.304753	
0.951458	
0.775114	
0.814779	
0.72675	
0.879443	
0.635242	
0.671509	
0.577064	
0.835364	
0.935747	
0.936465	
0.728865	
0.9	
0.748934	
0.707607	
0.701989	
0.719928	
0.730611	
0.72007	
0.737658	
0.736742	
0.681458	
0.676075	
0.676844	
0.706012	
0.637014	
0.687892	
0.827401	
1.00019	
0.900737	
1.13732	
1.19218	
0.779666	
0.719036	
0.710852	
0.903551	
0.755153	
0.842499	
0.91089	
0.585667	
0.588022	
0.602023	
0.770263	
0.61098	
0.731906	
0.626398	
0.529705	
0.473977	
0.741439	
0.959534	
0.910856	
0.847	
0.922952	
0.77568	
0.886187	
0.9564	
0.986535	
0.813478	
0.535619	
0.708797	
0.908091	
1.04169	
1.01685	
1.05031	
0.557816	
0.596744	
0.633996	
0.709921	
0.702113	
0.826227	
0.787047	
0.765774	
0.912882	
0.905013	
0.978903	
1.00575	
0.719526	
0.788493	
0.733522	
0.78396	
0.729471	
0.751399	
0.726983	
0.765431	
0.735138	
0.755793	
0.789011	
0.753009	
0.780046	
0.755311	
0.911235	
0.836112	
1.04875	
0.851329	
0.714981	
0.664415	
0.70808	
0.640276	
0.589831	
0.808771	
0.804657	
0.820981	
0.794851	
0.667495	
0.998525	
0.946016	
0.849458	
0.851198	
0.741906	
0.756453	
0.749945	
0.761928	
0.744527	
0.738506	
0.770569	
0.768324	
0.961077	
0.847628	
0.816963	
0.928601	
0.685925	
0.5986	
0.394857	
0.312699	
0.808494	
0.794005	
0.74603	
0.755937	
0.754804	
0.744692	
0.727089	
0.738816	
0.688771	
0.661872	
0.697179	
0.659014	
0.75274	
0.728461	
0.828326	
0.739111	
0.638231	
0.619878	
0.647928	
0.648383	
0.257986	
0.21933	
1.03905	
1.10269	
0.86475	
0.90989	
0.779705	
0.931805	
0.603211	
0.616463	
0.577718	
0.620861	
0.649976	
0.785378	
0.724031	
0.687247	
0.712488	
0.658153	
0.643344	
0.734592	
0.693687	
0.805621	
0.732673	
0.280587	
0.383439	
0.333976	
0.849352	
0.791753	
0.838774	
0.789386	
0.875115	
0.994855	
0.986615	
0.559213	
0.546018	
0.552474	
0.732939	
0.733439	
0.78581	
0.723248	
0.772006	
0.586588	
0.670278	
0.595657	
0.793998	
0.790926	
0.813674	
0.819808	
0.756532	
0.758746	
0.750925	
0.751507	
0.808205	
0.8662	
0.866802	
0.98699	
0.899286	
1.00336	
0.972824	
0.89968	
1.03295	
0.888566	
1.00097	
0.976478	
0.684002	
0.658136	
0.751855	
0.938729	
0.864292	
0.946706	
0.859814	
0.911166	
0.831611	
0.68754	
0.736564	
0.782594	
0.772621	
0.806893	
0.824722	
0.804044	
0.861912	
0.839752	
0.729299	
0.751158	
0.812994	
0.850828	
0.56286	
0.475986	
0.54985	
0.50951	
0.685764	
0.64964	
0.378352	
0.319596	
0.714399	
0.711037	
0.336662	
0.285184	
0.584988	
0.622999	
0.637383	
0.641435	
0.679762	
0.726503	
0.692589	
0.726343	
0.710064	
0.71449	
0.726419	
0.627444	
0.634656	
0.666555	
0.682785	
0.66494	
0.6105	
0.74017	
0.699399	
0.75252	
0.725136	
0.78462	
0.765489	
0.82112	
0.797456	
0.867892	
0.829886	
0.839747	
0.816024	
0.668425	
0.60704	
0.741603	
0.613591	
0.706625	
1.23737	
1.06343	
1.01989	
1.05309	
0.976311	
0.935732	
0.829944	
1.03654	
0.979559	
0.852744	
1.03354	
0.816174	
0.850953	
0.796901	
0.913722	
0.719202	
0.712899	
0.594191	
0.586055	
0.590051	
0.805201	
0.851528	
0.788224	
0.653009	
0.632271	
0.635519	
0.670614	
0.637316	
0.593971	
0.628598	
0.804977	
0.883014	
0.829486	
0.625427	
0.574784	
0.526713	
0.712414	
0.472602	
0.563993	
0.631178	
0.636052	
0.655859	
0.807557	
0.493114	
0.484113	
0.749137	
0.48424	
0.590636	
0.777102	
0.752344	
0.74516	
0.78694	
0.887343	
0.795142	
0.657044	
0.634813	
0.853087	
0.735767	
0.393414	
0.525131	
0.697734	
0.83248	
0.841298	
0.834437	
0.879817	
0.689007	
0.726386	
0.769866	
0.722046	
0.721106	
0.564706	
0.555442	
0.571912	
0.559484	
0.81957	
0.855912	
0.804868	
0.838937	
0.798305	
0.95564	
0.940419	
0.737363	
0.719518	
0.751742	
0.80335	
0.688055	
0.644149	
0.612822	
0.867434	
0.798913	
0.917746	
0.849882	
0.902438	
0.764371	
0.901388	
0.602703	
0.545558	
0.497717	
0.685025	
0.668746	
0.701941	
0.676874	
0.938114	
0.911877	
0.875517	
0.825538	
0.729292	
0.755131	
0.745932	
0.760738	
0.874752	
0.84796	
0.833649	
0.854513	
0.428705	
0.418125	
0.716116	
0.758123	
0.723989	
0.652093	
0.714204	
0.643088	
0.751929	
0.982915	
0.846409	
0.964729	
0.942473	
0.875424	
0.976577	
0.96154	
1.00488	
0.594193	
0.607116	
0.666836	
0.633507	
0.666038	
0.820334	
0.81046	
0.790336	
0.804573	
0.770186	
0.720998	
0.773568	
0.724483	
0.761146	
0.773145	
0.790323	
0.823033	
0.877484	
0.941616	
0.599501	
0.620399	
0.646319	
0.628569	
0.820496	
0.877604	
0.758254	
0.756128	
0.77072	
0.661862	
0.671975	
0.629683	
0.660256	
0.72669	
0.73063	
0.681923	
0.590624	
0.609489	
0.522673	
0.70052	
0.701028	
0.699937	
0.701051	
0.870974	
0.835061	
0.818031	
0.809404	
0.624064	
0.728603	
0.86218	
0.837891	
0.58745	
0.577099	
0.843158	
0.860599	
0.913679	
0.842599	
0.836263	
0.85087	
0.820997	
0.795793	
0.788961	
0.779979	
1.06398	
1.19759	
1.10764	
1.28242	
0.224032	
0.237916	
0.115332	
0.161846	
0.675023	
0.606751	
0.68506	
0.618304	
0.744028	
0.709265	
0.726355	
0.705268	
0.878084	
0.89304	
0.782507	
0.790875	
0.560908	
0.484991	
0.511399	
0.488064	
0.839579	
0.775148	
0.738839	
0.742077	
0.702736	
0.71072	
0.691125	
0.699335	
0.783297	
0.816212	
0.792056	
0.805783	
0.771536	
0.789922	
0.760955	
0.282671	
0.762868	
0.756817	
0.629921	
0.64842	
0.64055	
0.250424	
0.354786	
0.627798	
0.596286	
0.559377	
0.526728	
0.494787	
0.654511	
0.629809	
0.603499	
0.562905	
0.318858	
0.428923	
0.320053	
0.855883	
0.828092	
0.975249	
0.785663	
0.797046	
0.860407	
0.712208	
0.691146	
0.709553	
0.659217	
0.934503	
0.968333	
1.11189	
1.20786	
0.810824	
0.75729	
0.689596	
0.654799	
0.673331	
0.68378	
0.685006	
0.504044	
0.483314	
0.720844	
0.737107	
0.818064	
0.824782	
0.397971	
0.343919	
0.39495	
0.700984	
0.705485	
0.698545	
1.78088	
1.26984	
0.668669	
0.628826	
0.402961	
0.847623	
0.887563	
0.934936	
1.35655	
0.574741	
0.578897	
0.677428	
0.660805	
0.313731	
0.288794	
0.378062	
0.376539	
0.769364	
0.764803	
0.71162	
0.717856	
1.03136	
0.949485	
0.521511	
0.51315	
0.917566	
0.760427	
0.684913	
0.682743	
0.635771	
0.669524	
0.741335	
0.730065	
0.864575	
0.804301	
0.928562	
0.796923	
0.884361	
0.749627	
0.39151	
0.351502	
0.291077	
0.278054	
0.588862	
0.576941	
0.571017	
0.561386	
0.43416	
0.463738	
-1.7772	
-3.3066	
-2.25635	
-2.26963	
-2.52013	
-1.61577	
0.588199	
2.34779	
0.333649	
0.59	
-0.450982	
-0.468537	
0.469603	
-0.405418	
-0.477952	
-1.17251	
-0.660446	
-1.53343	
-1.45511	
-1.56087	
-1.13992	
-0.755475	
-1.49783	
-0.209366	
-0.0474233	
-0.078374	
-0.883118	
-1.28132	
-1.15687	
-1.08448	
-0.655156	
-0.770629	
-1.52462	
-2.21457	
-1.50624	
-1.45178	
-1.54388	
-1.38127	
-0.337077	
-2.13557	
-0.961863	
0.0254355	
0.176849	
-1.28782	
-1.44098	
0.294892	
0.740179	
-1.54804	
-0.766088	
0.13193	
-0.472102	
-1.2478	
-2.05367	
-1.01988	
-1.35517	
-1.47847	
-2.20353	
-1.97457	
-0.471588	
-0.125542	
-0.87162	
-0.848652	
-1.55169	
-1.15601	
-1.43857	
-0.682404	
-0.944019	
-0.581731	
-0.81402	
-0.133769	
-1.01945	
-0.555586	
-1.0305	
-0.733095	
-1.81647	
-1.78406	
-0.281226	
-2.11391	
-1.30667	
-0.750587	
-0.368146	
-0.650866	
-1.2681	
-1.46513	
-1.52584	
-1.52755	
-1.43558	
-0.989001	
-1.43832	
-1.64178	
-1.51522	
-0.432799	
-0.606963	
-1.54977	
-1.54555	
0.256962	
-0.0561072	
0.194718	
0.182149	
-1.68549	
-2.22208	
-1.52942	
-2.11898	
-0.00577304	
-0.649732	
0.102897	
0.206886	
-0.507713	
-0.537793	
-0.590001	
-0.641764	
-1.64378	
-1.73207	
-1.69337	
-1.62471	
0.293418	
-1.37704	
-0.641719	
0.420543	
-0.193646	
0.118234	
-1.4246	
-1.70619	
-0.49238	
1.20121	
1.61036	
0.522534	
-0.0803747	
-0.250346	
0.0062205	
-0.369368	
-0.275909	
-1.6347	
-1.70606	
-1.80487	
-0.839386	
-0.977093	
-0.790987	
-1.01426	
-0.961856	
-0.351319	
0.337359	
-1.66266	
-1.77152	
-2.04049	
-1.81884	
0.00848546	
0.1073	
0.197644	
0.187099	
-0.973455	
-1.26525	
-1.17589	
-1.39386	
-0.411198	
-0.72943	
-0.13098	
-0.48596	
-1.52041	
-1.37243	
-1.50854	
-1.54965	
-1.49172	
-1.5697	
-1.32497	
-2.24034	
-1.57019	
-2.30969	
-2.1982	
-2.28593	
-2.06523	
-2.13885	
-1.92435	
-1.46279	
-1.37224	
0.256098	
0.461219	
0.416932	
-0.944521	
-0.969913	
-1.06027	
-1.08143	
-1.01741	
-0.649405	
-0.84314	
-0.93248	
-1.34698	
1.06738	
1.21508	
1.40563	
0.020822	
-0.0631528	
-1.53088	
-1.63776	
0.853841	
1.86766	
-1.82948	
-1.37304	
-1.27693	
-0.0901067	
-0.0575261	
0.0470128	
0.440149	
0.392657	
0.293293	
0.342164	
0.737497	
0.370353	
0.347535	
0.28118	
-1.39508	
-2.44405	
-2.35476	
0.291926	
0.198636	
0.781883	
0.435827	
-0.382607	
-0.196267	
-1.46328	
-1.35682	
-1.30771	
-1.44205	
-1.40326	
-1.45044	
-1.51212	
-1.23823	
-1.29064	
-1.39948	
-2.15286	
-1.6999	
-1.59432	
-1.5448	
-1.5073	
-1.50096	
0.0784966	
0.0148841	
-1.13422	
-0.679214	
-0.949582	
-1.21266	
-0.0668791	
-0.325	
0.221767	
-0.0601373	
-1.77317	
-1.61598	
-1.64856	
-1.6296	
-1.53516	
-1.54693	
-1.59268	
-1.52603	
-1.50541	
-1.48738	
-1.50117	
-1.49692	
-2.53707	
-2.1039	
-2.1168	
-1.99832	
-0.202831	
-0.387701	
-0.201774	
-0.48486	
-1.01493	
-0.981188	
-1.11784	
-1.4543	
1.15262	
1.61609	
-0.574976	
-0.511221	
-0.643396	
-0.670718	
-0.846737	
-0.909452	
-0.909423	
-0.409912	
-2.37018	
-2.18982	
-0.772025	
-0.530275	
-0.730068	
-1.56571	
-1.11705	
-0.718546	
-0.624837	
-0.845482	
-0.876521	
-0.644535	
-0.368611	
-0.567308	
-0.77373	
-0.623479	
-1.18906	
-2.00164	
-1.52912	
-0.392937	
-0.269438	
-0.233088	
0.0411425	
-0.707386	
-1.35597	
-1.319	
-1.03457	
0.3042	
-1.79141	
0.32741	
0.0639538	
-2.44471	
-3.09058	
0.50317	
0.608645	
1.25339	
1.42205	
-1.11561	
-1.28368	
-1.30755	
-1.46216	
-1.98858	
-1.8568	
-1.75059	
-1.86999	
-1.52944	
-1.70047	
-1.67241	
-2.12169	
-2.12191	
-1.28125	
-2.22055	
-1.95624	
-1.7013	
-2.44564	
-1.68773	
-2.23258	
-0.203008	
0.232701	
-1.61177	
-1.55425	
-1.60674	
-1.64021	
-1.38988	
-1.20431	
-1.32452	
-0.651804	
-0.592008	
0.695153	
1.09265	
0.177599	
0.765962	
-0.021579	
0.413533	
0.543984	
0.148368	
0.543391	
0.267142	
-1.07751	
-0.477327	
-0.581475	
-1.47087	
-1.17836	
-1.26224	
-1.20773	
-1.28458	
-1.45073	
-1.51811	
-1.50545	
-1.95396	
-1.365	
-1.288	
-1.6234	
-1.32174	
-1.16331	
-1.27585	
-1.34383	
-0.443938	
-0.357854	
-0.61695	
-0.503394	
0.305123	
0.151801	
0.496142	
0.382542	
-1.23769	
-1.87895	
-0.725507	
-0.790513	
-0.816328	
-0.944263	
-1.46836	
-0.426158	
-0.245849	
-1.10077	
-1.25278	
-0.917432	
-0.854396	
0.0793704	
0.855466	
1.08375	
0.808122	
0.673115	
-1.04112	
-0.137583	
0.0584854	
-0.203291	
0.0429781	
-1.73143	
-1.29849	
-1.12227	
-0.916437	
-0.836093	
-0.940383	
-0.889616	
-0.911323	
-0.863645	
-1.02845	
-1.25633	
-1.10708	
-1.20305	
-1.02799	
-1.00358	
-2.14442	
-1.71529	
-1.5607	
-1.56005	
-1.75274	
-1.66476	
-1.58311	
-1.56597	
0.267112	
0.203092	
-0.317008	
-1.7708	
-2.4224	
-1.68319	
-2.34354	
-1.60259	
-1.57443	
-1.46875	
-1.55995	
-1.77461	
-0.106161	
-0.631258	
-0.675705	
-0.809203	
-0.832854	
-1.16472	
-1.44633	
-2.25683	
-2.73929	
-1.64057	
-1.54935	
-1.55691	
-1.53905	
0.410075	
0.0239979	
0.835939	
0.163061	
-1.51821	
-0.410679	
-1.20331	
-1.43098	
-0.62315	
-0.778724	
-1.18967	
-1.69878	
-1.14817	
-1.44014	
-1.85065	
-2.44176	
-1.71657	
-1.86181	
-0.555201	
-0.542249	
0.176903	
0.121196	
0.298274	
0.179698	
0.105533	
0.0272574	
0.108796	
-2.22195	
-2.43216	
0.330726	
0.179438	
0.316098	
-1.10219	
-0.767562	
-0.776468	
-0.501571	
-1.03138	
-1.21251	
-0.893175	
-0.957558	
0.0316772	
-0.185287	
-0.00247457	
-0.149875	
-2.86282	
-2.8489	
-2.2115	
-0.456558	
-0.686952	
-0.712715	
-0.550114	
-1.5789	
-1.61376	
-1.87253	
-1.92212	
-1.78228	
-1.79691	
-0.715691	
-0.586155	
-0.553829	
-0.783772	
-0.733825	
-1.07093	
-1.39601	
-1.57277	
-1.84509	
-1.11255	
-1.04901	
-1.45457	
-1.21049	
-1.52329	
0.248563	
0.192708	
-0.0384332	
-0.224135	
-0.115489	
-0.283659	
-0.755343	
-0.92238	
-0.747436	
-0.920631	
-1.36561	
-1.0025	
-1.80215	
-1.26526	
-1.14819	
-1.31024	
-1.46001	
0.452576	
0.30013	
0.246845	
-1.48653	
-1.50641	
-1.56695	
-1.51778	
-1.5044	
-1.40761	
-1.41248	
-1.38315	
0.0201216	
-0.0506237	
0.210743	
0.290512	
-0.369526	
-0.386846	
-0.0475473	
-0.186604	
0.979099	
0.88401	
1.56391	
0.0794156	
0.352578	
0.767321	
-1.19378	
-1.24658	
-1.28891	
-1.29174	
-1.38681	
-1.37629	
-1.61376	
-1.56697	
-1.5578	
-1.51331	
-1.81042	
-1.83125	
-0.542282	
-0.503669	
-0.665846	
-0.748486	
-0.853687	
-0.872284	
-1.03686	
-1.11672	
-0.885442	
-0.86287	
-1.02082	
-1.12527	
-1.40469	
-1.48522	
-1.44461	
-1.52039	
-1.49047	
-1.41332	
0.217866	
0.375018	
-1.12772	
-1.22135	
-1.19809	
-1.46685	
-1.40331	
-1.59972	
-2.30723	
-1.47813	
-1.47209	
0.349996	
-1.1362	
-1.08809	
-1.14414	
-1.52817	
-1.51498	
-1.70816	
-1.44468	
2.85556	
-1.19862	
-1.26344	
-1.11929	
-1.10935	
0.262376	
0.257364	
0.597085	
0.450799	
0.526056	
0.338057	
1.28139	
-1.35736	
-1.38111	
-1.65302	
-1.70657	
-1.64982	
0.42384	
-1.49727	
-1.64267	
-1.39047	
-1.3962	
0.26933	
0.224991	
-1.36057	
0.353571	
0.331815	
-1.09899	
-1.16265	
-1.02871	
-1.03786	
-1.12635	
-1.19194	
-2.06976	
-2.25744	
-1.29898	
-1.48954	
-1.15573	
-1.10331	
-1.01745	
-1.45593	
-1.23925	
-1.34829	
-1.32131	
-1.55534	
-1.36988	
-1.23149	
-1.13848	
-1.22601	
-1.07127	
-1.14193	
-1.19929	
0.564079	
0.421685	
0.46335	
-1.55401	
0.242201	
0.158935	
0.15956	
0.214818	
0.215278	
-1.48835	
-1.47894	
-1.47961	
0.00981228	
0.0661962	
-0.0462174	
0.035562	
-1.48626	
-1.40848	
-1.45167	
-1.49291	
-1.47681	
-1.68345	
-1.48391	
-1.78718	
-1.54784	
0.526351	
0.593555	
0.39512	
-2.32967	
-1.62397	
-2.47356	
-1.66358	
-1.34908	
0.191963	
-1.49769	
-1.47188	
1.39501	
0.901522	
0.9627	
0.343613	
-1.30113	
-1.12687	
-1.02887	
-0.635798	
-0.613458	
-0.379758	
-1.1475	
-1.18003	
-2.08126	
-1.60605	
-1.69409	
-1.63917	
-1.86042	
-0.202677	
-0.456932	
0.520014	
0.40994	
0.436296	
0.383787	
0.458549	
0.267837	
0.237854	
0.218273	
0.142981	
-1.81933	
-1.65066	
-1.74388	
-1.64939	
-1.34137	
-1.31949	
-1.48666	
-2.00645	
-2.08075	
0.145517	
0.0437226	
-0.277246	
-1.51379	
-1.67163	
-1.44696	
-1.62107	
-1.5681	
-1.46427	
-1.4549	
-1.3879	
-1.72059	
-1.74276	
-1.57776	
-1.28277	
-1.36764	
-1.40831	
-1.53856	
-1.26017	
-1.2025	
-1.3119	
-1.17907	
0.739977	
0.239915	
-1.33543	
-1.40085	
-1.41645	
-1.64371	
-0.801925	
-1.037	
-1.30007	
-1.32267	
-1.42488	
-1.41203	
-1.35808	
-1.40052	
-1.02579	
-1.1813	
-1.57796	
-1.57346	
-1.53658	
-1.52301	
-1.69159	
-1.62211	
-1.61598	
-1.57581	
-1.48396	
-1.6832	
-1.08499	
-1.08445	
-1.83827	
-2.21168	
-2.16009	
-1.68862	
-1.94968	
-1.78109	
-0.0881667	
-0.328201	
-0.359716	
0.286935	
0.200496	
-1.30312	
-1.34802	
-1.29967	
-0.343625	
-0.362592	
-0.277274	
-1.61524	
-1.5406	
-1.61954	
-1.54795	
-0.537303	
-0.45808	
-0.689215	
-0.764215	
-0.984664	
-1.39346	
-1.25649	
0.627049	
0.874794	
1.16351	
0.7079	
-0.185181	
-0.232722	
0.278418	
0.33775	
0.274899	
0.354513	
-1.77026	
-1.9257	
-1.74894	
-1.94051	
-0.683209	
-0.554427	
-0.226283	
1.87021	
2.82592	
-1.81648	
-1.97704	
-2.13236	
-2.66258	
-0.367493	
-0.27453	
-0.598023	
-0.419794	
0.484189	
0.480301	
0.285136	
0.275103	
0.191856	
-0.134023	
-0.333183	
0.0984717	
-0.238857	
0.303921	
0.354357	
-1.45709	
-1.99877	
-1.43543	
-1.54925	
-0.553648	
-0.714203	
-0.655738	
-0.796832	
1.34049	
1.19123	
-1.87585	
-1.74308	
0.295642	
0.33173	
0.386901	
0.367498	
0.684783	
0.255639	
-0.0722541	
-0.135484	
-0.0853285	
-0.0671867	
-0.0357943	
-0.0313653	
-0.0423205	
0.0230224	
0.0459059	
0.12395	
0.168357	
0.15024	
0.0841512	
-0.00379799	
-0.0972404	
-0.087616	
-0.0905352	
-0.0847755	
-0.0681997	
0.166151	
-0.0309712	
0.144132	
0.0688597	
0.111475	
0.0213586	
-0.107507	
0.136403	
0.0947011	
0.00069844	
-0.0720571	
0.0354783	
-0.173968	
-0.200899	
-0.234812	
-0.185543	
-0.214203	
-0.265354	
-0.134602	
0.123444	
0.0766424	
-0.177303	
-0.0627804	
-0.109004	
0.00124714	
-0.136706	
-0.16449	
-0.159758	
-0.154774	
-0.171628	
-0.195264	
0.150978	
1.28564	
0.100239	
1.20783	
1.18455	
1.11675	
1.47837	
0.539635	
0.503423	
0.50882	
0.527319	
0.686208	
0.200447	
0.100454	
1.17217	
0.266937	
0.0851917	
0.215147	
1.33202	
2.57496	
0.411493	
0.49648	
0.996	
0.748543	
0.933633	
0.701718	
0.665333	
0.860125	
0.833784	
0.432558	
0.480424	
0.48836	
0.703958	
0.32587	
0.771481	
0.803036	
0.792405	
0.933617	
0.788077	
0.590411	
0.699142	
0.751291	
0.848357	
0.831118	
1.02276	
0.850969	
0.858395	
0.899365	
0.877087	
0.83001	
0.858293	
0.806184	
0.878838	
0.857104	
0.442353	
0.463822	
0.791814	
0.778458	
0.864076	
0.812155	
1.06296	
0.846193	
0.964984	
0.700707	
0.846394	
0.523064	
0.811794	
0.831675	
0.759383	
0.780404	
0.967701	
1.04449	
0.762019	
0.808288	
0.953635	
0.774461	
0.77921	
0.885558	
0.968001	
0.974554	
0.79037	
0.794059	
0.81895	
0.625768	
1.11842	
0.90532	
0.354982	
1.01631	
0.81704	
0.427642	
0.965131	
0.850184	
0.882087	
1.04028	
0.831354	
0.881877	
0.827166	
0.818249	
0.574657	
0.722944	
0.790483	
1.12486	
0.905554	
0.664514	
0.852269	
0.81293	
0.870556	
0.804247	
0.652204	
0.599385	
0.593729	
0.81749	
0.798597	
0.731035	
0.686629	
0.719521	
0.802991	
0.855574	
0.799189	
0.840864	
1.03235	
0.856742	
0.838803	
0.821736	
0.846511	
0.84469	
0.85076	
0.836076	
0.870896	
0.817819	
0.828569	
0.833821	
0.84186	
0.906388	
0.949898	
0.883756	
0.900655	
0.601846	
0.688412	
0.941132	
0.828482	
0.362653	
0.967218	
1.03215	
0.2346	
0.842556	
0.671025	
0.690827	
0.709603	
0.715507	
0.798519	
0.73623	
0.764582	
0.421895	
0.226276	
0.195968	
0.292101	
1.61771	
0.689045	
0.617613	
0.308204	
1.18243	
1.08373	
0.756054	
0.923634	
0.879891	
1.13688	
0.835628	
0.830764	
0.899862	
0.812298	
2.50444	
2.67957	
0.739325	
0.600692	
0.764989	
0.646832	
0.81296	
0.819991	
0.495951	
0.569438	
0.651978	
0.55265	
0.464178	
0.76968	
0.822982	
0.784032	
0.540841	
0.56639	
0.564943	
0.725277	
0.406712	
0.38207	
0.426153	
0.468564	
0.478052	
0.539376	
0.535069	
0.495829	
0.520274	
0.567439	
0.599213	
0.941202	
0.874527	
0.867779	
0.429619	
0.315046	
0.397608	
0.336517	
1.08561	
1.02787	
1.02027	
0.673005	
0.690715	
0.823609	
0.855742	
0.824147	
0.886118	
0.955703	
1.05852	
0.961581	
1.06367	
0.7132	
0.745019	
0.586289	
0.878477	
0.832509	
0.340557	
0.271128	
1.08266	
0.979614	
0.886499	
0.99117	
0.920623	
1.04339	
0.59541	
0.866958	
0.857607	
0.860127	
0.889702	
1.0714	
1.05086	
1.03567	
0.929739	
0.740845	
0.735234	
0.745262	
0.835133	
0.803177	
0.84749	
0.846327	
0.868336	
0.852209	
1.09958	
1.0579	
0.869036	
0.811049	
0.980842	
0.831608	
0.793643	
0.860751	
0.756886	
0.76302	
0.641903	
0.583538	
0.901476	
1.00962	
1.00257	
0.648022	
0.748986	
0.922309	
0.720281	
0.694115	
0.731585	
1.1259	
0.762676	
0.773514	
0.812548	
0.767843	
0.749672	
0.699117	
0.704436	
0.721373	
0.61135	
0.622573	
1.07886	
0.965625	
0.894122	
1.1986	
1.15641	
0.750296	
0.803556	
0.734961	
0.736275	
0.743375	
0.930349	
0.873306	
0.867013	
0.610513	
0.608798	
0.637591	
0.632361	
0.663543	
0.628135	
0.675682	
0.618658	
0.449361	
0.816425	
1.01212	
0.811078	
0.97491	
0.911598	
0.825949	
0.944156	
0.999392	
0.834159	
0.824222	
0.763561	
0.656023	
1.07165	
1.09879	
0.951828	
0.984081	
0.564511	
0.605251	
0.776784	
0.751988	
0.848304	
0.839034	
0.790102	
0.903797	
0.92661	
0.989113	
0.992239	
0.74166	
0.728994	
0.90294	
0.743663	
0.802689	
0.799967	
0.764617	
0.785837	
0.818673	
0.841299	
0.835856	
0.773829	
0.75605	
0.774989	
0.761528	
0.833915	
0.876907	
0.794865	
0.932931	
0.784543	
0.70193	
0.606973	
0.657553	
0.867971	
0.840303	
0.86296	
0.848014	
0.711514	
0.894296	
0.8821	
0.88701	
0.920506	
0.982058	
0.764471	
0.74899	
0.768407	
0.754342	
0.743403	
0.757023	
0.754029	
0.768491	
0.844283	
0.956069	
0.990329	
0.937237	
0.601066	
0.373151	
0.292451	
0.76221	
0.77305	
0.825533	
0.927237	
1.06948	
1.04438	
1.0566	
1.04018	
0.730477	
0.780465	
0.723865	
0.833009	
0.891201	
1.00408	
1.01455	
0.623844	
0.657384	
0.631767	
0.687409	
0.164002	
0.17515	
1.10856	
1.04691	
0.946329	
0.964007	
0.795095	
0.943279	
0.65555	
0.579409	
0.61489	
0.608972	
0.620976	
0.641966	
0.722046	
0.62448	
0.663187	
0.693803	
0.744498	
0.739162	
0.803933	
0.742368	
0.775741	
0.270224	
0.320732	
0.367252	
0.810855	
0.867014	
0.810529	
0.834444	
0.891307	
1.00289	
1.02056	
0.445579	
0.797222	
0.731742	
0.798794	
0.739428	
0.621916	
0.56385	
0.766893	
0.707052	
0.857829	
0.859071	
0.891771	
0.876601	
0.90486	
0.852155	
0.888488	
0.856316	
0.904876	
0.890663	
1.02808	
0.939019	
0.933951	
0.932491	
0.976582	
1.0031	
1.03159	
1.06478	
0.907284	
1.03018	
0.708554	
0.678041	
1.10716	
1.0126	
0.881755	
0.855565	
0.885519	
0.939175	
0.890168	
0.928458	
0.841735	
1.24179	
0.795362	
0.824206	
0.877295	
0.865996	
0.8441	
0.88273	
0.903987	
0.801876	
0.764704	
0.889563	
0.851195	
0.887076	
0.920525	
0.553967	
0.505885	
0.55885	
0.5056	
0.68489	
0.715855	
0.698142	
0.312481	
0.370093	
0.769143	
0.758796	
0.309802	
0.260945	
0.619061	
0.602565	
0.714822	
0.665864	
0.798484	
0.808152	
0.784186	
0.778274	
0.792876	
0.8107	
0.703546	
0.660106	
0.669543	
0.741352	
0.654867	
0.652132	
0.667958	
0.784624	
0.759612	
0.771915	
0.732829	
0.855689	
0.833908	
0.818806	
0.786869	
0.891652	
0.852573	
0.91733	
0.875859	
1.0113	
0.676913	
0.659728	
0.616036	
0.537464	
1.08096	
1.18874	
1.11008	
1.0558	
1.09263	
1.02715	
0.895113	
1.07725	
1.02984	
1.08859	
1.051	
0.889471	
0.896491	
0.870235	
0.956959	
0.622708	
0.63799	
0.616751	
0.829212	
0.846814	
0.882075	
0.685369	
0.665749	
1.06958	
0.690696	
0.657474	
0.616639	
0.647395	
0.85773	
0.907011	
0.638228	
0.747441	
0.599741	
0.528499	
0.650887	
0.6946	
0.669779	
0.49865	
0.432314	
0.904127	
0.683117	
0.454561	
0.515672	
1.15363	
1.06965	
0.815966	
0.806151	
0.828882	
0.653739	
0.674359	
0.822785	
0.830748	
0.282187	
0.752133	
0.826618	
0.856863	
0.812735	
0.815604	
0.704326	
0.748257	
0.90247	
0.862789	
0.868492	
0.603414	
0.595646	
0.594227	
0.582684	
0.879183	
0.917051	
0.887391	
0.922267	
0.972327	
0.762413	
0.957749	
0.75654	
0.736716	
1.21521	
1.92115	
1.04066	
0.690096	
0.766458	
1.03821	
0.897199	
0.858975	
0.505678	
0.774643	
0.847406	
0.93287	
0.952352	
0.862205	
0.899786	
0.786891	
0.768009	
0.791097	
0.779662	
0.880335	
0.912484	
0.931459	
0.902784	
0.413083	
0.420634	
0.779278	
0.738376	
0.877301	
0.841656	
0.813245	
0.814059	
0.763233	
0.979193	
0.885771	
0.738173	
0.680086	
0.77447	
0.714716	
0.967054	
0.956243	
0.997901	
0.887657	
0.988053	
0.879357	
1.00776	
0.979282	
0.689962	
0.660545	
0.690561	
0.63546	
0.652918	
0.810621	
0.757834	
0.925117	
0.765527	
0.849002	
0.840682	
0.967668	
1.00469	
0.641644	
0.643882	
0.651079	
0.668461	
0.831806	
0.814814	
0.70734	
0.699435	
0.692739	
0.679626	
0.852833	
0.875469	
0.812289	
0.812326	
0.817843	
0.60529	
0.700812	
0.536477	
0.627304	
0.76334	
0.777694	
0.718426	
0.803848	
0.858979	
0.959869	
0.806485	
0.819426	
0.855014	
0.834593	
0.857521	
0.889269	
0.822149	
1.05908	
0.8272	
0.597123	
0.607901	
0.926865	
0.854681	
0.88845	
0.874019	
0.858515	
0.871258	
0.851796	
0.86028	
0.818335	
0.830365	
1.20451	
1.07476	
1.47033	
1.11563	
0.227151	
0.237815	
0.144616	
0.0845836	
0.677735	
0.706241	
0.6679	
0.676924	
0.728508	
0.764188	
0.725697	
0.745493	
0.939099	
0.911795	
0.854266	
0.847874	
0.603339	
0.619304	
0.622323	
0.558776	
0.798286	
0.864554	
0.76375	
0.746306	
0.81128	
0.726423	
0.898481	
0.784123	
0.844992	
0.870904	
0.902568	
0.961779	
0.938162	
0.918703	
0.903681	
0.921873	
1.03142	
1.06938	
0.299575	
0.810505	
0.809239	
0.6742	
0.679479	
0.679313	
0.750507	
0.834515	
0.558343	
0.61055	
0.63257	
0.737113	
0.33022	
0.401514	
0.383641	
0.260856	
0.211365	
0.201514	
0.587785	
0.716249	
0.71218	
0.351023	
0.313771	
0.470589	
0.186355	
0.266387	
0.411325	
0.301001	
0.303764	
0.818904	
0.882949	
0.819044	
0.888628	
0.939248	
0.864392	
0.740347	
0.832307	
0.557164	
0.533186	
0.562774	
0.716383	
0.695175	
0.727296	
0.720803	
0.796926	
0.786552	
0.82638	
0.882318	
0.328309	
0.38023	
0.763169	
0.780833	
0.784433	
1.12599	
1.33777	
0.658501	
0.696166	
0.746235	
0.341426	
0.401182	
0.423895	
0.351304	
0.432192	
0.953821	
0.903967	
0.87299	
1.09606	
0.591097	
0.586547	
0.351551	
0.395334	
0.896876	
0.761407	
0.748307	
0.746228	
0.344491	
0.388917	
0.284629	
0.351655	
0.170173	
0.238924	
0.255725	
0.824841	
1.16012	
0.769558	
0.896189	
0.959607	
0.895957	
0.896307	
0.849753	
0.505453	
0.461071	
0.543909	
0.503718	
0.786324	
0.808107	
0.705708	
0.691474	
0.102552	
0.238295	
0.187125	
0.549036	
0.493551	
0.601156	
0.498079	
0.579862	
0.580142	
0.604612	
0.597875	
0.215262	
0.144247	
0.212689	
0.140723	
0.459784	
0.497982	
0.494889	
-1.86795	
-3.31287	
-2.26971	
-2.55652	
-3.21372	
0.607901	
2.30677	
0.333783	
0.441985	
-0.489593	
-0.628128	
0.484135	
-0.495046	
-0.569833	
-1.23343	
-0.674943	
-1.69577	
-1.74437	
-1.19541	
-0.805966	
-1.6651	
-1.81986	
-0.187126	
-0.0340391	
-0.0607585	
-1.03274	
-1.43078	
-1.25292	
-1.13104	
-0.801031	
-0.745901	
-1.68909	
-1.7194	
-1.64394	
-1.70786	
-1.59206	
-1.81934	
-0.343952	
-2.20035	
-0.98325	
0.0427883	
0.207387	
-1.29391	
-1.48775	
0.398157	
1.05083	
-1.51424	
-0.79194	
0.133248	
-0.538559	
-1.29945	
-1.34951	
-1.30356	
-1.37023	
-1.63106	
-2.35508	
-2.33677	
-0.564914	
-0.194312	
-0.827099	
-0.85343	
-1.70424	
-1.74379	
-1.1822	
-0.732999	
-0.89009	
-0.690485	
-0.911137	
-0.40115	
-1.03353	
-0.733122	
-1.39001	
-0.673704	
-1.47191	
-1.67268	
-0.284311	
-1.10597	
-1.47883	
-0.729473	
-0.622017	
-0.34563	
-1.94706	
-2.41678	
-1.65095	
-1.47552	
-0.950235	
-1.46484	
-1.41556	
-1.42442	
-0.438318	
-0.609119	
-1.58738	
-1.62516	
0.516523	
-0.0234171	
0.209937	
0.162199	
-1.6645	
-2.1642	
-1.71234	
-2.21473	
-0.0013026	
0.105637	
0.183679	
-0.761162	
-0.707656	
-0.657469	
-0.621035	
-1.61475	
-1.84311	
-1.74309	
-1.85187	
0.290534	
-1.41525	
-0.779463	
0.419692	
-0.189574	
0.114429	
-1.26847	
-1.80528	
-0.624416	
1.70248	
0.916941	
0.553877	
-0.0794839	
0.00767222	
-0.0624997	
-0.375862	
-0.275414	
-1.67407	
-1.38694	
-1.52222	
-1.39491	
-1.05644	
-0.86655	
-1.08096	
-0.901159	
-0.3469	
0.318364	
-2.06112	
-1.88729	
-1.77103	
-1.63719	
0.0846413	
0.0601496	
0.176636	
0.190171	
-1.2213	
-1.44276	
-1.00877	
-1.05209	
-0.126917	
-0.769069	
-0.127933	
-0.71701	
-2.31565	
-1.54245	
-1.32468	
-1.72336	
-1.8394	
-1.90559	
-1.32316	
-1.74083	
-1.55853	
-2.08879	
-1.4401	
-2.34349	
-2.00051	
-1.48452	
-1.4626	
-1.69221	
-1.92103	
0.397609	
0.446209	
-1.06456	
-0.962032	
-1.09164	
-0.772156	
-1.03478	
-0.995305	
-0.967785	
-0.66558	
-1.4895	
1.19487	
1.33729	
0.029049	
-0.0551722	
-2.0007	
-2.03414	
1.88104	
0.868177	
-1.382	
-1.26516	
-1.43205	
-0.158518	
0.0162247	
-0.107981	
0.396354	
0.454258	
0.273456	
0.310626	
0.937062	
0.353072	
0.376101	
0.284553	
-1.60364	
-2.60182	
-2.55742	
0.845352	
0.4729	
0.604937	
0.227994	
-0.607008	
-0.308342	
-1.501	
-1.5927	
-1.5407	
-1.55506	
-1.37599	
-1.35642	
-1.6306	
-1.3408	
-1.40993	
-1.53793	
-1.78869	
-2.2896	
-1.72172	
-1.65473	
-1.66517	
-1.64525	
-0.0569403	
0.00610953	
-1.10462	
-0.933492	
-0.740616	
-1.27459	
-0.0632894	
-0.334114	
-0.257348	
0.224487	
-1.74642	
-1.86763	
-1.79102	
-1.76674	
-1.75616	
-1.77471	
-1.94095	
-2.3689	
-1.6488	
-1.64973	
-1.63446	
-1.62714	
-2.14163	
-2.29421	
-1.99195	
-2.1675	
-0.366876	
-0.489619	
-0.193721	
-0.389207	
-1.11153	
-1.18071	
-1.56213	
-1.25972	
1.61698	
1.43078	
-0.586126	
-0.748052	
-0.801286	
-0.916498	
-0.749858	
-0.420754	
-0.615811	
-0.639258	
-0.933451	
-2.27642	
-2.49187	
-0.746249	
-0.702102	
-0.515059	
-1.05303	
-0.863041	
-0.811127	
-0.728796	
-0.635829	
-0.577308	
-0.360894	
-0.930853	
-1.17263	
-0.581032	
-0.790628	
-0.208565	
-0.0100367	
-0.361793	
-0.256165	
-1.04622	
-1.29904	
-1.37059	
-1.34795	
0.306879	
-1.77039	
0.0812465	
0.342656	
-3.29285	
-3.37804	
0.622886	
0.854183	
1.1658	
1.26674	
-1.29548	
-1.45315	