<VTKFile type="UnstructuredGrid" version="0.1" byte_order="LittleEndian">
	<UnstructuredGrid>
		<Piece NumberOfPoints="1917" NumberOfCells="3602">
			<CellData Scalars="scalars">
				<DataArray type="Float64" Name="Doublet Strengths" NumberOfComponents="1" Format="ascii">
1.59592	
0.333015	
1.32963	
1.30978	
1.22148	
3.02359	
0.697717	
0.693265	
0.661761	
0.652998	
0.806025	
0.346907	
0.125825	
2.6498	
0.348916	
0.143287	
0.274878	
2.7261	
0.516742	
0.875276	
0.789565	
0.783529	
0.927171	
0.547784	
0.623118	
0.588173	
0.812745	
0.464515	
0.87484	
0.939582	
0.874261	
1.03026	
0.90926	
0.704802	
0.821203	
0.790238	
0.864627	
0.970947	
0.945126	
1.09887	
1.05289	
1.02321	
0.921867	
0.976388	
0.952149	
1.00876	
0.918967	
0.995461	
0.911003	
0.570529	
0.619601	
0.88049	
0.896919	
0.84508	
0.864967	
1.24942	
0.883204	
0.848747	
0.80553	
0.903915	
0.618784	
0.930806	
0.951494	
0.857604	
0.887283	
0.969773	
1.01462	
0.881416	
0.915793	
0.930108	
0.866395	
0.886722	
0.900703	
1.00587	
0.946917	
1.07749	
0.693712	
1.62045	
0.556697	
0.447825	
0.896557	
0.861181	
0.937831	
0.546073	
0.969873	
1.07461	
0.936312	
1.11173	
0.877833	
0.910787	
0.797523	
0.735243	
0.906656	
0.825147	
0.869941	
0.764835	
0.918931	
0.960935	
0.754643	
0.890307	
0.80462	
0.76779	
0.997281	
0.934168	
0.821741	
0.840566	
0.82504	
0.923958	
0.968123	
0.933401	
0.988561	
0.955597	
0.991973	
0.927948	
0.880274	
0.908345	
0.920652	
0.91237	
0.904971	
0.907501	
0.899838	
0.906486	
0.887864	
0.888032	
0.893789	
1.20905	
1.01495	
1.08917	
0.977515	
0.765814	
0.644949	
1.03189	
1.04855	
0.449552	
1.0824	
1.1614	
0.931039	
0.83358	
0.800929	
0.83568	
0.822731	
0.922125	
0.872764	
0.858835	
0.528582	
0.270591	
0.316106	
0.40145	
1.33355	
1.74891	
1.17228	
0.728376	
0.812596	
0.425779	
0.343332	
1.30432	
1.18665	
0.869679	
1.00303	
0.493209	
1.09937	
1.00089	
0.91532	
0.898501	
0.844042	
3.01752	
2.93554	
0.740739	
0.723674	
0.708956	
0.691436	
0.925715	
0.943333	
0.698703	
0.686868	
0.734595	
0.778095	
0.726508	
0.647157	
0.600569	
0.896839	
0.873397	
0.885236	
0.727043	
0.695176	
0.712348	
0.850635	
0.523366	
0.705206	
0.554481	
0.41516	
0.451228	
0.503793	
0.602237	
0.636882	
0.646456	
0.661803	
0.586081	
0.607525	
0.702947	
0.815738	
0.939883	
1.00856	
0.927451	
0.507676	
0.496106	
0.533951	
0.506972	
1.23809	
1.52185	
1.13525	
1.08864	
1.12136	
0.822204	
0.769688	
0.527588	
0.457156	
0.959089	
0.926559	
0.998333	
0.934845	
1.16454	
1.05374	
1.1516	
1.06613	
0.641963	
0.66587	
0.354816	
1.19438	
1.09322	
0.916282	
0.864867	
0.882359	
0.852792	
0.716601	
0.980607	
1.00903	
0.998173	
0.955418	
1.05157	
1.03666	
1.17983	
1.16675	
0.855316	
0.868299	
0.852961	
0.843783	
0.92508	
0.951649	
0.955774	
0.924226	
0.907741	
0.916376	
0.907195	
1.17374	
1.09056	
1.15265	
1.05821	
0.363353	
0.357138	
1.08255	
0.912115	
0.95071	
0.893267	
1.09518	
0.741111	
0.779437	
0.676365	
0.972051	
1.06576	
1.06622	
0.874832	
1.0319	
0.854796	
0.820951	
0.818719	
0.856538	
0.87544	
0.871491	
0.899004	
0.91281	
0.82951	
0.833613	
0.827268	
0.852856	
0.717653	
0.778741	
0.966428	
1.14497	
1.04714	
1.26563	
1.32002	
0.89767	
0.837395	
0.858003	
1.0524	
0.904087	
0.991099	
1.06742	
0.713782	
0.713503	
0.727981	
0.919448	
0.757795	
0.913107	
0.773295	
0.644097	
0.555467	
0.874813	
1.08923	
1.04535	
0.97729	
1.05075	
0.905299	
1.01474	
1.0762	
1.11372	
0.941939	
0.653673	
0.819972	
1.05074	
1.18139	
1.1546	
1.18619	
0.71131	
0.740592	
0.779432	
0.850575	
0.835631	
0.970361	
0.935309	
0.909176	
1.0261	
1.02049	
1.09275	
1.12191	
0.832169	
0.904166	
0.849222	
0.900132	
0.865433	
0.890026	
0.861119	
0.903751	
0.866898	
0.884462	
0.918568	
0.879535	
0.912029	
0.880909	
1.03945	
0.971701	
1.1859	
0.982427	
0.864064	
0.786944	
0.866023	
0.806115	
0.733298	
0.947191	
0.939793	
0.968369	
0.933122	
0.803783	
1.14088	
1.09797	
1.00336	
1.02162	
0.86261	
0.87691	
0.873492	
0.887126	
0.869447	
0.861988	
0.897083	
0.89482	
1.10984	
0.995895	
0.966173	
1.07593	
0.868869	
0.776182	
0.470408	
0.371342	
0.952447	
0.932879	
0.888235	
0.914963	
0.900527	
0.88407	
0.866908	
0.876673	
0.829975	
0.805784	
0.836919	
0.800393	
0.893266	
0.870571	
0.965315	
0.878309	
0.78556	
0.768751	
0.790972	
0.79157	
0.304775	
0.260107	
1.17425	
1.25531	
0.996593	
1.04074	
0.921848	
1.06115	
0.734603	
0.78077	
0.727648	
0.770329	
0.797322	
0.973438	
0.911068	
0.845462	
0.91759	
0.771943	
0.753967	
0.857299	
0.815146	
0.940905	
0.890831	
0.349369	
0.467549	
0.40779	
0.985636	
0.928132	
0.977262	
0.928984	
1.01076	
1.13269	
1.12043	
0.677565	
0.648032	
0.645785	
0.84466	
0.843851	
0.899671	
0.836332	
0.875636	
0.685844	
0.786248	
0.705818	
0.929965	
0.926616	
0.951437	
0.955568	
0.894004	
0.893437	
0.88762	
0.885187	
0.948762	
1.03909	
1.00872	
1.12571	
1.07576	
1.1533	
1.1252	
1.05465	
1.17413	
1.03246	
1.14309	
1.11539	
0.831893	
0.805296	
0.884774	
1.071	
1.01882	
1.12351	
1.00549	
1.06024	
0.982089	
0.817914	
0.863167	
0.934209	
0.921419	
0.955353	
0.967232	
0.950768	
1.00633	
0.992638	
0.874594	
0.894642	
0.957759	
0.994351	
0.651638	
0.560364	
0.644095	
0.598546	
0.839859	
0.797327	
0.478162	
0.405202	
0.850088	
0.846578	
0.402176	
0.340947	
0.726485	
0.76825	
0.785786	
0.788977	
0.832529	
0.88098	
0.843014	
0.885758	
0.849775	
0.854327	
0.893261	
0.771668	
0.786265	
0.82239	
0.835098	
0.811122	
0.759294	
0.89196	
0.845212	
0.901375	
0.875449	
0.93108	
0.9086	
0.972536	
0.942866	
1.01977	
0.977259	
0.983232	
0.958141	
0.806362	
0.720941	
0.836684	
0.716454	
0.793847	
1.38256	
1.22206	
1.15986	
1.19151	
1.15723	
1.08398	
0.966435	
1.17127	
1.11564	
0.98471	
1.17781	
0.949787	
0.983692	
0.934535	
1.04539	
0.847012	
0.841779	
0.715023	
0.710053	
0.718785	
0.94109	
0.987893	
0.920638	
0.793385	
0.775711	
0.814717	
0.819735	
0.784575	
0.72489	
0.766757	
0.935748	
1.01294	
0.960425	
0.772593	
0.685608	
0.630966	
0.818691	
0.549202	
0.636979	
0.764655	
0.778512	
0.799589	
0.971669	
0.590974	
0.573835	
0.889868	
0.574362	
0.724618	
0.909164	
0.88177	
0.874697	
0.935777	
1.09311	
0.943469	
0.803394	
0.783746	
0.987133	
0.873637	
0.458139	
0.582675	
0.846905	
0.980617	
0.999161	
0.992776	
1.07463	
0.831271	
0.87679	
0.901184	
0.860988	
0.85698	
0.687253	
0.680483	
0.691571	
0.682534	
0.951639	
0.987288	
0.936237	
0.969386	
0.930389	
1.07912	
1.06005	
0.897288	
0.877574	
0.882842	
0.936432	
0.813446	
0.758341	
0.723022	
1.00384	
0.93739	
1.05112	
1.00639	
1.05351	
0.921457	
1.05716	
0.793142	
0.715613	
0.631287	
0.824878	
0.808349	
0.847953	
0.817263	
1.07181	
1.04569	
1.00656	
0.960021	
0.865745	
0.896531	
0.886125	
0.899645	
1.01558	
0.989308	
0.971796	
0.989604	
0.538758	
0.538643	
0.843183	
0.881635	
0.86935	
0.774221	
0.835966	
0.764062	
0.870343	
1.11506	
0.978103	
1.0964	
1.0727	
1.03235	
1.12117	
1.10006	
1.14057	
0.724429	
0.736013	
0.803707	
0.761128	
0.794778	
0.95832	
0.953187	
0.933782	
0.950294	
0.910643	
0.859074	
0.907796	
0.861976	
0.904901	
0.91426	
0.930334	
0.963791	
1.01853	
1.08011	
0.74233	
0.770667	
0.797264	
0.778161	
0.954519	
1.01065	
0.886307	
0.884086	
0.899374	
0.812084	
0.817382	
0.775914	
0.806234	
0.861477	
0.860922	
0.812258	
0.729557	
0.741575	
0.64478	
0.853467	
0.858463	
0.851623	
0.852959	
1.04194	
0.994748	
0.974584	
0.964744	
0.746097	
0.883796	
1.00951	
0.994406	
0.687721	
0.67663	
0.978195	
0.993847	
1.07296	
0.97756	
0.976624	
0.991183	
0.956062	
0.945152	
0.925461	
0.918992	
1.19002	
1.32008	
1.23259	
1.40175	
0.270628	
0.284655	
0.143051	
0.195894	
0.795954	
0.72758	
0.804598	
0.742609	
0.900461	
0.857091	
0.866166	
0.848855	
1.00979	
1.0244	
0.919286	
0.928727	
0.666363	
0.581456	
0.620828	
0.595504	
1.00911	
0.920771	
0.88722	
0.883699	
0.843715	
0.849344	
0.835094	
0.838766	
0.929578	
0.94849	
0.924337	
0.952145	
0.91517	
0.937075	
0.902732	
0.331182	
0.891499	
0.884704	
0.767848	
0.781235	
0.770832	
0.295365	
0.413338	
0.762801	
0.71936	
0.691517	
0.652154	
0.611983	
0.736603	
0.703215	
0.670026	
0.693983	
0.380071	
0.507156	
0.384315	
1.00024	
0.960229	
1.11504	
0.922532	
0.936838	
0.999992	
0.851272	
0.831251	
0.848546	
0.79422	
1.06707	
1.09653	
1.2467	
1.3438	
0.974388	
0.90288	
0.825478	
0.78437	
0.806271	
0.816634	
0.816397	
0.584572	
0.555772	
0.865976	
0.879552	
0.955812	
0.970389	
0.47071	
0.41233	
0.470315	
0.848963	
0.853097	
0.847273	
1.91013	
1.42122	
0.815143	
0.764009	
0.486453	
0.985773	
1.02438	
1.06525	
1.5023	
0.71945	
0.731788	
0.813395	
0.794462	
0.343105	
0.333401	
0.432374	
0.43292	
0.903792	
0.900413	
0.849553	
0.861413	
1.17993	
1.11622	
0.62517	
0.609414	
1.04882	
0.893917	
0.818958	
0.817355	
0.800839	
0.842083	
0.914696	
0.906998	
1.01242	
0.950113	
1.06656	
0.915433	
1.02839	
0.874083	
0.454177	
0.410658	
0.343384	
0.327587	
0.72442	
0.706514	
0.70499	
0.690261	
0.559592	
0.580772	
-2.00424	
-3.52792	
-2.51754	
-2.51966	
-2.80487	
-1.72451	
0.704944	
2.44707	
0.448492	
0.725055	
-0.518282	
-0.585056	
0.592619	
-0.512036	
-0.607445	
-1.26129	
-0.765828	
-1.79963	
-1.75413	
-1.84367	
-1.38567	
-0.86794	
-1.78229	
-0.256082	
-0.0354379	
-0.108371	
-1.0301	
-1.51209	
-1.36546	
-1.24388	
-0.760476	
-0.890064	
-1.80433	
-2.4949	
-1.78576	
-1.70221	
-1.79334	
-1.61211	
-0.376902	
-2.41035	
-1.11937	
0.0523035	
0.226834	
-1.47909	
-1.66932	
0.358398	
0.821835	
-1.76597	
-0.869397	
0.179804	
-0.538353	
-1.40447	
-2.24748	
-1.14364	
-1.54187	
-1.80055	
-2.48843	
-2.21655	
-0.518709	
-0.13056	
-0.982579	
-1.00144	
-1.83869	
-1.3065	
-1.62068	
-0.787379	
-1.07402	
-0.676482	
-0.940848	
-0.155351	
-1.13723	
-0.649182	
-1.17849	
-0.862567	
-2.03761	
-2.02461	
-0.302084	
-2.26441	
-1.44449	
-0.848972	
-0.430509	
-0.740908	
-1.44849	
-1.72793	
-1.80968	
-1.80969	
-1.66498	
-1.099	
-1.67428	
-1.86477	
-1.74243	
-0.502644	
-0.714317	
-1.80265	
-1.81664	
0.322297	
-0.0474433	
0.268843	
0.262215	
-1.93454	
-2.44613	
-1.74928	
-2.33009	
0.0360208	
-0.720011	
0.114996	
0.261703	
-0.587275	
-0.61865	
-0.68332	
-0.738679	
-1.88139	
-1.97099	
-1.9445	
-1.83649	
0.404925	
-1.59146	
-0.788261	
0.5476	
-0.194937	
0.177379	
-1.5897	
-1.9745	
-0.571254	
1.29254	
1.6683	
0.551228	
-0.0506127	
-0.261566	
0.0502372	
-0.407799	
-0.307644	
-1.82174	
-1.91577	
-2.03039	
-1.02467	
-1.14914	
-0.942749	
-1.19487	
-1.15458	
-0.377485	
0.36362	
-1.88274	
-1.96127	
-2.24326	
-1.99128	
0.0433005	
0.167857	
0.279704	
0.26572	
-1.09944	
-1.43056	
-1.32452	
-1.54952	
-0.461265	
-0.804561	
-0.159006	
-0.53952	
-1.74337	
-1.56454	
-1.78907	
-1.84755	
-1.76742	
-1.86438	
-1.41073	
-2.43725	
-1.82326	
-2.48256	
-2.3668	
-2.43254	
-2.20716	
-2.30909	
-2.08166	
-1.66444	
-1.5577	
0.345319	
0.567032	
0.525895	
-1.10058	
-1.12863	
-1.16178	
-1.22033	
-1.14796	
-0.76268	
-1.00796	
-1.08723	
-1.52896	
1.15341	
1.30384	
1.52139	
0.061498	
-0.0448079	
-1.82835	
-1.95559	
0.974266	
1.97023	
-2.01507	
-1.5821	
-1.5105	
-0.0855709	
-0.0442079	
0.0885612	
0.593167	
0.537642	
0.396426	
0.459248	
0.834465	
0.486731	
0.452787	
0.371997	
-1.65016	
-2.73384	
-2.64054	
0.304589	
0.199035	
0.8242	
0.45769	
-0.454292	
-0.21742	
-1.78593	
-1.65087	
-1.53603	
-1.72297	
-1.64917	
-1.72251	
-1.76663	
-1.5125	
-1.56164	
-1.68723	
-2.38768	
-1.95989	
-1.85326	
-1.83424	
-1.78946	
-1.78084	
0.137919	
0.0368426	
-1.24796	
-0.788806	
-1.10424	
-1.31202	
-0.0504067	
-0.352655	
0.287197	
-0.0365218	
-2.01717	
-1.86435	
-1.88295	
-1.88226	
-1.81041	
-1.8485	
-1.87441	
-1.81719	
-1.77292	
-1.75652	
-1.76511	
-1.76874	
-2.77385	
-2.33785	
-2.3852	
-2.25989	
-0.239892	
-0.454926	
-0.244915	
-0.571288	
-1.20369	
-1.14907	
-1.30255	
-1.61604	
1.18345	
1.68729	
-0.708886	
-0.639746	
-0.801463	
-0.803264	
-0.977446	
-0.99129	
-0.999605	
-0.442221	
-2.69005	
-2.48471	
-0.857381	
-0.586341	
-0.816819	
-1.72467	
-1.24511	
-0.850199	
-0.737843	
-0.993579	
-1.03944	
-0.749948	
-0.427807	
-0.624756	
-0.857439	
-0.682525	
-1.29429	
-2.24853	
-1.81099	
-0.461613	
-0.323286	
-0.283017	
0.0171902	
-0.865135	
-1.5698	
-1.56351	
-1.28678	
0.4127	
-2.05453	
0.332319	
0.0444555	
-2.7087	
-3.35217	
0.51473	
0.624945	
1.2942	
1.46729	
-1.24912	
-1.45258	
-1.42535	
-1.61153	
-2.16564	
-2.02092	
-2.00368	
-2.04182	
-1.76597	
-1.94616	
-1.93648	
-2.35524	
-2.26309	
-1.42894	
-2.36596	
-2.09268	
-1.9018	
-2.60781	
-1.89477	
-2.42785	
-0.225345	
0.238739	
-1.95233	
-1.85781	
-1.9408	
-1.98469	
-1.66867	
-1.45481	
-1.6057	
-0.733218	
-0.682643	
0.771469	
1.2038	
0.180612	
0.782862	
-0.0448781	
0.40981	
0.600531	
0.157685	
0.583802	
0.26257	
-1.29639	
-0.546008	
-0.624986	
-1.76517	
-1.37945	
-1.47556	
-1.39959	
-1.49201	
-1.71659	
-1.8019	
-1.74949	
-2.21014	
-1.65627	
-1.56355	
-1.76302	
-1.4987	
-1.35764	
-1.46527	
-1.52706	
-0.495037	
-0.38966	
-0.701236	
-0.559063	
0.387183	
0.214222	
0.609522	
0.488479	
-1.46007	
-2.10409	
-0.88117	
-0.95136	
-0.987722	
-1.12955	
-1.74412	
-0.495576	
-0.278396	
-1.25155	
-1.44038	
-1.13267	
-1.04757	
0.12718	
0.929686	
1.12039	
0.857978	
0.695001	
-1.27033	
-0.166017	
0.0734087	
-0.238094	
0.0300571	
-2.05899	
-1.54919	
-1.26352	
-1.04448	
-0.957024	
-1.08763	
-1.03244	
-1.06884	
-1.01986	
-1.19131	
-1.41936	
-1.27926	
-1.37529	
-1.22775	
-1.21414	
-2.39194	
-1.99935	
-1.83142	
-1.8419	
-2.02214	
-1.92228	
-1.83511	
-1.81786	
0.357663	
0.272792	
-0.356236	
-2.01328	
-2.59428	
-1.88676	
-2.50508	
-1.8842	
-1.85806	
-1.73284	
-1.88122	
-2.0835	
-0.110955	
-0.775962	
-0.831331	
-0.916859	
-0.938082	
-1.302	
-1.58582	
-2.51427	
-2.99947	
-1.93093	
-1.81339	
-1.83889	
-1.81351	
0.431789	
0.0029968	
0.857764	
0.153465	
-1.69295	
-0.475126	
-1.35885	
-1.63823	
-0.696699	
-0.870054	
-1.33165	
-1.85491	
-1.25596	
-1.57318	
-2.16815	
-2.73197	
-2.02456	
-2.15045	
-0.699363	
-0.673151	
0.234376	
0.163402	
0.311538	
0.177169	
0.140105	
0.0364941	
0.101113	
-2.50213	
-2.76057	
0.356074	
0.222392	
0.391792	
-1.19999	
-0.844746	
-0.850254	
-0.556903	
-1.16477	
-1.32687	
-1.01681	
-1.05963	
0.0501495	
-0.189808	
0.0271178	
-0.144974	
-3.13065	
-3.10715	
-2.48035	
-0.521463	
-0.798141	
-0.827682	
-0.636335	
-1.76612	
-1.80456	
-2.11103	
-2.17133	
-2.01048	
-2.03809	
-0.859861	
-0.716511	
-0.681927	
-0.927502	
-0.886252	
-1.18772	
-1.52611	
-1.69999	
-1.98468	
-1.26398	
-1.2067	
-1.6304	
-1.39293	
-1.77968	
0.32947	
0.238094	
-0.0193152	
-0.244245	
-0.116678	
-0.306726	
-0.923785	
-1.12344	
-0.917678	
-1.12205	
-1.53771	
-1.13762	
-1.95072	
-1.4066	
-1.35097	
-1.57853	
-1.73427	
0.577474	
0.385507	
0.317101	
-1.71379	
-1.7478	
-1.79132	
-1.74459	
-1.80716	
-1.68901	
-1.65879	
-1.64173	
0.0345884	
-0.0606983	
0.245319	
0.323404	
-0.437894	
-0.458735	
-0.0755043	
-0.229156	
1.04618	
0.948626	
1.68656	
0.113584	
0.438024	
0.89391	
-1.35851	
-1.42653	
-1.5008	
-1.49812	
-1.61678	
-1.62336	
-1.89025	
-1.80831	
-1.81629	
-1.7469	
-2.15403	
-2.14107	
-0.624171	
-0.579795	
-0.769797	
-0.866827	
-0.979985	
-0.99644	
-1.1788	
-1.25428	
-1.01437	
-0.988131	
-1.16208	
-1.2741	
-1.67615	
-1.76597	
-1.73259	
-1.82778	
-1.78276	
-1.68266	
0.306237	
0.503377	
-1.36962	
-1.48975	
-1.45867	
-1.78354	
-1.69481	
-1.93707	
-2.6017	
-1.76883	
-1.74891	
0.467329	
-1.37692	
-1.31855	
-1.36818	
-1.77705	
-1.76343	
-1.98368	
-1.70784	
2.943	
-1.45299	
-1.5384	
-1.35787	
-1.3483	
0.339966	
0.327402	
0.69417	
0.546513	
0.6015	
0.400747	
1.39201	
-1.60502	
-1.63642	
-1.93803	
-2.03616	
-1.99201	
0.562248	
-1.76908	
-1.91909	
-1.6465	
-1.65093	
0.364222	
0.298105	
-1.61291	
0.47417	
0.447148	
-1.28509	
-1.34333	
-1.20126	
-1.22192	
-1.31365	
-1.40178	
-2.24924	
-2.45082	
-1.55207	
-1.7823	
-1.30541	
-1.23486	
-1.14374	
-1.74891	
-1.5082	
-1.63692	
-1.61473	
-1.73895	
-1.55051	
-1.39218	
-1.28727	
-1.46044	
-1.29621	
-1.36237	
-1.43079	
0.673736	
0.518353	
0.587674	
-1.73096	
0.312624	
0.226067	
0.227563	
0.294953	
0.30128	
-1.74544	
-1.74756	
-1.75715	
0.033187	
0.108349	
-0.032554	
0.0704891	
-1.74898	
-1.65436	
-1.69894	
-1.75045	
-1.74913	
-1.98366	
-1.77206	
-2.07311	
-1.8391	
0.65389	
0.712646	
0.475451	
-2.60756	
-1.9359	
-2.75274	
-1.96513	
-1.50629	
0.266283	
-1.73336	
-1.70614	
1.50285	
1.00191	
1.05894	
0.459427	
-1.54395	
-1.36504	
-1.24877	
-0.693028	
-0.672434	
-0.406051	
-1.39662	
-1.41914	
-2.37242	
-1.86618	
-1.9506	
-1.90301	
-2.14088	
-0.196235	
-0.48576	
0.671055	
0.54877	
0.564867	
0.516427	
0.614221	
0.367517	
0.331863	
0.302057	
0.207018	
-2.07475	
-1.90558	
-1.986	
-1.88633	
-1.59266	
-1.56159	
-1.78955	
-2.26606	
-2.33868	
0.176123	
0.0649177	
-0.282362	
-1.80115	
-1.96823	
-1.60634	
-1.75402	
-1.76519	
-1.66712	
-1.72046	
-1.64055	
-1.85417	
-1.87088	
-1.69056	
-1.49892	
-1.5759	
-1.63837	
-1.75058	
-1.48291	
-1.41886	
-1.5358	
-1.38423	
0.810777	
0.304243	
-1.52028	
-1.60313	
-1.61299	
-1.87653	
-0.877573	
-1.10578	
-1.45463	
-1.48211	
-1.65839	
-1.65783	
-1.60367	
-1.65883	
-1.12547	
-1.28165	
-1.87026	
-1.87983	
-1.82636	
-1.80744	
-1.91349	
-1.85097	
-1.8375	
-1.80902	
-1.6198	
-1.83673	
-1.2388	
-1.24082	
-2.05583	
-2.45856	
-2.40364	
-1.8916	
-2.17885	
-1.99229	
-0.0945635	
-0.364644	
-0.407359	
0.390367	
0.277138	
-1.54825	
-1.60057	
-1.55765	
-0.396419	
-0.408588	
-0.320246	
-1.80886	
-1.71583	
-1.81923	
-1.70463	
-0.571541	
-0.476633	
-0.729563	
-0.828772	
-1.06797	
-1.64042	
-1.50104	
0.726587	
0.996785	
1.29013	
0.82779	
-0.205995	
-0.26217	
0.365992	
0.438964	
0.352925	
0.463228	
-2.02517	
-2.18936	
-1.9859	
-2.18141	
-0.782717	
-0.636468	
-0.274508	
1.93838	
2.90622	
-2.092	
-2.24082	
-2.40832	
-2.91519	
-0.397908	
-0.286724	
-0.668185	
-0.454645	
0.580567	
0.554446	
0.366613	
0.328151	
0.253867	
-0.171317	
-0.392233	
0.0858882	
-0.288334	
0.386691	
0.418036	
-1.64607	
-2.20409	
-1.62473	
-1.76325	
-0.62988	
-0.81554	
-0.760912	
-0.919593	
1.46447	
1.3033	
-2.1029	
-1.95732	
0.381304	
0.404286	
0.52302	
0.495432	
0.734494	
0.334448	
-0.0460498	
-0.106921	
-0.106442	
-0.0845304	
-0.0405625	
-0.0314783	
-0.0546211	
0.0341375	
0.0615512	
0.154741	
0.21214	
0.188102	
0.106743	
0.00108543	
-0.121785	
-0.109809	
-0.100744	
-0.10181	
-0.0725988	
0.210838	
-0.0288259	
0.18298	
0.089815	
0.141844	
0.0336398	
-0.133573	
0.179102	
0.127843	
0.0120821	
-0.0736808	
0.0543419	
-0.192744	
-0.223723	
-0.273255	
-0.229381	
-0.259548	
-0.295105	
-0.144945	
0.161292	
0.103046	
-0.195233	
-0.0628892	
-0.117392	
0.0114481	
-0.169625	
-0.204464	
-0.196068	
-0.192213	
-0.204999	
-0.220863	
0.194832	
1.40483	
0.124607	
1.33427	
1.31555	
1.24662	
1.61226	
0.693021	
0.645818	
0.656442	
0.678064	
0.828806	
0.247686	
0.123863	
1.29837	
0.340261	
0.105287	
0.257627	
1.46669	
2.68149	
0.509749	
0.638395	
1.11685	
0.900645	
1.05282	
0.850944	
0.7607	
0.988162	
0.961798	
0.504034	
0.55711	
0.567376	
0.806378	
0.385906	
0.887486	
0.935278	
0.939389	
1.07053	
0.907997	
0.710353	
0.843099	
0.893362	
0.991802	
0.974323	
1.15178	
1.05733	
0.982502	
1.03356	
1.01561	
0.961047	
0.985432	
0.945963	
1.01507	
0.989796	
0.533423	
0.551371	
0.931127	
0.924812	
1.00707	
0.965163	
1.22394	
0.977136	
1.09239	
0.835203	
0.977473	
0.606362	
0.93266	
0.978387	
0.896995	
0.921501	
1.08803	
1.15194	
0.89439	
0.938321	
1.07941	
0.91653	
0.917005	
1.04713	
1.0788	
1.07974	
0.900896	
0.900519	
0.956098	
0.717957	
1.23774	
0.982197	
0.428856	
1.14623	
0.954878	
0.510701	
1.10071	
0.979345	
1.01417	
1.16701	
0.961366	
1.01104	
0.955125	
0.966678	
0.715004	
0.82359	
0.883332	
1.23121	
1.06431	
0.780136	
0.984548	
0.95234	
1.00559	
0.896201	
0.74515	
0.734947	
0.732277	
0.930154	
0.917061	
0.860244	
0.817572	
0.85171	
0.928829	
0.985282	
0.921616	
0.968206	
1.14349	
0.973749	
0.948125	
0.955373	
0.978083	
0.974704	
0.98786	
0.967561	
1.00691	
0.945357	
0.95944	
0.964722	
0.973637	
1.04342	
1.08639	
1.06804	
1.09961	
0.695375	
0.775316	
1.06765	
0.957753	
0.425469	
1.09694	
1.16938	
0.278915	
0.971922	
0.807914	
0.838042	
0.843911	
0.858815	
0.96497	
0.884876	
0.915421	
0.498201	
0.269893	
0.235176	
0.345921	
1.75188	
0.833813	
0.745237	
0.364756	
1.31298	
1.21472	
0.875393	
1.02789	
1.02168	
1.28249	
0.982584	
0.957129	
1.03236	
0.937137	
2.60982	
2.78688	
0.830014	
0.690597	
0.861029	
0.752622	
0.958045	
0.974856	
0.642722	
0.714199	
0.747062	
0.62378	
0.539566	
0.909204	
0.96529	
0.921161	
0.694504	
0.723859	
0.662053	
0.865694	
0.476684	
0.448927	
0.497327	
0.545662	
0.555899	
0.626473	
0.62017	
0.573589	
0.601668	
0.651454	
0.685563	
1.07316	
1.01177	
1.00363	
0.502184	
0.372131	
0.467052	
0.398423	
1.22629	
1.1404	
1.12674	
0.805121	
0.822472	
0.961192	
0.994839	
0.967475	
1.05321	
1.09105	
1.19166	
1.09983	
1.19863	
0.801881	
0.878558	
0.693505	
1.01755	
0.984785	
0.393351	
0.317676	
1.20744	
1.10802	
1.01958	
1.11864	
1.05591	
1.17267	
0.724213	
1.01468	
0.989576	
0.995428	
1.02122	
1.20873	
1.18513	
1.18079	
1.06877	
0.851032	
0.844021	
0.858164	
0.975812	
0.946607	
0.987868	
0.992781	
1.00536	
0.989796	
1.2305	
1.19091	
1.06108	
0.977925	
1.1058	
0.960501	
0.923953	
1.10193	
0.939544	
0.858737	
0.737622	
0.673094	
1.03391	
1.1357	
1.12891	
0.787051	
0.888155	
1.04961	
0.823324	
0.791656	
0.837396	
1.25406	
0.910758	
0.941729	
0.945258	
0.912052	
0.909489	
0.842611	
0.845737	
0.860054	
0.684801	
0.715666	
1.21394	
1.10715	
1.02737	
1.32645	
1.28535	
0.871356	
0.910732	
0.842966	
0.876561	
0.885993	
1.07318	
1.01585	
1.01017	
0.71471	
0.709233	
0.744443	
0.766907	
0.794999	
0.76362	
0.808025	
0.71559	
0.524331	
0.93961	
1.12798	
0.941614	
1.09633	
1.0392	
0.954883	
1.07065	
1.11785	
0.948502	
0.944415	
0.8568	
0.748847	
1.20363	
1.23001	
1.08966	
1.12754	
0.712889	
0.74141	
0.945761	
0.892824	
0.98732	
0.976204	
0.927144	
1.00816	
1.02879	
1.09506	
1.09605	
0.842235	
0.83118	
1.00665	
0.849354	
0.936026	
0.9364	
0.900602	
0.922948	
0.944988	
0.969611	
0.96199	
0.894164	
0.871092	
0.891288	
0.874664	
0.947754	
0.990521	
0.906799	
1.04849	
0.927251	
0.811549	
0.741318	
0.813493	
1.01102	
0.974363	
0.996486	
0.980606	
0.844956	
1.07534	
1.03287	
1.03145	
1.06055	
1.13008	
0.875609	
0.86001	
0.884427	
0.868133	
0.855575	
0.869764	
0.869239	
0.880751	
0.995568	
1.09751	
1.13361	
1.08822	
0.749	
0.439928	
0.344756	
0.911239	
0.924032	
0.962051	
1.05375	
1.19762	
1.17496	
1.18416	
1.17033	
0.868124	
0.916451	
0.85554	
0.975269	
1.02896	
1.13706	
1.14712	
0.758267	
0.79228	
0.765468	
0.820262	
0.19874	
0.215858	
1.26105	
1.1818	
1.07514	
1.09032	
0.929596	
1.0716	
0.79672	
0.721006	
0.768882	
0.745225	
0.759009	
0.794256	
0.882964	
0.767952	
0.805846	
0.793601	
0.846419	
0.849071	
0.928354	
0.900288	
0.936759	
0.334804	
0.389599	
0.445713	
0.940788	
0.996964	
0.943959	
0.970384	
1.02655	
1.13025	
1.14972	
0.522465	
0.899604	
0.831968	
0.903601	
0.837568	
0.716289	
0.649539	
0.855746	
0.791845	
0.989689	
0.991694	
1.02632	
1.01015	
1.05388	
0.986233	
1.02393	
0.989284	
1.04387	
1.02592	
1.16432	
1.07564	
1.08071	
1.10367	
1.14833	
1.15017	
1.16996	
1.20166	
1.04444	
1.16791	
0.849674	
0.818643	
1.24979	
1.13821	
1.0122	
0.984077	
1.02627	
1.08365	
1.03949	
1.0781	
0.99783	
1.35573	
0.934682	
0.970111	
1.0138	
1.00258	
0.985407	
1.03046	
1.04345	
0.939521	
0.903826	
1.02803	
0.990553	
1.1008	
1.08578	
0.639503	
0.585795	
0.639428	
0.581341	
0.825264	
0.863321	
0.83721	
0.39433	
0.465363	
0.918025	
0.902752	
0.366117	
0.309323	
0.753968	
0.735755	
0.852527	
0.805371	
0.943686	
0.947927	
0.935943	
0.910012	
0.919658	
0.939517	
0.854323	
0.804754	
0.812677	
0.88567	
0.792239	
0.793184	
0.806728	
0.927342	
0.903593	
0.917654	
0.872208	
1.00161	
0.973562	
0.959518	
0.924456	
1.0299	
0.995834	
1.06425	
1.01813	
1.13236	
0.75925	
0.739186	
0.714601	
0.625627	
1.22261	
1.31909	
1.24359	
1.1957	
1.22756	
1.2033	
1.0261	
1.20702	
1.1613	
1.21856	
1.19511	
1.02109	
1.03026	
1.00562	
1.09101	
0.729359	
0.742716	
0.732742	
0.960186	
0.981703	
1.01756	
0.813163	
0.794012	
1.20283	
0.832513	
0.796966	
0.735817	
0.783944	
0.991079	
1.03632	
0.775988	
0.834887	
0.690776	
0.613521	
0.784326	
0.821793	
0.804881	
0.575394	
0.50524	
1.04209	
0.822563	
0.525105	
0.578663	
1.32041	
1.24432	
0.959028	
0.948501	
0.982693	
0.794354	
0.812348	
0.952429	
0.963894	
0.335154	
0.880493	
0.968465	
1.00265	
0.943101	
0.950566	
0.83775	
0.888793	
1.0313	
0.990058	
0.992888	
0.708049	
0.705394	
0.695641	
0.694081	
1.00543	
1.04166	
1.01437	
1.04817	
1.08671	
0.886546	
1.06752	
0.909031	
0.886822	
1.36547	
2.03708	
1.14559	
0.788452	
0.867522	
1.17242	
1.03543	
1.00508	
0.635705	
0.905734	
0.979468	
1.06621	
1.08556	
0.992305	
1.02993	
0.927708	
0.907873	
0.928273	
0.919693	
1.0114	
1.04242	
1.06712	
1.03896	
0.529162	
0.524598	
0.892263	
0.855492	
1.00727	
0.971127	
0.940179	
0.941209	
0.905262	
1.14808	
1.04621	
0.848372	
0.789498	
0.881086	
0.82059	
1.09115	
1.07915	
1.12323	
1.01595	
1.12504	
1.02057	
1.13842	
1.11177	
0.82215	
0.777066	
0.809114	
0.753683	
0.776548	
0.93859	
0.886467	
1.05096	
0.893556	
0.985919	
0.97839	
1.10185	
1.13945	
0.78435	
0.781493	
0.793494	
0.812265	
0.977148	
0.966214	
0.845871	
0.842292	
0.831953	
0.817146	
0.978471	
1.00208	
0.937888	
0.938383	
0.944937	
0.74133	
0.827758	
0.656959	
0.757387	
0.904511	
0.912708	
0.861315	
0.942711	
1.00638	
1.10158	
0.943246	
0.962652	
0.991772	
0.977846	
1.00852	
1.03924	
0.970538	
1.17483	
0.989868	
0.687284	
0.698552	
1.0777	
0.981803	
1.01516	
0.999814	
0.993683	
1.00595	
0.984464	
0.991682	
0.954072	
0.963068	
1.3267	
1.20048	
1.59158	
1.24036	
0.267569	
0.277472	
0.173747	
0.104584	
0.777712	
0.812236	
0.773637	
0.783105	
0.869154	
0.899232	
0.862473	
0.878538	
1.06554	
1.0394	
0.984768	
0.978639	
0.687625	
0.694746	
0.704999	
0.635631	
0.937829	
1.02798	
0.899053	
0.885242	
0.941309	
0.856988	
1.02564	
0.913469	
0.976123	
1.00229	
1.03905	
1.12229	
1.07274	
1.05685	
1.04117	
1.05803	
1.16318	
1.19883	
0.357904	
0.936189	
0.936047	
0.819539	
0.814325	
0.814038	
0.901048	
1.00804	
0.71023	
0.775268	
0.788182	
0.911052	
0.392166	
0.472853	
0.451746	
0.310579	
0.25508	
0.244311	
0.711268	
0.869693	
0.866933	
0.414919	
0.373917	
0.571962	
0.224635	
0.316342	
0.48206	
0.355979	
0.362583	
0.944023	
1.00144	
0.934373	
1.02141	
1.07227	
0.994927	
0.88657	
1.01551	
0.71577	
0.678604	
0.703894	
0.854836	
0.829368	
0.863239	
0.85636	
0.929998	
0.923213	
0.958224	
1.01308	
0.391286	
0.446868	
0.892339	
0.91041	
0.920312	
1.25293	
1.45896	
0.797048	
0.844776	
0.812163	
0.402725	
0.470597	
0.495199	
0.407586	
0.495396	
1.08495	
1.03715	
0.986389	
1.21616	
0.741025	
0.727202	
0.415698	
0.463643	
1.02718	
0.895666	
0.891693	
0.885394	
0.407262	
0.45914	
0.339109	
0.414006	
0.207553	
0.286858	
0.306257	
0.943759	
1.29336	
0.89586	
1.01655	
1.08376	
1.02661	
1.01882	
0.974173	
0.589518	
0.542038	
0.635446	
0.586068	
0.917056	
0.948777	
0.838413	
0.826944	
0.128658	
0.286057	
0.227676	
0.651245	
0.597836	
0.72255	
0.605854	
0.699548	
0.697108	
0.729858	
0.716213	
0.258636	
0.175668	
0.256186	
0.172668	
0.585211	
0.605868	
0.620035	
-2.114	
-3.53371	
-2.53029	
-2.79235	
-3.45261	
0.726387	
2.40752	
0.447531	
0.56737	
-0.57221	
-0.750987	
0.603088	
-0.597678	
-0.696357	
-1.32523	
-0.788633	
-1.94973	
-1.99992	
-1.4168	
-0.918187	
-1.94322	
-2.0545	
-0.228205	
-0.0193878	
-0.0875849	
-1.18852	
-1.67513	
-1.45701	
-1.28681	
-0.91882	
-0.860734	
-1.94203	
-1.97723	
-1.8967	
-1.94931	
-1.83156	
-2.09675	
-0.3816	
-2.47281	
-1.13604	
0.0721991	
0.25997	
-1.48198	
-1.70754	
0.46353	
1.15301	
-1.71508	
-0.892062	
0.182127	
-0.604235	
-1.45254	
-1.55445	
-1.4654	
-1.55318	
-1.93917	
-2.63616	
-2.58479	
-0.608878	
-0.201338	
-0.93604	
-0.974925	
-1.98279	
-1.89626	
-1.3293	
-0.849378	
-1.02233	
-0.793691	
-1.03465	
-0.449155	
-1.17681	
-0.85843	
-1.51521	
-0.768922	
-1.68342	
-1.90066	
-0.302459	
-1.24602	
-1.64125	
-0.822818	
-0.706043	
-0.402559	
-2.12297	
-2.68393	
-1.92407	
-1.69003	
-1.05898	
-1.68362	
-1.63717	
-1.64782	
-0.505054	
-0.712546	
-1.83293	
-1.88738	
0.569087	
-0.00683089	
0.286269	
0.23859	
-1.89267	
-2.37004	
-1.95551	
-2.44275	
0.0311264	
0.120475	
0.246993	
-0.870597	
-0.806193	
-0.743265	
-0.703488	
-1.82398	
-2.09161	
-1.9714	
-2.08539	
0.40312	
-1.62212	
-0.919996	
0.546816	
-0.188557	
0.175757	
-1.43171	
-2.06853	
-0.762659	
1.76162	
0.983379	
0.584967	
-0.0474248	
0.0537615	
-0.0368904	
-0.411394	
-0.304302	
-1.89912	
-1.57027	
-1.71538	
-1.57632	
-1.23293	
-1.02769	
-1.26043	
-1.05988	
-0.370014	
0.352367	
-2.23451	
-2.05619	
-1.98848	
-1.84674	
0.144247	
0.120218	
0.25562	
0.273373	
-1.36641	
-1.5947	
-1.13145	
-1.17282	
-0.153084	
-0.840653	
-0.147606	
-0.790012	
-2.5806	
-1.75283	
-1.50687	
-1.99735	
-2.12557	
-2.19112	
-1.40883	
-1.86911	
-1.80518	
-2.23595	
-1.59941	
-2.5006	
-2.16507	
-1.67913	
-1.63287	
-1.88847	
-2.07266	
0.505424	
0.557607	
-1.22195	
-1.10999	
-1.22751	
-0.846941	
-1.16225	
-1.18421	
-1.11895	
-0.775516	
-1.67431	
1.2858	
1.45486	
0.0720244	
-0.0343518	
-2.29198	
-2.35401	
1.98468	
0.989984	
-1.61574	
-1.46045	
-1.67714	
-0.164829	
0.055142	
-0.0991294	
0.541617	
0.609435	
0.377747	
0.422303	
1.03951	
0.457932	
0.49251	
0.375419	
-1.83	
-2.88779	
-2.83887	
0.889466	
0.497141	
0.647398	
0.231108	
-0.657089	
-0.348113	
-1.77616	
-1.89814	
-1.79765	
-1.8186	
-1.59689	
-1.58043	
-1.87547	
-1.60171	
-1.66802	
-1.81275	
-2.04023	
-2.50729	
-1.97099	
-1.92271	
-1.93612	
-1.90645	
-0.0368597	
0.0297286	
-1.21763	
-1.09588	
-0.86004	
-1.37846	
-0.0448765	
-0.359525	
-0.266369	
0.291376	
-1.98644	
-2.10466	
-2.03602	
-1.99807	
-2.02111	
-2.03577	
-2.21902	
-2.62867	
-1.89878	
-1.90353	
-1.88865	
-1.8796	
-2.37357	
-2.54299	
-2.23008	
-2.43407	
-0.431921	
-0.572585	
-0.227815	
-0.453239	
-1.29036	
-1.36348	
-1.72125	
-1.45175	
1.69071	
1.47849	
-0.696971	
-0.87195	
-0.951882	
-1.04869	
-0.882182	
-0.450627	
-0.683036	
-0.695654	
-1.02071	
-2.56833	
-2.80853	
-0.829876	
-0.786901	
-0.568818	
-1.17991	
-1.00684	
-0.95905	
-0.856418	
-0.745149	
-0.660059	
-0.415045	
-1.00987	
-1.27743	
-0.635957	
-0.871647	
-0.251704	
-0.0290061	
-0.42028	
-0.304885	
-1.18618	
-1.50894	
-1.57682	
-1.51856	
0.417345	
-2.02063	
0.0661445	
0.351465	
-3.54907	
-3.61856	
0.642319	
0.878665	
1.19943	
1.30986	
-1.41064	
-1.59952	
-1.30094	
-1.30834	
-2.07573	
-2.32938	
-2.09602	
-1.90545	
-2.08439	
-2.05	
-2.4931	
-2.59045	
-1.48466	
-2.15217	
-1.65917	
-2.30903	
-2.3767	
-1.85827	
-2.54411	
-1.87901	
0.31137	
-0.230078	
0.237381	
-2.31936	
-2.40071	
-2.29791	
-2.94123	
-1.64599	
-1.80497	
-2.34905	
-0.743467	
-0.793764	
1.21745	
0.946497	
0.70883	
0.190812	
0.42794	