<VTKFile type="UnstructuredGrid" version="0.1" byte_order="LittleEndian">
	<UnstructuredGrid>
		<Piece NumberOfPoints="1917" NumberOfCells="3602">
			<CellData Scalars="scalars">
				<DataArray type="Float64" Name="Doublet Strengths" NumberOfComponents="1" Format="ascii">
4.09277	
1.01676	
3.90751	
4.11271	
4.28992	
6.43691	
6.77602	
6.76803	
6.75633	
6.77103	
6.71897	
1.03171	
0.416652	
6.40555	
3.94543	
0.393701	
1.36366	
6.49752	
5.33529	
3.96802	
3.98296	
3.03058	
4.11984	
2.54734	
2.92441	
2.89342	
3.24391	
2.018	
3.93103	
4.16217	
5.0989	
4.40458	
3.98874	
3.61244	
3.93702	
3.89061	
3.99626	
4.03131	
4.46441	
4.04839	
5.30712	
4.08596	
4.48142	
4.47015	
3.83297	
3.77096	
4.51664	
4.23815	
4.27666	
4.57529	
3.96481	
4.54201	
4.57192	
4.62506	
4.62306	
5.28126	
4.60564	
4.61839	
5.73351	
4.5591	
3.05118	
3.93174	
4.76898	
4.73557	
4.58824	
4.49736	
4.96936	
3.89218	
5.43885	
5.08859	
4.84238	
4.65098	
3.78848	
3.60791	
3.78808	
3.62599	
3.67019	
5.55336	
2.70409	
2.35607	
4.45041	
4.57902	
4.0016	
3.50789	
4.24772	
4.19646	
4.17599	
4.07969	
4.17588	
3.81452	
5.90283	
6.02506	
3.27486	
3.48259	
4.52141	
3.35995	
4.10818	
4.08714	
3.22964	
3.33077	
5.49109	
5.48042	
4.46559	
4.28302	
4.82425	
5.30202	
5.33765	
4.0627	
4.09463	
4.11907	
4.1509	
4.30352	
4.3502	
4.05414	
3.96226	
4.23745	
4.20208	
4.15913	
4.38621	
4.36247	
4.27402	
4.22533	
4.26955	
4.18659	
4.21609	
4.87848	
4.25433	
4.20716	
4.40897	
2.92223	
2.70183	
4.77116	
4.95979	
2.36737	
3.94362	
4.06251	
4.13345	
5.04846	
4.97481	
4.78936	
4.74732	
4.66876	
4.6666	
4.74459	
2.58809	
1.4451	
1.64725	
2.02107	
6.51093	
6.61618	
6.53745	
6.65289	
6.82697	
1.9014	
1.57665	
4.16199	
4.24012	
3.27996	
3.39251	
1.85149	
5.40604	
5.12809	
5.2389	
4.09458	
4.01387	
6.55093	
6.49734	
3.12878	
3.03652	
2.98108	
2.92892	
4.56862	
4.52713	
6.89731	
6.87649	
6.10502	
5.88919	
3.55289	
2.81789	
2.91097	
4.06414	
4.03334	
3.98451	
6.89217	
6.76449	
4.16077	
3.84437	
2.27915	
2.40741	
2.49172	
1.99497	
2.12201	
2.40073	
2.6287	
2.57168	
2.78399	
2.82358	
2.76104	
2.75616	
3.07197	
3.04122	
4.33904	
4.29859	
4.31198	
2.53743	
2.2285	
2.6697	
2.49626	
6.31089	
6.43534	
3.65356	
3.52132	
3.66698	
4.99057	
5.27986	
2.55689	
2.22452	
4.48467	
4.53824	
4.44145	
4.52751	
4.30199	
4.35085	
4.2471	
4.33882	
3.05381	
3.27247	
1.60965	
3.9249	
3.89376	
4.53662	
4.56911	
4.58468	
4.64014	
3.71882	
4.12656	
4.08076	
4.09566	
4.04253	
4.18286	
4.2021	
4.25556	
4.27722	
3.8842	
3.76113	
3.85699	
3.7521	
4.42168	
4.41843	
4.36801	
4.43842	
4.45404	
4.38532	
4.39631	
4.31441	
4.36659	
4.35208	
4.91897	
1.19785	
1.42713	
3.9202	
3.90998	
3.88411	
4.95821	
5.10606	
3.29971	
3.54484	
3.24244	
4.09472	
4.08048	
4.03235	
5.61886	
5.67424	
3.46923	
3.54729	
3.69494	
4.09415	
4.01457	
4.00392	
3.97284	
3.97139	
3.82641	
3.82322	
3.78041	
3.67193	
3.0925	
3.41901	
4.22139	
4.21501	
4.25349	
4.2448	
4.20328	
3.75808	
3.6902	
3.9104	
3.98609	
3.96415	
4.10615	
4.07465	
3.00661	
2.98852	
3.14254	
5.17174	
5.74123	
5.13772	
5.70586	
3.02733	
3.0263	
3.5889	
3.72651	
3.73836	
3.80692	
3.83596	
3.90815	
3.85308	
3.70775	
3.7131	
3.85285	
3.23968	
3.02083	
4.2276	
4.27045	
4.25942	
4.30551	
6.85283	
6.00621	
5.9948	
5.22331	
4.87394	
4.30669	
4.65558	
4.5981	
3.4576	
3.43247	
3.55557	
3.57842	
3.54704	
3.50941	
3.66904	
3.69005	
4.76184	
4.66057	
4.92804	
4.72459	
3.94093	
3.942	
4.20173	
4.01609	
4.13406	
4.03151	
4.70952	
4.39823	
4.86199	
4.41542	
3.92646	
6.09031	
4.77694	
3.57257	
3.59954	
4.51127	
4.61064	
4.51718	
4.57047	
6.02602	
4.34477	
4.37604	
4.43877	
4.46924	
3.88551	
3.86192	
3.97923	
3.95514	
3.97716	
3.92298	
4.1206	
4.10776	
4.08894	
4.03638	
4.06791	
4.0225	
5.7347	
6.88455	
2.35439	
1.68244	
3.79413	
3.6958	
3.8002	
3.70874	
4.53055	
4.47183	
4.54704	
4.48215	
4.66616	
4.8167	
4.62383	
4.80855	
4.48253	
4.57707	
4.48298	
4.55092	
5.05006	
5.2817	
4.93735	
5.02728	
0.611936	
0.874521	
3.95809	
4.01394	
5.00543	
4.9255	
5.39226	
5.04058	
6.6954	
5.88143	
6.06828	
5.46988	
5.4216	
5.12327	
5.36318	
4.93975	
5.30566	
3.90565	
3.72239	
4.07135	
3.78534	
3.99914	
4.82119	
2.87732	
3.51711	
2.92819	
3.98318	
3.96057	
4.0345	
4.00163	
4.02076	
4.1507	
4.08222	
2.77858	
2.68479	
2.51366	
3.47039	
3.35089	
3.43126	
3.33189	
3.14393	
2.89002	
3.13566	
2.89113	
4.17154	
4.21221	
4.13807	
4.15278	
4.3551	
4.30289	
4.35607	
4.30402	
4.30221	
4.37936	
4.28842	
4.32131	
4.14173	
4.20643	
4.12609	
4.15129	
4.28599	
4.37896	
4.2672	
4.31406	
3.86705	
3.86307	
3.95448	
3.96802	
4.1506	
4.19098	
4.19854	
4.22163	
4.59918	
5.16026	
5.00216	
4.0952	
4.05113	
4.12186	
4.07623	
4.14165	
4.19635	
4.16711	
4.03776	
4.0705	
4.15228	
4.18374	
3.17455	
2.81838	
3.20701	
3.01926	
3.90331	
3.84989	
4.72906	
4.22562	
4.78913	
4.89988	
2.08283	
1.77266	
3.61633	
3.71028	
3.92035	
4.01524	
3.97905	
4.25295	
3.96983	
4.43932	
3.90449	
3.90571	
3.79477	
3.85268	
4.01713	
4.19929	
4.18367	
3.87986	
3.93139	
3.97446	
3.95877	
4.01026	
3.99205	
4.08223	
4.09838	
4.1216	
4.12724	
4.17567	
4.15703	
4.14588	
4.1123	
6.07975	
4.32017	
3.8791	
3.68676	
3.4225	
5.65305	
5.63687	
4.24839	
4.27608	
4.20725	
4.23385	
4.45701	
4.34948	
4.40033	
4.20435	
4.15855	
4.32763	
4.27942	
4.417	
4.27875	
3.97456	
3.97145	
3.11591	
3.10747	
3.32846	
3.94369	
3.91735	
4.00775	
3.28958	
3.19452	
6.03258	
3.73085	
3.68315	
3.41486	
6.73456	
5.23936	
3.96831	
4.09925	
3.53289	
2.8661	
2.71887	
2.89881	
2.10719	
2.09573	
3.50508	
3.53581	
3.5938	
4.79077	
2.56352	
2.31876	
3.93657	
2.33224	
5.80645	
4.04298	
4.00534	
3.95935	
4.43919	
4.32939	
4.38997	
3.62799	
3.62152	
4.69698	
4.68225	
1.7853	
1.66941	
4.94314	
4.3821	
4.25788	
4.42198	
4.32443	
3.61721	
3.59074	
3.93294	
4.32464	
3.98833	
3.52171	
3.44884	
3.20748	
3.30713	
4.06006	
4.04912	
4.01469	
4.00161	
3.63418	
3.6159	
3.54587	
3.72882	
3.67826	
3.969	
4.01203	
4.39133	
4.03042	
3.94728	
4.3852	
4.4511	
4.3339	
4.62367	
4.64282	
4.76385	
4.70737	
6.89045	
6.76263	
6.74688	
4.66297	
4.73689	
4.65454	
4.73246	
4.06853	
4.11752	
4.02374	
4.04631	
4.63227	
4.53269	
4.56246	
4.48514	
4.1895	
4.15071	
4.18836	
4.12381	
5.21612	
5.02856	
3.51463	
3.49098	
3.89609	
3.35032	
3.41748	
3.27632	
3.38634	
4.02462	
3.95945	
3.97312	
3.91176	
4.27697	
4.21277	
4.201	
4.14632	
5.92142	
3.44313	
3.53155	
3.42363	
3.48605	
4.43615	
4.49478	
4.52402	
4.54566	
4.74456	
4.89761	
4.97931	
5.05054	
4.53659	
4.45769	
4.43059	
4.36679	
4.36546	
4.30755	
3.78096	
4.16287	
3.79058	
3.94968	
4.36028	
4.32616	
4.14365	
4.10595	
4.11022	
3.91912	
3.93449	
3.90488	
3.90346	
4.16318	
3.94053	
6.14231	
6.83457	
6.64964	
6.65974	
4.18958	
3.97521	
4.2771	
4.17151	
4.73402	
4.53012	
4.82795	
4.51329	
4.3312	
4.75561	
4.26932	
4.32128	
3.41708	
3.42724	
3.82159	
3.85941	
3.76964	
3.83099	
4.23532	
4.18357	
4.70779	
4.68809	
4.60709	
4.59306	
3.88581	
3.93083	
3.87012	
3.81239	
1.14148	
1.18487	
0.4475	
0.820809	
3.23238	
3.10181	
3.29664	
3.17937	
3.7581	
3.76998	
3.84128	
3.82118	
4.77151	
4.70443	
4.59721	
4.56625	
2.84459	
2.63966	
2.82908	
2.96521	
3.96445	
3.96412	
3.92176	
3.91841	
4.88004	
4.73951	
4.81369	
4.71417	
4.56323	
4.25805	
4.2184	
4.34815	
4.37713	
4.43212	
4.43129	
1.19775	
4.05004	
4.04168	
6.78237	
5.94791	
5.90013	
0.741306	
1.56346	
6.75351	
6.6133	
5.5336	
5.68318	
5.35182	
2.37349	
2.15293	
1.97412	
3.67298	
1.98862	
2.48837	
1.88228	
4.48233	
4.34483	
4.74672	
4.50262	
4.46862	
4.40543	
5.33115	
5.46129	
5.71828	
5.96303	
5.10478	
4.96936	
5.59938	
5.40486	
6.55212	
5.76428	
6.56693	
5.55707	
5.3913	
5.21526	
5.08113	
2.26325	
2.04649	
3.98813	
3.96157	
4.00734	
3.96643	
2.63655	
2.34923	
2.05205	
3.96564	
4.07724	
4.06288	
5.56531	
5.38129	
6.81998	
6.70314	
2.44925	
4.45993	
4.39791	
4.6842	
5.3229	
6.88185	
6.78865	
5.97216	
6.73157	
0.666793	
1.00426	
1.46121	
1.51839	
4.89509	
5.23185	
5.17107	
5.35002	
4.9296	
4.76663	
2.68172	
2.50889	
5.31847	
5.54429	
5.76556	
5.98303	
6.12698	
5.77693	
5.87249	
5.58034	
5.9296	
6.46121	
6.55118	
6.49924	
6.26371	
6.1469	
1.78188	
1.67565	
1.46451	
1.32307	
3.51273	
3.45782	
3.59018	
3.51303	
6.59684	
6.44001	
-8.35242	
-10.576	
-11.2312	
-11.0831	
-10.348	
-4.78817	
6.54369	
6.3592	
5.2974	
6.57362	
-2.87451	
-5.3863	
6.51264	
-4.35706	
-4.64935	
-4.03135	
-4.48917	
-10.4251	
-10.9425	
-10.9053	
-10.1527	
-4.86973	
-10.2677	
-1.28393	
0.993453	
-0.329304	
-5.97227	
-8.82467	
-7.46248	
-5.51941	
-3.66129	
-4.83052	
-11.2818	
-11.2566	
-11.2974	
-9.90044	
-9.67524	
-8.79538	
-0.643292	
-11.2855	
-5.61342	
2.0729	
3.56177	
-5.3893	
-9.01965	
4.19654	
5.03286	
-8.94643	
-3.20078	
3.59376	
-2.78341	
-5.68892	
-8.37049	
-3.88184	
-6.3607	
-10.621	
-10.8407	
-10.2197	
-1.87039	
-0.20572	
-3.83428	
-2.84798	
-10.4573	
-5.03328	
-5.66807	
-4.54431	
-5.57647	
-3.9708	
-5.22212	
0.0197063	
-4.27017	
-2.67884	
-4.80895	
-3.51559	
-9.43901	
-10.3185	
-0.147374	
-6.91152	
-5.46885	
-3.36391	
-1.88972	
-3.06152	
-8.10172	
-10.3049	
-10.6609	
-10.3583	
-9.74312	
-4.30628	
-9.90516	
-8.79959	
-8.63983	
-1.65817	
-3.1561	
-10.5185	
-10.7407	
3.34243	
0.395099	
3.83353	
1.99751	
-8.83839	
-8.77855	
-8.1737	
-8.03839	
1.25403	
-2.02221	
0.586741	
3.91278	
-3.31123	
-3.46438	
-4.02788	
-4.25698	
-8.85031	
-8.55108	
-7.85559	
-7.23028	
3.76827	
-8.42928	
-6.67322	
6.1709	
0.730404	
3.29006	
-6.93109	
-10.6239	
-3.24383	
4.60165	
4.24481	
2.29526	
1.52168	
0.353312	
2.15545	
-0.973465	
-0.517325	
-7.74933	
-9.02974	
-9.16985	
-8.13832	
-5.97017	
-4.10532	
-5.88031	
-4.89283	
-0.320446	
2.47885	
-8.07774	
-7.19026	
-7.55669	
-6.65015	
0.966488	
1.85552	
2.55716	
2.81973	
-4.19812	
-4.54829	
-5.16014	
-5.40939	
-0.990066	
-2.09479	
-0.1167	
-1.27469	
-9.35686	
-7.56786	
-10.6311	
-10.9336	
-10.4537	
-10.8453	
-3.71271	
-8.78116	
-10.0133	
-8.01513	
-7.693	
-6.84666	
-6.48377	
-7.31413	
-6.58762	
-7.8839	
-7.16451	
4.13153	
6.51531	
6.42523	
-6.63664	
-6.74001	
-3.35156	
-4.41036	
-4.23857	
-2.89155	
-4.04615	
-4.68283	
-6.16182	
5.11499	
5.20315	
6.38095	
2.27229	
1.57296	
-10.9894	
-11.2187	
6.48217	
6.56376	
-8.67571	
-9.03343	
-9.35681	
0.219229	
0.537186	
1.59166	
5.80516	
5.6287	
6.36984	
6.57769	
6.52998	
6.49992	
6.49002	
6.17812	
-10.2844	
-11.1821	
-11.1521	
1.56003	
1.10815	
3.11568	
2.06847	
-1.84882	
-0.781446	
-10.6598	
-10.692	
-8.98768	
-9.65526	
-9.47703	
-9.99088	
-11.0743	
-10.4558	
-10.4002	
-10.7208	
-9.13898	
-9.75683	
-9.96118	
-10.7714	
-11.1033	
-11.1572	
1.25573	
0.644507	
-4.5831	
-4.36431	
-5.11068	
-4.34191	
1.08549	
-0.301989	
3.68101	
1.60587	
-8.99425	
-9.60163	
-8.553	
-9.5442	
-10.5808	
-11.0606	
-10.3624	
-10.9449	
-10.7032	
-11.0112	
-10.6584	
-10.9782	
-10.8349	
-10.4547	
-11.1454	
-10.9883	
-0.476548	
-1.55487	
-0.714177	
-2.35737	
-8.25916	
-7.43356	
-8.21325	
-7.35338	
2.68776	
4.57458	
-6.28044	
-5.64137	
-6.7366	
-5.27041	
-5.02793	
-2.57447	
-2.82609	
-0.550053	
-11.2594	
-11.3127	
-3.04722	
-1.49859	
-2.86222	
-6.40099	
-5.23828	
-3.82746	
-3.28621	
-4.77226	
-4.95847	
-3.17678	
-1.91442	
-1.48756	
-2.55755	
-1.60738	
-3.547	
-10.0845	
-9.97478	
-2.11521	
-1.50273	
-1.41936	
-0.336023	
-7.49376	
-8.87273	
-9.49394	
-8.6553	
3.22391	
-11.1072	
0.711521	
-0.101714	
-10.6792	
-10.9838	
1.50456	
1.70316	
3.30232	
3.53296	
-4.84383	
-6.07869	
-4.22188	
-5.25166	
-6.82238	
-6.13608	
-7.77292	
-6.29648	
-9.11311	
-8.71283	
-9.87444	
-8.93837	
-6.37193	
-4.89778	
-6.58437	
-5.91606	
-8.72449	
-7.63266	
-8.90185	
-8.41129	
0.0665068	
1.49563	
-11.2682	
-11.1861	
-11.1722	
-11.1453	
-10.4484	
-10.3355	
-10.5942	
-3.43436	
-3.68049	
3.85552	
4.76588	
0.533503	
1.7112	
-0.416421	
0.663802	
3.25476	
1.35438	
2.74923	
0.977774	
-9.07993	
-2.8397	
-2.02434	
-10.6749	
-7.81894	
-8.44684	
-7.41939	
-8.22653	
-9.94071	
-10.3045	
-9.47798	
-9.8799	
-10.811	
-10.6275	
-6.61797	
-7.52939	
-7.80572	
-8.60473	
-8.2179	
-0.990035	
-0.373895	
-1.91473	
-1.31846	
4.25431	
3.41708	
5.20393	
5.16495	
-9.51227	
-9.75399	
-7.14989	
-6.91899	
-7.80396	
-7.91092	
-11.2893	
-2.61774	
-1.07745	
-6.58089	
-8.29087	
-8.42801	
-8.49865	
2.07016	
3.85377	
2.75383	
2.72417	
1.69523	
-9.07178	
-0.0326237	
1.80328	
-0.322996	
0.709363	
-10.9381	
-9.61924	
-6.25668	
-5.57508	
-5.24553	
-6.06624	
-5.83602	
-5.50726	
-5.01045	
-7.0898	
-7.35269	
-7.64583	
-7.81382	
-8.6087	
-8.76099	
-9.57052	
-9.83692	
-10.3622	
-10.5518	
-10.879	
-11.186	
-10.7418	
-11.0679	
5.10018	
4.75573	
-1.61093	
-8.47919	
-7.83238	
-7.9336	
-7.28128	
-9.81767	
-10.2466	
-10.0725	
-10.457	
-11.1833	
-0.16201	
-6.98693	
-7.26718	
-3.8304	
-3.78966	
-4.99853	
-5.49305	
-10.6428	
-10.9066	
-10.0456	
-10.0768	
-10.5425	
-10.5834	
1.60205	
-0.0948366	
2.17106	
0.361896	
-7.52796	
-2.57551	
-5.88249	
-7.81419	
-1.97926	
-2.7952	
-4.75003	
-5.539	
-3.64678	
-4.48788	
-11.1171	
-11.0961	
-10.7757	
-10.8235	
-4.82466	
-5.55011	
3.48611	
2.99077	
1.89762	
1.22352	
2.91521	
1.63988	
0.840263	
-11.3079	
-11.2883	
1.99386	
3.0858	
4.19863	
-3.32964	
-2.30129	
-2.22059	
-1.33468	
-4.7308	
-4.05828	
-3.75752	
-3.00932	
2.02834	
0.822682	
2.38016	
1.17969	
-11.2471	
-11.3065	
-11.0518	
-2.72173	
-3.6969	
-3.51362	
-2.955	
-8.2083	
-8.26655	
-10.1687	
-10.5075	
-9.71391	
-9.8061	
-6.32486	
-5.39096	
-4.44173	
-6.19653	
-4.55821	
-4.32192	
-4.98769	
-5.08146	
-5.88844	
-5.61639	
-5.89204	
-6.50495	
-6.94796	
-11.32	
4.66972	
3.11075	
0.414934	
-0.848574	
-0.133205	
-0.987922	
-7.88003	
-8.59333	
-8.0031	
-8.8015	
-6.83314	
-5.56134	
-6.54282	
-5.73853	
-8.85225	
-10.3621	
-10.3448	
6.44874	
4.97974	
3.99091	
-9.10178	
-9.49697	
-8.90153	
-9.31318	
-10.3603	
-10.4847	
-10.0364	
-10.3278	
1.3214	
0.593507	
2.7209	
2.58647	
-1.75246	
-1.91497	
-0.112214	
-0.838186	
4.11932	
3.85502	
6.33188	
2.23462	
4.46729	
6.38645	
-7.28594	
-7.7208	
-9.08154	
-8.73674	
-9.35078	
-9.6356	
-9.81763	
-9.18804	
-9.76311	
-9.14631	
-11.0223	
-11.0953	
-3.28531	
-2.87566	
-4.09598	
-4.37342	
-4.47525	
-4.34501	
-5.30965	
-5.1423	
-5.44699	
-5.10892	
-6.19705	
-6.33243	
-10.7451	
-10.983	
-11.0274	
-11.1969	
-11.0087	
-10.6425	
4.51222	
6.15229	
-9.86058	
-10.4682	
-10.3698	
-10.7465	
-10.8497	
-10.825	
-11.0978	
-10.5179	
-10.5505	
6.55249	
-10.0477	
-9.81473	
-9.49786	
-10.7355	
-10.9932	
-10.9505	
-10.8205	
6.47069	
-10.3944	
-10.5339	
-10.1034	
-9.95288	
4.64925	
4.54275	
6.40441	
6.25006	
4.95806	
3.94381	
6.42352	
-10.4452	
-10.8847	
-11.2829	
-11.2121	
-11.2835	
6.50899	
-11.177	
-11.1393	
-11.074	
-11.031	
4.97259	
4.34136	
-10.8358	
6.53075	
6.58275	
-6.40868	
-6.27722	
-6.39761	
-6.37245	
-7.18733	
-7.99072	
-7.93135	
-8.62314	
-9.81752	
-10.9129	
-5.73907	
-5.34418	
-4.89566	
-10.921	
-10.5833	
-10.8285	
-10.7309	
-7.5796	
-7.20477	
-6.37368	
-5.6751	
-9.6515	
-9.11896	
-9.1831	
-9.41207	
6.49315	
6.25827	
5.94494	
-7.32255	
4.60095	
3.15859	
2.73787	
3.90028	
2.94246	
-11.2095	
-11.2188	
-11.3259	
0.897703	
1.57177	
0.624756	
1.54974	
-11.2084	
-10.5365	
-10.9384	
-11.3184	
-11.3121	
-11.0387	
-10.9147	
-11.0227	
-10.9642	
5.95712	
6.16893	
3.53288	
-10.9632	
-10.603	
-10.988	
-10.6191	
-6.37582	
2.08064	
-9.79969	
-9.4196	
6.51979	
4.46381	
6.46481	
6.44839	
-9.63286	
-9.31748	
-9.15323	
-1.95966	
-1.95598	
-0.514329	
-9.80915	
-9.89985	
-11.2376	
-11.332	
-11.308	
-11.2496	
-11.1981	
0.433399	
-0.865751	
5.81893	
4.45571	
5.90037	
4.55543	
5.85579	
4.43796	
3.75185	
4.01718	
2.96408	
-10.8031	
-10.6661	
-10.465	
-10.327	
-9.1007	
-8.79627	
-9.82654	
-11.0287	
-11.1803	
2.20343	
1.82668	
0.137247	
-10.8033	
-10.8143	
-6.57893	
-5.75863	
-8.00778	
-8.58775	
-11.2231	
-10.6108	
-5.8552	
-5.53836	
-4.92305	
-7.44132	
-7.01014	
-8.27964	
-7.90615	
-8.24535	
-7.68419	
-8.02454	
-7.15548	
4.25651	
3.21145	
-6.88777	
-7.66745	
-7.00656	
-7.77985	
-2.75993	
-2.83298	
-6.38213	
-6.55476	
-9.09585	
-9.59148	
-9.06049	
-9.55398	
-3.88436	
-4.09435	
-11.2363	
-11.2325	
-11.0635	
-10.9245	
-9.5827	
-10.0231	
-9.35805	
-9.82932	
-6.28514	
-7.21099	
-6.47823	
-6.96771	
-8.91263	
-9.46605	
-9.90675	
-8.87722	
-9.75399	
-9.08323	
-0.1574	
-1.32248	
-1.83828	
6.37059	
4.66777	
-9.97959	
-10.1004	
-10.2393	
-1.94837	
-1.78992	
-1.09041	
-7.74539	
-7.434	
-7.06279	
-6.55716	
-1.20746	
-0.836258	
-1.68175	
-2.32322	
-3.04424	
-9.98227	
-10.0861	
4.71314	
6.32369	
6.2392	
6.22375	
-0.746156	
-1.10775	
6.14809	
6.50785	
5.16818	
6.42781	
-10.7246	
-11.0489	
-10.3111	
-10.6465	
-3.17364	
-2.65049	
-1.06158	
4.89634	
6.40297	
-11.2896	
-11.3246	
-11.2896	
-11.2979	
-0.604088	
0.184074	
-2.0251	
-0.652232	
4.54397	
2.67328	
2.95558	
1.67997	
1.73199	
-0.670198	
-1.65116	
0.34798	
-1.27498	
4.54239	
3.75964	
-6.65598	
-7.59462	
-6.48334	
-7.28231	
-2.21955	
-3.14341	
-2.94091	
-3.83846	
6.45724	
6.37894	
-9.83928	
-9.3287	
4.94158	
4.58882	
6.56253	
6.3647	
3.51793	
2.52887	
1.12008	
0.363487	
-1.14091	
-1.01816	
-0.541164	
-0.350017	
-0.794858	
0.181895	
0.373283	
0.992602	
1.7578	
1.33442	
0.6603	
-0.100117	
-1.25702	
-1.13746	
-0.703647	
-0.928109	
-0.462042	
1.90861	
-0.16093	
1.46009	
0.63929	
1.02991	
0.280372	
-1.35807	
1.7017	
1.16222	
0.360101	
-0.140531	
0.640028	
-0.938842	
-1.11685	
-1.57701	
-1.83119	
-1.85458	
-1.38797	
-0.568984	
1.41465	
0.911146	
-0.95774	
-0.151772	
-0.53321	
0.288043	
-1.61595	
-1.79055	
-1.58194	
-1.66378	
-1.4299	
-1.19536	
1.88214	
3.81105	
0.65635	
3.90727	
4.11693	
4.28974	
6.49935	
6.79668	
6.80257	
6.7548	
6.87769	
6.71816	
1.05746	
0.459139	
6.39659	
3.94465	
0.421852	
1.50159	
6.51917	
6.49916	
5.34459	
6.76069	
5.50807	
3.91813	
5.05938	
4.18031	
3.13749	
4.11147	
3.96625	
2.56491	
2.76826	
2.89476	
3.24398	
2.06422	
3.92926	
4.15634	
5.16848	
4.39699	
3.98544	
3.58789	
3.88544	
3.95954	
4.04693	
4.46225	
4.01152	
5.33296	
3.95544	
4.47738	
4.4645	
3.82676	
3.81662	
4.42323	
4.23202	
4.2675	
4.55226	
3.94207	
4.62586	
4.62371	
4.57624	
4.57064	
5.35332	
4.60421	
4.63424	
5.73821	
4.55614	
3.04815	
3.92826	
4.68766	
4.73841	
4.58929	
4.95078	
4.34892	
3.88158	
5.4392	
4.9598	
4.89074	
4.66442	
5.98142	
3.7044	
3.6228	
3.78526	
3.68664	
4.42947	
3.65355	
5.58396	
2.99829	
2.35252	
4.57992	
3.98955	
3.49658	
4.19592	
4.17851	
4.24538	
4.04873	
4.16091	
3.79567	
3.90071	
4.51908	
5.90711	
3.48022	
3.32982	
4.53748	
4.70345	
3.36223	
4.63184	
4.08192	
4.07436	
3.2748	
3.22879	
5.5039	
5.60487	
4.43823	
4.33189	
4.88993	
5.16339	
5.30094	
4.11666	
4.14912	
4.05967	
4.09192	
4.49338	
4.30013	
4.06915	
4.05209	
4.22783	
4.15177	
4.19297	
4.26272	
4.30653	
4.17917	
4.20694	
4.21867	
4.26687	
4.90087	
4.20577	
4.32492	
4.33038	
2.91915	
2.85228	
4.77028	
5.08862	
2.36331	
3.94553	
4.06707	
1.36132	
4.13437	
4.98824	
4.96667	
4.81468	
4.79853	
4.66556	
4.75139	
4.66821	
2.58516	
1.65327	
1.44465	
2.02548	
6.62075	
6.82738	
6.65238	
2.0111	
4.15981	
4.24065	
3.27963	
3.43142	
5.15752	
5.49745	
5.28012	
4.088	
4.07185	
3.96926	
6.43806	
6.55215	
2.95869	
2.89131	
3.08671	
3.02771	
4.56775	
4.52661	
6.74322	
6.03823	
3.54784	
2.81101	
2.81377	
3.99538	
4.00831	
3.95864	
6.76493	
6.89461	
4.21761	
3.83275	
2.39787	
2.32257	
2.51932	
2.58598	
2.65596	
2.69385	
2.80274	
2.76381	
2.9271	
2.89558	
3.07222	
4.2965	
4.35762	
4.33724	
2.67396	
2.10522	
2.53828	
2.23491	
6.42012	
3.65023	
3.5758	
5.04033	
5.01495	
4.53527	
4.4799	
4.52506	
4.46525	
4.34169	
4.24614	
4.32984	
4.26612	
3.24841	
6.53563	
3.53382	
4.35631	
4.49426	
1.63782	
1.51983	
3.91757	
3.89053	
4.5824	
4.61497	
4.53356	
4.52511	
3.69279	
4.087	
4.02712	
4.11986	
4.07453	
4.2447	
4.23392	
4.19389	
4.18639	
3.85426	
3.74878	
3.92154	
4.3667	
4.5227	
4.48166	
4.43722	
4.39426	
4.38378	
4.30352	
4.31107	
4.92228	
4.78727	
3.96701	
3.87712	
3.90126	
5.13254	
5.17108	
3.46679	
3.29779	
3.2391	
4.0772	
4.01707	
4.06573	
5.9956	
5.61924	
5.67449	
3.54485	
3.54152	
3.69184	
4.17064	
3.88357	
3.90745	
3.92121	
3.95472	
3.77758	
3.76795	
3.81353	
3.66642	
3.08192	
3.66181	
4.23425	
4.23955	
4.17135	
4.2011	
4.2448	
3.7584	
3.75554	
3.68744	
3.88939	
3.90591	
3.96668	
4.02258	
4.0959	
3.00847	
3.01453	
3.15013	
5.43628	
5.20451	
5.71597	
5.34161	
3.31871	
3.01746	
3.63118	
3.6634	
3.69029	
3.72187	
3.84984	
3.80404	
3.82176	
3.70949	
3.78475	
3.84925	
3.0811	
3.20839	
4.29061	
4.294	
4.21135	
4.21905	
6.85445	
6.00863	
5.67386	
4.87156	
4.30395	
4.84602	
4.6079	
3.39189	
3.45579	
3.51952	
3.55284	
3.46818	
3.54387	
3.60474	
3.66534	
4.89743	
4.72524	
4.76451	
4.66113	
3.9392	
3.9345	
3.9696	
4.12775	
4.02911	
4.1983	
4.11238	
4.39772	
4.72589	
4.29028	
4.89857	
3.94319	
4.2688	
3.58233	
3.56089	
4.51246	
4.56708	
4.50634	
4.56273	
5.76818	
5.84268	
4.4346	
4.43589	
4.37339	
4.3688	
3.85878	
3.88267	
3.9518	
3.97628	
3.88286	
3.97667	
4.0151	
4.12663	
4.00884	
4.00399	
4.0738	
4.06161	
5.9104	
2.35158	
1.68063	
3.7525	
3.70344	
3.78877	
3.73315	
4.54562	
4.44346	
4.56614	
4.46452	
4.74695	
4.66416	
4.80714	
4.54164	
4.45268	
4.55054	
4.48258	
5.30191	
5.06359	
5.29295	
4.94602	
0.869786	
0.582531	
4.01448	
3.95831	
5.31966	
5.04117	
5.23486	
4.9262	
6.68258	
6.07641	
5.89336	
5.75447	
5.48413	
5.51501	
4.98529	
5.44851	
5.08301	
3.71693	
3.90144	
3.78171	
3.95894	
4.82954	
4.76161	
2.87442	
2.92364	
3.50998	
3.95181	
3.97581	
3.99155	
4.03357	
4.08283	
4.07708	
4.14248	
2.49173	
3.42948	
3.33138	
3.50691	
3.3501	
3.03694	
2.90123	
3.14606	
3.04385	
4.19869	
4.16064	
4.20649	
4.12031	
4.35396	
4.29923	
4.35035	
4.29788	
4.33889	
4.29205	
4.35816	
4.27757	
4.16775	
4.12534	
4.17959	
4.11204	
4.33753	
4.27719	
4.36063	
4.25919	
3.84504	
3.8276	
6.31579	
3.93158	
3.97231	
3.93424	
4.19041	
4.21265	
4.1407	
4.13918	
4.59087	
5.01239	
4.02788	
4.06468	
4.04039	
4.08264	
4.11723	
4.1454	
4.1778	
4.07263	
4.00889	
4.16483	
4.13036	
4.61389	
4.63419	
3.19926	
3.01443	
3.16476	
2.90401	
3.83876	
3.87949	
3.8512	
4.22325	
4.72511	
4.79137	
4.9392	
2.08148	
1.77123	
3.76792	
3.60513	
3.94814	
3.85206	
4.17536	
4.06942	
3.86955	
3.89715	
3.81038	
3.96248	
3.80529	
4.00184	
3.9617	
4.14963	
3.83035	
3.88561	
3.86515	
3.98357	
3.96003	
3.94994	
3.92671	
4.102	
4.10416	
4.06128	
4.04483	
4.12134	
4.09448	
4.15648	
4.135	
5.29254	
3.40198	
3.40368	
4.08669	
3.84521	
5.69657	
5.68309	
4.26347	
4.19901	
4.25721	
4.19093	
4.45076	
4.34255	
4.39239	
4.33978	
4.15534	
4.20246	
4.27805	
4.32599	
4.27833	
3.13167	
3.15557	
3.33526	
4.00364	
3.93464	
3.91155	
3.29385	
3.2072	
5.24182	
3.7209	
3.67475	
3.41378	
6.73476	
4.0414	
3.97057	
3.52155	
2.94872	
2.90187	
2.74547	
3.52978	
3.52956	
3.58846	
2.60926	
2.35873	
3.91945	
5.73325	
2.40297	
2.12836	
6.59379	
6.55592	
4.39144	
4.44283	
4.41185	
3.61385	
3.62031	
4.68196	
4.74403	
1.6553	
4.87849	
4.42207	
4.25348	
4.37241	
4.25139	
3.61139	
3.58652	
4.09808	
3.99284	
3.89044	
3.23686	
3.32304	
3.32009	
3.44308	
3.98845	
3.97161	
4.03524	
4.01898	
3.61319	
3.58604	
3.54332	
3.72089	
3.67163	
6.28502	
6.16765	
4.40328	
3.92801	
4.02149	
4.33067	
4.38244	
4.42896	
6.74707	
4.73964	
4.66032	
4.11369	
4.06721	
4.09696	
4.02036	
4.53809	
4.63891	
4.4863	
4.56432	
4.13214	
4.09696	
4.16987	
4.1262	
5.02633	
5.21074	
3.48849	
3.5118	
4.00364	
4.03961	
3.96422	
4.00953	
3.90593	
6.54079	
6.57029	
3.41575	
3.35108	
3.38423	
3.29389	
3.91416	
3.90689	
4.01955	
4.01672	
4.21114	
4.26748	
4.14774	
4.19727	
5.91064	
3.42529	
3.48433	
3.44195	
3.50157	
4.97872	
5.04924	
4.77027	
4.89659	
4.36443	
4.41572	
4.30271	
4.30821	
4.14804	
3.69886	
3.93523	
3.77516	
4.45352	
4.53147	
3.89844	
3.87849	
3.87499	
3.85524	
3.92359	
3.94151	
4.09611	
4.13549	
4.10812	
6.8347	
6.14271	
6.65947	
6.64975	
3.85056	
3.89152	
3.88432	
4.12298	
4.41015	
4.32216	
4.66689	
4.51884	
4.74398	
4.5338	
4.3201	
4.27614	
4.71928	
4.74427	
4.54978	
3.41858	
3.41146	
3.76564	
3.82698	
3.76625	
3.85471	
4.23036	
4.17827	
4.76879	
4.70662	
4.5909	
4.60456	
3.92595	
3.88506	
4.0807	
3.86886	
1.2118	
1.18161	
0.83964	
0.427561	
3.11431	
3.22975	
3.17824	
3.27549	
3.76151	
3.79418	
3.81234	
3.83225	
4.70292	
4.69568	
4.60793	
4.59458	
3.02928	
2.7599	
2.8792	
2.71397	
3.95242	
3.94907	
3.9075	
3.88248	
4.73957	
4.95536	
4.70646	
4.77367	
4.21447	
4.25521	
4.36834	
4.37129	
4.42478	
4.42617	
4.382	
4.38476	
4.44995	
4.47936	
1.87734	
4.03739	
4.04344	
6.78348	
5.90262	
5.95244	
6.73462	
5.91295	
6.89915	
6.90728	
5.95373	
5.75044	
2.04345	
2.34557	
2.29194	
1.74665	
1.36232	
1.08138	
3.56668	
6.64352	
6.73491	
2.12495	
1.9371	
5.34851	
1.36992	
1.82682	
2.48408	
1.98604	
1.87982	
4.43245	
4.70938	
4.44966	
4.46341	
4.39816	
4.4979	
5.33877	
5.55115	
6.86926	
6.86271	
6.08211	
5.37265	
5.55176	
5.07827	
5.22135	
3.87564	
3.91841	
3.88818	
3.96116	
2.34526	
2.63094	
3.78292	
3.91234	
3.86524	
5.39573	
5.5597	
6.69922	
6.82055	
2.49601	
2.25507	
2.52235	
2.58365	
1.88797	
2.16603	
4.39007	
4.45364	
4.71899	
5.32978	
6.7886	
6.88206	
2.22977	
2.43639	
5.00752	
4.93175	
5.35496	
5.17657	
2.04943	
2.14955	
1.70946	
1.94575	
0.976111	
1.48137	
1.63742	
6.04959	
6.19104	
6.04158	
5.20063	
4.99863	
4.82076	
4.7575	
4.61495	
2.68936	
2.50925	
2.77028	
2.65789	
5.54519	
5.39441	
5.98392	
6.02752	
0.743967	
1.56901	
1.21941	
4.8274	
5.47601	
5.6254	
5.63136	
3.64103	
3.4927	
3.50037	
3.45057	
1.43688	
1.00344	
1.43109	
0.992825	
6.44698	
6.44232	
6.48201	
-8.34181	
-10.5715	
-11.2299	
-10.831	
-10.3543	
6.53289	
6.34181	
5.30353	
6.59552	
-2.83844	
-5.64905	
6.42467	
-4.36629	
-4.65549	
-4.03077	
-3.90304	
-10.4015	
-10.4834	
-9.92479	
-4.87147	
-10.2588	
-10.8848	
-1.28298	
0.990551	
-0.329312	
-6.6374	
-9.08848	
-7.98219	
-5.51372	
-4.83624	
-4.43406	
-11.1667	
-11.2656	
-11.2382	
-9.11664	
-9.11872	
-9.98101	
-0.641988	
-11.2768	
-5.60912	
2.06829	
3.55406	
-5.38357	
-9.01285	
3.9353	
4.45735	
-8.93257	
-3.19756	
3.59257	
-2.78229	
-5.68277	
-8.27427	
-4.54305	
-6.35346	
-10.5943	
-10.8332	
-10.225	
-1.86505	
-0.20018	
-3.83273	
-3.75329	
-10.4439	
-5.53226	
-5.02761	
-4.43989	
-5.20767	
-3.99453	
-5.24012	
-0.989983	
-4.80567	
-3.5132	
-4.98453	
-3.17154	
-9.20793	
-9.82914	
-0.147979	
-5.40221	
-6.41486	
-3.36171	
-3.0594	
-1.88813	
-8.14206	
-10.6816	
-10.3416	
-9.73249	
-4.30965	
-9.89991	
-8.76626	
-8.62706	
-1.65752	
-3.15403	
-10.4987	
-10.7198	
2.52406	
0.889236	
3.82734	
1.99706	
-7.77033	
-8.02746	
-8.82736	
-9.12556	
1.2443	
0.581263	
3.91672	
-4.53383	
-4.25356	
-3.28329	
-3.45984	
-7.27184	
-7.7582	
-8.53891	
-8.53224	
3.77683	
-8.42261	
-6.68119	
6.1653	
0.72878	
3.28487	
-6.98374	
-10.6094	
-3.01914	
4.24106	
3.85306	
2.29394	
1.52017	
2.1537	
1.60514	
-0.97323	
-0.518018	
-9.24821	
-7.81682	
-8.30518	
-8.63219	
-5.87473	
-4.04282	
-6.36655	
-4.95448	
-0.319118	
2.48529	
-6.81402	
-6.64301	
-8.06905	
-7.90193	
1.85936	
1.25826	
2.82541	
2.56139	
-5.15447	
-5.40313	
-4.19365	
-3.87755	
-0.116597	
-2.21889	
0.0190866	
-2.09342	
-11.0419	
-9.34342	
-7.58321	
-10.4591	
-10.838	
-10.9289	
-3.71284	
-5.53832	
-10.0012	
-6.83085	
-6.84349	
-7.61561	
-7.67781	
-7.87815	
-6.50053	
-7.9276	
-6.58339	
5.15668	
6.39576	
-6.74164	
-5.97335	
-4.40589	
-2.29891	
-4.23403	
-4.88846	
-4.67839	
-2.8894	
-6.64797	
5.20199	
6.37592	
2.26917	
1.57006	
-10.9431	
-11.1079	
6.55964	
6.47614	
-9.01037	
-8.56011	
-9.54548	
0.166531	
1.58868	
0.53331	
5.64024	
5.83154	
6.32102	
6.467	
6.44295	
6.48855	
6.49852	
6.17625	
-10.2822	
-11.1745	
-11.1546	
3.11259	
2.06669	
2.74568	
1.10682	
-1.83105	
-0.81454	
-10.6834	
-10.6501	
-9.92788	
-9.97653	
-8.9782	
-8.81439	
-11.055	
-10.4447	
-10.3832	
-10.7011	
-9.73946	
-8.76524	
-9.93927	
-11.0762	
-10.5234	
-11.1226	
0.412494	
0.642534	
-4.58513	
-4.9968	
-4.3172	
-4.33681	
1.08402	
-0.300891	
0.353674	
3.67935	
-9.5821	
-8.97924	
-9.52467	
-8.83279	
-10.8941	
-10.5526	
-10.8925	
-10.5091	
-10.6321	
-10.9428	
-10.6789	
-10.9794	
-10.4552	
-11.0772	
-10.6355	
-11.1414	
-1.75167	
-2.35597	
-0.477272	
-1.55436	
-7.92062	
-8.26223	
-7.35416	
-7.79493	
4.57721	
3.53507	
-5.40082	
-6.29992	
-6.7544	
-5.02884	
-5.27479	
-0.54905	
-2.02308	
-1.60533	
-2.82295	
-11.3079	
-11.2615	
-3.04961	
-2.86375	
-1.49878	
-5.251	
-4.76871	
-4.10214	
-3.82474	
-3.28402	
-3.19917	
-1.97431	
-2.57153	
-3.64259	
-1.48555	
-2.55447	
-1.42331	
-0.427444	
-2.14511	
-1.54058	
-7.51653	
-9.55659	
-8.95244	
-8.77192	
3.22679	
-11.1718	
-0.101448	
0.712352	
-10.9775	
-10.6843	
1.70438	
2.17088	
2.69141	
3.30198	
-4.21775	
-5.2462	
-4.0544	
-5.87204	
-6.12808	
-7.54367	
-6.28807	
-7.21949	
-8.6836	
-9.60056	
-8.90299	
-9.53364	
-5.48902	
-6.36582	
-5.07871	
-6.57984	
-7.99774	
-8.70663	
-7.82267	
-8.88351	
1.89727	
0.0673338	
1.49549	
-11.1217	
-11.1662	
-11.1935	
-11.1341	
-10.524	
-10.5873	
-10.4515	
-3.64104	
-3.42824	
4.7718	
3.86457	
1.69646	
0.525704	
0.664009	
-0.342277	
1.55775	
0.975802	
3.24978	
2.58176	
-9.17832	
-1.88929	
-2.64762	
-10.6636	
-8.43901	
-7.1811	
-8.21974	
-7.4134	
-10.2952	
-9.46748	
-10.2368	
-9.47103	
-10.6125	
-10.798	
-7.57934	
-8.20003	
-8.20042	
-8.6157	
-1.9142	
-1.31865	
-0.990269	
-0.374833	
3.41379	
4.25092	
4.12545	
5.19849	
-6.9266	
-7.15959	
-7.43867	
-7.82529	
-9.58231	
-11.2671	
-2.57748	
-1.05897	
-6.60217	
-8.41186	
-8.38628	
-7.99485	
2.06422	
2.76006	
3.86413	
1.71445	
2.72355	
-9.15583	
-0.322174	
1.63949	
-0.0318253	
1.22359	
-11.0883	
-9.69634	
-7.22181	
-6.26848	
-5.57059	
-5.57724	
-5.83592	
-6.06564	
-5.10498	
-5.49836	
-7.63413	
-7.80452	
-7.08954	
-6.96901	
-8.78668	
-8.60183	
-10.2734	
-10.3356	
-9.77938	
-9.8123	
-10.7296	
-11.0512	
-10.6556	
-11.1027	
4.75428	
5.09878	
-7.30873	
-7.2755	
-8.47058	
-8.39972	
-10.3503	
-10.4473	
-9.8132	
-9.87138	
-11.1372	
-0.203691	
-7.28469	
-7.02325	
-3.78823	
-3.82935	
-4.89604	
-4.99408	
-10.6443	
-10.9049	
-10.7503	
-10.5669	
-10.0269	
-9.80381	
0.348066	
1.60145	
0.362297	
1.50492	
-7.51786	
-2.37669	
-7.79957	
-6.07006	
-2.79208	
-1.97699	
-5.66117	
-4.74459	
-4.4827	
-3.54302	
-10.7561	
-10.9678	
-10.9161	
-11.0675	
-5.5564	
-4.82781	
2.98996	
3.10983	
1.803	
2.91415	
0.839913	
0.709421	
-11.2865	
-11.3055	
3.08414	
1.99242	
4.19596	
-3.34834	
-3.32678	
-1.33324	
-1.2735	
-4.83633	
-4.72257	
-3.00689	
-2.84602	
2.37651	
1.17737	
2.02702	
0.822664	
-11.2422	
-11.288	
-2.72454	
-1.61704	
-3.9128	
-3.16786	
-3.68231	
-9.06755	
-8.21435	
-10.5001	
-10.1807	
-10.2936	
-9.77379	
-5.39384	
-6.3304	
-4.44283	
-4.56008	
-6.2021	
-4.26758	
-4.3193	
-5.8848	
-5.91275	
-5.88773	
-5.61245	
-6.94269	
-7.15944	
-11.3056	
3.48507	
4.66838	
-0.127204	
-0.983569	
0.969969	
-0.850541	
-8.55405	
-8.81481	
-7.90684	
-8.15505	
-6.51389	