<VTKFile type="UnstructuredGrid" version="0.1" byte_order="LittleEndian">
	<UnstructuredGrid>
		<Piece NumberOfPoints="1917" NumberOfCells="3602">
			<CellData Scalars="scalars">
				<DataArray type="Float64" Name="Doublet Strengths" NumberOfComponents="1" Format="ascii">
1.62311	
0.342055	
1.35759	
1.33827	
1.25007	
3.04681	
0.733031	
0.729878	
0.695886	
0.687108	
0.838061	
0.356668	
0.131276	
2.67525	
0.365871	
0.148384	
0.284887	
2.75076	
0.539959	
0.911558	
0.823711	
0.816168	
0.95658	
0.566634	
0.643922	
0.608244	
0.840057	
0.480002	
0.904465	
0.97165	
0.906133	
1.06215	
0.938859	
0.735436	
0.855688	
0.823204	
0.898567	
1.00711	
0.978691	
1.12934	
1.09432	
1.05645	
0.954023	
1.00875	
0.983851	
1.03988	
0.952085	
1.0279	
0.941642	
0.592976	
0.641191	
0.912031	
0.929958	
0.876394	
0.896734	
1.29848	
0.914623	
0.880471	
0.835896	
0.935086	
0.639792	
0.960486	
0.982411	
0.888624	
0.919753	
1.0001	
1.04575	
0.913095	
0.946058	
0.960418	
0.897807	
0.91879	
0.92817	
1.03184	
0.975199	
1.10381	
0.716669	
1.65049	
0.578652	
0.463811	
0.927777	
0.892634	
0.970421	
0.565808	
0.999185	
1.10429	
0.965176	
1.14145	
0.908032	
0.940317	
0.835789	
0.770461	
0.930461	
0.85047	
0.898011	
0.793995	
0.951967	
0.99188	
0.77817	
0.913976	
0.842492	
0.802515	
1.02862	
0.963594	
0.854147	
0.872969	
0.859799	
0.954258	
0.999696	
0.964506	
1.02079	
0.987018	
1.0199	
0.962922	
0.912369	
0.938552	
0.951677	
0.942166	
0.937145	
0.93855	
0.929588	
0.936104	
0.917619	
0.917002	
0.923543	
1.26062	
1.05223	
1.12332	
1.01597	
0.802841	
0.667982	
1.06155	
1.07796	
0.464753	
1.11126	
1.19118	
0.96002	
0.869892	
0.834255	
0.868528	
0.854898	
0.954785	
0.904883	
0.891702	
0.54802	
0.280642	
0.327731	
0.416178	
1.36196	
1.77964	
1.20503	
0.757181	
0.845231	
0.440368	
0.354855	
1.33279	
1.21529	
0.900957	
1.02988	
0.509213	
1.13921	
1.03911	
0.948819	
0.927456	
0.873805	
3.04261	
2.96064	
0.768002	
0.751031	
0.737771	
0.717976	
0.959405	
0.979849	
0.734408	
0.722123	
0.770083	
0.815188	
0.750366	
0.66464	
0.619297	
0.929904	
0.906644	
0.916963	
0.763543	
0.730793	
0.736828	
0.884195	
0.540811	
0.724201	
0.573499	
0.42979	
0.467108	
0.521382	
0.62308	
0.658275	
0.669562	
0.686325	
0.605932	
0.628068	
0.725095	
0.838213	
0.97003	
1.03809	
0.958072	
0.52585	
0.514816	
0.552628	
0.524927	
1.27137	
1.55925	
1.16319	
1.11532	
1.14999	
0.85509	
0.802385	
0.545943	
0.473697	
0.991671	
0.958775	
1.03217	
0.968464	
1.19531	
1.08528	
1.18317	
1.09829	
0.669126	
0.692961	
0.369074	
1.22261	
1.12207	
0.949148	
0.896458	
0.91447	
0.884487	
0.748512	
1.01289	
1.0405	
1.03304	
0.987801	
1.08676	
1.06958	
1.21235	
1.19845	
0.883659	
0.898819	
0.880597	
0.871113	
0.958108	
0.983968	
0.989053	
0.957086	
0.938879	
0.947071	
0.938051	
1.20421	
1.12301	
1.18297	
1.09689	
0.37218	
0.368489	
1.1126	
0.943402	
0.981823	
0.929178	
1.13771	
0.765259	
0.804026	
0.698899	
1.00265	
1.09496	
1.09548	
0.907653	
1.06164	
0.878936	
0.846899	
0.845478	
0.887455	
0.908458	
0.906333	
0.935633	
0.95402	
0.863112	
0.869007	
0.861095	
0.886162	
0.735501	
0.799026	
0.997423	
1.17668	
1.07945	
1.2939	
1.34808	
0.924816	
0.864628	
0.891344	
1.08608	
0.937963	
1.02493	
1.10222	
0.743905	
0.74304	
0.757228	
0.953647	
0.790929	
0.956208	
0.806576	
0.670386	
0.573335	
0.90525	
1.11901	
1.07615	
1.00671	
1.07952	
0.9345	
1.04361	
1.10373	
1.14307	
0.971492	
0.680788	
0.845563	
1.08276	
1.21241	
1.1857	
1.21668	
0.745839	
0.773085	
0.812303	
0.882344	
0.866009	
1.00377	
0.969653	
0.942303	
1.05212	
1.04709	
1.11888	
1.14858	
0.857828	
0.930265	
0.875697	
0.926715	
0.89643	
0.921732	
0.891621	
0.935397	
0.89673	
0.913473	
0.948389	
0.908639	
0.942468	
0.909829	
1.0687	
1.00281	
1.21726	
1.0125	
0.897818	
0.814398	
0.900077	
0.845007	
0.766414	
0.978595	
0.970463	
1.00206	
0.964566	
0.83462	
1.17331	
1.13179	
1.03858	
1.06174	
0.890356	
0.904587	
0.901915	
0.915937	
0.898202	
0.89038	
0.926133	
0.923899	
1.14385	
1.02936	
1.00043	
1.1094	
0.908651	
0.815641	
0.487109	
0.383381	
0.98518	
0.964728	
0.920774	
0.951803	
0.933105	
0.915405	
0.898268	
0.907634	
0.861458	
0.837906	
0.86828	
0.83209	
0.924638	
0.902206	
0.995965	
0.909402	
0.8185	
0.802066	
0.823095	
0.823839	
0.313775	
0.268816	
1.20372	
1.28732	
1.02659	
1.0705	
0.954315	
1.0905	
0.764274	
0.817506	
0.761268	
0.803948	
0.830713	
1.01293	
0.951749	
0.880305	
0.964838	
0.797723	
0.779102	
0.885345	
0.843085	
0.971441	
0.925028	
0.364444	
0.486068	
0.42376	
1.01674	
0.959251	
1.00882	
0.960757	
1.042	
1.16466	
1.15118	
0.705282	
0.671695	
0.667246	
0.869845	
0.868815	
0.925746	
0.86231	
0.89946	
0.708609	
0.813341	
0.731188	
0.960544	
0.957009	
0.982386	
0.985973	
0.92497	
0.923759	
0.91836	
0.915195	
0.980425	
1.07904	
1.04052	
1.15689	
1.11784	
1.18807	
1.16048	
1.09059	
1.20649	
1.06548	
1.17582	
1.14731	
0.865605	
0.838724	
0.914849	
1.10081	
1.05441	
1.16556	
1.03899	
1.09474	
1.01507	
0.846884	
0.891539	
0.968815	
0.95538	
0.989002	
0.999496	
0.984119	
1.03891	
1.02727	
0.907769	
0.927457	
0.990725	
1.02702	
0.671534	
0.57931	
0.665257	
0.618593	
0.875049	
0.830728	
0.500341	
0.424154	
0.880998	
0.877445	
0.41654	
0.352978	
0.758968	
0.801241	
0.819567	
0.82262	
0.867281	
0.916228	
0.877279	
0.922054	
0.881507	
0.886033	
0.929848	
0.804417	
0.820783	
0.857917	
0.869802	
0.844364	
0.793253	
0.926656	
0.878574	
0.935341	
0.909791	
0.964707	
0.941332	
1.00759	
0.976137	
1.05297	
1.01026	
1.01524	
0.990157	
0.837034	
0.746081	
0.857741	
0.739497	
0.813215	
1.41581	
1.25838	
1.19085	
1.22225	
1.19458	
1.11657	
0.997253	
1.20157	
1.14636	
1.01387	
1.20841	
0.979487	
1.0132	
0.965104	
1.0746	
0.87592	
0.870957	
0.742802	
0.73896	
0.748278	
0.971712	
1.01853	
0.95034	
0.824975	
0.808742	
0.854194	
0.853353	
0.81808	
0.754984	
0.797847	
0.965155	
1.04186	
0.989406	
0.806268	
0.711299	
0.655031	
0.843183	
0.566719	
0.653735	
0.795479	
0.811241	
0.832504	
1.00669	
0.613524	
0.594513	
0.921683	
0.595141	
0.754381	
0.93888	
0.910884	
0.903923	
0.970483	
1.14353	
0.977897	
0.836804	
0.817965	
1.01756	
0.904936	
0.472807	
0.595523	
0.881276	
1.01508	
1.03579	
1.03004	
1.1222	
0.863464	
0.910679	
0.930869	
0.892521	
0.887801	
0.715421	
0.709233	
0.71904	
0.710771	
0.9812	
1.01678	
0.96554	
0.998739	
0.960626	
1.10743	
1.0875	
0.932829	
0.912886	
0.912498	
0.966667	
0.841469	
0.784016	
0.747685	
1.03404	
0.968061	
1.08063	
1.03977	
1.08633	
0.95533	
1.09087	
0.835672	
0.753539	
0.661249	
0.856201	
0.839687	
0.881	
0.848926	
1.10105	
1.07489	
1.03553	
0.990022	
0.896944	
0.9289	
0.918282	
0.931509	
1.04675	
1.02085	
1.00255	
1.01989	
0.563333	
0.565719	
0.872263	
0.909974	
0.902483	
0.802262	
0.863947	
0.791981	
0.897612	
1.14542	
1.00839	
1.12656	
1.10261	
1.06932	
1.15499	
1.13206	
1.1719	
0.753397	
0.765783	
0.835058	
0.790134	
0.824195	
0.988867	
0.984702	
0.965426	
0.982364	
0.942659	
0.89051	
0.93819	
0.89319	
0.936721	
0.94568	
0.962447	
0.996098	
1.05099	
1.11192	
0.774945	
0.804936	
0.83121	
0.812116	
0.984272	
1.04013	
0.91496	
0.912787	
0.928094	
0.846212	
0.85052	
0.809245	
0.839485	
0.89201	
0.890392	
0.841646	
0.760865	
0.771317	
0.672206	
0.888318	
0.894483	
0.886204	
0.887575	
1.0818	
1.03214	
1.01078	
1.0012	
0.772994	
0.917708	
1.04379	
1.03097	
0.710385	
0.699005	
1.00922	
1.02448	
1.11025	
1.00871	
1.00893	
1.02345	
0.986764	
0.979599	
0.956553	
0.950764	
1.21812	
1.34751	
1.26038	
1.42841	
0.281189	
0.294882	
0.149331	
0.203376	
0.824061	
0.755768	
0.832203	
0.771462	
0.936608	
0.890828	
0.898119	
0.881753	
1.03966	
1.0542	
0.950303	
0.960017	
0.69049	
0.603612	
0.645951	
0.620099	
1.0467	
0.953693	
0.920859	
0.915887	
0.875906	
0.880886	
0.867876	
0.870377	
0.961668	
0.977866	
0.953835	
0.985395	
0.947647	
0.97037	
0.934695	
0.341412	
0.920325	
0.913394	
0.798981	
0.811294	
0.800314	
0.304228	
0.426104	
0.793282	
0.747054	
0.720768	
0.680111	
0.638028	
0.755392	
0.71993	
0.685024	
0.724134	
0.393148	
0.524582	
0.397473	
1.03367	
0.990637	
1.14711	
0.953441	
0.968383	
1.03155	
0.882622	
0.862811	
0.879969	
0.824737	
1.09709	
1.1257	
1.2773	
1.3747	
1.01119	
0.935854	
0.855999	
0.81371	
0.836349	
0.846784	
0.84624	
0.602851	
0.572047	
0.898941	
0.91175	
0.986888	
1.00303	
0.48652	
0.426831	
0.487617	
0.882209	
0.886633	
0.881019	
1.93974	
1.45608	
0.848171	
0.794385	
0.505555	
1.01699	
1.05526	
1.09505	
1.53586	
0.752028	
0.766334	
0.844145	
0.824553	
0.349356	
0.342976	
0.444337	
0.445493	
0.934396	
0.931287	
0.880808	
0.894183	
1.21415	
1.15482	
0.64917	
0.631628	
1.07859	
0.924073	
0.849339	
0.84778	
0.83694	
0.879479	
0.952215	
0.944576	
1.04597	
0.983034	
1.09779	
0.942161	
1.061	
0.902126	
0.468734	
0.424102	
0.355165	
0.338602	
0.755536	
0.736274	
0.735824	
0.719902	
0.587524	
0.60699	
-2.05502	
-3.57815	
-2.57664	
-2.57637	
-2.86837	
-1.74918	
0.731058	
2.46939	
0.474063	
0.755393	
-0.533554	
-0.611349	
0.620297	
-0.536031	
-0.636425	
-1.28133	
-0.789664	
-1.86004	
-1.82238	
-1.90811	
-1.44161	
-0.89352	
-1.8469	
-0.266842	
-0.0332219	
-0.115256	
-1.06325	
-1.56436	
-1.41285	
-1.28005	
-0.784365	
-0.917295	
-1.86785	
-2.55874	
-1.84922	
-1.75912	
-1.85002	
-1.66456	
-0.386157	
-2.47261	
-1.15506	
0.0580752	
0.237901	
-1.52367	
-1.721	
0.372579	
0.840223	
-1.81531	
-0.893026	
0.190247	
-0.553655	
-1.44015	
-2.2914	
-1.17218	
-1.58461	
-1.8743	
-2.55223	
-2.27101	
-0.529887	
-0.132221	
-1.00752	
-1.03408	
-1.90384	
-1.34085	
-1.66179	
-0.811252	
-1.10334	
-0.698073	
-0.969403	
-0.160591	
-1.16405	
-0.670428	
-1.21226	
-0.892084	
-2.08769	
-2.07899	
-0.306907	
-2.2987	
-1.47589	
-0.871385	
-0.444815	
-0.761465	
-1.48925	
-1.78762	
-1.87391	
-1.87367	
-1.71701	
-1.12392	
-1.72781	
-1.91547	
-1.79409	
-0.518344	
-0.738777	
-1.85994	
-1.87816	
0.33611	
-0.0456954	
0.285172	
0.279077	
-1.99075	
-2.49715	
-1.79929	
-2.37829	
0.0438887	
-0.736185	
0.117523	
0.273694	
-0.605589	
-0.63719	
-0.704623	
-0.76076	
-1.93553	
-2.02543	
-2.00235	
-1.88501	
0.429437	
-1.64013	
-0.821146	
0.575512	
-0.195636	
0.190321	
-1.62701	
-2.03576	
-0.589293	
1.31268	
1.6812	
0.557567	
-0.0439228	
-0.264392	
0.0601236	
-0.416324	
-0.314947	
-1.86387	
-1.96322	
-2.08158	
-1.06609	
-1.18816	
-0.976748	
-1.23576	
-1.19861	
-0.383629	
0.369202	
-1.93282	
-2.0045	
-2.28956	
-2.03059	
0.0509435	
0.180997	
0.298068	
0.283081	
-1.12827	
-1.46914	
-1.35851	
-1.58535	
-0.472641	
-0.821519	
-0.165656	
-0.551855	
-1.79397	
-1.6084	
-1.8526	
-1.91536	
-1.8301	
-1.93161	
-1.43031	
-2.48184	
-1.88047	
-2.52184	
-2.40516	
-2.46594	
-2.23951	
-2.34777	
-2.11733	
-1.71025	
-1.59977	
0.365082	
0.590712	
0.550293	
-1.13558	
-1.16411	
-1.18508	
-1.25232	
-1.1779	
-0.787812	
-1.04432	
-1.12217	
-1.57059	
1.17269	
1.32373	
1.54732	
0.0703457	
-0.0409355	
-1.89583	
-2.02753	
1.00114	
1.9932	
-2.05693	
-1.62925	
-1.56319	
-0.0848925	
-0.0415864	
0.0975315	
0.627455	
0.570207	
0.419242	
0.485207	
0.856218	
0.512609	
0.476218	
0.392148	
-1.70833	
-2.79921	
-2.70523	
0.307328	
0.19899	
0.833579	
0.46248	
-0.472065	
-0.22257	
-1.85866	
-1.71734	
-1.58777	
-1.78629	
-1.70481	
-1.78408	
-1.82444	
-1.57514	
-1.62355	
-1.75301	
-2.4411	
-2.01917	
-1.9122	
-1.90029	
-1.85375	
-1.84455	
0.151452	
0.0416481	
-1.27376	
-0.813533	
-1.13933	
-1.33456	
-0.0474387	
-0.359243	
0.301612	
-0.0315224	
-2.07253	
-1.92087	
-1.93644	
-1.93984	
-1.87278	
-1.91685	
-1.93823	
-1.88328	
-1.83366	
-1.81776	
-1.82501	
-1.83051	
-2.82762	
-2.39104	
-2.44614	
-2.31923	
-0.248371	
-0.470182	
-0.254726	
-0.590867	
-1.24611	
-1.1867	
-1.34397	
-1.65225	
1.19024	
1.70316	
-0.739146	
-0.668694	
-0.837019	
-0.832803	
-1.00681	
-1.01013	
-1.02037	
-0.449797	
-2.76278	
-2.55143	
-0.876827	
-0.599104	
-0.836493	
-1.76047	
-1.27409	
-0.880193	
-0.763379	
-1.02713	
-1.07645	
-0.774301	
-0.441358	
-0.638056	
-0.876629	
-0.696177	
-1.31843	
-2.30439	
-1.87505	
-0.477453	
-0.335782	
-0.294544	
0.011561	
-0.900728	
-1.61816	
-1.61892	
-1.34395	
0.437436	
-2.114	
0.333509	
0.0399482	
-2.76796	
-3.41102	
0.517206	
0.628507	
1.30325	
1.47734	
-1.27931	
-1.49115	
-1.45224	
-1.64582	
-2.20607	
-2.0585	
-2.06191	
-2.08113	
-1.81962	
-2.00164	
-1.99658	
-2.40835	
-2.29532	
-1.46313	
-2.39909	
-2.12378	
-1.94732	
-2.64468	
-1.94178	
-2.4722	
-0.230686	
0.239801	
-2.02914	
-1.9265	
-2.01615	
-2.06293	
-1.73219	
-1.51174	
-1.66929	
-0.752069	
-0.703158	
0.788405	
1.22844	
0.181081	
0.786496	
-0.0503795	
0.408837	
0.613133	
0.159724	
0.592732	
0.261426	
-1.34608	
-0.561699	
-0.634903	
-1.83178	
-1.42501	
-1.52393	
-1.44305	
-1.53906	
-1.77678	
-1.86642	
-1.8047	
-2.26814	
-1.72274	
-1.62644	
-1.79457	
-1.53848	
-1.40088	
-1.50789	
-1.56845	
-0.506535	
-0.397017	
-0.719827	
-0.571659	
0.405485	
0.228098	
0.634699	
0.512115	
-1.51058	
-2.15512	
-0.91612	
-0.987386	
-1.02619	
-1.1712	
-1.80673	
-0.51174	
-0.286402	
-1.28568	
-1.48282	
-1.18126	
-1.09116	
0.137576	
0.946119	
1.12846	
0.868935	
0.699722	
-1.32222	
-0.17271	
0.0764857	
-0.246233	
0.0268167	
-2.1339	
-1.60587	
-1.29545	
-1.07355	
-0.984462	
-1.12081	
-1.06467	
-1.10399	
-1.0549	
-1.22786	
-1.45608	
-1.31789	
-1.41411	
-1.2727	
-1.26139	
-2.44829	
-2.06428	
-1.89282	
-1.90569	
-2.0833	
-1.9807	
-1.89218	
-1.87503	
0.377838	
0.288186	
-0.3653	
-2.06838	
-2.63335	
-1.93304	
-2.5418	
-1.9475	
-1.9225	
-1.79264	
-1.95429	
-2.15355	
-0.112195	
-0.808548	
-0.865964	
-0.941558	
-0.962212	
-1.33348	
-1.61798	
-2.57217	
-3.05812	
-1.99737	
-1.87357	
-1.90295	
-1.87602	
0.436679	
-0.0019215	
0.862565	
0.151198	
-1.73242	
-0.489938	
-1.39421	
-1.68514	
-0.713511	
-0.89096	
-1.36393	
-1.89056	
-1.28061	
-1.60377	
-2.24014	
-2.798	
-2.09488	
-2.21622	
-0.731456	
-0.702497	
0.247097	
0.172576	
0.314246	
0.176317	
0.147498	
0.0382433	
0.098972	
-2.5654	
-2.83405	
0.361099	
0.231546	
0.408212	
-1.22237	
-0.862468	
-0.867093	
-0.569668	
-1.19477	
-1.35276	
-1.04424	
-1.0824	
0.053986	
-0.191125	
0.0334194	
-0.144232	
-3.19139	
-3.16583	
-2.54097	
-0.536386	
-0.823458	
-0.853714	
-0.655984	
-1.80837	
-1.84765	
-2.16479	
-2.2275	
-2.06206	
-2.09253	
-0.89219	
-0.745704	
-0.710502	
-0.959647	
-0.919832	
-1.21437	
-1.55572	
-1.72911	
-2.01641	
-1.29835	
-1.24246	
-1.66997	
-1.43432	
-1.83795	
0.347379	
0.24805	
-0.015181	
-0.248956	
-0.117294	
-0.312272	
-0.961247	
-1.16833	
-0.95599	
-1.16743	
-1.57706	
-1.1684	
-1.98462	
-1.43901	
-1.3966	
-1.63963	
-1.79675	
0.6053	
0.40445	
0.33259	
-1.76525	
-1.80236	
-1.84221	
-1.79601	
-1.87598	
-1.75297	
-1.7146	
-1.70055	
0.0377052	
-0.0631029	
0.252985	
0.330696	
-0.453513	
-0.475128	
-0.0819397	
-0.238857	
1.06109	
0.962926	
1.71422	
0.120914	
0.457109	
0.922357	
-1.39576	
-1.46732	
-1.54867	
-1.54472	
-1.66896	
-1.67945	
-1.95344	
-1.86308	
-1.87494	
-1.79993	
-2.23254	
-2.21175	
-0.6429	
-0.597177	
-0.793462	
-0.893828	
-1.00876	
-1.02464	
-1.2111	
-1.28552	
-1.04396	
-1.01671	
-1.19422	
-1.30802	
-1.73798	
-1.82985	
-1.79814	
-1.89739	
-1.84939	
-1.7441	
0.325856	
0.531605	
-1.42477	
-1.55052	
-1.51805	
-1.85512	
-1.76111	
-2.01431	
-2.66875	
-1.83523	
-1.81205	
0.49336	
-1.43176	
-1.37106	
-1.41918	
-1.83379	
-1.82004	
-2.04659	
-1.7679	
2.96268	
-1.51067	
-1.60052	
-1.41214	
-1.40272	
0.357243	
0.343003	
0.715884	
0.567874	
0.61842	
0.414807	
1.41685	
-1.66152	
-1.69468	
-2.00275	
-2.11122	
-2.06952	
0.592836	
-1.83125	
-1.98235	
-1.70483	
-1.70897	
0.385257	
0.314316	
-1.67046	
0.50092	
0.472768	
-1.32716	
-1.38425	
-1.2404	
-1.26358	
-1.35608	
-1.44934	
-2.2898	
-2.49458	
-1.60924	
-1.84892	
-1.33931	
-1.26463	
-1.17227	
-1.81575	
-1.56932	
-1.70267	
-1.68154	
-1.78047	
-1.59141	
-1.42861	
-1.32096	
-1.51365	
-1.34692	
-1.41202	
-1.48311	
0.698202	
0.539932	
0.615578	
-1.77089	
0.328114	
0.240784	
0.242307	
0.312631	
0.320139	
-1.80386	
-1.80864	
-1.82031	
0.0384518	
0.117381	
-0.0297744	
0.0779961	
-1.80884	
-1.71036	
-1.75528	
-1.80898	
-1.81116	
-2.05211	
-1.83782	
-2.13807	
-1.90523	
0.68251	
0.739331	
0.493369	
-2.67072	
-2.00706	
-2.81617	
-2.03389	
-1.54193	
0.281217	
-1.78678	
-1.75929	
1.52699	
1.02477	
1.08052	
0.485152	
-1.59865	
-1.41863	
-1.29837	
-0.70625	
-0.685996	
-0.412218	
-1.4535	
-1.4736	
-2.4388	
-1.92524	
-2.0088	
-1.96309	
-2.20486	
-0.194798	
-0.492692	
0.705091	
0.580226	
0.593619	
0.545825	
0.648843	
0.389685	
0.352697	
0.320544	
0.22108	
-2.13269	
-1.96326	
-2.04078	
-1.93997	
-1.64942	
-1.61637	
-1.85871	
-2.32473	
-2.39689	
0.1825	
0.0693448	
-0.283953	
-1.86622	
-2.0355	
-1.64247	
-1.78414	
-1.81011	
-1.71311	
-1.78096	
-1.69807	
-1.88439	
-1.89984	
-1.71615	
-1.54823	
-1.62346	
-1.69081	
-1.79887	
-1.53346	
-1.468	
-1.58679	
-1.43069	
0.826132	
0.318053	
-1.56239	
-1.64912	
-1.65785	
-1.92996	
-0.894935	
-1.12161	
-1.48938	
-1.51815	
-1.71137	
-1.71375	
-1.65932	
-1.71759	
-1.14819	
-1.30448	
-1.93669	
-1.9494	
-1.89205	
-1.87184	
-1.96369	
-1.90279	
-1.88767	
-1.86183	
-1.65047	
-1.87135	
-1.27357	
-1.27603	
-2.10463	
-2.51382	
-2.45828	
-1.93735	
-2.23045	
-2.0398	
-0.0962092	
-0.373064	
-0.418308	
0.413261	
0.294065	
-1.60347	
-1.65756	
-1.61627	
-0.408596	
-0.418967	
-0.329295	
-1.85233	
-1.75533	
-1.86382	
-1.74	
-0.579814	
-0.481813	
-0.739349	
-0.843553	
-1.08673	
-1.69656	
-1.55664	
0.748908	
1.02424	
1.31863	
0.85472	
-0.210747	
-0.269051	
0.385392	
0.461463	
0.37005	
0.487268	
-2.08325	
-2.2493	
-2.03986	
-2.23617	
-0.80534	
-0.655177	
-0.285529	
1.95369	
2.92424	
-2.15477	
-2.30066	
-2.47116	
-2.97249	
-0.404883	
-0.28964	
-0.684277	
-0.462755	
0.60216	
0.570581	
0.384933	
0.339783	
0.267879	
-0.179877	
-0.405724	
0.0829277	
-0.299684	
0.404679	
0.431754	
-1.68924	
-2.25105	
-1.668	
-1.81229	
-0.647104	
-0.838589	
-0.784475	
-0.947368	
1.49249	
1.3285	
-2.15407	
-2.00572	
0.400094	
0.42023	
0.553464	
0.523973	
0.745171	
0.350628	
-0.0408128	
-0.102917	
-0.111262	
-0.0886683	
-0.0419327	
-0.0318066	
-0.0576091	
0.0364393	
0.0648537	
0.161259	
0.221685	
0.196198	
0.111515	
0.00195868	
-0.127459	
-0.114988	
-0.103303	
-0.10584	
-0.0738276	
0.220638	
-0.0285357	
0.191377	
0.0942279	
0.148311	
0.0361814	
-0.139472	
0.188416	
0.134969	
0.0144372	
-0.0741769	
0.0583409	
-0.197155	
-0.229056	
-0.281982	
-0.239327	
-0.269819	
-0.301964	
-0.147429	
0.169488	
0.108687	
-0.199471	
-0.0630783	
-0.119457	
0.0135366	
-0.177066	
-0.213514	
-0.204353	
-0.200726	
-0.212611	
-0.226782	
0.204443	
1.43145	
0.129789	
1.36224	
1.34406	
1.27531	
1.64232	
0.726868	
0.677413	
0.689304	
0.71171	
0.860961	
0.257183	
0.128892	
1.32673	
0.356631	
0.109467	
0.266858	
1.4968	
2.70544	
0.531822	
0.669723	
1.14421	
0.935353	
1.07984	
0.884949	
0.782617	
1.01686	
0.990672	
0.52021	
0.574502	
0.585264	
0.83009	
0.399279	
0.914483	
0.966032	
0.97279	
1.1014	
0.935534	
0.737697	
0.875918	
0.925783	
1.02473	
1.00723	
1.18092	
1.10031	
1.01092	
1.06377	
1.04698	
0.990929	
1.01452	
0.977979	
1.04631	
1.01962	
0.553861	
0.570932	
0.962204	
0.957412	
1.03923	
0.999472	
1.25925	
1.00667	
1.12098	
0.865626	
1.00706	
0.625283	
0.960359	
1.01215	
0.928358	
0.953885	
1.11527	
1.17658	
0.924449	
0.967511	
1.10778	
0.948929	
0.948475	
1.08228	
1.10421	
1.10385	
0.92623	
0.924923	
0.987473	
0.7389	
1.26475	
0.999676	
0.44386	
1.17529	
0.986067	
0.529089	
1.13046	
1.00814	
1.04386	
1.19555	
0.990784	
1.04018	
0.983937	
0.999557	
0.746165	
0.846624	
0.90455	
1.25543	
1.09888	
0.806155	
1.01407	
0.984046	
1.03613	
0.917251	
0.766294	
0.765002	
0.762894	
0.955936	
0.944266	
0.88918	
0.846891	
0.881358	
0.957949	
1.01533	
0.949836	
0.997618	
1.16894	
1.00084	
0.973398	
0.98731	
1.00755	
1.0038	
1.0184	
0.997056	
1.03732	
0.97393	
0.988746	
0.994071	
1.00317	
1.07447	
1.11826	
1.11281	
1.14781	
0.716694	
0.795183	
1.09624	
0.986796	
0.43929	
1.12576	
1.19919	
0.288617	
1.00073	
0.838215	
0.870352	
0.873761	
0.890496	
1.00192	
0.917721	
0.948896	
0.515558	
0.279549	
0.243734	
0.357925	
1.78193	
0.866369	
0.77385	
0.377347	
1.34143	
1.24357	
0.903533	
1.05176	
1.05378	
1.31508	
1.01589	
0.985465	
1.06228	
0.965353	
2.63354	
2.81107	
0.850713	
0.711229	
0.882965	
0.777185	
0.991215	
1.01095	
0.675377	
0.746459	
0.768819	
0.639707	
0.556607	
0.941071	
0.997721	
0.952437	
0.728935	
0.758905	
0.683937	
0.897587	
0.492484	
0.463955	
0.51341	
0.563176	
0.573553	
0.646406	
0.639519	
0.591251	
0.620114	
0.670604	
0.705184	
1.10271	
1.04255	
1.03394	
0.518563	
0.384886	
0.482723	
0.412335	
1.25806	
1.16619	
1.15111	
0.834607	
0.851951	
0.992596	
1.02651	
1.00039	
1.09249	
1.12159	
1.2217	
1.131	
1.22931	
0.822099	
0.908472	
0.717872	
1.04846	
1.01868	
0.405296	
0.328049	
1.23546	
1.13667	
1.04955	
1.14718	
1.08623	
1.20169	
0.753681	
1.0482	
1.01994	
1.02633	
1.0512	
1.2402	
1.21564	
1.21446	
1.10058	
0.87639	
0.869109	
0.884145	
1.008	
0.979179	
1.01922	
1.02566	
1.03592	
1.02055	
1.2598	
1.22079	
1.10131	
1.01397	
1.13432	
0.989884	
0.953608	
1.15364	
0.978816	
0.880684	
0.759541	
0.693515	
1.06359	
1.16404	
1.15726	
0.818241	
0.919185	
1.07815	
0.847019	
0.814068	
0.861901	
1.28312	
0.944689	
0.981151	
0.975364	
0.945191	
0.94446	
0.874792	
0.877722	
0.891551	
0.701194	
0.736792	
1.24389	
1.13842	
1.05741	
1.35452	
1.31374	
0.899647	
0.935556	
0.867933	
0.908721	
0.918453	
1.10547	
1.04798	
1.04272	
0.73849	
0.732038	
0.768671	
0.796971	
0.824385	
0.793897	
0.83769	
0.737614	
0.540887	
0.967637	
1.15448	
0.971418	
1.1241	
1.0677	
0.983988	
1.09905	
1.14511	
0.974708	
0.97195	
0.877757	
0.769931	
1.23336	
1.25943	
1.12057	
1.15904	
0.746114	
0.771901	
0.984149	
0.924837	
1.01934	
1.00744	
0.958572	
1.03222	
1.05231	
1.11927	
1.11985	
0.865319	
0.854609	
1.03043	
0.873622	
0.966307	
0.967544	
0.931553	
0.954247	
0.973451	
0.998627	
0.990515	
0.921936	
0.897573	
0.918025	
0.900661	
0.973906	
1.0164	
0.932504	
1.07476	
0.9597	
0.836458	
0.772151	
0.849869	
1.04366	
1.00476	
1.02671	
1.01061	
0.875127	
1.11636	
1.06735	
1.06439	
1.09258	
1.16296	
0.901122	
0.885524	
0.911087	
0.894297	
0.881492	
0.895807	
0.895748	
0.906568	
1.03035	
1.12961	
1.16635	
1.12174	
0.78145	
0.454814	
0.35549	
0.94548	
0.95892	
0.992953	
1.0826	
1.22633	
1.20431	
1.21276	
1.1996	
0.898711	
0.946743	
0.884885	
1.00715	
1.05969	
1.16683	
1.17678	
0.788099	
0.822204	
0.795236	
0.849872	
0.206034	
0.223534	
1.29305	
1.21122	
1.10426	
1.11887	
0.960138	
1.10068	
0.82856	
0.752561	
0.803166	
0.775634	
0.789797	
0.827516	
0.917971	
0.799504	
0.837251	
0.816531	
0.869789	
0.874831	
0.957758	
0.934777	
0.971946	
0.349048	
0.404577	
0.463101	
0.970357	
1.02649	
0.974288	
1.00136	
1.05788	
1.15943	
1.17943	
0.539875	
0.923345	
0.855251	
0.927626	
0.86011	
0.73794	
0.669073	
0.876069	
0.811172	
1.0192	
1.02125	
1.05639	
1.04016	
1.08773	
1.01641	
1.0546	
1.01922	
1.07543	
1.05639	
1.19517	
1.10627	
1.11477	
1.14456	
1.18926	
1.18424	
1.20141	
1.233	
1.07587	
1.19957	
0.881768	
0.85084	
1.28215	
1.16658	
1.0417	
1.01316	
1.0586	
1.11703	
1.07385	
1.11287	
1.03225	
1.38152	
0.966405	
1.00336	
1.04469	
1.03329	
1.01751	
1.06389	
1.0749	
0.970727	
0.93558	
1.05956	
1.02238	
1.14892	
1.12231	
0.658804	
0.603888	
0.657588	
0.598367	
0.857235	
0.897063	
0.868954	
0.412554	
0.486656	
0.952276	
0.935612	
0.378589	
0.319821	
0.784678	
0.766196	
0.883961	
0.83722	
0.976845	
0.97983	
0.970509	
0.940059	
0.948462	
0.968782	
0.888242	
0.837644	
0.845267	
0.918559	
0.823464	
0.825393	
0.838382	
0.959949	
0.93646	
0.950743	
0.903968	
1.03546	
1.0058	
0.991827	
0.955881	
1.06075	
1.02797	
1.09633	
1.04991	
1.15979	
0.77782	
0.757014	
0.736901	
0.645398	
1.25425	
1.34841	
1.27324	
1.22643	
1.25751	
1.23961	
1.05563	
1.23617	
1.19094	
1.24776	
1.22572	
1.05032	
1.05995	
1.03575	
1.1206	
0.753495	
0.766296	
0.758923	
0.989582	
1.01209	
1.04792	
0.841388	
0.82293	
1.2327	
0.864353	
0.828581	
0.762841	
0.814587	
1.02088	
1.0652	
0.807217	
0.854837	
0.711484	
0.632841	
0.81466	
0.850156	
0.835573	
0.592881	
0.521698	
1.07306	
0.85422	
0.541104	
0.592964	
1.35768	
1.28325	
0.992057	
0.981471	
1.01885	
0.826477	
0.843625	
0.981705	
0.994056	
0.346857	
0.90934	
1.00162	
1.037	
0.973297	
0.98199	
0.867929	
0.9202	
1.06059	
1.01896	
1.02105	
0.731512	
0.730204	
0.718638	
0.719408	
1.03393	
1.06981	
1.04293	
1.07654	
1.11279	
0.914625	
1.09254	
0.94272	
0.920224	
1.39958	
2.06326	
1.16949	
0.81084	
0.890593	
1.2021	
1.06603	
1.03748	
0.664755	
0.934981	
1.00893	
1.09536	
1.11483	
1.02115	
1.05886	
0.959877	
0.939881	
0.959671	
0.951781	
1.04086	
1.07162	
1.09754	
1.06944	
0.555377	
0.547976	
0.917959	
0.882003	
1.03645	
1.00017	
0.96879	
0.969841	
0.937454	
1.18578	
1.08215	
0.873446	
0.814301	
0.905399	
0.844748	
1.11947	
1.10722	
1.15192	
1.04537	
1.15692	
1.05326	
1.16861	
1.14226	
0.851854	
0.803345	
0.835838	
0.78042	
0.804501	
0.967362	
0.915352	
1.07934	
0.922359	
1.01724	
1.00992	
1.1326	
1.17033	
0.816808	
0.812681	
0.825763	
0.844578	
1.00963	
0.999993	
0.877423	
0.874763	
0.863702	
0.848516	
1.00691	
1.03077	
0.966046	
0.966613	
0.973355	
0.771873	
0.85625	
0.683941	
0.786584	
0.93673	
0.94353	
0.893927	
0.974419	
1.03932	
1.13282	
0.974601	
0.995927	
1.023	
1.01108	
1.04363	
1.07435	
1.00445	
1.20115	
1.02614	
0.707718	
0.719195	
1.113	
1.01086	
1.04427	
1.02843	
1.0247	
1.03684	
1.01463	
1.02145	
0.985023	
0.993209	
1.35405	
1.2285	
1.61871	
1.26811	
0.27654	
0.286339	
0.179983	
0.108418	
0.800665	
0.836635	
0.797727	
0.807259	
0.900912	
0.929975	
0.893493	
0.908765	
1.09409	
1.06821	
1.01425	
1.00819	
0.707086	
0.711995	
0.72431	
0.653237	
0.969317	
1.06417	
0.929717	
0.9168	
0.970622	
0.886306	
1.05418	
0.9424	
1.00552	
1.03196	
1.06996	
1.15941	
1.10307	
1.0881	
1.0721	
1.08871	
1.19273	
1.22786	
0.370789	
0.964441	
0.964491	
0.852312	
0.844812	
0.844477	
0.934799	
1.04689	
0.743681	
0.811688	
0.822236	
0.948726	
0.405984	
0.488966	
0.467074	
0.32149	
0.264357	
0.252841	
0.739441	
0.904029	
0.901858	
0.429263	
0.387301	
0.594766	
0.233057	
0.327373	
0.497927	
0.36777	
0.374636	
0.972805	
1.02843	
0.960768	
1.05134	
1.10234	
1.02436	
0.919766	
1.05713	
0.750994	
0.710779	
0.735156	
0.886232	
0.85975	
0.894114	
0.88709	
0.960221	
0.954321	
0.988071	
1.04264	
0.40469	
0.461439	
0.921772	
0.939892	
0.951235	
1.28165	
1.48642	
0.82814	
0.878237	
0.827125	
0.41649	
0.486239	
0.511323	
0.420252	
0.509704	
1.11453	
1.06719	
1.01223	
1.24341	
0.774793	
0.758723	
0.430134	
0.479067	
1.05675	
0.926137	
0.92435	
0.91687	
0.421308	
0.474836	
0.351166	
0.428044	
0.215473	
0.297401	
0.317424	
0.970524	
1.32334	
0.924313	
1.04385	
1.11192	
1.05635	
1.04669	
1.00264	
0.608643	
0.560445	
0.656366	
0.604803	
0.946476	
0.980827	
0.868312	
0.85752	
0.134264	
0.29651	
0.236298	
0.674319	
0.621307	
0.750012	
0.630101	
0.726843	
0.723745	
0.758193	
0.743071	
0.268141	
0.182456	
0.265691	
0.179566	
0.613128	
0.629972	
0.64816	
-2.1685	
-3.58384	
-2.58927	
-2.84591	
-3.50621	
0.752862	
2.43018	
0.472965	
0.595253	
-0.590603	
-0.778711	
0.629712	
-0.620782	
-0.724669	
-1.34576	
-0.814411	
-2.00746	
-2.05818	
-1.46708	
-0.943427	
-2.00631	
-2.10809	
-0.237535	
-0.0165479	
-0.093679	
-1.22331	
-1.73024	
-1.50315	
-1.32214	
-0.945358	
-0.88669	
-1.99962	
-2.03574	
-1.95411	
-2.00407	
-1.88594	
-2.15996	
-0.390364	
-2.53462	
-1.17055	
0.0785573	
0.27163	
-1.52582	
-1.75711	
0.478201	
1.17628	
-1.76029	
-0.914937	
0.192775	
-0.619031	
-1.48738	
-1.60081	
-1.50316	
-1.59504	
-2.00964	
-2.69906	
-2.64039	
-0.618752	
-0.202987	
-0.960558	
-1.00192	
-2.04587	
-1.93105	
-1.36287	
-0.875517	
-1.05191	
-0.817014	
-1.06244	
-0.46018	
-1.2094	
-0.886902	
-1.54357	
-0.790448	
-1.73131	
-1.95224	
-0.306648	
-1.27777	
-1.67753	
-0.84392	
-0.725045	
-0.415481	
-2.16247	
-2.74463	
-1.98588	
-1.73841	
-1.08364	
-1.73292	
-1.68758	
-1.69861	
-0.520016	
-0.736023	
-1.88856	
-1.94686	
0.579905	
-0.00314333	
0.303092	
0.254787	
-1.945	
-2.41703	
-2.01033	
-2.49459	
0.037279	
0.12374	
0.260879	
-0.895232	
-0.828357	
-0.762649	
-0.722041	
-1.87192	
-2.14879	
-2.02352	
-2.1386	
0.428022	
-1.66891	
-0.951535	
0.574712	
-0.188804	
0.18916	
-1.46864	
-2.12868	
-0.794625	
1.77481	
0.998122	
0.591899	
-0.0402077	
0.0641183	
-0.0314414	
-0.419237	
-0.310934	
-1.94979	
-1.61163	
-1.75891	
-1.61704	
-1.27287	
-1.06316	
-1.301	
-1.09579	
-0.375503	
0.359669	
-2.27408	
-2.09466	
-2.03795	
-1.89445	
0.157403	
0.134102	
0.273238	
0.292159	
-1.39956	
-1.62961	
-1.15949	
-1.2006	
-0.159353	
-0.857019	
-0.152486	
-0.806538	
-2.64033	
-1.80033	
-1.54806	
-2.0596	
-2.1907	
-2.25605	
-1.4284	
-1.89811	
-1.86093	
-2.2691	
-1.63519	
-2.53604	
-2.20217	
-1.72319	
-1.67112	
-1.9329	
-2.1069	
0.529466	
0.582525	
-1.25703	
-1.14319	
-1.25881	
-0.864125	
-1.19148	
-1.22734	
-1.15305	
-0.799861	
-1.71652	
1.3062	
1.48119	
0.0813961	
-0.0299084	
-2.3582	
-2.42673	
2.00786	
1.01714	
-1.66849	
-1.50426	
-1.73181	
-0.166033	
0.0637919	
-0.0971211	
0.574365	
0.644318	
0.400804	
0.447042	
1.06242	
0.481234	
0.51836	
0.395549	
-1.88106	
-2.95232	
-2.90259	
0.899278	
0.502517	
0.656819	
0.231737	
-0.668325	
-0.356584	
-1.83808	
-1.96666	
-1.8557	
-1.87812	
-1.64682	
-1.63106	
-1.93111	
-1.66115	
-1.72685	
-1.87546	
-2.09756	
-2.55686	
-2.02777	
-1.98377	
-1.99768	
-1.96587	
-0.0322998	
0.0350734	
-1.24327	
-1.13211	
-0.886755	
-1.40173	
-0.0415343	
-0.365604	
-0.268695	
0.306108	
-2.04109	
-2.15847	
-2.09187	
-2.05079	
-2.08145	
-2.09504	
-2.28223	
-2.68768	
-1.95581	
-1.96098	
-1.94665	
-1.9368	
-2.42631	
-2.59942	
-2.28423	
-2.49465	
-0.446682	
-0.591312	
-0.235585	
-0.467724	
-1.33056	
-1.40456	
-1.75678	
-1.4944	
1.70719	
1.48915	
-0.722003	
-0.899978	
-0.985797	
-1.07823	
-0.911576	
-0.457643	
-0.698439	
-0.708699	
-1.04078	
-2.63442	
-2.88056	
-0.848955	
-0.806166	
-0.581109	
-1.20865	
-1.03931	
-0.992105	
-0.885405	
-0.769776	
-0.67876	
-0.427276	
-1.02805	
-1.3014	
-0.648678	
-0.890221	
-0.261507	
-0.033383	
-0.433554	
-0.316074	
-1.21781	
-1.55616	
-1.62335	
-1.55706	
0.442654	
-2.07749	
0.0627206	
0.353619	
-3.60674	
-3.67267	
0.646665	
0.884128	
1.20693	
1.31948	
-1.43694	
-1.63311	
-1.32628	
-1.34302	
-2.11243	
-2.3748	
-2.13442	
-1.95293	
-2.13936	
-2.10724	
-2.5451	
-2.64523	
-1.51531	
-2.18342	
-1.68685	
-2.3408	
-2.41416	
-1.90084	
-2.58138	
-1.92316	
0.314436	
-0.234942	
0.238844	
-2.3881	
-2.46636	
-2.35979	
-2.99796	
-1.70277	
-1.86232	
-2.3999	
-0.766061	
-0.813489	
1.24294	
0.96375	
0.714305	
0.192142	
0.427942	
0.0328626	
0.348328	
0.293796	
0.694195	
0.385249	
-1.42824	
-0.456936	
-0.645434	
-1.91647	
-1.57004	
-1.3889	
-1.57419	
-1.47019	
-1.94828	
-1.76795	
-1.9939	
-1.85743	