<VTKFile type="UnstructuredGrid" version="0.1" byte_order="LittleEndian">
	<UnstructuredGrid>
		<Piece NumberOfPoints="1917" NumberOfCells="3602">
			<CellData Scalars="scalars">
				<DataArray type="Float64" Name="Doublet Strengths" NumberOfComponents="1" Format="ascii">
1.55117	
0.317923	
1.28347	
1.26228	
1.17408	
2.98554	
0.63926	
0.632644	
0.605435	
0.596651	
0.753443	
0.330011	
0.117514	
2.6081	
0.320863	
0.134883	
0.258296	
2.68567	
0.478382	
0.815859	
0.733674	
0.731726	
0.878716	
0.517027	
0.589083	
0.555239	
0.768538	
0.43901	
0.826807	
0.887451	
0.822132	
0.977883	
0.8611	
0.655039	
0.764602	
0.736216	
0.809077	
0.912021	
0.89055	
1.04865	
0.981453	
0.969406	
0.86897	
0.923383	
0.900429	
0.958121	
0.864811	
0.942654	
0.860534	
0.533387	
0.583782	
0.828317	
0.842298	
0.79327	
0.812276	
1.16935	
0.831698	
0.796604	
0.755763	
0.852799	
0.584346	
0.882482	
0.900969	
0.806922	
0.834435	
0.919973	
0.963388	
0.82961	
0.866088	
0.880364	
0.815089	
0.834423	
0.855927	
0.963368	
0.900821	
1.03453	
0.655923	
1.57138	
0.521025	
0.420276	
0.845154	
0.809306	
0.884344	
0.513248	
0.921117	
1.02525	
0.888514	
1.06264	
0.828306	
0.862337	
0.734125	
0.677164	
0.867702	
0.783705	
0.823799	
0.717247	
0.86486	
0.910189	
0.716132	
0.851581	
0.742302	
0.71052	
0.946277	
0.886257	
0.76868	
0.787568	
0.768511	
0.874774	
0.917172	
0.882903	
0.93636	
0.904301	
0.946231	
0.871925	
0.82854	
0.858524	
0.869379	
0.863275	
0.852085	
0.856309	
0.850708	
0.857587	
0.838777	
0.840235	
0.844702	
1.12573	
0.95486	
1.03402	
0.915679	
0.70713	
0.607674	
0.983292	
1.00034	
0.424264	
1.03474	
1.11169	
0.883064	
0.773643	
0.745893	
0.78117	
0.769536	
0.867475	
0.819322	
0.804135	
0.496669	
0.253845	
0.296818	
0.376953	
1.28686	
1.69845	
1.11851	
0.680975	
0.758963	
0.40175	
0.324232	
1.25688	
1.13915	
0.819478	
0.959437	
0.466593	
1.03398	
0.938679	
0.860575	
0.850818	
0.795188	
2.97644	
2.89443	
0.696695	
0.679647	
0.662678	
0.648641	
0.870803	
0.884377	
0.639614	
0.628739	
0.675874	
0.716763	
0.687446	
0.61825	
0.569658	
0.842569	
0.818872	
0.832722	
0.666819	
0.636597	
0.671787	
0.795846	
0.494806	
0.674284	
0.523431	
0.390989	
0.425149	
0.475026	
0.568324	
0.602152	
0.608982	
0.622176	
0.553844	
0.57407	
0.666732	
0.779112	
0.890026	
0.959692	
0.876825	
0.477652	
0.464644	
0.503189	
0.477269	
1.18361	
1.4607	
1.08972	
1.04519	
1.07472	
0.768379	
0.715873	
0.497697	
0.429773	
0.905877	
0.874009	
0.943142	
0.880173	
1.11392	
1.00194	
1.0999	
1.01335	
0.597777	
0.621858	
0.331682	
1.14799	
1.04569	
0.862054	
0.812841	
0.829639	
0.800758	
0.664745	
0.927879	
0.957532	
0.941026	
0.902372	
0.99452	
0.982915	
1.12683	
1.11486	
0.809266	
0.818945	
0.808045	
0.799321	
0.871304	
0.899032	
0.901592	
0.870135	
0.856387	
0.8657	
0.856246	
1.12341	
1.03727	
1.1027	
0.991761	
0.348661	
0.338235	
1.03352	
0.860983	
0.899925	
0.832965	
1.02042	
0.701683	
0.739297	
0.639487	
0.921442	
1.0176	
1.0181	
0.820855	
0.983039	
0.815367	
0.778631	
0.775172	
0.80576	
0.821332	
0.814741	
0.838756	
0.84621	
0.7745	
0.775268	
0.771634	
0.798106	
0.688073	
0.745252	
0.915071	
1.09185	
0.993386	
1.21873	
1.2734	
0.853535	
0.793106	
0.803307	
0.997039	
0.848546	
0.935745	
1.0099	
0.665411	
0.666345	
0.680695	
0.863755	
0.703402	
0.844215	
0.718769	
0.601397	
0.525727	
0.825085	
1.04069	
0.995102	
0.929016	
1.00351	
0.857308	
0.967287	
1.03134	
1.06598	
0.893804	
0.609607	
0.778462	
0.997934	
1.1299	
1.10347	
1.13589	
0.654534	
0.687278	
0.725512	
0.798376	
0.785921	
0.916298	
0.879508	
0.855302	
0.983693	
0.977235	
1.05015	
1.07843	
0.790107	
0.860979	
0.805982	
0.856716	
0.814773	
0.838303	
0.811201	
0.852129	
0.81796	
0.836792	
0.870035	
0.832235	
0.862539	
0.833888	
0.991663	
0.921042	
1.13468	
0.933435	
0.808525	
0.741706	
0.808812	
0.7435	
0.679549	
0.895745	
0.889577	
0.913387	
0.881676	
0.753211	
1.08791	
1.04217	
0.945906	
0.957181	
0.817578	
0.831866	
0.827267	
0.840257	
0.822703	
0.815934	
0.849785	
0.847478	
1.05432	
0.940899	
0.910335	
1.02106	
0.802347	
0.710889	
0.442746	
0.350782	
0.898877	
0.880962	
0.835157	
0.855207	
0.846763	
0.832491	
0.81524	
0.825692	
0.777965	
0.75275	
0.78528	
0.748183	
0.841516	
0.818253	
0.914761	
0.826978	
0.731231	
0.713825	
0.738103	
0.738564	
0.288996	
0.245577	
1.12521	
1.2011	
0.94752	
0.992046	
0.868847	
1.01308	
0.685889	
0.720173	
0.672276	
0.715049	
0.742626	
0.906268	
0.843072	
0.787564	
0.84084	
0.729709	
0.712852	
0.811563	
0.769748	
0.890615	
0.833471	
0.324061	
0.436773	
0.38102	
0.934684	
0.877218	
0.925285	
0.876936	
0.959921	
1.08081	
1.07027	
0.632918	
0.609752	
0.610926	
0.802923	
0.80258	
0.857048	
0.79395	
0.836857	
0.648825	
0.742529	
0.664643	
0.87981	
0.876468	
0.900399	
0.905254	
0.843058	
0.843531	
0.837017	
0.835742	
0.896644	
0.974018	
0.956224	
1.07432	
1.00852	
1.09693	
1.06797	
0.996414	
1.12138	
0.978793	
1.08987	
1.06345	
0.776873	
0.75048	
0.835365	
1.02185	
0.960937	
1.0562	
0.950947	
1.00425	
0.92694	
0.769971	
0.816415	
0.87762	
0.865872	
0.900341	
0.914206	
0.896123	
0.952739	
0.935795	
0.820304	
0.841015	
0.903826	
0.940879	
0.618817	
0.529194	
0.60923	
0.565606	
0.782297	
0.742181	
0.441452	
0.373766	
0.799527	
0.796075	
0.378304	
0.320823	
0.673602	
0.714233	
0.730015	
0.733789	
0.775134	
0.823192	
0.786772	
0.826223	
0.797687	
0.802191	
0.832369	
0.717958	
0.729781	
0.764246	
0.778247	
0.756606	
0.703683	
0.83521	
0.790759	
0.845711	
0.819279	
0.87626	
0.855105	
0.915652	
0.888564	
0.96417	
0.922764	
0.93021	
0.90541	
0.755624	
0.679205	
0.801785	
0.678484	
0.761791	
1.32826	
1.1627	
1.10831	
1.14049	
1.09261	
1.02959	
0.915811	
1.12135	
1.06516	
0.936319	
1.12621	
0.900683	
0.935053	
0.883948	
0.997249	
0.79958	
0.793908	
0.669977	
0.663711	
0.670823	
0.890784	
0.937485	
0.871724	
0.741572	
0.722133	
0.749126	
0.76453	
0.729788	
0.676043	
0.715635	
0.887372	
0.96522	
0.912339	
0.717732	
0.64411	
0.591941	
0.778996	
0.520757	
0.60987	
0.714935	
0.725328	
0.745882	
0.912496	
0.554422	
0.540338	
0.837482	
0.540726	
0.675365	
0.860339	
0.83388	
0.826701	
0.879588	
1.01315	
0.887631	
0.748808	
0.72807	
0.937325	
0.822457	
0.434295	
0.561579	
0.791093	
0.924739	
0.93968	
0.932676	
0.99924	
0.778281	
0.821059	
0.85233	
0.809274	
0.806376	
0.641479	
0.633773	
0.646934	
0.636632	
0.902478	
0.938479	
0.887409	
0.920919	
0.881061	
1.03296	
1.01532	
0.838587	
0.819338	
0.834215	
0.887173	
0.767215	
0.71612	
0.682368	
0.953767	
0.88655	
1.0022	
0.950108	
0.998503	
0.86454	
1.00054	
0.722947	
0.652979	
0.581954	
0.773253	
0.756757	
0.793776	
0.765265	
1.02309	
0.997021	
0.958508	
0.910472	
0.814803	
0.843722	
0.833735	
0.847728	
0.96344	
0.937009	
0.92054	
0.939524	
0.498192	
0.494079	
0.795764	
0.835484	
0.81513	
0.728606	
0.790444	
0.718765	
0.826004	
1.06555	
0.928769	
1.04713	
1.02394	
0.972765	
1.0665	
1.04804	
1.08962	
0.676517	
0.687986	
0.752997	
0.7136	
0.746828	
0.907645	
0.900722	
0.881264	
0.896886	
0.858369	
0.80771	
0.857972	
0.810885	
0.852141	
0.862325	
0.878009	
0.911168	
0.965846	
1.0283	
0.689079	
0.714666	
0.741398	
0.722531	
0.905291	
0.96186	
0.839025	
0.836797	
0.851897	
0.756043	
0.763104	
0.721298	
0.751742	
0.811343	
0.812474	
0.763989	
0.678118	
0.692689	
0.599649	
0.796304	
0.799474	
0.794898	
0.796098	
0.977294	
0.934283	
0.915711	
0.905843	
0.701409	
0.827192	
0.953979	
0.935334	
0.650543	
0.639819	
0.927651	
0.943925	
1.01263	
0.926873	
0.924059	
0.938628	
0.905812	
0.889179	
0.874635	
0.867143	
1.1437	
1.27494	
1.18676	
1.35787	
0.253448	
0.26752	
0.133005	
0.183685	
0.750486	
0.682105	
0.759791	
0.695942	
0.841785	
0.802196	
0.814018	
0.79541	
0.96086	
0.975587	
0.86848	
0.877491	
0.62716	
0.545486	
0.580023	
0.555488	
0.946628	
0.866656	
0.831986	
0.830957	
0.791221	
0.797993	
0.78155	
0.787044	
0.876141	
0.899632	
0.875547	
0.89762	
0.861834	
0.882408	
0.85017	
0.313944	
0.843989	
0.837435	
0.716719	
0.73194	
0.722474	
0.279961	
0.392125	
0.712743	
0.673802	
0.643025	
0.605969	
0.568891	
0.706036	
0.675983	
0.645483	
0.644981	
0.3581	
0.478402	
0.36177	
0.945933	
0.910735	
1.06273	
0.871769	
0.884999	
0.948193	
0.799653	
0.779346	
0.796932	
0.744121	
1.01787	
1.04882	
1.19657	
1.29322	
0.913811	
0.848765	
0.775214	
0.736251	
0.756914	
0.767246	
0.767527	
0.55473	
0.529085	
0.811773	
0.82641	
0.904548	
0.916421	
0.444305	
0.387839	
0.442289	
0.793723	
0.798014	
0.791755	
1.86182	
1.36446	
0.760881	
0.714018	
0.455384	
0.934517	
0.973662	
1.0166	
1.44771	
0.6659	
0.675105	
0.762918	
0.744963	
0.332651	
0.31744	
0.412611	
0.4123	
0.853735	
0.849929	
0.798318	
0.807896	
1.12418	
1.05344	
0.586151	
0.573386	
1.00005	
0.844419	
0.76917	
0.767435	
0.740621	
0.779438	
0.851774	
0.843412	
0.957404	
0.896017	
1.0153	
0.871498	
0.974929	
0.828002	
0.43104	
0.389047	
0.324173	
0.309565	
0.673798	
0.658141	
0.654889	
0.642101	
0.513452	
0.537578	
-1.92042	
-3.44563	
-2.4206	
-2.42674	
-2.69991	
-1.68402	
0.661892	
2.41036	
0.406214	
0.675141	
-0.493267	
-0.54178	
0.547108	
-0.472495	
-0.559605	
-1.22838	
-0.72669	
-1.70055	
-1.64258	
-1.73821	
-1.29413	
-0.826058	
-1.67644	
-0.238576	
-0.0394063	
-0.0971254	
-0.975619	
-1.42631	
-1.28778	
-1.18453	
-0.721302	
-0.845581	
-1.70036	
-2.39057	
-1.68191	
-1.60899	
-1.70047	
-1.52619	
-0.361823	
-2.30832	
-1.0608	
0.0426396	
0.208516	
-1.40688	
-1.58446	
0.33501	
0.791616	
-1.68498	
-0.830791	
0.162442	
-0.513467	
-1.34606	
-2.17533	
-1.09725	
-1.47204	
-1.68018	
-2.3832	
-2.12696	
-0.500758	
-0.128197	
-0.941216	
-0.944987	
-1.73193	
-1.25029	
-1.55308	
-0.748082	
-1.02579	
-0.64115	
-0.893854	
-0.146814	
-1.09322	
-0.614357	
-1.12324	
-0.814252	
-1.95534	
-1.9353	
-0.294203	
-2.20835	
-1.3932	
-0.812392	
-0.407198	
-0.707337	
-1.38153	
-1.63014	
-1.70418	
-1.70477	
-1.57966	
-1.05798	
-1.5865	
-1.78164	
-1.65777	
-0.476757	
-0.674277	
-1.70865	
-1.71581	
0.298952	
-0.0503727	
0.241746	
0.233598	
-1.84218	
-2.36262	
-1.66737	
-2.25128	
0.0220219	
-0.693653	
0.110754	
0.241788	
-0.557398	
-0.588376	
-0.648446	
-0.702506	
-1.7928	
-1.88191	
-1.85034	
-1.75731	
0.364172	
-1.51168	
-0.734026	
0.50121	
-0.193918	
0.155893	
-1.5283	
-1.8744	
-0.541796	
1.25911	
1.647	
0.54073	
-0.061571	
-0.257089	
0.0340119	
-0.393611	
-0.295702	
-1.75235	
-1.83791	
-1.94649	
-0.956075	
-1.08515	
-0.886651	
-1.1277	
-1.08259	
-0.36741	
0.354289	
-1.80075	
-1.89053	
-2.16757	
-1.92696	
0.030606	
0.145891	
0.249453	
0.236935	
-1.05237	
-1.36818	
-1.26901	
-1.49126	
-0.442287	
-0.77637	
-0.148157	
-0.519271	
-1.66042	
-1.49288	
-1.68475	
-1.73668	
-1.66484	
-1.7546	
-1.37865	
-2.36399	
-1.72929	
-2.4182	
-2.304	
-2.37792	
-2.15429	
-2.2457	
-2.02311	
-1.58936	
-1.4887	
0.312597	
0.527998	
0.485688	
-1.04288	
-1.07002	
-1.12367	
-1.16818	
-1.09907	
-0.721017	
-0.94752	
-1.02978	
-1.46096	
1.12165	
1.27108	
1.47867	
0.0467529	
-0.0513289	
-1.71781	
-1.83745	
0.929912	
1.93239	
-1.94622	
-1.50454	
-1.42385	
-0.0869085	
-0.048772	
0.0735447	
0.536654	
0.484022	
0.358644	
0.416289	
0.798644	
0.443964	
0.414089	
0.338675	
-1.5552	
-2.62642	
-2.53442	
0.300023	
0.199025	
0.80869	
0.449731	
-0.426418	
-0.20923	
-1.66632	
-1.5417	
-1.45115	
-1.61882	
-1.5578	
-1.62143	
-1.67191	
-1.41015	
-1.4605	
-1.57979	
-2.30022	
-1.86297	
-1.75677	
-1.72632	
-1.68434	
-1.67667	
0.115808	
0.0288841	
-1.20557	
-0.748188	
-1.04684	
-1.27515	
-0.0557191	
-0.342033	
0.263299	
-0.0449315	
-1.92643	
-1.77182	
-1.79549	
-1.78807	
-1.70805	
-1.73641	
-1.7697	
-1.70896	
-1.67318	
-1.65651	
-1.66671	
-1.66777	
-2.68578	
-2.25077	
-2.28538	
-2.16265	
-0.226016	
-0.429893	
-0.228843	
-0.53914	
-1.13381	
-1.08697	
-1.23423	
-1.55627	
1.17219	
1.6611	
-0.6591	
-0.592085	
-0.742856	
-0.754386	
-0.929082	
-0.960574	
-0.965781	
-0.42994	
-2.57097	
-2.37523	
-0.825412	
-0.565214	
-0.784338	
-1.66585	
-1.1974	
-0.801109	
-0.695873	
-0.93852	
-0.978844	
-0.710412	
-0.405672	
-0.603105	
-0.826065	
-0.660302	
-1.25487	
-2.15654	
-1.70588	
-0.435863	
-0.303016	
-0.264278	
0.026308	
-0.806503	
-1.49037	
-1.47258	
-1.19296	
0.37231	
-1.9566	
0.330441	
0.0517645	
-2.61108	
-3.25534	
0.510582	
0.61903	
1.27924	
1.45069	
-1.1993	
-1.38944	
-1.38122	
-1.55552	
-2.09955	
-1.95957	
-1.90884	
-1.97761	
-1.678	
-1.855	
-1.8381	
-2.26825	
-2.21046	
-1.37358	
-2.31177	
-2.04181	
-1.8272	
-2.54742	
-1.81772	
-2.35516	
-0.216735	
0.236831	
-1.82603	
-1.74471	
-1.81694	
-1.85648	
-1.56477	
-1.36151	
-1.50128	
-0.702949	
-0.649043	
0.743465	
1.163	
0.179722	
0.776793	
-0.0359964	
0.411338	
0.579736	
0.154306	
0.569015	
0.264396	
-1.21492	
-0.520378	
-0.608757	
-1.65561	
-1.30467	
-1.39622	
-1.32825	
-1.41484	
-1.61777	
-1.69618	
-1.65882	
-2.11492	
-1.54765	
-1.46077	
-1.7112	
-1.43318	
-1.28607	
-1.39508	
-1.45905	
-0.475583	
-0.377434	
-0.669745	
-0.538078	
0.356987	
0.191302	
0.567874	
0.449469	
-1.37727	
-2.02031	
-0.823522	
-0.891893	
-0.924223	
-1.06092	
-1.64161	
-0.469394	
-0.265757	
-1.19556	
-1.3707	
-1.05275	
-0.97582	
0.109827	
0.902477	
1.10702	
0.839808	
0.687129	
-1.18512	
-0.155139	
0.0682101	
-0.224826	
0.0352464	
-1.93667	
-1.45604	
-1.21109	
-0.996834	
-0.912002	
-1.03307	
-0.979498	
-1.01078	
-0.962136	
-1.13106	
-1.35894	
-1.21557	
-1.31144	
-1.1537	
-1.13613	
-2.2997	
-1.89329	
-1.73072	
-1.73722	
-1.92184	
-1.82644	
-1.74142	
-1.72414	
0.32437	
0.2473	
-0.341475	
-1.92298	
-2.53028	
-1.81094	
-2.44491	
-1.77994	
-1.75244	
-1.63468	
-1.76149	
-1.96859	
-0.108985	
-0.722199	
-0.7736	
-0.876633	
-0.898771	
-1.25076	
-1.53374	
-2.41898	
-2.90306	
-1.82253	
-1.71526	
-1.73396	
-1.7113	
0.423773	
0.0109633	
0.849808	
0.157106	
-1.6281	
-0.450982	
-1.3008	
-1.56117	
-0.669149	
-0.835846	
-1.27868	
-1.79662	
-1.21562	
-1.52332	
-2.05007	
-2.62378	
-1.90958	
-2.04272	
-0.646264	
-0.624941	
0.213348	
0.148134	
0.306941	
0.178437	
0.127729	
0.0334537	
0.104446	
-2.3983	
-2.63935	
0.347374	
0.207018	
0.364369	
-1.1633	
-0.815747	
-0.822519	
-0.536011	
-1.11505	
-1.28413	
-0.970828	
-1.02154	
0.0437081	
-0.187733	
0.0165879	
-0.146329	
-3.03109	
-3.01105	
-2.38068	
-0.497141	
-0.756712	
-0.785005	
-0.604195	
-1.69668	
-1.73374	
-2.02263	
-2.07896	
-1.92576	
-1.94858	
-0.806536	
-0.668332	
-0.63466	
-0.874408	
-0.830376	
-1.14405	
-1.47759	
-1.65247	
-1.93267	
-1.20761	
-1.14803	
-1.56516	
-1.32505	
-1.68423	
0.299835	
0.221575	
-0.0262051	
-0.236606	
-0.115904	
-0.297852	
-0.861321	
-1.04896	
-0.854456	
-1.04729	
-1.47349	
-1.08736	
-1.89537	
-1.35399	
-1.27581	
-1.47849	
-1.63197	
0.531523	
0.354187	
0.291427	
-1.62931	
-1.65818	
-1.70784	
-1.66026	
-1.69441	
-1.5844	
-1.56728	
-1.54545	
0.0293916	
-0.0568188	
0.232654	
0.311356	
-0.412321	
-0.431901	
-0.064986	
-0.213264	
1.02154	
0.924942	
1.64112	
0.101308	
0.406561	
0.84712	
-1.29735	
-1.35964	
-1.42212	
-1.42152	
-1.53121	
-1.53135	
-1.78731	
-1.71857	
-1.72019	
-1.65999	
-2.02571	
-2.02545	
-0.593578	
-0.551349	
-0.731074	
-0.822654	
-0.932867	
-0.950395	
-1.12601	
-1.20318	
-0.966399	
-0.941618	
-1.10954	
-1.21868	
-1.57492	
-1.66131	
-1.62527	
-1.71346	
-1.67382	
-1.58226	
0.273829	
0.456487	
-1.27942	
-1.39006	
-1.36153	
-1.66589	
-1.58616	
-1.81097	
-2.49191	
-1.66029	
-1.64559	
0.424248	
-1.28718	
-1.23263	
-1.28468	
-1.68426	
-1.67083	
-1.88088	
-1.60981	
2.91065	
-1.35836	
-1.43634	
-1.269	
-1.25925	
0.311431	
0.301639	
0.658368	
0.511262	
0.573642	
0.377607	
1.35113	
-1.51274	
-1.54133	
-1.83208	
-1.91341	
-1.86487	
0.511535	
-1.66802	
-1.81629	
-1.55114	
-1.55601	
0.329369	
0.271256	
-1.51889	
0.429907	
0.404787	
-1.21581	
-1.27603	
-1.13707	
-1.1535	
-1.244	
-1.32374	
-2.18252	
-2.37891	
-1.45803	
-1.67312	
-1.24961	
-1.18584	
-1.09667	
-1.63992	
-1.40807	
-1.52932	
-1.50538	
-1.67066	
-1.48329	
-1.3323	
-1.2318	
-1.37339	
-1.21275	
-1.28064	
-1.34486	
0.633345	
0.482746	
0.541731	
-1.66519	
0.28693	
0.201525	
0.202873	
0.265576	
0.269869	
-1.64976	
-1.64757	
-1.65384	
0.0248816	
0.0932309	
-0.0372955	
0.0579223	
-1.65106	
-1.56273	
-1.60679	
-1.65457	
-1.64767	
-1.87165	
-1.66458	
-1.96633	
-1.73072	
0.606773	
0.668682	
0.445908	
-2.50391	
-1.81948	
-2.6486	
-1.8526	
-1.44775	
0.240328	
-1.64568	
-1.61897	
1.46305	
0.96454	
1.0234	
0.416898	
-1.45394	
-1.27679	
-1.16716	
-0.671407	
-0.650205	
-0.395951	
-1.30364	
-1.32999	
-2.26389	
-1.76937	
-1.85516	
-1.80469	
-2.03628	
-0.198467	
-0.474559	
0.615125	
0.497228	
0.517442	
0.46774	
0.556959	
0.330828	
0.297344	
0.271176	
0.183615	
-1.97989	
-1.81086	
-1.89606	
-1.79825	
-1.49939	
-1.47166	
-1.67651	
-2.16967	
-2.24274	
0.165341	
0.0574827	
-0.27996	
-1.69411	
-1.8578	
-1.54704	
-1.70454	
-1.69172	
-1.59168	
-1.62148	
-1.54643	
-1.80452	
-1.82331	
-1.64857	
-1.41846	
-1.49817	
-1.5526	
-1.67157	
-1.40003	
-1.33828	
-1.45241	
-1.30774	
0.785136	
0.281078	
-1.4513	
-1.52776	
-1.53956	
-1.78937	
-0.84913	
-1.07991	
-1.39707	
-1.42275	
-1.57154	
-1.56626	
-1.5124	
-1.56263	
-1.08822	
-1.24426	
-1.76155	
-1.76592	
-1.71865	
-1.70153	
-1.83082	
-1.76584	
-1.75489	
-1.72227	
-1.56938	
-1.77978	
-1.18171	
-1.18287	
-1.97539	
-2.36736	
-2.31362	
-1.8164	
-2.09413	
-1.91412	
-0.0919708	
-0.350928	
-0.389488	
0.352465	
0.249113	
-1.45704	
-1.50652	
-1.4615	
-0.376611	
-0.391553	
-0.304848	
-1.73726	
-1.65088	
-1.74559	
-1.64657	
-0.558217	
-0.468742	
-0.71389	
-0.804387	
-1.037	
-1.54831	
-1.4099	
0.689839	
0.951637	
1.24327	
0.783473	
-0.198191	
-0.25102	
0.333888	
0.401778	
0.324468	
0.423378	
-1.93017	
-2.09119	
-1.89762	
-2.09175	
-0.745742	
-0.605884	
-0.256486	
1.91321	
2.87656	
-1.98929	
-2.14269	
-2.3055	
-2.8212	
-0.386489	
-0.282008	
-0.641914	
-0.441458	
0.545006	
0.527559	
0.336524	
0.309012	
0.230943	
-0.157348	
-0.370213	
0.0906818	
-0.269849	
0.356665	
0.395065	
-1.57549	
-2.12737	
-1.55407	
-1.68324	
-0.601541	
-0.777775	
-0.722038	
-0.873972	
1.41848	
1.26185	
-2.01882	
-1.87799	
0.350075	
0.377825	
0.472835	
0.448333	
0.716618	
0.306696	
-0.0550572	
-0.11517	
-0.0984396	
-0.0778185	
-0.0384687	
-0.0311164	
-0.0497995	
0.0302347	
0.0559908	
0.14375	
0.1962	
0.174487	
0.0986996	
-0.000495315	
-0.112477	
-0.101355	
-0.0966787	
-0.0952657	
-0.0707268	
0.194521	
-0.0294217	
0.168918	
0.0823678	
0.130966	
0.0293267	
-0.123737	
0.163567	
0.115902	
0.00810015	
-0.0729311	
0.0476338	
-0.185629	
-0.215103	
-0.258905	
-0.213017	
-0.242641	
-0.283927	
-0.140955	
0.147582	
0.0935825	
-0.188402	
-0.0626729	
-0.11411	
0.00789453	
-0.157274	
-0.189514	
-0.182454	
-0.178198	
-0.192494	
-0.211203	
0.178834	
1.36101	
0.115907	
1.28813	
1.26806	
1.19906	
1.5628	
0.636807	
0.593486	
0.602111	
0.622506	
0.775998	
0.231277	
0.115284	
1.25172	
0.313294	
0.0982178	
0.242277	
1.41703	
2.64211	
0.473446	
0.586373	
1.07202	
0.844036	
1.00859	
0.79548	
0.725191	
0.940915	
0.914439	
0.477593	
0.528671	
0.538122	
0.768145	
0.363874	
0.843906	
0.885502	
0.884723	
1.01984	
0.863166	
0.665762	
0.789559	
0.840472	
0.938269	
0.9208	
1.10396	
0.983746	
0.936173	
0.983859	
0.964209	
0.912303	
0.937924	
0.893751	
0.964217	
0.940783	
0.499811	
0.519135	
0.879699	
0.87078	
0.954066	
0.908509	
1.16517	
0.928624	
1.04528	
0.785313	
0.928908	
0.575473	
0.88752	
0.923491	
0.845759	
0.868795	
1.0434	
1.11185	
0.845344	
0.890264	
1.03281	
0.863599	
0.865612	
0.988323	
1.03745	
1.04056	
0.859671	
0.86086	
0.904931	
0.683738	
1.19349	
0.953824	
0.403074	
1.09824	
0.90385	
0.480279	
1.05137	
0.931936	
0.965734	
1.12012	
0.913184	
0.963264	
0.907834	
0.912028	
0.66339	
0.786163	
0.848838	
1.19165	
1.00634	
0.737464	
0.93574	
0.900429	
0.955554	
0.862059	
0.710668	
0.685121	
0.681428	
0.888141	
0.872786	
0.812527	
0.769225	
0.802878	
0.881545	
0.936324	
0.875733	
0.920408	
1.10205	
0.929893	
0.90719	
0.90452	
0.92954	
0.926741	
0.937419	
0.919021	
0.956782	
0.898344	
0.911184	
0.916476	
0.925034	
0.992532	
1.03481	
0.99688	
1.0226	
0.660663	
0.742984	
1.02073	
0.909955	
0.402591	
1.04952	
1.11971	
0.262897	
0.92443	
0.75761	
0.78415	
0.794464	
0.806151	
0.903429	
0.830215	
0.859798	
0.469898	
0.253996	
0.221082	
0.326194	
1.70236	
0.780271	
0.69811	
0.344025	
1.26559	
1.16688	
0.830384	
0.989129	
0.969042	
1.22876	
0.928	
0.910512	
0.98329	
0.890904	
2.57083	
2.74715	
0.79632	
0.657011	
0.82534	
0.712957	
0.903962	
0.916582	
0.588715	
0.660877	
0.711658	
0.597596	
0.511685	
0.8572	
0.912293	
0.870091	
0.637767	
0.665907	
0.626124	
0.813749	
0.450834	
0.424276	
0.471012	
0.517086	
0.527059	
0.594065	
0.588593	
0.544764	
0.571515	
0.620262	
0.653543	
1.02458	
0.961055	
0.953619	
0.475369	
0.351165	
0.4414	
0.375623	
1.17417	
1.09843	
1.0871	
0.756408	
0.773839	
0.90994	
0.943101	
0.913924	
0.990038	
1.04093	
1.14233	
1.04868	
1.14847	
0.769092	
0.829265	
0.653712	
0.966418	
0.928605	
0.373872	
0.300705	
1.16141	
1.06085	
0.970297	
1.07155	
1.00592	
1.12485	
0.676273	
0.959838	
0.940533	
0.945041	
0.972327	
1.15749	
1.13523	
1.1263	
1.01692	
0.809853	
0.803355	
0.815944	
0.923302	
0.893288	
0.935926	
0.938578	
0.954795	
0.939034	
1.18221	
1.14178	
0.992388	
0.917254	
1.05929	
0.912579	
0.875583	
1.01397	
0.873237	
0.823075	
0.701981	
0.639817	
0.985041	
1.08914	
1.08225	
0.735688	
0.836901	
1.00259	
0.784884	
0.755276	
0.797778	
1.20651	
0.855508	
0.87827	
0.895957	
0.85816	
0.851484	
0.789835	
0.79354	
0.808673	
0.657794	
0.681122	
1.16436	
1.05536	
0.978294	
1.27983	
1.23823	
0.825784	
0.870581	
0.802551	
0.824699	
0.833136	
1.02034	
0.963185	
0.957002	
0.67602	
0.672022	
0.704864	
0.717283	
0.746499	
0.713652	
0.759146	
0.679666	
0.496921	
0.893866	
1.0848	
0.893076	
1.05106	
0.992251	
0.907166	
1.02398	
1.07353	
0.905831	
0.89953	
0.822337	
0.71449	
1.15477	
1.18154	
1.03873	
1.07503	
0.658122	
0.69115	
0.882919	
0.840456	
0.935232	
0.925114	
0.875896	
0.969237	
0.990752	
1.05566	
1.0574	
0.805006	
0.793182	
0.968066	
0.809962	
0.886467	
0.885567	
0.850007	
0.87187	
0.898288	
0.92207	
0.915253	
0.849073	
0.828059	
0.847799	
0.832386	
0.905239	
0.948248	
0.864996	
1.00552	
0.874294	
0.770804	
0.691251	
0.754918	
0.957745	
0.924588	
0.946955	
0.931431	
0.795468	
1.00805	
0.976701	
0.97771	
1.0083	
1.07582	
0.834113	
0.818523	
0.841063	
0.82559	
0.813552	
0.827546	
0.826173	
0.838793	
0.939057	
1.04505	
1.08028	
1.03293	
0.694894	
0.415426	
0.326479	
0.8559	
0.867612	
0.911512	
1.00672	
1.15026	
1.1266	
1.13701	
1.12213	
0.817434	
0.866306	
0.80701	
0.922698	
0.977932	
1.0879	
1.0981	
0.708829	
0.74267	
0.716226	
0.771303	
0.186436	
0.202225	
1.2069	
1.13289	
1.02737	
1.04348	
0.87961	
1.02394	
0.744435	
0.668852	
0.712182	
0.695001	
0.708138	
0.738639	
0.824247	
0.715398	
0.753553	
0.756366	
0.808414	
0.807738	
0.881277	
0.842554	
0.877831	
0.311246	
0.36465	
0.416971	
0.892557	
0.948758	
0.894449	
0.91982	
0.975751	
1.08273	
1.10139	
0.494041	
0.861522	
0.794673	
0.864812	
0.801246	
0.681141	
0.617717	
0.822736	
0.76037	
0.94105	
0.942712	
0.97679	
0.9608	
0.998435	
0.936636	
0.97376	
0.940117	
0.992452	
0.975947	
1.11382	
1.02527	
1.02561	
1.0385	
1.08294	
1.09502	
1.11853	
1.1506	
0.993203	
1.11643	
0.79746	
0.766622	
1.19681	
1.09166	
0.963854	
0.936427	
0.973706	
1.02957	
0.983676	
1.02187	
0.940354	
1.31347	
0.882806	
0.915732	
0.963137	
0.952014	
0.932817	
0.975597	
0.991771	
0.888214	
0.851998	
0.976468	
0.938495	
1.02069	
1.0248	
0.607873	
0.556211	
0.609648	
0.553397	
0.773238	
0.808492	
0.785617	
0.364254	
0.430273	
0.862333	
0.849103	
0.345547	
0.291877	
0.703927	
0.686231	
0.801291	
0.753447	
0.889626	
0.895896	
0.87943	
0.860961	
0.872529	
0.891644	
0.798797	
0.751095	
0.759539	
0.832026	
0.741342	
0.740706	
0.755154	
0.87418	
0.849989	
0.863438	
0.820384	
0.946861	
0.921394	
0.906976	
0.873169	
0.978956	
0.942667	
1.0106	
0.965592	
1.08744	
0.728799	
0.709876	
0.67806	
0.593101	
1.17041	
1.27088	
1.19452	
1.14457	
1.17795	
1.14057	
0.977611	
1.15907	
1.11263	
1.17051	
1.14363	
0.972925	
0.981264	
0.955854	
1.042	
0.689887	
0.704017	
0.689844	
0.911897	
0.931848	
0.96757	
0.766457	
0.746591	
1.15366	
0.780309	
0.745367	
0.691637	
0.733494	
0.942062	
0.988918	
0.72495	
0.802688	
0.657105	
0.582102	
0.73486	
0.774739	
0.755056	
0.547082	
0.478398	
0.991104	
0.770745	
0.499108	
0.555398	
1.25891	
1.18	
0.905334	
0.894963	
0.924306	
0.742139	
0.761527	
0.904337	
0.914453	
0.316013	
0.833006	
0.914867	
0.947314	
0.894109	
0.899709	
0.788411	
0.83703	
0.983437	
0.942785	
0.946731	
0.669328	
0.66475	
0.658043	
0.652728	
0.958668	
0.995455	
0.967419	
1.00157	
1.04418	
0.840571	
1.02673	
0.85338	
0.831706	
1.30964	
1.99412	
1.10655	
0.751896	
0.829906	
1.1232	
0.984663	
0.951337	
0.587771	
0.857392	
0.930764	
1.0178	
1.03705	
0.944697	
0.982358	
0.875209	
0.855685	
0.877089	
0.867419	
0.963021	
0.994427	
1.01727	
0.988762	
0.486163	
0.486176	
0.850345	
0.812117	
0.959295	
0.923386	
0.89327	
0.89435	
0.852993	
1.08584	
0.986974	
0.807512	
0.748995	
0.841604	
0.781377	
1.04495	
1.03333	
1.07648	
0.968024	
1.07338	
0.967493	
1.08939	
1.06218	
0.773286	
0.733994	
0.765329	
0.709912	
0.730763	
0.891252	
0.838912	
1.00434	
0.846174	
0.93483	
0.926995	
1.05176	
1.08914	
0.731407	
0.730608	
0.740785	
0.759339	
0.923476	
0.910258	
0.794408	
0.789292	
0.780282	
0.766082	
0.931871	
0.95509	
0.891573	
0.891928	
0.898157	
0.691055	
0.780854	
0.612496	
0.709324	
0.851924	
0.862422	
0.808122	
0.890997	
0.951979	
1.04972	
0.892101	
0.908625	
0.940757	
0.923933	
0.951658	
0.98247	
0.915154	
1.13178	
0.929638	
0.653863	
0.664876	
1.02063	
0.93431	
0.967694	
0.952948	
0.943195	
0.955667	
0.935126	
0.942904	
0.903533	
0.913756	
1.28171	
1.15431	
1.54695	
1.19463	
0.252928	
0.262914	
0.162929	
0.0972514	
0.740465	
0.772727	
0.734397	
0.743751	
0.817261	
0.849156	
0.811885	
0.829249	
1.01868	
0.992098	
0.936429	
0.930164	
0.656454	
0.666893	
0.674494	
0.607383	
0.886273	
0.968099	
0.849018	
0.834044	
0.893108	
0.808712	
0.978624	
0.86572	
0.92786	
0.953989	
0.988582	
1.06216	
1.02273	
1.00543	
0.990259	
1.00745	
1.11444	
1.15094	
0.336573	
0.889807	
0.889305	
0.765712	
0.764321	
0.764098	
0.845456	
0.94405	
0.654607	
0.714842	
0.73134	
0.847833	
0.36941	
0.446515	
0.426627	
0.292502	
0.239476	
0.229551	
0.665348	
0.813084	
0.809594	
0.391422	
0.351862	
0.534487	
0.210728	
0.298119	
0.456021	
0.336255	
0.341986	
0.897198	
0.95734	
0.891353	
0.972257	
1.02314	
0.946597	
0.832218	
0.947357	
0.657445	
0.625227	
0.652051	
0.803407	
0.779565	
0.812714	
0.806025	
0.880523	
0.872359	
0.909228	
0.964595	
0.368745	
0.422652	
0.844261	
0.862213	
0.869753	
1.20584	
1.41399	
0.745863	
0.789778	
0.787847	
0.380157	
0.444995	
0.468801	
0.386975	
0.472128	
1.03642	
0.98783	
0.944187	
1.17154	
0.685528	
0.675265	
0.392043	
0.438403	
0.97877	
0.84578	
0.838324	
0.833777	
0.38425	
0.43345	
0.319279	
0.391397	
0.194243	
0.269437	
0.287788	
0.899768	
1.24408	
0.849113	
0.971862	
1.03764	
0.977979	
0.973238	
0.927742	
0.558398	
0.512075	
0.601437	
0.555536	
0.868683	
0.89641	
0.789287	
0.776751	
0.119286	
0.268653	
0.213156	
0.613392	
0.55927	
0.67753	
0.565996	
0.655054	
0.653652	
0.683382	
0.672306	
0.242783	
0.164302	
0.240131	
0.161176	
0.539088	
0.566119	
0.573774	
-2.02361	
-3.4516	
-2.43358	
-2.70464	
-3.36427	
0.682726	
2.37027	
0.405601	
0.521279	
-0.541713	
-0.705383	
0.559214	
-0.559677	
-0.649656	
-1.29127	
-0.746336	
-1.85522	
-1.90466	
-1.33449	
-0.876592	
-1.83964	
-1.96706	
-0.212882	
-0.0243577	
-0.0775773	
-1.13105	
-1.58446	
-1.38118	
-1.22884	
-0.87511	
-0.818079	
-1.84785	
-1.88138	
-1.80264	
-1.85946	
-1.7424	
-1.99336	
-0.367333	
-2.37164	
-1.07929	
0.0615899	
0.240693	
-1.41096	
-1.626	
0.4394	
1.11498	
-1.64066	
-0.854635	
0.164399	
-0.579862	
-1.39545	
-1.47823	
-1.40424	
-1.48473	
-1.8241	
-2.53238	
-2.49315	
-0.592567	
-0.198612	
-0.895457	
-0.929783	
-1.8789	
-1.83932	
-1.27437	
-0.806276	
-0.973484	
-0.755358	
-0.988899	
-0.430991	
-1.1234	
-0.811736	
-1.46864	
-0.733517	
-1.60483	
-1.81606	
-0.295587	
-1.19392	
-1.58128	
-0.788108	
-0.674797	
-0.381343	
-2.05794	
-2.58446	
-1.82227	
-1.61052	
-1.01845	
-1.60256	
-1.55464	
-1.5646	
-0.480341	
-0.674054	
-1.74166	
-1.78984	
0.550591	
-0.0131144	
0.258366	
0.211157	
-1.80737	
-2.29319	
-1.86531	
-2.35778	
0.0202244	
0.115047	
0.223921	
-0.830058	
-0.769673	
-0.711364	
-0.672912	
-1.74571	
-1.99845	
-1.88614	
-1.99829	
0.361852	
-1.54525	
-0.868095	
0.500413	
-0.188417	
0.153455	
-1.37105	
-1.97032	
-0.710715	
1.73988	
0.959006	
0.573547	
-0.0592327	
0.0367726	
-0.0460341	
-0.398282	
-0.293427	
-1.81581	
-1.50226	
-1.64379	
-1.50939	
-1.16737	
-0.968645	
-1.19379	
-1.00091	
-0.36109	
0.340155	
-2.16976	
-1.99317	
-1.90745	
-1.76862	
0.122441	
0.0976865	
0.226554	
0.242554	
-1.31219	
-1.53772	
-1.08559	
-1.12756	
-0.142941	
-0.813758	
-0.139804	
-0.762641	
-2.48238	
-1.67478	
-1.43922	
-1.89529	
-2.01892	
-2.08481	
-1.37679	
-1.82148	
-1.7136	
-2.18137	
-1.54043	
-2.44229	
-2.10403	
-1.60676	
-1.56984	
-1.81551	
-2.01634	
0.46574	
0.516536	
-1.16398	
-1.05526	
-1.1765	
-0.818843	
-1.11451	
-1.11367	
-1.06284	
-0.735075	
-1.60527	
1.25222	
1.41148	
0.0564315	
-0.041791	
-2.18353	
-2.23493	
1.94647	
0.945148	
-1.52913	
-1.38838	
-1.58684	
-0.16263	
0.0408698	
-0.10237	
0.487825	
0.552051	
0.339535	
0.381329	
1.00175	
0.419409	
0.449757	
0.342097	
-1.74614	
-2.78179	
-2.73435	
0.873275	
0.488267	
0.631834	
0.230046	
-0.638523	
-0.333744	
-1.67426	
-1.78519	
-1.70221	
-1.72068	
-1.51482	
-1.49721	
-1.78434	
-1.50447	
-1.57179	
-1.71021	
-1.94641	
-2.4261	
-1.87808	
-1.82283	
-1.83528	
-1.80916	
-0.044296	
0.0209738	
-1.17553	
-1.03593	
-0.815878	
-1.33996	
-0.0509291	
-0.349735	
-0.262704	
0.266948	
-1.89696	
-2.01629	
-1.94463	
-1.91177	
-1.92261	
-1.93869	
-2.1155	
-2.53194	
-1.80573	
-1.80909	
-1.79402	
-1.7856	
-2.28726	
-2.45053	
-2.14146	
-2.33493	
-0.407929	
-0.541833	
-0.215104	
-0.42945	
-1.22427	
-1.29593	
-1.66262	
-1.38119	
1.66355	
1.46094	
-0.6559	
-0.82606	
-0.896212	
-0.999877	
-0.833493	
-0.439244	
-0.657852	
-0.674405	
-0.987964	
-2.45994	
-2.69063	
-0.798573	
-0.755169	
-0.548569	
-1.13266	
-0.953446	
-0.904432	
-0.808907	
-0.704629	
-0.629299	
-0.394915	
-0.980194	
-1.23823	
-0.615244	
-0.841278	
-0.235612	
-0.0218529	
-0.398489	
-0.286624	
-1.13441	
-1.43123	
-1.50034	
-1.45538	
0.376104	
-1.9275	
0.0717975	
0.348107	
-3.45421	
-3.52952	
0.635197	
0.869688	
1.18708	
1.29402	
-1.36752	
-1.54464	
-1.25915	
-1.25141	
-2.01575	
-2.25509	
-2.03325	
-1.82792	
-1.994	
-1.95605	
-2.40792	
-2.50083	
-1.43424	
-2.10076	
-1.61376	
-2.25681	
-2.31508	
-1.78827	
-2.48284	
-1.80646	
0.306174	