<VTKFile type="UnstructuredGrid" version="0.1" byte_order="LittleEndian">
	<UnstructuredGrid>
		<Piece NumberOfPoints="1917" NumberOfCells="3602">
			<CellData Scalars="scalars">
				<DataArray type="Float64" Name="Doublet Strengths" NumberOfComponents="1" Format="ascii">
1.84931	
0.416694	
1.5874	
1.57042	
1.48421	
3.24178	
1.02039	
1.02978	
0.977577	
0.968007	
1.10616	
0.432735	
0.177813	
2.88952	
0.505399	
0.191548	
0.36752	
2.95588	
0.732833	
1.22803	
1.11514	
1.13684	
1.20323	
0.729922	
0.825524	
0.781792	
1.08788	
0.613112	
1.17017	
1.23959	
1.17001	
1.33387	
1.19062	
0.997726	
1.15441	
1.10492	
1.19372	
1.32365	
1.27178	
1.38894	
1.39175	
1.34055	
1.22199	
1.28591	
1.25444	
1.3049	
1.22831	
1.30433	
1.19546	
0.778439	
0.820681	
1.17153	
1.2014	
1.13356	
1.15529	
1.68533	
1.17871	
1.14707	
1.09298	
1.1972	
0.819587	
1.21433	
1.24823	
1.15408	
1.19965	
1.25917	
1.3071	
1.18339	
1.20254	
1.2183	
1.15855	
1.18577	
1.16618	
1.26091	
1.21943	
1.33492	
0.910089	
1.90391	
0.765142	
0.585182	
1.1869	
1.15398	
1.24692	
0.728875	
1.24124	
1.34608	
1.20325	
1.39336	
1.16193	
1.18819	
1.14956	
1.06153	
1.1437	
1.07362	
1.13455	
1.04526	
1.23612	
1.25214	
0.984412	
1.1238	
1.15891	
1.08994	
1.28861	
1.2158	
1.12785	
1.14898	
1.1611	
1.20965	
1.26502	
1.22607	
1.29064	
1.26125	
1.26093	
1.29469	
1.20738	
1.19005	
1.20834	
1.19027	
1.20634	
1.19607	
1.17705	
1.18162	
1.16524	
1.15733	
1.17018	
1.65781	
1.35854	
1.40661	
1.3229	
1.14547	
0.871871	
1.31549	
1.32931	
0.59019	
1.34898	
1.43196	
1.20058	
1.17184	
1.11015	
1.13432	
1.11772	
1.21176	
1.16212	
1.15492	
0.714953	
0.363826	
0.423176	
0.536685	
1.5963	
2.0332	
1.47386	
0.997795	
1.11819	
0.563558	
0.45224	
1.56506	
1.45012	
1.194	
1.27135	
0.643127	
1.4599	
1.35635	
1.22558	
1.1704	
1.12637	
3.25278	
3.17218	
1.0144	
1.00336	
0.996485	
0.956351	
1.25196	
1.30888	
1.02765	
1.01371	
1.06204	
1.12006	
0.957562	
0.813454	
0.779	
1.21647	
1.19683	
1.18891	
1.0658	
1.02815	
0.94051	
1.16898	
0.693162	
0.891827	
0.740549	
0.553653	
0.601717	
0.671846	
0.808392	
0.847401	
0.877583	
0.905438	
0.779231	
0.807235	
0.919948	
1.03873	
1.21916	
1.28293	
1.21185	
0.680105	
0.663413	
0.712812	
0.677206	
1.55204	
1.87658	
1.40592	
1.34984	
1.39786	
1.13335	
1.07558	
0.704299	
0.611241	
1.27166	
1.23726	
1.32456	
1.26206	
1.4573	
1.35471	
1.45513	
1.37345	
0.900017	
0.923549	
0.489605	
1.45781	
1.36087	
1.22176	
1.1602	
1.18359	
1.15121	
1.02371	
1.28725	
1.30822	
1.32695	
1.26203	
1.39862	
1.35492	
1.49513	
1.47204	
1.13233	
1.17173	
1.11933	
1.10978	
1.23558	
1.26242	
1.2701	
1.23088	
1.19647	
1.20041	
1.1934	
1.45847	
1.39173	
1.43772	
1.37681	
0.446827	
0.462358	
1.36948	
1.20921	
1.24662	
1.21231	
1.43041	
0.975628	
1.01772	
0.89282	
1.25965	
1.34108	
1.34227	
1.18358	
1.31287	
1.09028	
1.07397	
1.08022	
1.14999	
1.19314	
1.21135	
1.24926	
1.33101	
1.14719	
1.16685	
1.14679	
1.17689	
0.886606	
0.971446	
1.25515	
1.43414	
1.34437	
1.5258	
1.57815	
1.1651	
1.10364	
1.17435	
1.37134	
1.22756	
1.31427	
1.39537	
1.01166	
0.999949	
1.01337	
1.24959	
1.07055	
1.35189	
1.08926	
0.894339	
0.722364	
1.16738	
1.37535	
1.34206	
1.25322	
1.31931	
1.1802	
1.28388	
1.34291	
1.39541	
1.22477	
0.911342	
1.06558	
1.3518	
1.46962	
1.451	
1.47404	
1.03441	
1.04645	
1.08922	
1.14688	
1.12359	
1.28518	
1.25252	
1.21662	
1.28394	
1.28289	
1.34935	
1.38266	
1.08495	
1.1629	
1.10834	
1.15952	
1.16206	
1.19423	
1.15202	
1.20719	
1.14779	
1.15767	
1.20055	
1.15787	
1.19827	
1.1551	
1.31817	
1.27201	
1.48155	
1.26724	
1.18702	
1.04159	
1.16713	
1.19757	
1.05458	
1.24533	
1.23213	
1.29307	
1.23379	
1.09416	
1.45259	
1.41787	
1.34497	
1.42384	
1.1296	
1.14213	
1.14488	
1.16123	
1.15113	
1.13633	
1.1774	
1.17294	
1.43967	
1.31394	
1.29861	
1.39662	
1.22531	
1.13776	
0.628178	
0.47863	
1.2649	
1.24044	
1.20142	
1.28046	
1.20308	
1.17515	
1.15927	
1.16428	
1.11977	
1.10202	
1.12887	
1.09467	
1.18371	
1.16293	
1.25042	
1.1672	
1.09226	
1.0793	
1.09004	
1.09362	
0.379379	
0.340857	
1.44353	
1.53781	
1.28339	
1.32562	
1.23353	
1.34145	
1.01124	
1.12144	
1.04177	
1.08459	
1.11323	
1.31359	
1.27764	
1.16364	
1.37794	
1.0203	
0.997816	
1.13212	
1.09042	
1.2302	
1.19416	
0.487112	
0.637832	
0.55208	
1.28146	
1.22321	
1.27713	
1.2298	
1.30842	
1.43503	
1.4131	
0.953009	
0.882311	
0.855856	
1.09594	
1.09387	
1.15771	
1.09501	
1.11436	
0.910231	
1.0625	
0.960567	
1.2157	
1.21059	
1.24179	
1.23993	
1.18269	
1.17482	
1.17472	
1.16415	
1.2419	
1.40106	
1.30305	
1.41592	
1.51312	
1.49456	
1.47282	
1.40518	
1.48711	
1.34905	
1.45964	
1.42201	
1.15041	
1.12286	
1.16912	
1.35427	
1.36269	
1.54168	
1.32789	
1.39542	
1.27197	
1.08616	
1.1296	
1.26804	
1.24759	
1.27509	
1.27387	
1.26978	
1.31595	
1.32319	
1.19653	
1.21176	
1.27646	
1.30909	
0.841405	
0.740147	
0.845864	
0.788963	
1.17819	
1.11477	
0.684645	
0.580957	
1.14178	
1.13503	
0.537045	
0.45282	
1.03851	
1.08304	
1.1119	
1.11106	
1.16811	
1.21857	
1.17378	
1.23219	
1.15128	
1.15576	
1.23032	
1.08282	
1.11468	
1.16304	
1.16787	
1.12791	
1.08443	
1.22557	
1.16508	
1.23093	
1.20697	
1.25777	
1.2242	
1.31974	
1.26685	
1.32136	
1.28744	
1.28096	
1.25986	
1.0895	
0.953976	
1.03423	
0.93365	
0.977172	
1.68796	
1.55202	
1.4463	
1.47666	
1.4675	
1.38155	
1.25735	
1.45783	
1.40744	
1.25314	
1.45227	
1.22422	
1.25529	
1.21371	
1.31349	
1.11874	
1.11667	
0.980901	
0.985113	
1.00001	
1.22887	
1.27579	
1.19789	
1.09109	
1.09127	
1.17475	
1.13844	
1.1045	
1.01245	
1.05813	
1.21266	
1.28149	
1.22936	
1.0972	
0.93533	
0.864816	
1.05503	
0.717233	
0.797708	
1.05779	
1.09297	
1.1164	
1.27346	
0.807752	
0.773425	
1.19158	
0.774199	
0.998212	
1.18822	
1.15433	
1.14875	
1.2545	
1.52156	
1.26436	
1.12393	
1.11508	
1.27703	
1.16971	
0.597298	
0.706397	
1.18149	
1.29907	
1.33633	
1.33508	
1.51085	
1.14249	
1.19731	
1.18374	
1.15936	
1.14935	
0.955397	
0.954878	
0.954515	
0.953472	
1.2316	
1.26717	
1.21532	
1.24729	
1.22113	
1.3533	
1.32724	
1.22936	
1.21064	
1.16052	
1.21843	
1.07427	
1.00021	
0.953689	
1.27882	
1.21508	
1.32169	
1.29914	
1.34151	
1.21932	
1.34918	
1.18704	
1.06541	
0.911157	
1.11521	
1.10095	
1.16049	
1.11524	
1.34043	
1.31381	
1.27494	
1.23897	
1.16107	
1.20155	
1.19286	
1.20234	
1.30482	
1.28315	
1.25897	
1.27348	
0.767922	
0.792802	
1.12371	
1.15533	
1.18296	
1.04469	
1.10664	
1.03522	
1.13754	
1.40458	
1.26732	
1.38422	
1.35847	
1.37044	
1.43614	
1.40277	
1.43751	
0.991899	
1.01882	
1.10345	
1.04126	
1.07784	
1.23416	
1.23502	
1.21853	
1.23664	
1.21688	
1.16032	
1.19758	
1.16018	
1.19563	
1.20267	
1.23727	
1.27136	
1.32901	
1.38433	
1.05393	
1.097	
1.11799	
1.10048	
1.22817	
1.28157	
1.15419	
1.15296	
1.16755	
1.13945	
1.13598	
1.09459	
1.12532	
1.15067	
1.14085	
1.08819	
1.02351	
1.02023	
0.901245	
1.1872	
1.20964	
1.1825	
1.18485	
1.40181	
1.33611	
1.30777	
1.29763	
0.993669	
1.18859	
1.33111	
1.34133	
0.906224	
0.89045	
1.27395	
1.28572	
1.41956	
1.2735	
1.28238	
1.29655	
1.24968	
1.27934	
1.22238	
1.22359	
1.45221	
1.57565	
1.49161	
1.65004	
0.370519	
0.384745	
0.201823	
0.267538	
1.07803	
1.00691	
1.0762	
1.02468	
1.25394	
1.17655	
1.17159	
1.16006	
1.29494	
1.30892	
1.21252	
1.22544	
0.897654	
0.794129	
0.860258	
0.828657	
1.34926	
1.23106	
1.20351	
1.18918	
1.15302	
1.14824	
1.14691	
1.13723	
1.21874	
1.22153	
1.19793	
1.25865	
1.21754	
1.24573	
1.20013	
0.425941	
1.16021	
1.15272	
1.05859	
1.06332	
1.04685	
0.370975	
0.53413	
1.04687	
0.976835	
0.960955	
0.910403	
0.853187	
0.921142	
0.866322	
0.815878	
0.982578	
0.498474	
0.672273	
0.499549	
1.30798	
1.24569	
1.4145	
1.21369	
1.23236	
1.29418	
1.14407	
1.1252	
1.14103	
1.07836	
1.34997	
1.37218	
1.53625	
1.63527	
1.31344	
1.20851	
1.10746	
1.0605	
1.08874	
1.10088	
1.09742	
0.762257	
0.712234	
1.18291	
1.18606	
1.25197	
1.278	
0.617527	
0.543723	
0.634276	
1.16867	
1.17237	
1.1694	
2.1884	
1.74566	
1.12405	
1.04711	
0.667867	
1.28159	
1.31382	
1.34798	
1.82189	
1.02533	
1.05711	
1.09931	
1.07387	
0.401827	
0.420863	
0.54555	
0.551284	
1.19631	
1.19456	
1.1455	
1.17465	
1.49601	
1.46556	
0.858761	
0.825278	
1.33276	
1.1796	
1.10694	
1.1038	
1.12453	
1.17365	
1.2443	
1.23008	
1.31954	
1.25352	
1.35445	
1.16255	
1.33543	
1.13576	
0.590288	
0.538848	
0.455409	
0.431904	
1.02427	
0.992771	
1.00143	
0.973796	
0.815889	
0.82372	
-2.47294	
-4.00265	
-3.07096	
-3.05286	
-3.38922	
-1.95762	
0.945506	
2.6535	
0.682978	
1.00812	
-0.66361	
-0.830826	
0.851464	
-0.73644	
-0.875871	
-1.44912	
-0.992127	
-2.37307	
-2.40248	
-2.4555	
-1.91633	
-1.11331	
-2.39729	
-0.360206	
-0.022102	
-0.174787	
-1.34029	
-2.00739	
-1.81692	
-1.58994	
-0.988987	
-1.15028	
-2.40448	
-3.0983	
-2.38396	
-2.24286	
-2.33215	
-2.1124	
-0.467789	
-2.99539	
-1.45924	
0.101043	
0.328174	
-1.91771	
-2.15939	
0.489806	
0.993244	
-2.23436	
-1.09538	
0.27183	
-0.689605	
-1.74677	
-2.66333	
-1.42046	
-1.953	
-2.50648	
-3.08127	
-2.72614	
-0.637657	
-0.158053	
-1.20845	
-1.22828	
-2.45911	
-1.63603	
-2.008	
-1.01559	
-1.35189	
-0.88256	
-1.21029	
-0.208007	
-1.39422	
-0.852089	
-1.50239	
-1.14248	
-2.51025	
-2.53578	
-0.347678	
-2.59395	
-1.74529	
-1.06461	
-0.568423	
-0.939499	
-1.83313	
-2.29547	
-2.41818	
-2.41867	
-2.159	
-1.33296	
-2.18305	
-2.34621	
-2.23298	
-0.65168	
-0.946668	
-2.34478	
-2.39882	
0.441385	
-0.0364921	
0.415458	
0.401267	
-2.46428	
-2.93359	
-2.22433	
-2.79217	
0.0935316	
-0.876334	
0.134127	
0.37139	
-0.768345	
-0.800836	
-0.887893	
-0.952258	
-2.3988	
-2.49121	
-2.50447	
-2.30213	
0.624366	
-2.05307	
-1.09706	
0.798701	
-0.20497	
0.295379	
-1.93998	
-2.55728	
-0.74443	
1.47267	
1.78397	
0.608442	
0.0129162	
-0.294088	
0.143605	
-0.483	
-0.379318	
-2.21687	
-2.36166	
-2.51482	
-1.4149	
-1.51934	
-1.26046	
-1.58413	
-1.57528	
-0.435906	
0.412646	
-2.36015	
-2.37575	
-2.68743	
-2.36861	
0.109052	
0.280366	
0.447177	
0.420293	
-1.37673	
-1.80832	
-1.65059	
-1.89412	
-0.563124	
-0.957267	
-0.225573	
-0.65847	
-2.2228	
-1.98512	
-2.392	
-2.48917	
-2.36393	
-2.50282	
-1.59753	
-2.85896	
-2.36296	
-2.85873	
-2.73489	
-2.75388	
-2.51824	
-2.67916	
-2.42317	
-2.09969	
-1.95788	
0.524908	
0.78456	
0.751475	
-1.42846	
-1.46027	
-1.38686	
-1.52948	
-1.43605	
-0.996538	
-1.34133	
-1.41832	
-1.92799	
1.33147	
1.48737	
1.75984	
0.138838	
-0.0134841	
-2.46396	
-2.63473	
1.22122	
2.18252	
-2.41142	
-2.02834	
-2.00725	
-0.0879184	
-0.0295343	
0.162976	
0.911797	
0.841566	
0.604591	
0.696756	
1.03394	
0.723658	
0.667605	
0.556505	
-2.20016	
-3.34514	
-3.24888	
0.328232	
0.196846	
0.907367	
0.500407	
-0.656732	
-0.273778	
-2.46636	
-2.27726	
-2.02614	
-2.32045	
-2.17688	
-2.30667	
-2.31373	
-2.1089	
-2.15113	
-2.31472	
-2.89685	
-2.52495	
-2.41383	
-2.46409	
-2.40042	
-2.38464	
0.262024	
0.077672	
-1.49093	
-1.02168	
-1.43149	
-1.5236	
-0.0326822	
-0.420765	
0.416348	
0.00444642	
-2.54361	
-2.40203	
-2.39542	
-2.43132	
-2.40127	
-2.49281	
-2.47899	
-2.44048	
-2.34993	
-2.33653	
-2.33391	
-2.35313	
-3.28075	
-2.83998	
-2.95972	
-2.82058	
-0.322736	
-0.60025	
-0.340111	
-0.756555	
-1.60221	
-1.50177	
-1.69182	
-1.95572	
1.24116	
1.83027	
-0.99284	
-0.910731	
-1.13567	
-1.07678	
-1.25003	
-1.17504	
-1.20149	
-0.518997	
-3.37828	
-3.11262	
-1.03831	
-0.702521	
-0.996554	
-2.05748	
-1.51745	
-1.13637	
-0.979916	
-1.31248	
-1.39045	
-0.988093	
-0.56112	
-0.754942	
-1.04398	
-0.815967	
-1.5286	
-2.78338	
-2.42265	
-0.615723	
-0.447291	
-0.395201	
-0.0412295	
-1.20004	
-2.02936	
-2.08963	
-1.82615	
0.648585	
-2.61953	
0.343831	
7.34251e-05	
-3.26075	
-3.902	
0.533228	
0.653574	
1.37348	
1.55561	
-1.52872	
-1.81941	
-1.68116	
-1.94133	
-2.55407	
-2.38284	
-2.56533	
-2.4198	
-2.27616	
-2.47052	
-2.50907	
-2.86208	
-2.57329	
-1.75983	
-2.68478	
-2.39231	
-2.33427	
-2.96168	
-2.34094	
-2.85057	
-0.279952	
0.242753	
-2.67181	
-2.50636	
-2.64699	
-2.72472	
-2.27291	
-1.99615	
-2.20631	
-0.907613	
-0.875759	
0.923264	
1.42587	
0.180361	
0.810551	
-0.102852	
0.395785	
0.714395	
0.175369	
0.662751	
0.248559	
-1.7651	
-0.696043	
-0.721178	
-2.39891	
-1.81252	
-1.93439	
-1.81247	
-1.93838	
-2.28793	
-2.41616	
-2.2729	
-2.7598	
-2.2896	
-2.16182	
-2.06321	
-1.87335	
-1.75911	
-1.86767	
-1.91768	
-0.594983	
-0.456628	
-0.850321	
-0.669472	
0.556598	
0.342405	
0.839102	
0.70609	
-1.93722	
-2.58728	
-1.20844	
-1.2879	
-1.3488	
-1.52097	
-2.33502	
-0.660445	
-0.367586	
-1.57609	
-1.84218	
-1.58983	
-1.45751	
0.215886	
1.07596	
1.18935	
0.95287	
0.732459	
-1.75898	
-0.234079	
0.0982175	
-0.319771	
-0.00585888	
-2.77673	
-2.0856	
-1.5672	
-1.32111	
-1.21778	
-1.39822	
-1.3334	
-1.39412	
-1.34382	
-1.53442	
-1.76571	
-1.64065	
-1.7404	
-1.65129	
-1.65853	
-2.93004	
-2.62208	
-2.4145	
-2.4455	
-2.60217	
-2.47557	
-2.37502	
-2.35857	
0.543811	
0.413057	
-0.448614	
-2.53499	
-2.96838	
-2.32688	
-2.85743	
-2.47627	
-2.47049	
-2.29798	
-2.57564	
-2.7471	
-0.12612	
-1.08236	
-1.16084	
-1.15645	
-1.17195	
-1.60459	
-1.89331	
-3.05558	
-3.5496	
-2.5677	
-2.38489	
-2.44695	
-2.4075	
0.477049	
-0.0474472	
0.898175	
0.1297	
-2.06211	
-0.621643	
-1.69123	
-2.08103	
-0.859516	
-1.0726	
-1.64105	
-2.19694	
-1.49449	
-1.86958	
-2.85033	
-3.3615	
-2.69716	
-2.77813	
-0.994043	
-0.947017	
0.350492	
0.243871	
0.331436	
0.16391	
0.202571	
0.048224	
0.0745895	
-3.09264	
-3.43798	
0.392193	
0.299527	
0.536199	
-1.4139	
-1.01675	
-1.00921	
-0.681612	
-1.43748	
-1.56622	
-1.25146	
-1.25648	
0.0830302	
-0.20325	
0.0825445	
-0.140155	
-3.70431	
-3.66292	
-3.04966	
-0.667308	
-1.04068	
-1.07516	
-0.826518	
-2.16231	
-2.20957	
-2.61543	
-2.69729	
-2.49622	
-2.5495	
-1.16073	
-0.98653	
-0.94504	
-1.22774	
-1.18926	
-1.44354	
-1.81057	
-1.9811	
-2.28966	
-1.59276	
-1.54806	
-2.00591	
-1.78688	
-2.33204	
0.492009	
0.327379	
0.0127392	
-0.295907	
-0.132478	
-0.369165	
-1.28025	
-1.54749	
-1.27828	
-1.54935	
-1.91532	
-1.43156	
-2.2759	
-1.71395	
-1.78078	
-2.16088	
-2.33079	
0.833034	
0.557641	
0.456177	
-2.20129	
-2.26223	
-2.27373	
-2.23112	
-2.45916	
-2.29073	
-2.18723	
-2.19769	
0.0619446	
-0.0852254	
0.313987	
0.388051	
-0.586642	
-0.614416	
-0.139111	
-0.321195	
1.18003	
1.07627	
1.94489	
0.175378	
0.614914	
1.1596	
-1.71279	
-1.81508	
-1.95522	
-1.93995	
-2.11314	
-2.15705	
-2.49385	
-2.32813	
-2.37144	
-2.24997	
-2.90332	
-2.81509	
-0.805005	
-0.748838	
-0.997004	
-1.12578	
-1.25501	
-1.26553	
-1.48591	
-1.55195	
-1.29424	
-1.26122	
-1.46732	
-1.59726	
-2.26231	
-2.37154	
-2.35338	
-2.48459	
-2.41377	
-2.26413	
0.488332	
0.75822	
-1.89351	
-2.06467	
-2.02253	
-2.45809	
-2.32394	
-2.67653	
-3.23982	
-2.40193	
-2.34948	
0.706989	
-1.89754	
-1.81654	
-1.85095	
-2.3151	
-2.29973	
-2.58228	
-2.27503	
3.12437	
-1.99968	
-2.12453	
-1.87207	
-1.86435	
0.499127	
0.471394	
0.893053	
0.741617	
0.758641	
0.53181	
1.62125	
-2.13903	
-2.18642	
-2.54917	
-2.74617	
-2.72054	
0.840149	
-2.35285	
-2.51336	
-2.19785	
-2.20021	
0.555128	
0.44672	
-2.15687	
0.719823	
0.683114	
-1.6875	
-1.73588	
-1.57297	
-1.61778	
-1.7171	
-1.85418	
-2.63178	
-2.86437	
-2.09297	
-2.41653	
-1.62166	
-1.51355	
-1.40842	
-2.38563	
-2.08829	
-2.26191	
-2.25003	
-2.1305	
-1.93603	
-1.73357	
-1.60027	
-1.95993	
-1.77395	
-1.82997	
-1.92388	
0.897238	
0.715629	
0.847995	
-2.10641	
0.454792	
0.357801	
0.35697	
0.453516	
0.469276	
-2.29934	
-2.32699	
-2.35509	
0.072595	
0.181991	
-0.0131763	
0.131826	
-2.31589	
-2.18537	
-2.23244	
-2.30544	
-2.33661	
-2.63627	
-2.39866	
-2.69204	
-2.46791	
0.919346	
0.959577	
0.637949	
-3.21025	
-2.6171	
-3.35932	
-2.62222	
-1.84168	
0.377911	
-2.24197	
-2.21154	
1.72387	
1.2179	
1.25691	
0.696379	
-2.05782	
-1.86789	
-1.71531	
-0.818077	
-0.799419	
-0.464655	
-1.93807	
-1.93602	
-3.00406	
-2.42563	
-2.50224	
-2.47212	
-2.7494	
-0.178479	
-0.554412	
0.98955	
0.846201	
0.831509	
0.783693	
0.931579	
0.569645	
0.521526	
0.468434	
0.332738	
-2.61991	
-2.45041	
-2.50243	
-2.39314	
-2.12993	
-2.08145	
-2.452	
-2.81896	
-2.89086	
0.230368	
0.103279	
-0.299579	
-2.42169	
-2.60832	
-1.94596	
-2.03777	
-2.19525	
-2.10556	
-2.29323	
-2.18547	
-2.13839	
-2.14276	
-1.932	
-1.97133	
-2.03333	
-2.14007	
-2.2116	
-1.96366	
-1.88697	
-2.0227	
-1.82701	
0.945815	
0.424989	
-1.92121	
-2.03911	
-2.04273	
-2.39092	
-1.0419	
-1.25813	
-1.78217	
-1.81998	
-2.16314	
-2.18957	
-2.13285	
-2.21836	
-1.33968	
-1.49671	
-2.49734	
-2.5352	
-2.44671	
-2.41626	
-2.38808	
-2.34018	
-2.31303	
-2.3079	
-1.91116	
-2.16512	
-1.5671	
-1.57303	
-2.50956	
-2.97007	
-2.91055	
-2.31987	
-2.65914	
-2.43587	
-0.114603	
-0.449726	
-0.516858	
0.599505	
0.433181	
-2.075	
-2.14572	
-2.11628	
-0.516666	
-0.507829	
-0.400411	
-2.21125	
-2.08369	
-2.22882	
-2.03462	
-0.654936	
-0.535408	
-0.828893	
-0.970298	
-1.24413	
-2.17475	
-2.02969	
0.933441	
1.25376	
1.55615	
1.07871	
-0.254705	
-0.333855	
0.543278	
0.645018	
0.50747	
0.68201	
-2.57614	
-2.75812	
-2.49668	
-2.69877	
-0.999601	
-0.81694	
-0.381491	
2.0781	
3.07109	
-2.68794	
-2.8082	
-3.0048	
-3.45838	
-0.463778	
-0.31717	
-0.822192	
-0.535688	
0.780499	
0.6941	
0.535131	
0.426193	
0.382986	
-0.255812	
-0.52229	
0.0543604	
-0.398234	
0.546566	
0.539924	
-2.06014	
-2.65533	
-2.03763	
-2.23375	
-0.792454	
-1.03448	
-0.982786	
-1.18263	
1.72776	
1.53732	
-2.5809	
-2.41042	
0.551107	
0.550256	
0.807085	
0.760765	
0.828654	
0.466367	
-0.00216044	
-0.0919776	
-0.151202	
-0.123834	
-0.0542074	
-0.035438	
-0.0828782	
0.0547048	
0.0912225	
0.212573	
0.298381	
0.260102	
0.149354	
0.00859615	
-0.175002	
-0.158464	
-0.12536	
-0.139673	
-0.084814	
0.299738	
-0.0270002	
0.257976	
0.128636	
0.198883	
0.0558854	
-0.188385	
0.262322	
0.189757	
0.0311691	
-0.0799768	
0.0880211	
-0.235009	
-0.274361	
-0.354125	
-0.322	
-0.354892	
-0.35949	
-0.169731	
0.233957	
0.151923	
-0.23549	
-0.0662033	
-0.137919	
0.0287284	
-0.238886	
-0.288786	
-0.273266	
-0.27158	
-0.275686	
-0.276235	
0.281576	
1.65275	
0.173173	
1.592	
1.57615	
1.50978	
1.89246	
0.999494	
0.932857	
0.958223	
0.987324	
1.12976	
0.328512	
0.171985	
1.56357	
0.492657	
0.144333	
0.343814	
1.74524	
2.90495	
0.717205	
0.921976	
1.37444	
1.23783	
1.30937	
1.17624	
0.97408	
1.25716	
1.23219	
0.658506	
0.725087	
0.73987	
1.03907	
0.513472	
1.15822	
1.2288	
1.25046	
1.3639	
1.16994	
0.971245	
1.16004	
1.2073	
1.31118	
1.29482	
1.42835	
1.40302	
1.25359	
1.31624	
1.31507	
1.24577	
1.26264	
1.2466	
1.31241	
1.26632	
0.724938	
0.735364	
1.21213	
1.21343	
1.30236	
1.27249	
1.54093	
1.25301	
1.35903	
1.12261	
1.25467	
0.78755	
1.19702	
1.30534	
1.19707	
1.23377	
1.34779	
1.39307	
1.18043	
1.21217	
1.34836	
1.22013	
1.21147	
1.35684	
1.32318	
1.31303	
1.14467	
1.13678	
1.25611	
0.917957	
1.49104	
1.14786	
0.558176	
1.41458	
1.2499	
0.682281	
1.37158	
1.24401	
1.28457	
1.43642	
1.23758	
1.28428	
1.22612	
1.25622	
0.998834	
1.04753	
1.09004	
1.46491	
1.35949	
1.02785	
1.25582	
1.25681	
1.2926	
1.10146	
0.949918	
1.00656	
1.00694	
1.1751	
1.17365	
1.12722	
1.08971	
1.12768	
1.20457	
1.26696	
1.18843	
1.24583	
1.39127	
1.24118	
1.1987	
1.29463	
1.25244	
1.2457	
1.27019	
1.24147	
1.28768	
1.20993	
1.23071	
1.23582	
1.24734	
1.3305	
1.38094	
1.46915	
1.49276	
0.900363	
0.969254	
1.33932	
1.23115	
0.554404	
1.36236	
1.43971	
0.370449	
1.23875	
1.08066	
1.12208	
1.11279	
1.13823	
1.2707	
1.17109	
1.20483	
0.666536	
0.359791	
0.315159	
0.458758	
2.0304	
1.138	
1.012	
0.483023	
1.5732	
1.47909	
1.165	
1.26033	
1.31874	
1.58244	
1.29166	
1.22285	
1.31413	
1.20179	
2.83204	
3.01344	
1.0314	
0.892324	
1.07469	
0.997211	
1.2791	
1.33692	
0.941804	
1.0094	
0.95861	
0.776447	
0.70248	
1.21839	
1.27679	
1.22171	
1.01392	
1.0461	
0.869328	
1.1679	
0.627774	
0.59341	
0.652437	
0.714025	
0.726853	
0.820264	
0.807997	
0.742975	
0.780037	
0.836249	
0.875825	
1.34517	
1.29607	
1.28192	
0.659868	
0.493552	
0.617966	
0.530248	
1.52478	
1.38817	
1.36244	
1.07465	
1.09356	
1.26355	
1.29828	
1.28766	
1.44757	
1.38194	
1.47746	
1.3973	
1.49365	
0.991894	
1.15601	
0.92477	
1.29947	
1.28487	
0.505691	
0.414826	
1.46892	
1.37378	
1.29954	
1.38402	
1.33836	
1.44342	
1.00747	
1.33007	
1.27517	
1.28833	
1.30593	
1.51361	
1.47804	
1.51098	
1.37582	
1.09526	
1.08761	
1.10941	
1.27975	
1.25123	
1.27447	
1.29463	
1.28715	
1.27145	
1.50415	
1.4697	
1.38699	
1.28224	
1.37764	
1.23981	
1.20519	
1.4884	
1.26442	
1.07241	
0.950029	
0.869441	
1.31209	
1.40303	
1.39581	
1.07705	
1.17554	
1.31627	
1.05358	
1.00913	
1.07742	
1.52941	
1.24151	
1.34236	
1.23296	
1.23556	
1.23	
1.14541	
1.14749	
1.16435	
0.84123	
0.917646	
1.4899	
1.39419	
1.30486	
1.58435	
1.54607	
1.15307	
1.15587	
1.08704	
1.17805	
1.19436	
1.37805	
1.32053	
1.32051	
0.943613	
0.928246	
0.976471	
1.04353	
1.06648	
1.04396	
1.08313	
0.923987	
0.680042	
1.20817	
1.38237	
1.22884	
1.36223	
1.3062	
1.22813	
1.33613	
1.3778	
1.19988	
1.20745	
1.05858	
0.948305	
1.48596	
1.50722	
1.3797	
1.41425	
1.02087	
1.02374	
1.30624	
1.19708	
1.28959	
1.26604	
1.21925	
1.24519	
1.25784	
1.3295	
1.32683	
1.06654	
1.05918	
1.23723	
1.08517	
1.22483	
1.23448	
1.19659	
1.22297	
1.2126	
1.24238	
1.23	
1.15763	
1.12323	
1.14575	
1.12447	
1.20058	
1.23817	
1.15379	
1.29726	
1.2363	
1.04862	
1.04014	
1.17947	
1.3249	
1.26408	
1.28262	
1.26388	
1.13006	
1.458	
1.36688	
1.34876	
1.36824	
1.44055	
1.11963	
1.10519	
1.13826	
1.11838	
1.1092	
1.12596	
1.1238	
1.13098	
1.3347	
1.40454	
1.45083	
1.40327	
1.03529	
0.581929	
0.440815	
1.2463	
1.2699	
1.25633	
1.331	
1.46413	
1.44836	
1.45037	
1.44337	
1.14226	
1.19139	
1.12246	
1.26443	
1.31156	
1.41126	
1.42099	
1.02944	
1.06354	
1.03784	
1.0898	
0.265726	
0.277887	
1.54323	
1.45036	
1.35132	
1.36149	
1.21973	
1.34895	
1.09402	
1.01162	
1.08263	
1.02608	
1.041	
1.08457	
1.18217	
1.0485	
1.08521	
1.01744	
1.07411	
1.10284	
1.23087	
1.19587	
1.23573	
0.466227	
0.526046	
0.606957	
1.22065	
1.27763	
1.23051	
1.26291	
1.32566	
1.40738	
1.43058	
0.689955	
1.12828	
1.05666	
1.13578	
1.05646	
0.928391	
0.839588	
1.05394	
0.979852	
1.26503	
1.26895	
1.30549	
1.29103	
1.37062	
1.26604	
1.30799	
1.26661	
1.33701	
1.30845	
1.45277	
1.3593	
1.41627	
1.52898	
1.55511	
1.48564	
1.47228	
1.50461	
1.34592	
1.47413	
1.15228	
1.12078	
1.55564	
1.40676	
1.29049	
1.25835	
1.33695	
1.4079	
1.37123	
1.41661	
1.29427	
1.60166	
1.24064	
1.29084	
1.30693	
1.29179	
1.29218	
1.34924	
1.34177	
1.24185	
1.21154	
1.33131	
1.29734	
1.46148	
1.39026	
0.824531	
0.7585	
0.813907	
0.74468	
1.12703	
1.18635	
1.13784	
0.564522	
0.664947	
1.24807	
1.21302	
0.484644	
0.407778	
1.04647	
1.02759	
1.1533	
1.11313	
1.26123	
1.25391	
1.26523	
1.19626	
1.19223	
1.21648	
1.17199	
1.11689	
1.1226	
1.20053	
1.08757	
1.1011	
1.10874	
1.24294	
1.2206	
1.23671	
1.17712	
1.33643	
1.28532	
1.27309	
1.22796	
1.31596	
1.30284	
1.35465	
1.31658	
1.39198	
0.937496	
0.909637	
0.9271	
0.813226	
1.51268	
1.59019	
1.51801	
1.47438	
1.50505	
1.50285	
1.30448	
1.4808	
1.44229	
1.49427	
1.46863	
1.28812	
1.30244	
1.28176	
1.36175	
0.958692	
0.967633	
0.981291	
1.23402	
1.26721	
1.30344	
1.07576	
1.06607	
1.48358	
1.13351	
1.09792	
0.993699	
1.06987	
1.26731	
1.3035	
1.07715	
1.02552	
0.889517	
0.798236	
1.07611	
1.09535	
1.09987	
0.740685	
0.662165	
1.33284	
1.1221	
0.675968	
0.713554	
1.66415	
1.602	
1.26561	
1.24995	
1.30315	
1.10488	
1.11187	
1.22631	
1.24934	
0.445364	
1.15006	
1.27399	
1.3173	
1.22503	
1.24497	
1.12732	
1.18468	
1.30808	
1.26319	
1.25999	
0.933713	
0.942628	
0.914051	
0.935158	
1.27328	
1.30689	
1.28387	
1.31615	
1.33763	
1.15546	
1.30882	
1.22297	
1.20057	
1.68904	
2.28449	
1.3754	
1.00203	
1.08903	
1.44324	
1.31353	
1.29672	
0.904857	
1.17465	
1.25101	
1.33288	
1.3532	
1.25894	
1.29649	
1.23184	
1.21319	
1.22714	
1.22665	
1.28558	
1.31497	
1.34608	
1.32152	
0.776946	
0.744442	
1.13857	
1.10994	
1.28182	
1.24394	
1.20806	
1.20868	
1.2066	
1.4954	
1.37897	
1.08869	
1.02615	
1.11631	
1.05488	
1.36141	
1.34736	
1.39645	
1.296	
1.41965	
1.32576	
1.42279	
1.39943	
1.10043	
1.02843	
1.06516	
1.00862	
1.04396	
1.20957	
1.15728	
1.3194	
1.164	
1.28404	
1.28185	
1.39578	
1.43625	
1.09271	
1.07795	
1.09879	
1.11615	
1.27027	
1.26448	
1.14892	
1.15347	
1.13589	
1.11563	
1.2478	
1.27349	
1.2012	
1.20145	
1.20938	
1.02628	
1.09317	
0.908075	
1.02955	
1.21472	
1.20746	
1.17664	
1.24612	
1.30623	
1.38401	
1.23404	
1.26685	
1.28135	
1.28534	
1.34096	
1.35599	
1.29013	
1.42537	
1.29852	
0.883899	
0.898375	
1.40417	
1.2585	
1.29158	
1.27345	
1.28701	
1.29782	
1.27294	
1.27516	
1.25018	
1.24996	
1.58151	
1.46189	
1.84439	
1.49889	
0.352877	
0.36088	
0.23347	
0.145655	
1.00335	
1.05323	
1.00523	
1.01459	
1.17072	
1.1949	
1.15679	
1.16734	
1.33639	
1.31149	
1.26441	
1.25642	
0.869007	
0.857052	
0.884982	
0.802332	
1.23378	
1.35387	
1.18945	
1.18334	
1.21496	
1.12942	
1.29146	
1.18124	
1.24667	
1.27326	
1.32621	
1.46851	
1.35568	
1.34882	
1.32773	
1.34376	
1.43706	
1.46873	
0.480145	
1.19939	
1.20051	
1.12594	
1.10032	
1.09959	
1.21432	
1.3665	
1.01158	
1.10529	
1.08762	
1.23667	
0.524419	
0.626653	
0.598955	
0.411532	
0.338247	
0.317659	
0.981968	
1.18761	
1.19319	
0.550943	
0.501607	
0.786135	
0.30272	
0.420618	
0.633753	
0.463546	
0.468567	
1.21349	
1.25602	
1.18355	
1.30213	
1.35341	
1.27166	
1.19915	
1.40332	
1.03687	
0.96908	
0.987373	
1.15111	
1.11579	
1.155	
1.14639	
1.21624	
1.22172	
1.24043	
1.29393	
0.513417	
0.583087	
1.17187	
1.18988	
1.21363	
1.52077	
1.71583	
1.08669	
1.15755	
0.95403	
0.532972	
0.619724	
0.65004	
0.526309	
0.62983	
1.36229	
1.32125	
1.23252	
1.47259	
1.05719	
1.0206	
0.552653	
0.610307	
1.30894	
1.18583	
1.20326	
1.18308	
0.541369	
0.607866	
0.453426	
0.547225	
0.279234	
0.385447	
0.41246	
1.19539	
1.57499	
1.16356	
1.27471	
1.34698	
1.30311	
1.28034	
1.23967	
0.772198	
0.718299	
0.83734	
0.767574	
1.19394	
1.25543	
1.11862	
1.11402	
0.180203	
0.384861	
0.306832	
0.868395	
0.81853	
0.981392	
0.833737	
0.960443	
0.951641	
1.00421	
0.974338	
0.348423	
0.239334	
0.345729	
0.236986	
0.84146	
0.827641	
0.883046	
-2.60935	
-4.00739	
-3.08236	
-3.29714	
-3.95192	
0.970453	
2.61821	
0.682539	
0.822853	
-0.744312	
-1.00942	
0.849924	
-0.812538	
-0.957122	
-1.51639	
-1.03411	
-2.49832	
-2.5555	
-1.89177	
-1.15727	
-2.54523	
-2.56178	
-0.317116	
0.000461223	
-0.145616	
-1.5123	
-2.19664	
-1.89551	
-1.62421	
-1.16987	
-1.10771	
-2.48732	
-2.53104	
-2.44183	
-2.47069	
-2.35024	
-2.70218	
-0.467746	
-3.05278	
-1.46368	
0.127023	
0.367118	
-1.91342	
-2.17615	
0.6004	
1.37354	
-2.14125	
-1.11105	
0.276159	
-0.744935	
-1.78659	
-1.99391	
-1.83564	
-1.95598	
-2.61442	
-3.21957	
-3.10165	
-0.704927	
-0.220664	
-1.15733	
-1.20478	
-2.58504	
-2.23027	
-1.65132	
-1.09591	
-1.29915	
-1.0149	
-1.29613	
-0.546863	
-1.48818	
-1.12742	
-1.78597	
-0.973762	
-2.13371	
-2.38383	
-0.341849	
-1.54864	
-1.98133	
-1.02415	
-0.887914	
-0.525755	
-2.49428	
-3.26302	
-2.51305	
-2.1467	
-1.28992	
-2.1485	
-2.11502	
-2.12982	
-0.646384	
-0.935115	
-2.35919	
-2.45054	
0.657953	
0.0257676	
0.438146	
0.374978	
-2.39677	
-2.82082	
-2.47259	
-2.93744	
0.0779069	
0.149115	
0.373779	
-1.1031	
-1.01674	
-0.929052	
-0.880434	
-2.28433	
-2.64354	
-2.47122	
-2.59449	
0.628863	
-2.06479	
-1.21383	
0.797371	
-0.193763	
0.29792	
-1.77709	
-2.64033	
-1.07662	
1.88105	
1.11637	
0.648738	
0.0212077	
0.151412	
0.00859374	
-0.479844	
-0.368999	
-2.37097	
-1.9575	
-2.12233	
-1.9562	
-1.61203	
-1.35195	
-1.64507	
-1.40025	
-0.421906	
0.416964	
-2.61496	
-2.4256	
-2.46042	
-2.30246	
0.260988	
0.250905	
0.415795	
0.447621	
-1.68457	
-1.93129	
-1.40117	
-1.44245	
-0.215765	
-0.994826	
-0.196384	
-0.938176	
-3.14062	
-2.20049	
-1.89689	
-2.59197	
-2.74732	
-2.80864	
-1.59541	
-2.14119	
-2.33093	
-2.55069	
-1.93717	
-2.83722	
-2.5167	
-2.09617	
-1.99337	
-2.30898	
-2.39823	
0.726996	
0.788225	
-1.5474	
-1.41904	
-1.52994	
-1.01365	
-1.44348	
-1.59563	
-1.44143	
-1.00118	
-2.07933	
1.47518	
1.69811	
0.154778	
0.00288195	
-2.92267	
-3.04578	
2.19893	
1.2397	
-2.11231	
-1.86863	
-2.18354	
-0.176263	
0.131453	
-0.0835695	
0.849051	
0.935243	
0.587515	
0.648699	
1.25015	
0.671036	
0.728808	
0.559321	
-2.31086	
-3.49114	
-3.43776	
0.977777	
0.546255	
0.731986	
0.236063	
-0.765988	
-0.4239	
-2.35772	
-2.53749	
-2.34824	
-2.38347	
-2.06956	
-2.06009	
-2.40197	
-2.16736	
-2.22847	
-2.4116	
-2.58745	
-2.98134	
-2.51164	
-2.5038	
-2.52108	
-2.47117	
0.00292697	
0.0786718	
-1.45867	
-1.42982	
-1.1102	
-1.59599	
-0.0232612	
-0.422621	
-0.293837	
0.423885	
-2.50695	
-2.61676	
-2.56947	
-2.50256	
-2.59149	
-2.59836	
-2.82037	
-3.19181	
-2.43955	
-2.4499	
-2.43873	
-2.42415	
-2.8712	
-3.07341	
-2.74131	
-3.00459	
-0.57206	
-0.749282	
-0.303218	
-0.590725	
-1.66511	
-1.74588	
-2.05181	
-1.84484	
1.84086	
1.57413	
-0.929609	
-1.13294	
-1.26843	
-1.32157	
-1.15258	
-0.521869	
-0.830393	
-0.823168	
-1.21596	
-3.18961	
-3.48949	
-1.00692	
-0.962308	
-0.680003	
-1.44916	
-1.31464	
-1.26714	
-1.13237	
-0.977826	
-0.839279	
-0.533547	
-1.18727	
-1.50925	
-0.760476	
-1.05207	
-0.345587	
-0.0742335	
-0.54749	
-0.415108	
-1.48133	
-1.95266	
-2.01547	
-1.87897	
0.660396	
-2.55814	
0.0334942	
0.373723	
-4.08819	
-4.12449	
0.680069	
0.926775	
1.2655	
1.39597	
-1.66057	
-1.92258	
-1.53483	
-1.63413	
-2.42949	
-2.76543	
-2.4655	
-2.36149	
-2.60446	
-2.59598	
-2.98996	
-3.11427	
-1.77731	
-2.45016	
-1.92478	
-2.61222	
-2.7318	
-2.25986	
-2.89802	
-2.29539	
0.334898	
-0.280086	
0.245475	
-2.96768	
-3.02339	
-2.884	
-3.48094	
-2.17917	
-2.34354	
-2.82871	
-0.954768	
-0.97777	
1.44887	
1.10221	
0.755688	
0.200872	
0.425107	
-0.0076647	
0.37508	
0.287199	
0.80046	
0.448086	
-1.77653	
-0.582892	
-0.834805	
-2.45683	
-1.96548	
-1.73755	
-1.95804	
-1.82607	
-2.47687	
-2.22213	
-2.51861	
-2.30584	
-2.22877	
-2.35817	
-2.45086	
-1.77956	
-2.05776	
-2.02068	
-0.825141	
-0.647973	
-0.576839	
-0.440873	
0.354541	
0.568711	
0.543728	
0.855615	
-1.39567	
-1.33542	
-1.61417	
-1.51697	
-1.79821	
-2.65424	
-1.01237	
-0.477386	
-1.65068	
-1.95854	
-1.85781	
-1.60537	
0.187829	
1.21506	
0.95161	
0.836476	
0.973426	
-2.00352	
-0.315222	
0.0529981	
-0.231759	
0.166952	
-3.04398	
-2.04945	
-2.38732	
-1.65573	
-1.43655	
-1.3858	
-1.41408	
-1.48403	
-1.51092	
-1.47843	
-1.72567	
-1.85738	
-1.62399	
-1.67475	
-1.948	
-1.84002	
-2.88813	
-2.77541	
-2.77858	
-2.82588	
-2.4044	
-2.43119	
-2.45863	
-2.68307	
0.41708	
0.548806	
-2.64678	
-2.80087	
-2.51159	
-2.80252	
-2.50306	
-2.62485	
-2.49867	
-2.79463	
-3.00449	
-0.238146	
-1.32989	
-1.27281	
-1.09926	
-1.05256	
-1.68178	
-1.463	
-3.92949	
-3.85793	
-2.53876	
-2.45833	
-2.62189	
-2.52085	
0.0857656	
0.510413	
0.160595	
0.561317	
-2.07103	
-0.979985	