<VTKFile type="UnstructuredGrid" version="0.1" byte_order="LittleEndian">
	<UnstructuredGrid>
		<Piece NumberOfPoints="1917" NumberOfCells="3602">
			<CellData Scalars="scalars">
				<DataArray type="Float64" Name="Doublet Strengths" NumberOfComponents="1" Format="ascii">
1.51575	
0.305649	
1.2466	
1.22397	
1.13633	
2.95571	
0.592853	
0.584498	
0.560841	
0.552004	
0.712081	
0.315667	
0.110271	
2.57536	
0.298477	
0.127896	
0.244966	
2.65396	
0.447984	
0.769588	
0.690027	
0.692347	
0.840526	
0.492812	
0.562237	
0.529241	
0.734341	
0.418742	
0.789475	
0.846949	
0.781413	
0.936722	
0.823606	
0.616266	
0.720579	
0.694098	
0.765803	
0.866286	
0.848076	
1.0093	
0.922203	
0.927742	
0.827355	
0.881824	
0.86013	
0.918784	
0.822458	
0.901553	
0.82083	
0.503893	
0.555262	
0.787032	
0.799056	
0.752223	
0.770422	
1.10718	
0.791222	
0.75555	
0.716708	
0.812647	
0.557209	
0.844877	
0.861487	
0.767305	
0.793262	
0.880752	
0.922934	
0.7892	
0.826984	
0.841261	
0.775051	
0.793686	
0.821016	
0.930236	
0.864929	
1.00108	
0.626054	
1.53302	
0.493127	
0.397306	
0.804671	
0.768349	
0.842518	
0.487036	
0.882599	
0.98574	
0.85065	
1.02412	
0.789422	
0.824243	
0.683746	
0.631232	
0.837307	
0.751292	
0.787411	
0.680032	
0.822579	
0.870328	
0.685899	
0.821285	
0.693131	
0.665232	
0.906619	
0.848903	
0.727024	
0.746014	
0.724448	
0.83653	
0.877601	
0.843665	
0.895675	
0.864135	
0.910298	
0.828891	
0.788528	
0.819248	
0.828832	
0.824538	
0.810525	
0.815982	
0.811943	
0.818999	
0.80008	
0.802517	
0.805972	
1.06193	
0.908884	
0.99151	
0.868385	
0.662708	
0.578725	
0.945197	
0.96252	
0.403983	
0.996771	
1.07161	
0.845064	
0.726224	
0.702343	
0.737824	
0.727393	
0.823633	
0.776717	
0.760548	
0.47147	
0.240317	
0.281122	
0.35725	
1.25014	
1.65882	
1.07628	
0.643587	
0.716722	
0.382632	
0.308929	
1.21866	
1.10123	
0.780954	
0.925636	
0.445197	
0.982698	
0.890326	
0.817837	
0.813234	
0.756879	
2.94427	
2.86222	
0.662632	
0.64571	
0.627097	
0.61557	
0.827949	
0.83881	
0.592711	
0.582771	
0.629282	
0.668129	
0.656708	
0.595276	
0.545143	
0.800216	
0.77641	
0.791929	
0.619167	
0.590398	
0.639531	
0.753018	
0.472285	
0.650077	
0.499029	
0.371726	
0.404478	
0.452276	
0.541809	
0.575055	
0.579803	
0.591457	
0.528212	
0.547763	
0.638284	
0.750475	
0.850579	
0.921096	
0.836836	
0.453801	
0.439156	
0.478845	
0.453885	
1.14088	
1.41282	
1.05432	
1.01139	
1.03844	
0.726146	
0.67342	
0.47387	
0.407954	
0.864261	
0.832974	
0.899992	
0.837604	
1.07413	
0.961242	
1.05942	
0.971845	
0.56327	
0.587527	
0.313481	
1.11137	
1.00801	
0.8192	
0.771835	
0.788159	
0.759802	
0.62438	
0.886819	
0.917515	
0.896347	
0.86101	
0.950306	
0.940945	
1.08552	
1.07425	
0.773505	
0.780736	
0.772985	
0.764688	
0.829457	
0.858012	
0.859379	
0.827509	
0.81587	
0.825685	
0.816201	
1.08372	
0.995483	
1.06336	
0.9369	
0.336816	
0.322969	
0.995348	
0.821126	
0.860362	
0.784364	
0.957222	
0.670779	
0.707643	
0.610489	
0.881626	
0.979722	
0.980302	
0.778296	
0.944586	
0.784437	
0.745555	
0.740969	
0.765949	
0.779162	
0.770663	
0.791766	
0.795007	
0.731392	
0.729418	
0.72783	
0.755329	
0.664525	
0.718708	
0.874565	
1.04959	
0.950714	
1.18129	
1.23607	
0.819091	
0.75858	
0.760306	
0.953794	
0.80524	
0.892485	
0.964364	
0.628319	
0.629884	
0.644208	
0.82029	
0.660599	
0.791496	
0.675948	
0.568094	
0.501942	
0.786343	
1.00292	
0.955948	
0.891035	
0.966247	
0.819526	
0.929805	
0.996428	
1.02892	
0.856365	
0.575227	
0.746114	
0.956307	
1.08912	
1.0633	
1.09626	
0.60977	
0.645338	
0.68311	
0.757386	
0.74701	
0.874301	
0.836265	
0.813493	
0.950718	
0.943619	
1.01698	
1.0446	
0.757267	
0.827272	
0.772252	
0.822852	
0.775156	
0.797916	
0.772116	
0.811835	
0.779565	
0.799289	
0.832271	
0.795262	
0.824048	
0.797247	
0.954279	
0.881519	
1.09469	
0.89525	
0.765122	
0.705951	
0.762655	
0.69526	
0.637787	
0.855401	
0.850187	
0.870441	
0.841381	
0.713476	
1.04644	
0.997918	
0.901082	
0.907586	
0.782329	
0.796736	
0.791224	
0.803745	
0.786304	
0.779884	
0.812921	
0.810679	
1.01103	
0.897772	
0.866912	
0.978278	
0.748954	
0.659076	
0.420682	
0.333697	
0.856984	
0.840533	
0.79387	
0.808911	
0.804296	
0.791879	
0.774501	
0.785528	
0.73681	
0.71083	
0.744555	
0.706977	
0.800638	
0.776836	
0.874875	
0.786423	
0.688293	
0.670422	
0.696399	
0.696824	
0.275341	
0.233636	
1.08578	
1.15658	
0.909106	
0.953923	
0.827423	
0.975386	
0.647574	
0.67225	
0.628553	
0.67147	
0.699677	
0.851343	
0.788496	
0.741439	
0.781102	
0.696499	
0.680549	
0.775781	
0.734283	
0.851206	
0.787283	
0.304078	
0.412235	
0.359503	
0.89504	
0.837544	
0.88509	
0.836327	
0.920391	
1.04064	
1.03131	
0.59852	
0.580074	
0.583772	
0.770364	
0.770407	
0.823877	
0.761008	
0.80666	
0.619889	
0.70877	
0.632557	
0.840103	
0.836913	
0.860251	
0.865712	
0.803026	
0.804417	
0.797211	
0.796827	
0.855672	
0.923574	
0.914852	
1.03387	
0.957193	
1.05327	
1.02362	
0.951303	
1.08026	
0.936872	
1.04848	
1.02299	
0.733796	
0.707654	
0.796638	
0.983316	
0.915947	
1.00476	
0.908526	
0.960844	
0.883107	
0.731913	
0.779471	
0.833422	
0.822522	
0.856961	
0.872676	
0.853296	
0.910594	
0.891184	
0.778008	
0.799245	
0.861418	
0.898984	
0.592818	
0.504537	
0.581641	
0.539587	
0.737447	
0.699301	
0.412323	
0.348772	
0.759988	
0.756575	
0.35916	
0.304536	
0.632404	
0.671939	
0.68697	
0.690875	
0.730816	
0.778249	
0.742989	
0.7798	
0.756987	
0.761459	
0.783778	
0.67598	
0.68563	
0.718868	
0.733907	
0.714072	
0.660382	
0.791171	
0.74835	
0.802426	
0.775545	
0.833615	
0.813534	
0.871528	
0.846003	
0.919772	
0.879758	
0.888338	
0.863965	
0.715361	
0.64595	
0.774028	
0.648447	
0.73632	
1.28591	
1.11641	
1.06749	
1.1001	
1.03949	
0.98627	
0.87602	
1.08207	
1.02549	
0.897862	
1.08414	
0.861733	
0.896302	
0.843836	
0.958784	
0.762329	
0.756349	
0.634809	
0.627642	
0.633339	
0.851173	
0.897726	
0.833126	
0.700704	
0.680402	
0.696842	
0.721102	
0.686915	
0.637915	
0.675346	
0.849218	
0.927341	
0.874181	
0.674879	
0.611889	
0.561632	
0.748097	
0.498433	
0.588584	
0.676035	
0.683829	
0.703971	
0.864591	
0.525941	
0.51421	
0.79649	
0.514475	
0.636253	
0.82185	
0.796153	
0.788947	
0.836203	
0.953221	
0.844404	
0.706404	
0.684752	
0.898253	
0.782255	
0.415402	
0.544803	
0.747632	
0.881536	
0.893623	
0.886505	
0.942486	
0.736836	
0.777226	
0.814074	
0.768788	
0.766791	
0.605784	
0.597355	
0.612101	
0.600804	
0.864089	
0.900228	
0.849153	
0.882923	
0.842627	
0.997017	
0.980505	
0.791988	
0.773156	
0.79601	
0.848391	
0.730614	
0.682787	
0.650194	
0.913997	
0.846201	
0.963308	
0.904515	
0.95446	
0.818698	
0.955086	
0.667392	
0.603372	
0.543001	
0.732493	
0.716068	
0.751225	
0.724347	
0.984078	
0.957953	
0.92029	
0.871268	
0.775078	
0.802521	
0.792858	
0.807249	
0.922466	
0.895795	
0.880373	
0.900162	
0.466076	
0.458912	
0.758873	
0.799552	
0.772794	
0.693071	
0.755011	
0.683577	
0.791543	
1.02707	
0.890392	
1.0088	
0.986008	
0.927034	
1.02434	
1.00769	
1.05009	
0.638503	
0.65044	
0.71301	
0.676443	
0.709351	
0.867437	
0.859205	
0.839506	
0.854443	
0.817424	
0.767461	
0.818846	
0.770809	
0.810249	
0.82121	
0.837214	
0.870155	
0.924752	
0.987961	
0.647484	
0.670897	
0.697447	
0.678968	
0.866218	
0.923052	
0.801713	
0.799512	
0.814419	
0.712338	
0.720801	
0.678748	
0.709269	
0.772066	
0.774513	
0.725988	
0.637605	
0.654174	
0.564042	
0.75178	
0.753678	
0.750757	
0.751925	
0.927412	
0.887702	
0.870048	
0.860471	
0.66577	
0.781853	
0.911051	
0.889735	
0.621251	
0.61074	
0.888321	
0.905112	
0.966204	
0.88755	
0.883173	
0.897761	
0.866474	
0.845677	
0.834863	
0.826643	
1.10695	
1.23922	
1.15033	
1.32307	
0.239797	
0.253788	
0.124803	
0.173349	
0.715297	
0.646969	
0.72501	
0.659818	
0.796187	
0.759141	
0.773421	
0.753621	
0.922472	
0.937304	
0.82861	
0.837311	
0.596571	
0.517421	
0.548174	
0.524182	
0.89724	
0.824372	
0.788957	
0.789845	
0.75012	
0.757508	
0.739585	
0.746387	
0.833518	
0.861172	
0.837021	
0.854905	
0.819982	
0.83956	
0.808859	
0.299814	
0.8065	
0.800158	
0.676499	
0.693218	
0.684491	
0.266868	
0.375058	
0.673375	
0.637909	
0.60445	
0.569361	
0.534683	
0.682132	
0.654599	
0.626096	
0.606802	
0.340245	
0.455566	
0.343035	
0.903831	
0.872217	
1.02197	
0.831871	
0.844248	
0.907493	
0.759189	
0.738502	
0.756418	
0.704762	
0.979199	
1.01143	
1.15725	
1.25357	
0.866093	
0.806311	
0.735577	
0.698479	
0.718162	
0.728523	
0.729233	
0.531263	
0.507965	
0.769528	
0.784943	
0.864441	
0.874	
0.423079	
0.367884	
0.420308	
0.750632	
0.755018	
0.748441	
1.82412	
1.3203	
0.718164	
0.674592	
0.431045	
0.894245	
0.933767	
0.978615	
1.40521	
0.623701	
0.63052	
0.723277	
0.705983	
0.32409	
0.304426	
0.396777	
0.395853	
0.814589	
0.810409	
0.758115	
0.766058	
1.08085	
1.00479	
0.556076	
0.545381	
0.961791	
0.805504	
0.730094	
0.728189	
0.692442	
0.729065	
0.801143	
0.791735	
0.914274	
0.853482	
0.975038	
0.836929	
0.932912	
0.791691	
0.41273	
0.371702	
0.308856	
0.295064	
0.634326	
0.620405	
0.615875	
0.604565	
0.476865	
0.50344	
-1.85401	
-3.38099	
-2.3443	
-2.35371	
-2.61664	
-1.65216	
0.627838	
2.3814	
0.3727	
0.635752	
-0.473607	
-0.50777	
0.511229	
-0.441344	
-0.52177	
-1.20244	
-0.695939	
-1.62283	
-1.55533	
-1.65571	
-1.22233	
-0.793256	
-1.59343	
-0.224926	
-0.0428842	
-0.0883535	
-0.932697	
-1.35898	
-1.22691	
-1.13798	
-0.6906	
-0.810738	
-1.61869	
-2.30875	
-1.6003	
-1.53589	
-1.62766	
-1.45884	
-0.350157	
-2.22806	
-1.01482	
0.0348207	
0.193949	
-1.35104	
-1.51784	
0.316496	
0.767803	
-1.62136	
-0.800596	
0.1485	
-0.494171	
-1.3003	
-2.11871	
-1.06108	
-1.4175	
-1.58621	
-2.29996	
-2.05622	
-0.487047	
-0.126739	
-0.908701	
-0.899818	
-1.64808	
-1.20632	
-1.49987	
-0.717554	
-0.987858	
-0.613515	
-0.856848	
-0.140457	
-1.05888	
-0.587012	
-1.08005	
-0.776439	
-1.89076	
-1.86504	
-0.288075	
-2.16442	
-1.35297	
-0.783635	
-0.388963	
-0.681036	
-1.32886	
-1.55343	
-1.62132	
-1.62261	
-1.51273	
-1.02579	
-1.51763	
-1.71652	
-1.5914	
-0.456327	
-0.642923	
-1.63478	
-1.63664	
0.279917	
-0.0528938	
0.220131	
0.210198	
-1.7694	
-2.29714	
-1.60313	
-2.18959	
0.00987063	
-0.673063	
0.107223	
0.225832	
-0.534364	
-0.564838	
-0.621276	
-0.674268	
-1.72341	
-1.81215	
-1.77701	
-1.69547	
0.331624	
-1.44912	
-0.691213	
0.464141	
-0.193484	
0.138669	
-1.48003	
-1.79607	
-0.518773	
1.23246	
1.6301	
0.532373	
-0.0702157	
-0.253776	
0.0212048	
-0.382337	
-0.286403	
-1.69767	
-1.7766	
-1.88059	
-0.901945	
-1.03492	
-0.842314	
-1.07497	
-1.02631	
-0.359702	
0.346674	
-1.73651	
-1.83513	
-2.10837	
-1.87661	
0.0204437	
0.128211	
0.225509	
0.213989	
-1.01556	
-1.31991	
-1.2256	
-1.44579	
-0.427577	
-0.754321	
-0.139921	
-0.503575	
-1.59536	
-1.43681	
-1.60288	
-1.64975	
-1.58437	
-1.66863	
-1.35352	
-2.30647	
-1.65537	
-2.36775	
-2.25479	
-2.33513	
-2.11287	
-2.19602	
-1.9772	
-1.53052	
-1.43457	
0.286573	
0.497136	
0.453907	
-0.997298	
-1.02366	
-1.09399	
-1.12761	
-1.06092	
-0.687875	
-0.899343	
-0.984567	
-1.4078	
1.09655	
1.24518	
1.44489	
0.0349065	
-0.0566555	
-1.63096	
-1.74473	
0.894779	
1.90248	
-1.89201	
-1.44348	
-1.35563	
-0.0882318	
-0.0526613	
0.061417	
0.492	
0.441721	
0.328574	
0.382145	
0.77036	
0.41002	
0.383394	
0.312194	
-1.48074	
-2.54172	
-2.45092	
0.296335	
0.198923	
0.796352	
0.443366	
-0.405597	
-0.203057	
-1.57214	
-1.45587	
-1.38454	
-1.53686	
-1.48607	
-1.5421	
-1.59759	
-1.33011	
-1.38142	
-1.49583	
-2.23161	
-1.78703	
-1.68115	
-1.6418	
-1.60195	
-1.59494	
0.0984714	
0.0224743	
-1.17228	
-0.716193	
-1.00168	
-1.24613	
-0.0605014	
-0.333923	
0.244228	
-0.051792	
-1.855	
-1.69926	
-1.72701	
-1.71428	
-1.62768	
-1.64837	
-1.68741	
-1.62393	
-1.59515	
-1.57784	
-1.58972	
-1.58833	
-2.61663	
-2.18245	
-2.207	
-2.08627	
-0.215192	
-0.410244	
-0.216313	
-0.51388	
-1.0785	
-1.03792	
-1.18024	
-1.50901	
1.1632	
1.64032	
-0.620008	
-0.554545	
-0.696686	
-0.715664	
-0.890905	
-0.936639	
-0.939409	
-0.420464	
-2.47756	
-2.28911	
-0.800417	
-0.548752	
-0.758916	
-1.61919	
-1.15993	
-0.762666	
-0.662858	
-0.895278	
-0.931274	
-0.67965	
-0.388401	
-0.586293	
-0.80159	
-0.643	
-1.22412	
-2.08447	
-1.62359	
-0.415813	
-0.2873	
-0.249693	
0.0333388	
-0.760445	
-1.42794	
-1.40111	
-1.11933	
0.340668	
-1.87976	
0.328999	
0.0574389	
-2.53389	
-3.17879	
0.507217	
0.614277	
1.26734	
1.4375	
-1.16023	
-1.34009	
-1.34677	
-1.51187	
-2.04785	
-1.91164	
-1.83495	
-1.92743	
-1.60896	
-1.78326	
-1.76101	
-2.20006	
-2.16925	
-1.33048	
-2.26933	
-2.00199	
-1.76867	
-2.50009	
-1.7573	
-2.29817	
-0.210177	
0.235103	
-1.72663	
-1.65625	
-1.71943	
-1.75596	
-1.48339	
-1.28838	
-1.41918	
-0.679171	
-0.622574	
0.721194	
1.13056	
0.178848	
0.771868	
-0.0291874	
0.412435	
0.563244	
0.151576	
0.55723	
0.265722	
-1.15101	
-0.500311	
-0.596005	
-1.5698	
-1.24599	
-1.33398	
-1.27226	
-1.35431	
-1.54024	
-1.61345	
-1.58765	
-2.0403	
-1.46266	
-1.38036	
-1.67044	
-1.38152	
-1.22928	
-1.33974	
-1.40554	
-0.460612	
-0.368057	
-0.644945	
-0.521716	
0.333059	
0.173111	
0.534773	
0.418566	
-1.31233	
-1.95456	
-0.778061	
-0.845009	
-0.874139	
-1.00668	
-1.5611	
-0.449193	
-0.256285	
-1.15155	
-1.31592	
-0.989898	
-0.919404	
0.0958762	
0.880818	
1.09633	
0.825259	
0.680747	
-1.11819	
-0.146798	
0.0638923	
-0.214622	
0.0390608	
-1.84117	
-1.38281	
-1.16986	
-0.959479	
-0.876738	
-0.990088	
-0.937797	
-0.964829	
-0.916519	
-1.0835	
-1.31134	
-1.16527	
-1.26114	
-1.09531	
-1.07461	
-2.22743	
-1.81035	
-1.65169	
-1.65476	
-1.84317	
-1.75124	
-1.66782	
-1.65057	
0.297972	
0.226985	
-0.33005	
-1.85221	
-2.48011	
-1.75154	
-2.39777	
-1.69779	
-1.66974	
-1.55772	
-1.66779	
-1.87848	
-0.10757	
-0.679947	
-0.728151	
-0.845207	
-0.868052	
-1.21069	
-1.49303	
-2.34372	
-2.82698	
-1.73773	
-1.63804	
-1.65162	
-1.63113	
0.417461	
0.0171568	
0.843453	
0.159903	
-1.57697	
-0.432176	
-1.25533	
-1.50062	
-0.647637	
-0.809147	
-1.2372	
-1.75101	
-1.18412	
-1.48446	
-1.95746	
-2.53917	
-1.81996	
-1.95885	
-0.604129	
-0.586616	
0.196607	
0.135847	
0.303104	
0.179212	
0.11767	
0.0307969	
0.10673	
-2.31644	
-2.54336	
0.339995	
0.194506	
0.342294	
-1.13469	
-0.79317	
-0.800904	
-0.519809	
-1.076	
-1.25064	
-0.934524	
-0.991565	
0.0383687	
-0.186352	
0.007997	
-0.147703	
-2.95286	
-2.93564	
-2.30214	
-0.478232	
-0.72428	
-0.751432	
-0.579037	
-1.64192	
-1.67795	
-1.95294	
-2.0062	
-1.85908	
-1.87813	
-0.764448	
-0.630254	
-0.597237	
-0.83243	
-0.785827	
-1.11	
-1.43962	
-1.61535	
-1.89193	
-1.1634	
-1.102	
-1.51384	
-1.2718	
-1.60937	
0.276248	
0.208361	
-0.0317895	
-0.23075	
-0.115567	
-0.29114	
-0.812124	
-0.990226	
-0.804737	
-0.988463	
-1.42327	
-1.04791	
-1.852	
-1.31274	
-1.21657	
-1.40017	
-1.55192	
0.495092	
0.329295	
0.270948	
-1.56301	
-1.58776	
-1.64238	
-1.59409	
-1.60607	
-1.50227	
-1.49549	
-1.46991	
0.0251899	
-0.0538698	
0.222579	
0.301765	
-0.392285	
-0.410894	
-0.0568913	
-0.200838	
1.00197	
0.906093	
1.60534	
0.0913645	
0.381649	
0.810201	
-1.24926	
-1.30711	
-1.36023	
-1.36126	
-1.46407	
-1.45921	
-1.70647	
-1.64805	
-1.64466	
-1.59175	
-1.92547	
-1.93509	
-0.569721	
-0.529269	
-0.700763	
-0.788162	
-0.896047	
-0.914109	
-1.08458	
-1.16302	
-0.928766	
-0.905015	
-1.0683	
-1.17524	
-1.49573	
-1.57941	
-1.54124	
-1.62378	
-1.58852	
-1.50365	
0.248076	
0.419042	
-1.2088	
-1.31145	
-1.28547	
-1.57352	
-1.5014	
-1.71255	
-2.40601	
-1.57549	
-1.56484	
0.390033	
-1.21689	
-1.16534	
-1.21926	
-1.6116	
-1.59829	
-1.80045	
-1.533	
2.88514	
-1.28408	
-1.35602	
-1.19933	
-1.18947	
0.288807	
0.28122	
0.630049	
0.483344	
0.551642	
0.359332	
1.31886	
-1.44045	
-1.4668	
-1.74887	
-1.81721	
-1.76498	
0.47115	
-1.58867	
-1.7356	
-1.4764	
-1.48165	
0.301678	
0.249916	
-1.44523	
0.394735	
0.371154	
-1.16149	
-1.22328	
-1.08671	
-1.09977	
-1.18934	
-1.2625	
-2.13006	
-2.3224	
-1.38411	
-1.58797	
-1.20583	
-1.14736	
-1.05971	
-1.5543	
-1.32954	
-1.44517	
-1.41976	
-1.617	
-1.4305	
-1.28532	
-1.18828	
-1.30492	
-1.14705	
-1.21625	
-1.27724	
0.601355	
0.45455	
0.505454	
-1.61347	
0.266416	
0.181951	
0.183025	
0.242201	
0.244765	
-1.57469	
-1.56914	
-1.5728	
0.0180609	
0.0809233	
-0.04128	
0.0477298	
-1.57436	
-1.49095	
-1.5346	
-1.57938	
-1.56816	
-1.78409	
-1.58049	
-1.88303	
-1.64559	
0.569557	
0.633931	
0.422468	
-2.42295	
-1.72859	
-2.56729	
-1.76492	
-1.40178	
0.21858	
-1.57688	
-1.55059	
1.43159	
0.935266	
0.995327	
0.383129	
-1.38302	
-1.20723	
-1.10293	
-0.654644	
-0.632921	
-0.388208	
-1.23091	
-1.26017	
-2.17888	
-1.69342	
-1.78025	
-1.72766	
-1.9544	
-0.20027	
-0.466086	
0.571052	
0.456729	
0.479922	
0.429027	
0.511522	
0.301754	
0.269915	
0.246804	
0.164935	
-1.90529	
-1.73639	
-1.82535	
-1.72905	
-1.42607	
-1.40102	
-1.58815	
-2.09385	
-2.16742	
0.156458	
0.051352	
-0.278405	
-1.61038	
-1.77136	
-1.50041	
-1.66563	
-1.6342	
-1.53247	
-1.54396	
-1.47267	
-1.7654	
-1.78576	
-1.61553	
-1.3553	
-1.43737	
-1.48546	
-1.60968	
-1.33504	
-1.27515	
-1.38705	
-1.24793	
0.764491	
0.262319	
-1.39729	
-1.46866	
-1.48214	
-1.72132	
-0.827022	
-1.05975	
-1.35188	
-1.37614	
-1.50345	
-1.49447	
-1.44081	
-1.48726	
-1.05905	
-1.21485	
-1.67621	
-1.67649	
-1.63404	
-1.61857	
-1.76607	
-1.69901	
-1.69027	
-1.65417	
-1.52973	
-1.73496	
-1.13681	
-1.13722	
-1.91176	
-2.29517	
-2.24239	
-1.75703	
-2.02707	
-1.85234	
-0.0901086	
-0.340306	
-0.375618	
0.322307	
0.226782	
-1.38545	
-1.43277	
-1.38618	
-0.361166	
-0.377936	
-0.292213	
-1.68058	
-1.59958	
-1.68708	
-1.6006	
-0.548166	
-0.463261	
-0.702039	
-0.785525	
-1.01258	
-1.4761	
-1.33847	
0.660796	
0.916045	
1.20633	
0.748491	
-0.192085	
-0.242409	
0.308352	
0.372259	
0.301715	
0.39165	
-1.85574	
-2.01421	
-1.82843	
-2.0214	
-0.716656	
-0.581966	
-0.242383	
1.89333	
2.85314	
-1.90885	
-2.06566	
-2.22493	
-2.74744	
-0.377567	
-0.278408	
-0.621387	
-0.43124	
0.516885	
0.505912	
0.312754	
0.293523	
0.212852	
-0.146419	
-0.352862	
0.0943903	
-0.255279	
0.332541	
0.376519	
-1.52028	
-2.06739	
-1.49878	
-1.62074	
-0.579257	
-0.748146	
-0.691128	
-0.838073	
1.38232	
1.22915	
-1.95242	
-1.81529	
0.325109	
0.356688	
0.433144	
0.411031	
0.702152	
0.283712	
-0.0626469	
-0.123439	
-0.0923197	
-0.0727514	
-0.0370588	
-0.0310649	
-0.0461953	
0.0269927	
0.0514244	
0.134778	
0.183433	
0.163449	
0.0921156	
-0.00190617	
-0.105311	
-0.0948646	
-0.0936803	
-0.0902767	
-0.0694271	
0.181478	
-0.0300381	
0.157591	
0.076264	
0.122114	
0.0257512	
-0.116183	
0.151108	
0.106235	
0.0047911	
-0.0724357	
0.0421383	
-0.180135	
-0.208427	
-0.247664	
-0.200203	
-0.229387	
-0.275226	
-0.13792	
0.136542	
0.0858855	
-0.183153	
-0.0626245	
-0.111649	
0.00493195	
-0.147707	
-0.177864	
-0.171842	
-0.167266	
-0.182735	
-0.203712	
0.166028	
1.32626	
0.108791	
1.25127	
1.22974	
1.16117	
1.52374	
0.592048	
0.551942	
0.559048	
0.578532	
0.734411	
0.217505	
0.108486	
1.21491	
0.291793	
0.0924959	
0.229939	
1.37775	
2.61105	
0.444777	
0.544964	
1.03678	
0.799701	
0.973841	
0.751959	
0.697347	
0.903553	
0.877087	
0.456775	
0.506484	
0.515108	
0.738233	
0.346373	
0.810142	
0.846988	
0.841857	
0.979922	
0.828225	
0.630752	
0.747591	
0.799055	
0.896473	
0.879062	
1.06636	
0.923422	
0.900016	
0.944737	
0.923826	
0.874149	
0.901149	
0.852992	
0.924477	
0.902071	
0.473242	
0.493595	
0.83909	
0.828095	
0.912448	
0.863887	
1.11821	
0.890429	
1.00812	
0.746094	
0.890685	
0.551205	
0.852308	
0.880734	
0.80564	
0.827668	
1.00832	
1.08055	
0.806708	
0.852341	
0.996136	
0.822178	
0.825446	
0.941148	
1.00515	
1.00987	
0.827459	
0.829812	
0.864935	
0.656874	
1.1587	
0.931372	
0.381524	
1.06037	
0.863645	
0.456043	
1.0118	
0.894224	
0.927178	
1.08318	
0.875268	
0.925596	
0.870517	
0.868768	
0.622445	
0.756808	
0.821756	
1.16067	
0.960005	
0.703644	
0.89717	
0.859795	
0.916177	
0.835216	
0.683574	
0.645572	
0.641002	
0.855311	
0.838268	
0.774837	
0.73103	
0.764323	
0.844897	
0.898611	
0.840061	
0.883263	
1.06967	
0.895822	
0.87538	
0.865676	
0.891155	
0.888807	
0.897414	
0.880667	
0.917105	
0.861124	
0.873001	
0.878277	
0.886591	
0.952591	
0.995057	
0.943269	
0.964634	
0.633341	
0.717588	
0.983851	
0.872256	
0.384292	
1.01169	
1.07967	
0.249993	
0.886632	
0.71768	
0.741226	
0.755293	
0.764369	
0.854814	
0.786929	
0.815795	
0.447673	
0.241325	
0.209778	
0.310532	
1.66322	
0.738047	
0.660889	
0.327551	
1.22748	
1.12865	
0.79554	
0.95859	
0.927707	
1.1863	
0.885151	
0.873639	
0.94465	
0.854495	
2.5401	
2.71586	
0.769819	
0.630679	
0.797257	
0.682059	
0.861674	
0.871475	
0.545899	
0.618647	
0.683981	
0.576867	
0.489721	
0.816535	
0.870814	
0.830128	
0.592948	
0.619967	
0.597804	
0.772748	
0.430418	
0.404779	
0.450261	
0.494582	
0.504342	
0.568636	
0.563744	
0.522134	
0.547828	
0.595771	
0.628384	
0.986078	
0.921029	
0.913984	
0.454218	
0.334542	
0.421165	
0.357591	
1.13314	
1.06561	
1.05602	
0.717872	
0.735407	
0.869836	
0.902554	
0.872149	
0.941348	
1.00147	
1.1035	
1.00838	
1.10913	
0.743195	
0.790306	
0.622413	
0.925852	
0.884195	
0.358477	
0.28712	
1.12502	
1.0234	
0.931486	
1.03437	
0.966474	
1.08716	
0.638689	
0.916771	
0.901986	
0.905551	
0.933771	
1.11747	
1.09609	
1.08406	
0.976408	
0.777757	
0.77165	
0.783028	
0.882254	
0.851469	
0.89499	
0.89587	
0.914811	
0.898902	
1.14402	
1.10298	
0.936285	
0.868528	
1.02281	
0.875003	
0.837558	
0.943265	
0.819851	
0.795192	
0.674092	
0.613726	
0.946407	
1.05224	
1.04537	
0.695139	
0.796305	
0.965468	
0.754855	
0.726884	
0.76702	
1.16914	
0.812352	
0.829292	
0.857299	
0.816139	
0.804851	
0.747959	
0.752297	
0.768186	
0.636381	
0.653989	
1.12492	
1.01406	
0.939414	
1.24252	
1.2006	
0.790522	
0.83939	
0.771089	
0.783724	
0.791508	
0.978649	
0.921629	
0.915289	
0.645581	
0.642676	
0.673629	
0.678036	
0.708154	
0.674133	
0.720544	
0.651363	
0.475057	
0.857905	
1.05102	
0.854995	
1.01573	
0.955014	
0.869567	
0.987082	
1.039	
0.872507	
0.864525	
0.795083	
0.687379	
1.11628	
1.14325	
0.99851	
1.03309	
0.614843	
0.651437	
0.833617	
0.799393	
0.894589	
0.885145	
0.835967	
0.938718	
0.960898	
1.02469	
1.02709	
0.775579	
0.763359	
0.937795	
0.779139	
0.847592	
0.845796	
0.810362	
0.831901	
0.861444	
0.884644	
0.878468	
0.814018	
0.794549	
0.813915	
0.799426	
0.872075	
0.915135	
0.832384	
0.971837	
0.832653	
0.738841	
0.652056	
0.709444	
0.916054	
0.885517	
0.908031	
0.892785	
0.756557	
0.955306	
0.932796	
0.935611	
0.96742	
1.03269	
0.80174	
0.786247	
0.807263	
0.792449	
0.780847	
0.794706	
0.792626	
0.806089	
0.894965	
1.0038	
1.03855	
0.98896	
0.651711	
0.395977	
0.311287	
0.812341	
0.823568	
0.87171	
0.969846	
1.1129	
1.08855	
1.09982	
1.0842	
0.777294	
0.826657	
0.768606	
0.881254	
0.937833	
1.04915	
1.05946	
0.669614	
0.703319	
0.677224	
0.732552	
0.176342	
0.190371	
1.16242	
1.09355	
0.989812	
1.00665	
0.840395	
0.98653	
0.703258	
0.627546	
0.667253	
0.655256	
0.667872	
0.694176	
0.777269	
0.673529	
0.711934	
0.727346	
0.77875	
0.775979	
0.845128	
0.79649	
0.830829	
0.292235	
0.344525	
0.394063	
0.854621	
0.910659	
0.855548	
0.880331	
0.936332	
1.04554	
1.06371	
0.471593	
0.831611	
0.765394	
0.834153	
0.772531	
0.653584	
0.592711	
0.796808	
0.735649	
0.90258	
0.904019	
0.937532	
0.921842	
0.954999	
0.897536	
0.934283	
0.901336	
0.951829	
0.936471	
1.07407	
0.985401	
0.982887	
0.988734	
1.03309	
1.05224	
1.07819	
1.1107	
0.953131	
1.07625	
0.756271	
0.725608	
1.15522	
1.05509	
0.925807	
0.898953	
0.932662	
0.987336	
0.940185	
0.978475	
0.89488	
1.28025	
0.842196	
0.8732	
0.92334	
0.912173	
0.891631	
0.932509	
0.951092	
0.848102	
0.811447	
0.936124	
0.897949	
0.958129	
0.976554	
0.582946	
0.532928	
0.586164	
0.531325	
0.732296	
0.76544	
0.745054	
0.340319	
0.40245	
0.818939	
0.80713	
0.329159	
0.277822	
0.664569	
0.647375	
0.761134	
0.712786	
0.847272	
0.855127	
0.835226	
0.822558	
0.835609	
0.854112	
0.754808	
0.708905	
0.717794	
0.78993	
0.701275	
0.699583	
0.714685	
0.83257	
0.808008	
0.820929	
0.779735	
0.904373	
0.880723	
0.865977	
0.833072	
0.938597	
0.900881	
0.967628	
0.924064	
1.05214	
0.704799	
0.686711	
0.649321	
0.567389	
1.1291	
1.23287	
1.15554	
1.10368	
1.13855	
1.08881	
0.939434	
1.12124	
1.07431	
1.13261	
1.10159	
0.934503	
0.942179	
0.916348	
1.00284	
0.658724	
0.67342	
0.65596	
0.873682	
0.892519	
0.928144	
0.729109	
0.709103	
1.1148	
0.73892	
0.704657	
0.656823	
0.693669	
0.903124	
0.951206	
0.684721	
0.777073	
0.630497	
0.557258	
0.695864	
0.737518	
0.715483	
0.524645	
0.457093	
0.950931	
0.730073	
0.478498	
0.537017	
1.21025	
1.12903	
0.863627	
0.853487	
0.879519	
0.701087	
0.721133	
0.866477	
0.875616	
0.30063	
0.795557	
0.873569	
0.904881	
0.856136	
0.860405	
0.749421	
0.795942	
0.945888	
0.905701	
0.910494	
0.638763	
0.632696	
0.62843	
0.620205	
0.921888	
0.959297	
0.930405	
0.964898	
1.01079	
0.804293	
0.99465	
0.808877	
0.787933	
1.26583	
1.96031	
1.07597	
0.723234	
0.800465	
1.08406	
0.944356	
0.908729	
0.549849	
0.819158	
0.892251	
0.978809	
0.998226	
0.906623	
0.944349	
0.834154	
0.814912	
0.837093	
0.826598	
0.924786	
0.956526	
0.97766	
0.949017	
0.452285	
0.455838	
0.817285	
0.777833	
0.921355	
0.885602	
0.856235	
0.857223	
0.811414	
1.03657	
0.940169	
0.775217	
0.71696	
0.810147	
0.750134	
1.00878	
0.997552	
1.03991	
0.930624	
1.03346	
0.926315	
1.0513	
1.02352	
0.734723	
0.699886	
0.730455	
0.675353	
0.694621	
0.853933	
0.801394	
0.967647	
0.808828	
0.894888	
0.886832	
1.01262	
1.04982	
0.689778	
0.69045	
0.699241	
0.717379	
0.881083	
0.866084	
0.754001	
0.74762	
0.739653	
0.725969	
0.895249	
0.918179	
0.854925	
0.855128	
0.860937	
0.65138	
0.743832	
0.577361	
0.671386	
0.810783	
0.823061	
0.766473	
0.850499	
0.908992	
1.00842	
0.852276	
0.867085	
0.900916	
0.882236	
0.907623	
0.938758	
0.871865	
1.09803	
0.882144	
0.627593	
0.638472	
0.976692	
0.897369	
0.931032	
0.916432	
0.903755	
0.916363	
0.896451	
0.904598	
0.863967	
0.875075	
1.24607	
1.11765	
1.51159	
1.15826	
0.241098	
0.251353	
0.1546	
0.0914532	
0.711236	
0.741701	
0.703466	
0.712636	
0.776203	
0.809746	
0.771957	
0.790417	
0.981819	
0.954887	
0.898436	
0.892038	
0.631837	
0.64485	
0.650317	
0.584866	
0.845528	
0.920302	
0.8095	
0.793375	
0.855134	
0.770626	
0.941526	
0.82799	
0.889588	
0.915647	
0.948723	
1.01532	
0.98356	
0.965214	
0.950176	
0.967819	
1.07604	
1.11321	
0.319565	
0.853208	
0.852299	
0.72332	
0.724994	
0.724808	
0.801516	
0.893287	
0.610281	
0.666775	
0.685911	
0.797034	
0.35134	
0.425692	
0.406754	
0.278029	
0.226765	
0.217221	
0.629308	
0.768308	
0.764445	
0.372774	
0.334314	
0.504914	
0.199608	
0.283584	
0.435418	
0.320251	
0.324858	
0.860743	
0.922804	
0.857745	
0.933535	
0.984297	
0.908536	
0.789569	
0.893882	
0.611168	
0.582796	
0.610876	
0.763029	
0.740431	
0.773074	
0.766496	
0.841782	
0.832539	
0.870954	
0.9265	
0.350384	
0.403225	
0.806623	
0.824456	
0.830169	
1.16883	
1.37865	
0.705452	
0.746433	
0.768597	
0.362292	
0.424676	
0.448165	
0.370534	
0.45367	
0.998281	
0.949005	
0.911136	
1.13653	
0.641804	
0.634241	
0.373364	
0.418527	
0.940778	
0.806635	
0.79652	
0.793196	
0.365926	
0.412931	
0.303395	
0.373092	
0.183348	
0.25546	
0.273048	
0.865082	
1.20521	
0.812272	
0.936764	
1.00145	
0.9399	
0.937529	
0.891485	
0.533843	
0.488432	
0.574707	
0.53149	
0.830558	
0.8554	
0.750587	
0.737245	
0.111633	
0.254729	
0.201326	
0.583582	
0.528848	
0.642122	
0.534556	
0.620121	
0.619507	
0.64681	
0.637749	
0.230133	
0.155098	
0.227514	
0.151647	
0.502511	
0.534659	
0.537284	
-1.95162	
-3.3871	
-2.35746	
-2.63576	
-3.29438	
0.648177	
2.34089	
0.372391	
0.484712	
-0.517569	
-0.669828	
0.524532	
-0.529757	
-0.612749	
-1.26447	
-0.713104	
-1.78105	
-1.82998	
-1.26985	
-0.843792	
-1.75846	
-1.89853	
-0.200835	
-0.0285855	
-0.0696706	
-1.08557	
-1.5131	
-1.32155	
-1.18337	
-0.840703	
-0.784481	
-1.77397	
-1.80599	
-1.7288	
-1.78897	
-1.67246	
-1.91233	
-0.356283	
-2.29206	
-1.03463	
0.0530494	
0.225387	
-1.35604	
-1.56177	
0.420367	
1.08521	
-1.58204	
-0.825382	
0.15018	
-0.560641	
-1.35075	
-1.41828	
-1.35697	
-1.43128	
-1.73414	
-2.45021	
-2.42062	
-0.579686	
-0.196511	
-0.863483	
-0.894025	
-1.79767	
-1.79475	
-1.23134	
-0.772254	
-0.934806	
-0.725151	
-0.952772	
-0.416825	
-1.08151	
-0.775072	
-1.432	
-0.705605	
-1.54301	
-1.74942	
-0.290242	
-1.15298	
-1.53383	
-0.76074	
-0.650189	
-0.36466	
-2.00661	
-2.50643	
-1.74263	
-1.54784	
-0.986608	
-1.53865	
-1.48987	
-1.49932	
-0.460802	
-0.643781	
-1.66992	
-1.71324	
0.535289	
-0.0178321	
0.236122	
0.188844	
-1.7407	
-2.23307	
-1.79427	
-2.29119	
0.0108155	
0.110749	
0.205489	
-0.797927	
-0.740837	
-0.68622	
-0.648778	
-1.68463	
-1.92591	
-1.81949	
-1.93011	
0.328996	
-1.48481	
-0.827092	
0.463341	
-0.188629	
0.13561	
-1.32331	
-1.89346	
-0.670352	
1.72266	
0.93965	
0.564523	
-0.068536	
0.0233749	
-0.0534638	
-0.387851	
-0.284941	
-1.75002	
-1.44865	
-1.5873	
-1.45646	
-1.11585	
-0.921539	
-1.14137	
-0.95451	
-0.354253	
0.330288	
-2.11912	
-1.94387	
-1.84397	
-1.70745	
0.105063	
0.080193	
0.203519	
0.218299	
-1.2698	
-1.49329	
-1.04976	
-1.09233	
-0.135216	
-0.792744	
-0.133966	
-0.741162	
-2.40495	
-1.61334	
-1.38605	
-1.81529	
-1.93535	
-2.00141	
-1.35169	
-1.78389	
-1.64154	
-2.13837	
-1.4939	
-2.3964	
-2.05598	
-1.54989	
-1.52008	
-1.75815	
-1.97202	
0.434316	
0.484054	
-1.11804	
-1.01206	
-1.13678	
-0.796939	
-1.07723	
-1.05852	
-1.0187	
-0.702943	
-1.55128	
1.22571	
1.37719	
0.0439286	
-0.0478247	
-2.09845	
-2.14147	
1.91626	
0.909637	
-1.46093	
-1.33141	
-1.5153	
-0.16073	
0.0295376	
-0.104912	
0.445429	
0.506766	
0.309129	
0.348763	
0.971872	
0.388838	
0.415813	
0.315617	
-1.67999	
-2.69818	
-2.65209	
0.860446	
0.481245	
0.619492	
0.2292	
-0.623853	
-0.322063	
-1.5939	
-1.69596	
-1.62719	
-1.64375	
-1.45034	
-1.4318	
-1.7128	
-1.4283	
-1.49644	
-1.62997	
-1.87296	
-2.36253	
-1.80529	
-1.74457	
-1.75615	
-1.73288	
-0.0501214	
0.0141144	
-1.14246	
-0.988477	
-0.780982	
-1.30964	
-0.0562474	
-0.342267	
-0.260024	
0.247467	
-1.82688	
-1.94713	
-1.8731	
-1.84423	
-1.84523	
-1.86244	
-2.03429	
-2.45607	
-1.73273	
-1.73496	
-1.71978	
-1.71186	
-2.21952	
-2.37787	
-2.07192	
-2.25708	
-0.388736	
-0.517515	
-0.205042	
-0.410678	
-1.17214	
-1.24267	
-1.6162	
-1.32515	
1.64206	
1.44705	
-0.623619	
-0.789916	
-0.852258	
-0.961277	
-0.794855	
-0.430478	
-0.638192	
-0.657894	
-0.962461	
-2.37468	
-2.59814	
-0.774061	
-0.730283	
-0.532749	
-1.09552	
-0.911407	
-0.861183	
-0.771585	
-0.672639	
-0.60508	
-0.379062	
-0.957082	
-1.20755	
-0.599157	
-0.817562	
-0.222968	
-0.0162753	
-0.381364	
-0.272364	
-1.09354	
-1.36999	
-1.44019	
-1.40558	
0.343907	
-1.8544	
0.0762592	
0.345593	
-3.37919	
-3.45906	
0.629569	
0.862587	
1.17731	
1.28147	
-1.33378	
-1.50183	
-1.22627	
-1.20669	
-1.9689	
-2.197	
-1.9842	
-1.76739	
-1.9229	