<VTKFile type="UnstructuredGrid" version="0.1" byte_order="LittleEndian">
	<UnstructuredGrid>
		<Piece NumberOfPoints="1917" NumberOfCells="3602">
			<CellData Scalars="scalars">
				<DataArray type="Float64" Name="Doublet Strengths" NumberOfComponents="1" Format="ascii">
3.6073	
0.874398	
3.31528	
3.24476	
3.13528	
4.35454	
2.66592	
2.61723	
2.47588	
2.468	
2.64821	
0.873506	
0.509192	
4.1317	
1.29318	
0.497428	
0.910003	
4.07089	
1.81211	
3.11778	
3.10188	
2.32382	
2.91236	
1.68887	
1.94597	
1.91451	
2.35878	
1.41827	
2.51319	
2.61073	
2.55132	
2.88177	
2.60073	
2.77802	
3.029	
2.94262	
3.0227	
3.29186	
2.73889	
3.18349	
2.83967	
3.40364	
2.81019	
2.83171	
2.87921	
2.76401	
2.64631	
2.78654	
2.82586	
1.82794	
1.84647	
2.86157	
3.12121	
2.72093	
2.78492	
3.07598	
2.76376	
2.75647	
2.555	
2.7623	
1.99887	
2.65897	
2.69106	
2.56642	
2.65009	
2.61579	
2.70886	
2.80555	
2.64154	
2.66913	
2.51538	
2.56303	
2.4935	
2.54767	
2.57717	
2.63836	
2.05838	
3.45183	
1.97446	
1.24038	
2.9083	
2.76337	
2.8421	
1.68083	
2.90581	
3.03229	
2.85487	
3.1268	
3.09251	
3.11741	
2.70608	
2.61743	
2.34446	
2.35821	
2.4186	
2.50865	
3.20869	
3.25105	
2.239	
2.34935	
2.61832	
2.54467	
2.63176	
2.60527	
2.66675	
2.62288	
2.62569	
2.62804	
2.84328	
2.6198	
2.74133	
2.6651	
2.54401	
2.66801	
2.63991	
2.84238	
2.88827	
2.86126	
3.2263	
2.96189	
2.85882	
2.8611	
2.83152	
2.79797	
2.81733	
2.96035	
2.70399	
2.82163	
2.65224	
2.38955	
1.98985	
2.76178	
2.75955	
1.58579	
3.12411	
3.14672	
2.911	
2.64454	
2.58215	
2.61809	
2.62605	
2.72766	
2.69681	
2.65675	
2.54093	
0.930624	
1.05996	
1.3606	
2.80817	
3.35481	
2.82443	
2.33085	
2.64648	
1.32593	
1.07553	
3.22689	
3.09505	
2.57223	
2.5783	
1.41032	
2.93246	
3.12256	
2.68883	
2.88144	
3.03287	
4.44192	
4.40452	
2.2932	
2.22947	
2.24114	
2.21355	
2.71275	
2.82865	
2.5717	
2.60658	
2.57546	
2.67335	
2.18955	
1.96699	
1.94231	
3.27898	
3.08734	
3.035	
2.67285	
2.69713	
2.08941	
2.98607	
1.60953	
1.89735	
1.71911	
1.33846	
1.44385	
1.58888	
1.86359	
1.98243	
1.98587	
2.07128	
1.83338	
1.85306	
2.08786	
2.17951	
2.8981	
2.95108	
2.92006	
1.89421	
1.59696	
1.81555	
1.66295	
3.25188	
3.78756	
2.77165	
2.69559	
2.81528	
2.62833	
2.54	
1.69059	
1.49621	
2.76094	
2.70203	
2.79145	
2.7185	
3.01118	
2.895	
3.02264	
2.89905	
2.34022	
2.41606	
1.30457	
3.28601	
3.18898	
2.83115	
2.76576	
2.8268	
2.73633	
2.81934	
2.80167	
2.82292	
2.89086	
2.79877	
2.97948	
2.96436	
3.01216	
3.00289	
2.46537	
2.55175	
2.42337	
2.40318	
2.6649	
2.71803	
2.73536	
3.10011	
2.89317	
2.89259	
2.89999	
3.02544	
2.95395	
2.98663	
2.82708	
0.927558	
1.04725	
2.87625	
2.77928	
2.81382	
2.69121	
2.85166	
2.43044	
2.28971	
2.13925	
3.0203	
3.07001	
3.11473	
2.66643	
2.71461	
2.38339	
2.42675	
2.45073	
3.09452	
3.08816	
3.0977	
3.18495	
3.3383	
2.93929	
3.03553	
2.92747	
2.90651	
1.89424	
2.06515	
2.92218	
3.07372	
2.98422	
3.16819	
3.22681	
2.48591	
2.42775	
2.92217	
3.06561	
3.01168	
2.89822	
3.00488	
2.39398	
2.6214	
2.41519	
2.69738	
2.5418	
2.77844	
2.56087	
2.31262	
1.66	
2.70795	
2.84637	
2.9031	
3.1829	
3.18138	
3.07329	
3.16114	
2.67682	
2.75618	
2.63049	
2.39086	
2.44851	
2.99863	
3.05527	
3.03158	
3.03313	
2.62456	
2.52635	
2.6369	
2.5316	
2.50555	
2.75972	
2.64493	
2.59299	
2.57013	
2.61001	
2.65222	
2.7165	
2.36364	
2.44936	
2.4008	
2.46139	
2.57895	
2.60922	
2.57517	
2.62754	
2.9973	
2.99573	
2.5504	
2.55574	
2.55751	
2.48872	
2.73732	
2.84787	
3.00791	
2.70417	
2.99327	
2.29513	
2.40652	
3.13437	
2.87171	
2.79675	
2.75044	
2.96536	
2.7604	
2.58776	
2.93183	
2.9115	
2.82254	
2.87685	
2.45001	
2.45574	
2.48203	
2.51968	
2.48975	
2.47764	
2.53582	
2.53129	
3.06896	
2.94208	
3.02961	
3.1006	
2.79842	
3.01382	
1.84075	
1.12088	
2.90205	
2.85766	
2.8995	
3.16544	
2.81558	
2.77805	
2.77462	
2.7864	
2.65669	
2.57911	
2.70198	
2.57884	
2.89466	
2.79789	
2.91255	
2.79471	
2.55976	
2.53803	
2.56161	
2.55745	
0.735236	
0.801142	
3.19694	
3.26605	
2.72944	
2.75629	
3.00543	
2.77383	
2.37672	
2.69011	
2.53572	
2.57458	
2.57978	
2.78899	
2.78934	
2.64342	
2.84755	
2.26322	
2.26186	
2.43582	
2.58014	
3.13836	
2.68549	
1.20737	
1.52517	
1.29576	
2.81225	
2.75475	
2.80556	
2.77106	
2.92968	
3.0062	
2.92106	
2.17206	
2.02162	
1.96019	
2.36051	
2.33682	
2.42994	
2.34713	
2.28494	
2.05164	
2.27567	
2.10321	
2.94202	
2.88484	
3.03096	
2.93479	
2.87575	
2.80423	
2.93532	
2.81849	
2.85826	
2.95458	
2.92009	
2.99258	
3.1024	
3.02902	
3.06141	
2.9665	
2.97828	
2.81735	
2.94594	
2.88672	
2.95536	
2.93549	
3.03337	
3.14526	
3.02504	
3.04239	
2.86681	
2.91149	
2.86048	
2.34483	
2.42012	
3.81208	
3.40167	
3.38344	
3.19438	
3.15202	
3.04471	
3.29261	
3.01509	
2.96082	
3.00972	
2.98854	
1.95596	
2.01468	
1.99322	
1.9406	
3.17128	
2.93335	
1.74069	
1.46458	
2.52671	
2.4901	
1.45452	
1.16694	
2.88362	
2.88936	
2.99078	
3.01264	
3.07619	
3.19633	
3.08725	
3.30239	
3.09358	
3.05262	
3.05791	
2.94104	
3.11271	
3.23143	
3.15274	
2.99925	
3.02261	
3.08645	
2.96178	
3.06483	
3.05664	
2.959	
3.0106	
2.98174	
2.98016	
3.05565	
3.14848	
3.04832	
3.11744	
2.42578	
2.09645	
2.06858	
2.17813	
2.00348	
3.09327	
2.91289	
3.05898	
3.06104	
3.10199	
3.0109	
2.80716	
3.00179	
2.94656	
2.90552	
3.13341	
2.88621	
2.90726	
2.85691	
2.95119	
2.94922	
2.95267	
2.43279	
2.4332	
2.56761	
3.26601	
3.35327	
3.05247	
2.58271	
2.57781	
2.81153	
2.90611	
2.91938	
2.65779	
2.50599	
2.58206	
3.08991	
2.97344	
2.8686	
2.29669	
2.13991	
2.38778	
1.69978	
1.77382	
2.68971	
2.91813	
2.89762	
2.76346	
2.10271	
2.02298	
3.05481	
2.048	
2.32659	
2.94489	
2.91549	
2.94841	
2.61728	
2.78861	
2.68774	
2.88178	
2.93533	
2.85475	
2.76381	
1.40517	
1.4024	
2.6655	
2.63582	
2.6962	
2.67751	
2.77915	
2.81722	
2.82421	
3.01774	
3.07227	
3.03443	
2.54082	
2.57659	
2.43073	
2.49678	
2.97615	
3.00741	
2.99257	
2.98866	
2.75302	
2.78709	
2.72116	
2.97973	
2.95172	
2.9718	
3.00697	
2.31371	
2.19472	
2.11186	
2.94415	
2.82544	
2.98127	
2.85914	
2.88341	
2.71868	
2.85426	
3.18474	
2.8677	
2.27693	
2.652	
2.62399	
2.89533	
2.6775	
3.06024	
3.02371	
3.03903	
3.12305	
2.56812	
2.65519	
2.66029	
2.62402	
2.98521	
3.02705	
2.93986	
2.97204	
1.94942	
2.16268	
2.61	
2.59447	
2.90821	
2.43574	
2.51528	
2.40311	
2.49347	
2.92841	
2.7814	
2.89047	
2.84199	
2.78787	
2.89319	
2.8748	
2.93712	
2.2666	
2.58889	
2.74557	
2.54787	
2.59317	
2.85068	
2.85795	
2.84582	
2.8548	
3.04883	
2.69477	
2.6719	
2.64038	
2.89964	
2.90277	
2.68426	
2.72961	
2.79446	
2.84337	
2.89055	
3.06182	
2.95755	
3.0209	
2.87901	
2.9322	
2.8337	
2.85192	
2.87685	
2.99246	
2.95315	
2.95301	
2.97327	
3.03996	
2.98188	
2.4602	
2.50563	
2.40761	
2.17067	
3.16382	
3.14101	
3.13183	
3.11595	
2.77545	
2.73711	
2.76958	
2.66859	
2.16757	
2.46058	
2.80123	
2.88336	
2.10017	
2.05226	
2.80024	
2.76294	
2.7964	
2.69741	
2.75046	
2.78977	
2.7086	
2.74198	
2.68632	
2.67092	
3.23459	
3.34691	
3.25259	
3.39206	
0.971293	
0.984169	
0.554369	
0.715379	
2.39922	
2.33029	
2.42258	
2.44688	
3.24069	
2.91685	
2.83487	
2.87733	
2.79426	
2.78539	
2.77506	
2.79975	
2.2143	
2.03767	
2.22215	
2.15523	
3.00447	
2.85034	
2.90455	
2.82639	
2.66725	
2.6958	
2.72214	
2.67911	
2.85227	
2.89305	
2.8769	
2.8708	
2.97044	
2.84212	
2.83977	
0.934507	
2.89681	
2.8706	
2.49082	
2.46834	
2.4007	
0.733933	
1.18387	
2.43507	
2.20769	
2.24579	
2.18679	
2.03941	
1.91818	
1.78087	
1.62698	
2.70468	
1.24115	
2.26375	
1.12231	
2.63495	
2.61553	
2.84852	
2.76865	
2.80131	
2.84638	
2.51958	
2.5098	
2.51636	
2.4516	
2.76833	
2.76847	
3.03809	
3.14098	
2.82631	
2.61923	
2.40685	
2.41325	
2.44882	
2.49082	
2.44877	
1.75511	
1.56099	
3.06056	
3.0595	
3.07218	
3.12597	
1.48734	
1.26501	
1.6167	
3.08417	
3.15231	
3.1226	
3.66975	
3.45692	
2.65714	
2.42249	
1.72699	
2.83708	
2.86048	
2.78481	
3.81031	
2.55163	
2.74551	
2.47263	
2.38989	
0.743914	
0.910918	
1.17122	
1.22411	
2.63008	
2.72373	
2.5997	
2.80454	
2.94667	
2.8427	
2.0779	
2.05152	
2.81582	
2.63454	
2.60276	
2.56405	
2.70449	
2.70987	
2.80004	
2.69366	
2.66677	
2.62761	
2.65516	
2.30162	
2.96542	
2.46943	
1.39739	
1.29533	
1.115	
1.04633	
2.72801	
2.64463	
2.73516	
2.65654	
1.99378	
2.02221	
-4.825	
-6.89981	
-6.19109	
-6.16603	
-6.26628	
-3.32768	
2.09345	
3.6725	
1.78932	
2.44071	
-1.39719	
-2.10381	
2.19322	
-1.87227	
-2.10651	
-2.36432	
-2.1333	
-5.51876	
-6.19577	
-5.8885	
-5.00371	
-2.43256	
-5.66554	
-0.944387	
-0.0313911	
-0.388117	
-2.9253	
-4.63401	
-4.28953	
-3.3518	
-2.2079	
-2.55839	
-5.77171	
-6.45394	
-5.74883	
-5.15117	
-5.24872	
-4.83936	
-0.97248	
-6.29354	
-3.21489	
0.306333	
0.83581	
-3.91492	
-4.74742	
1.16538	
1.81868	
-4.78396	
-2.27774	
0.629307	
-1.47952	
-3.52385	
-5.06362	
-2.72943	
-4.06418	
-6.57414	
-6.18981	
-5.49352	
-1.20115	
-0.329084	
-2.49806	
-2.20574	
-5.82363	
-3.35657	
-3.87958	
-2.22365	
-2.7841	
-1.96683	
-2.55236	
-0.662198	
-2.74468	
-1.82575	
-3.18212	
-2.40394	
-5.2058	
-5.3891	
-0.531825	
-4.47475	
-3.39694	
-2.20101	
-1.32628	
-2.00912	
-3.90828	
-5.35855	
-5.66116	
-5.72131	
-4.8495	
-2.7098	
-4.98763	
-5.20294	
-5.10115	
-1.41518	
-2.07882	
-5.41046	
-5.69024	
0.79665	
-0.0198775	
1.09685	
0.79863	
-5.28003	
-5.57368	
-4.79975	
-5.27343	
0.0497914	
-1.65235	
0.166905	
0.832395	
-1.67342	
-1.74474	
-1.95372	
-2.08581	
-5.128	
-5.1627	
-5.25064	
-4.68369	
1.55824	
-4.53126	
-2.66008	
1.82838	
-0.440948	
0.833308	
-3.92986	
-6.2002	
-1.67023	
2.24405	
2.30111	
0.912702	
0.669068	
-0.468687	
0.933099	
-0.910506	
-0.785642	
-4.42166	
-4.89697	
-5.43137	
-3.43065	
-3.43308	
-2.73771	
-3.50152	
-3.29557	
-0.905242	
0.514976	
-4.90702	
-4.61687	
-4.97999	
-4.36732	
0.324461	
0.683091	
1.2269	
1.08258	
-2.778	
-3.35615	
-3.32706	
-3.58789	
-1.21896	
-1.84717	
-0.723766	
-1.39374	
-4.80817	
-4.55462	
-5.61915	
-5.92483	
-5.58824	
-5.99602	
-2.74692	
-5.28628	
-5.35925	
-4.95685	
-4.84342	
-4.53893	
-4.26045	
-4.66622	
-4.2453	
-4.44786	
-4.10347	
1.37042	
1.81243	
1.85736	
-3.0706	
-3.09187	
-2.6192	
-3.15502	
-2.98269	
-2.0851	
-2.77299	
-2.98896	
-4.04527	
2.21687	
2.3926	
2.89331	
0.541811	
0.129891	
-5.83071	
-6.2242	
2.38589	
3.22003	
-4.53799	
-4.41085	
-4.63324	
-0.149236	
-0.0227615	
0.429294	
2.4639	
2.38017	
1.53917	
1.79427	
1.95775	
1.80541	
1.65519	
1.39896	
-5.28322	
-6.67999	
-6.60624	
0.487827	
0.229574	
1.28053	
0.728551	
-1.28816	
-0.556699	
-5.9279	
-5.67396	
-4.6323	
-5.3772	
-4.97862	
-5.41055	
-5.45466	
-5.69565	
-5.63704	
-5.97574	
-5.70069	
-5.69486	
-5.51791	
-6.21065	
-5.98095	
-5.84431	
0.610767	
0.194018	
-2.92165	
-2.14581	
-2.89491	
-2.55027	
-0.204993	
-0.821106	
1.01263	
0.225153	
-5.32549	
-5.32002	
-5.06651	
-5.40355	
-5.59696	
-5.9244	
-5.71645	
-5.78055	
-5.59634	
-5.59857	
-5.49533	
-5.5803	
-6.31368	
-5.88493	
-6.34456	
-6.12789	
-0.759316	
-1.43317	
-0.807267	
-1.68565	
-3.69696	
-3.29265	
-3.70047	
-3.66909	
1.47787	
2.4789	
-2.51957	
-2.29171	
-2.85392	
-2.33402	
-2.58402	
-2.1105	
-2.20275	
-0.90547	
-7.04552	
-6.609	
-2.13542	
-1.4482	
-2.07856	
-3.85234	
-3.10616	
-2.56682	
-2.17554	
-2.92332	
-3.18165	
-2.47112	
-1.38151	
-1.46089	
-2.0392	
-1.50339	
-2.72119	
-5.78677	
-5.69226	
-1.5665	
-1.4207	
-1.06266	
-0.434322	
-3.00709	
-4.54639	
-4.97955	
-4.62788	
2.09384	
-5.91161	
0.522266	
-0.224658	
-6.18263	
-6.87448	
0.606962	
0.779344	
1.72885	
1.9447	
-3.08235	
-3.88452	
-3.0905	
-3.68199	
-4.58148	
-4.22548	
-5.21114	
-4.34723	
-5.00541	
-5.17006	
-5.68577	
-5.54411	
-4.27616	
-3.42372	
-4.41968	
-4.0081	
-4.70642	
-4.91807	
-4.75852	
-5.09268	
-0.596748	
0.206126	
-6.35958	
-6.00025	
-6.25374	
-6.52082	
-5.82214	
-5.14047	
-5.52882	
-1.78944	
-1.81887	
1.59637	
2.35843	
0.100627	
0.878483	
-0.544172	
0.283357	
1.22319	
0.339129	
1.01396	
0.207475	
-4.38389	
-1.50964	
-1.23022	
-5.78709	
-4.1198	
-4.3816	
-4.00578	
-4.32385	
-5.34591	
-5.7946	
-5.04214	
-5.66794	
-6.04112	
-5.70769	
-3.67135	
-3.83836	
-3.72107	
-3.99189	
-4.03007	
-1.23084	
-0.952289	
-1.65208	
-1.35105	
1.45151	
1.07802	
1.89169	
1.75424	
-4.64786	
-5.29876	
-2.87573	
-2.95662	
-3.21922	
-3.57013	
-5.70806	
-1.41758	
-0.7389	
-3.33858	
-4.04136	
-4.01075	
-3.65515	
0.563584	
1.69817	
1.46164	
1.32782	
0.833147	
-4.39801	
-0.660816	
0.16916	
-0.842443	
-0.312706	
-6.81911	
-4.96274	
-3.18979	
-2.81723	
-2.60409	
-2.96493	
-2.81471	
-2.88663	
-2.74952	
-3.28028	
-3.58638	
-3.49145	
-3.67047	
-3.89055	
-3.9686	
-5.86009	
-6.0627	
-5.56656	
-5.67426	
-5.99054	
-5.68788	
-5.44416	
-5.46331	
1.46495	
1.04877	
-0.990869	
-5.06682	
-4.99607	
-4.67403	
-4.7627	
-5.42468	
-5.78333	
-5.26779	
-6.12506	
-6.32237	
-0.219903	
-2.72212	
-2.89581	
-2.51823	
-2.44691	
-3.29061	
-3.56393	
-5.97332	
-6.56121	
-6.21278	
-5.64673	
-5.86802	
-5.85509	
0.802261	
-0.323209	
1.08802	
0.0280052	
-4.10801	
-1.3668	
-3.54532	
-4.53501	
-1.74565	
-2.16363	
-3.2283	
-3.91697	
-2.73935	
-3.30822	
-6.53273	
-6.87409	
-6.50006	
-6.29108	
-2.26434	
-2.26027	
0.936466	
0.566167	
0.371377	
0.023438	
0.379778	
0.0134628	
-0.227223	
-6.3087	
-6.82318	
0.341903	
0.505446	
1.04999	
-2.60835	
-1.98532	
-1.94125	
-1.42882	
-2.95185	
-2.90315	
-2.51285	
-2.3322	
0.104345	
-0.416099	
0.239211	
-0.258411	
-6.93168	
-6.91071	
-6.18745	
-1.46114	
-2.33969	
-2.40497	
-1.90375	
-4.3661	
-4.49447	
-5.4005	
-5.57616	
-5.25629	
-5.3788	
-2.64131	
-2.25875	
-2.10074	
-2.68687	
-2.40665	
-2.81361	
-3.31326	
-3.4768	
-3.92277	
-3.31384	
-3.33598	
-3.94102	
-3.89911	
-5.59955	
1.23657	
0.74523	
0.0493489	
-0.629111	
-0.271558	
-0.723672	
-3.16158	
-3.75436	
-3.2095	
-3.82828	
-4.22983	
-3.06139	
-4.15312	
-3.42751	
-4.04847	
-5.61123	
-5.87698	
2.02257	
1.34704	
1.07793	
-4.75994	
-4.92706	
-4.76708	
-4.79477	
-5.86122	
-5.48993	
-5.03995	
-5.23968	
0.252925	
-0.188476	
0.661585	
0.699702	
-1.31122	
-1.33083	
-0.402603	
-0.541223	
1.79182	
1.64504	
3.26594	
0.43061	
1.54877	
2.52542	
-3.65396	
-4.00512	
-4.4176	
-4.3343	
-4.86917	
-5.12991	
-5.97093	
-5.2171	
-5.46091	
-5.08851	
-6.95278	
-6.62761	
-1.79426	
-1.68289	
-2.22356	
-2.56945	
-2.78273	
-2.72399	
-3.14615	
-3.16164	
-2.8325	
-2.76547	
-3.15434	
-3.44144	
-5.58771	
-5.74967	
-5.86336	
-6.02078	
-6.00855	
-5.63599	
1.4201	
1.83157	
-4.98162	
-5.3069	
-5.35501	
-5.98383	
-5.85448	
-6.83129	
-6.75397	
-5.99376	
-5.74281	
1.87852	
-4.98265	
-4.76674	
-4.66342	
-5.62251	
-5.5564	
-6.31226	
-5.54828	
4.00139	
-5.12538	
-5.37744	
-4.88659	
-4.89487	
1.29143	
1.19329	
1.81475	
1.64719	
1.53473	
1.23646	
2.73285	
-5.27424	
-5.40083	
-5.92578	
-6.55505	
-6.48958	
2.02354	
-5.65644	
-5.85175	
-5.44081	
-5.46724	
1.4256	
1.15195	
-5.36491	
1.85484	
1.79359	
-3.76667	
-3.78324	
-3.5197	
-3.66093	
-3.85396	
-4.27471	
-4.81886	
-5.25417	
-5.00332	
-6.02065	
-3.44958	
-3.12773	
-2.93436	
-6.1009	
-5.44835	
-5.8798	
-5.97811	
-4.34473	
-4.09777	
-3.64227	
-3.37474	
-4.65326	
-4.30599	
-4.30554	
-4.5683	
1.90773	
1.63774	
2.14775	
-4.21841	
1.08977	
0.93057	
0.864929	
1.14444	
1.1251	
-5.51462	
-5.68666	
-5.82612	
0.194131	
0.420023	
0.0326729	
0.346422	
-5.73514	
-5.40346	
-5.45548	
-5.5625	
-5.83195	
-6.36253	
-6.02243	
-6.17233	
-6.01207	
2.22457	
2.16405	
1.40069	
-6.59002	
-6.41476	
-6.76268	
-6.29925	
-3.79717	
0.444925	
-5.05195	
-5.00129	
2.72967	
2.22987	
2.17304	
1.8314	
-4.78707	
-4.50882	
-4.21021	
-1.64506	
-1.62178	
-0.952276	
-5.23308	
-4.98493	
-6.86984	
-5.71843	
-5.7326	
-5.91069	
-6.49518	
-0.308503	
-1.10603	
2.58883	
2.47647	
2.12674	
2.00115	
2.37364	
1.51963	
1.40708	
1.21252	
0.885432	
-5.70234	
-5.53673	
-5.41716	
-5.2707	
-4.92699	
-4.81534	
-5.83042	
-5.9354	
-6.07936	
0.324977	
0.116747	
-0.567493	
-5.84224	
-6.12098	
-3.91174	
-3.68895	
-4.76166	
-4.56257	
-5.72553	
-5.44814	
-3.76864	
-3.6832	
-3.34789	
-4.62738	
-4.54821	
-4.98512	
-4.72263	
-4.54506	
-4.42045	
-4.72553	
-4.18708	
1.44214	
0.878492	
-4.1161	
-4.44697	
-4.33175	
-5.14971	
-2.08722	
-2.23756	
-3.65708	
-3.73865	
-4.8887	
-5.03521	
-4.93843	
-5.16668	
-2.63571	
-2.7743	
-5.93704	
-6.04881	
-5.81194	
-5.70158	
-5.09012	
-5.10676	
-5.04989	
-5.12155	
-3.45648	
-3.91852	
-3.33625	
-3.31086	
-4.89004	
-5.56545	
-5.54364	
-4.66861	
-5.21823	
-4.82467	
-0.301322	
-0.986759	
-1.1602	
1.54343	
1.16501	
-4.99267	
-5.18029	
-5.35036	
-1.17878	
-1.02198	
-0.725314	
-4.29996	
-4.07288	
-4.25983	
-3.85418	
-1.29731	
-1.09009	
-1.5705	
-1.88281	
-2.30328	
-5.25826	
-5.09647	
1.97491	
2.57618	
2.91428	
2.3435	
-0.507913	
-0.706234	
1.34053	
1.5796	
1.1493	
1.63094	
-5.9547	
-6.18622	
-5.63057	
-5.82749	
-2.09684	
-1.75787	
-0.886593	
2.71884	
3.83887	
-6.31449	
-6.13753	
-6.5945	
-6.63719	
-0.614045	
-0.358274	
-1.57417	
-0.912811	
1.77769	
1.21461	
1.38151	
0.756887	
0.917597	
-0.68043	
-1.19843	
-0.0948677	
-0.997298	
1.15286	
0.993163	
-4.22912	
-5.02766	
-4.17125	
-4.66783	
-1.61903	
-2.146	
-2.05479	
-2.46539	
3.12296	
2.70806	
-5.17475	
-4.91535	
1.2832	
1.19967	
2.29374	
2.12295	
1.1465	
0.693806	
0.068649	
-0.381249	
-0.336651	
-0.284286	
-0.0921319	
-0.0295516	
-0.186063	
0.188704	
0.273475	
0.518037	
0.720123	
0.616455	
0.393184	
0.0739135	
-0.402907	
-0.361941	
-0.219787	
-0.290322	
-0.122839	
0.728353	
0.00595316	
0.617735	
0.340308	
0.48216	
0.192582	
-0.433462	
0.634921	
0.454672	
0.120243	
-0.101696	
0.23833	
-0.435913	
-0.517087	
-0.705406	
-0.736074	
-0.777372	
-0.65645	
-0.285818	
0.562239	
0.375865	
-0.419352	
-0.0693784	
-0.227135	
0.122564	
-0.558854	
-0.680375	
-0.612485	
-0.625411	
-0.578652	
-0.517259	
0.685318	
3.39295	
0.522258	
3.32137	
3.25393	
3.17708	
3.25694	
2.48844	
2.35255	
2.44773	
2.56839	
2.71046	
0.77158	
0.514466	
2.88223	
1.29535	
0.452528	
0.920716	
3.0468	
4.00601	
1.79801	
2.2919	
2.69067	
3.06001	
2.61435	
3.18297	
2.19877	
2.9362	
3.01481	
1.62126	
1.77779	
1.86643	
2.31178	
1.31618	
2.45594	
2.94461	
2.70141	
2.90553	
2.60732	
2.64106	
2.96462	
2.97946	
3.01041	
2.79142	
3.16327	
2.84954	
2.76968	
2.88756	
2.86271	
2.85164	
2.77393	
2.7219	
2.80101	
2.85448	
1.75305	
1.74582	
2.95275	
2.92488	
3.49459	
3.3073	
2.93647	
2.84357	
2.91507	
2.64068	
2.81718	
1.95844	
2.64836	
2.79771	
2.70701	
2.76225	
2.65835	
2.61196	
2.77602	
2.67615	
2.80861	
2.72511	
2.67139	
2.86835	
2.64395	
2.60145	
2.46575	
2.42628	
2.7411	
2.05484	
2.77723	
2.2218	
1.22062	
3.0425	
2.82258	
1.63339	
3.071	
2.89762	
2.97131	
3.11691	
3.13352	
3.20645	
3.10987	
2.92356	
2.45433	
2.31803	
2.30469	
2.66501	
2.867	
2.4448	
2.86297	
3.19083	
3.27723	
2.29473	
2.19384	
2.4067	
2.40116	
2.42755	
2.51107	
2.61552	
2.58847	
2.62673	
2.73063	
2.7866	
2.66225	
2.86302	
2.63632	
2.54611	
2.45828	
2.609	
2.86828	
2.88939	
2.91995	
2.8669	
2.97924	
2.83431	
2.85188	
2.9034	
2.90096	
2.74757	
2.85591	
2.80955	
2.81266	
2.22202	
2.23463	
2.81064	
2.71054	
1.55007	
3.13735	
3.15482	
0.974711	
2.95166	
2.54333	
2.59212	
2.58588	
2.63275	
2.79949	
2.6921	
2.77825	
2.48035	
0.990601	
0.883381	
1.28129	
3.35458	
2.69977	
2.37142	
1.23425	
3.24442	
3.15674	
2.52639	
2.56448	
2.72855	
2.96798	
2.71991	
2.90801	
3.2002	
3.00278	
3.94474	
4.15116	
2.2969	
2.11535	
2.3599	
2.34386	
2.77608	
2.89809	
2.41932	
2.52999	
2.17344	
1.9265	
1.97036	
3.05026	
3.37128	
3.03987	
2.68277	
2.64867	
1.97981	
2.95225	
1.59714	
1.50662	
1.6278	
1.82932	
1.79871	
2.32381	
1.95088	
1.78852	
1.89529	
1.97347	
2.03632	
3.03394	
3.01299	
3.02749	
1.76089	
1.30493	
1.83409	
1.49902	
3.05665	
2.73319	
2.67544	
2.53895	
2.59016	
2.74554	
2.79671	
2.76698	
2.91624	
2.91273	
3.0386	
2.91594	
3.01224	
2.18312	
2.44649	
2.3917	
3.16624	
3.13812	
1.25418	
1.0562	
3.28464	
3.20065	
2.95896	
2.93269	
2.93598	
3.00817	
2.72421	
2.88418	
2.79395	
2.80024	
2.81675	
3.01973	
3.02794	
3.03026	
2.96519	
2.38983	
2.3659	
2.43416	
2.77448	
2.74671	
3.10391	
3.32266	
3.01726	
3.04222	
3.04635	
3.01879	
2.82769	
2.77301	
2.87421	
2.79044	
2.75618	
2.85378	
2.70871	
2.34948	
2.38926	
2.10424	
3.03148	
3.13577	
3.08744	
2.64022	
2.67807	
2.73896	
2.39042	
2.26364	
2.42508	
3.3962	
3.07179	
3.26745	
2.99848	
3.05099	
3.0045	
2.88049	
2.90167	
2.85621	
1.84736	
2.15055	
3.0713	
3.00079	
2.94962	
3.24179	
3.21142	
2.50866	
2.44917	
2.39009	
2.88696	
2.95925	
3.03722	
2.92325	
2.89081	
2.50527	
2.2972	
2.34564	
2.51776	
2.54655	
2.52941	
2.57876	
2.24407	
1.61825	
2.71074	
2.77443	
2.81586	
2.80837	
3.18574	
3.14372	
3.1872	
2.72225	
2.55057	
2.60968	
2.33176	
2.20561	
3.02341	
3.04705	
3.00333	
3.01885	
2.61608	
2.51433	
2.93387	
2.75296	
2.78572	
2.66916	
2.63868	
2.53448	
2.5283	
2.65054	
2.61217	
2.31861	
2.3234	
2.51	
2.36312	
2.70625	
2.69478	
2.67974	
2.68358	
3.02777	
3.06384	
3.03442	
2.59505	
2.48387	
2.49519	
2.44503	
2.47175	
2.50176	
2.40605	
2.57328	
2.98218	
2.22904	
2.79301	
3.06763	
3.00096	
2.8006	
2.83465	
2.84315	
2.66904	
3.07012	
2.86166	
2.82418	
2.8479	
2.93458	
2.43465	
2.42384	
2.51709	
2.47488	
2.41418	
2.41638	
2.51671	
2.41524	
3.26633	
3.0757	
3.05431	
2.99063	
2.43246	
1.79095	
1.08696	
3.19672	
3.12063	
2.86746	
2.86452	
3.05043	
3.03266	
3.01176	
3.00857	
2.66896	
2.8147	
2.5988	
3.13666	
3.06443	
3.15899	
3.11353	
2.46319	
2.5195	
2.49148	
2.56097	
0.709106	
0.619972	
3.27154	
3.20269	
2.86992	
2.82811	
2.79728	
2.81627	
2.57588	
2.50232	
2.64337	
2.50309	
2.52292	
2.50474	
2.64529	
2.47148	
2.53852	
2.25967	
2.28891	
2.56971	
2.62592	
2.68695	
2.73994	
1.19642	
1.27641	
1.49776	
2.73655	
2.79605	
2.7552	
2.78835	
3.40616	
2.91599	
2.93966	
1.80017	
2.3889	
2.30258	
2.40896	
2.29082	
2.15155	
1.98371	
2.22249	
2.11653	
2.90381	
2.96438	
2.93699	
3.04437	
3.01991	
2.86359	
2.90694	
2.8462	
2.89519	
2.88521	
2.9899	
2.94548	
2.97813	
3.09306	
3.04287	
3.05187	
2.95314	
2.9914	
2.82655	
2.95866	
2.91786	
2.8939	
3.23097	
3.12115	
3.14432	
3.07983	
2.87245	
2.91788	
3.02339	
2.96366	
2.89792	
2.8607	
3.24982	
3.79052	
3.17479	
3.10455	
3.14025	
3.28528	
3.04221	
2.9909	
2.97854	
2.98351	
2.99818	
2.98991	
2.93952	
1.96347	
1.90271	
1.92225	
1.903	
2.90152	
3.13428	
2.95251	
1.45946	
1.72904	
3.1025	
2.80262	
1.40099	
1.12307	
2.82564	
2.80915	
2.96885	
2.90698	
3.15327	
3.06489	
3.09341	
2.94757	
2.92686	
2.99808	
2.993	
3.05303	
3.05112	
3.11403	
2.88932	
2.96882	
2.90391	
3.03377	
3.02111	
3.05522	
2.92446	
2.96722	
2.96416	
2.94071	
2.93602	
3.0451	
3.3704	
3.05394	
3.1412	
2.74144	
2.02531	
1.93485	
2.07117	
1.86087	
2.87058	
2.90969	
3.07537	
3.08078	
3.06649	
3.10585	
2.84378	
3.01058	
2.97093	
3.02171	
3.16046	
2.94974	
3.00131	
3.04138	
3.05286	
2.33898	
2.33525	
2.47937	
3.08734	
3.31794	
3.39157	
2.51062	
2.49394	
2.87331	
2.85398	
2.86218	
2.56779	
2.54179	
3.15105	
3.11608	
2.79029	
2.24805	
2.17809	
1.98993	
2.85909	
2.68989	
2.83655	
1.80671	
1.67875	
3.09162	
2.71751	
1.6483	
1.61546	
3.22785	
3.1723	
2.72821	
2.65812	
2.68324	
2.87881	
2.82218	
2.84684	
3.12494	
1.1654	
2.70412	
2.70426	
2.75614	
2.64518	
2.83631	
2.76037	
2.76888	
3.13571	
3.03934	
3.00887	
2.32336	
2.40131	
2.29513	
2.45613	
2.99727	
2.98954	
2.97798	
3.00128	
2.74359	
2.66022	
2.67509	
2.93103	
2.89928	
3.46198	
3.57696	
2.55358	
2.14641	
2.25752	
3.15476	
3.03666	
3.13228	
2.27966	
2.6964	
2.81379	
3.04511	
3.07244	
3.0032	
3.06551	
2.78317	
2.8083	
2.71325	
2.78353	
2.94371	
2.97159	
2.99011	
3.02733	
2.1566	
1.92647	
2.54819	
2.56046	
3.03892	
2.97598	
2.98454	
2.95656	
2.87521	
3.04554	
2.88007	
2.46804	
2.38323	
2.4473	
2.37996	
2.85572	
2.82253	
2.91852	
2.9231	
2.90893	
2.81864	
3.01232	
2.88329	
2.47799	
2.48864	
2.53847	
2.52527	
2.63104	
2.71174	
2.66584	
2.84332	
2.73619	
2.76764	
2.76459	
2.86687	
2.90882	
2.9917	
2.82748	
2.95829	
2.90099	
3.17349	
3.08017	
2.90904	
2.94303	
2.932	
2.8955	
3.03428	
3.09883	
2.87901	
2.86434	
2.91134	
2.52554	
2.48523	
2.19701	
2.43894	
3.01216	
2.98211	
2.98936	
3.06769	
3.557	
3.14684	
2.64303	
2.70507	
2.71029	
2.85813	
2.90941	
2.80685	
2.60291	
2.64596	
3.02595	
2.03423	
2.0787	
2.76507	
2.67249	
2.73336	
2.7392	
2.76583	
2.79771	
2.74433	
2.75598	
2.71868	
2.73111	
3.35482	
3.24052	
3.60051	
3.25472	
0.92537	
0.92615	
0.666958	
0.468656	
2.29368	
2.3665	
2.4097	
2.35582	
2.87504	
2.86306	
2.84202	
2.80055	
2.83087	
2.91274	
2.79312	
2.82347	
2.02452	
1.90656	
2.04141	
1.88147	
2.8262	
2.97711	
2.79887	
2.87845	
2.83262	
2.67939	
2.83161	
2.6978	
2.92629	
2.95686	
2.92036	
2.99754	
2.9291	
2.90987	
2.98239	
2.95303	
3.07776	
3.06895	
1.2346	
2.90843	
2.93013	
2.65796	
2.53817	
2.5655	
2.65812	
2.90333	
2.47667	
2.77381	
2.55001	
2.8376	
1.35827	
1.63063	
1.54859	
1.05124	
0.8484	
0.754257	
2.63237	
2.66135	
2.78157	
1.42342	
1.30375	
1.90981	
0.843086	
1.11353	
2.21911	
1.20944	
1.09759	
2.59655	
2.55488	
2.4633	
2.85625	
2.88805	
2.81756	
2.71989	
2.98991	
2.62128	
2.40501	
2.42252	
2.62963	
2.56359	
2.63215	
2.62594	
2.98438	
3.00972	
2.99564	
3.03986	
1.23973	
1.45493	
2.90453	
2.94497	
2.98683	
2.87457	
3.03508	
2.52332	
2.74515	
1.89028	
1.42056	
1.61612	
1.645	
1.30539	
1.50579	
2.89448	
2.86967	
2.49374	
2.79332	
2.76027	
2.55949	
1.4639	
1.54725	
2.80071	
2.67114	
2.90158	
2.71059	
1.40258	
1.54116	
1.1857	
1.43506	
0.745333	
1.02104	
1.09108	
2.4603	
2.98456	
2.49996	
2.58995	
2.67291	
2.69565	
2.60365	
2.57984	
1.97846	
1.924	
2.25521	
2.0112	
2.67709	
3.06757	
2.60534	
2.64115	
0.543396	
1.01265	
0.805685	
2.00155	
1.96983	
2.33353	
1.99866	
2.58564	
2.54268	
2.63491	
2.54734	
0.926563	
0.668134	
0.928749	
0.676536	
2.05499	
1.88975	
2.26178	
-4.95201	
-6.89749	
-6.19262	
-6.31454	
-6.61185	
2.15335	
3.68161	
1.82174	
2.02137	
-1.45201	
-2.28428	
2.08501	
-1.86126	
-2.10727	
-2.38207	
-2.10799	
-5.52237	
-5.70747	
-4.6188	
-2.37284	
-5.75406	
-5.59325	
-0.771931	
0.0408113	
-0.286809	
-3.07093	
-4.89773	
-4.21794	
-3.32013	
-2.46364	
-2.44813	
-5.67923	
-5.70496	
-5.57394	
-5.2359	
-5.13061	
-6.0176	
-0.936921	
-6.31963	
-3.12391	
0.3774	
0.92235	
-3.85875	
-4.60323	
1.35587	
2.42918	
-4.38043	
-2.23478	
0.655573	
-1.44916	
-3.50138	
-4.5382	
-3.32727	
-4.00995	
-6.48997	
-6.26339	
-5.83552	
-1.18059	
-0.332553	
-2.41771	
-2.43493	
-5.84343	
-3.89255	
-3.32005	
-2.19427	
-2.5763	
-2.03347	
-2.59859	
-1.17923	
-3.06653	
-2.29813	
-3.17851	
-1.97207	
-4.6532	
-5.05479	
-0.477245	
-3.32192	
-3.72815	
-2.04426	
-1.82093	
-1.16029	
-4.44303	
-6.45842	
-5.69005	
-4.54129	
-2.64543	
-4.59326	
-4.93042	
-4.93263	
-1.34725	
-1.98467	
-5.33028	
-5.63752	
0.796925	
0.176783	
1.16031	
0.803479	
-5.08865	
-5.23058	
-5.2129	
-5.65763	
0.049807	
0.272165	
0.892828	
-2.2385	
-2.06359	
-1.77218	
-1.74407	
-4.65492	
-5.22329	
-5.06378	
-5.19168	
1.62345	
-4.40165	
-2.65618	
1.83585	
-0.408587	
0.854996	
-3.70865	
-6.22887	
-2.15519	
2.44299	
1.73872	
1.01435	
0.721598	
0.980803	
0.267008	
-0.852072	
-0.718945	
-4.89766	
-4.09679	
-4.35128	
-3.90313	
-3.45254	
-2.71149	
-3.60437	
-3.1098	
-0.871352	
0.561406	
-4.58349	
-4.36493	
-4.96645	
-4.77437	
0.720526	
0.665495	
1.13872	
1.29467	
-3.30174	
-3.56782	
-2.74405	
-2.69578	
-0.692795	
-1.90206	
-0.628237	
-1.80455	
-6.21295	
-4.53592	
-4.10481	
-5.81086	
-6.15932	
-6.16035	
-2.74359	
-3.68082	
-5.24153	
-4.22149	
-3.71811	
-4.62673	
-4.42348	
-4.30516	
-3.80865	
-4.50275	
-4.09288	
1.81194	
1.93344	
-3.08939	
-2.93209	
-3.10786	
-1.95128	
-2.945	
-3.24353	
-2.94538	
-2.0237	
-4.18799	
2.43446	
2.87632	
0.598653	
0.189646	
-6.49992	
-6.69213	
3.26715	
2.43598	
-4.79899	
-3.93444	
-4.66307	
-0.212689	
0.447197	
-0.0291891	
2.43304	
2.54486	
1.52513	
1.70536	
2.23633	
1.67492	
1.82948	
1.41819	
-4.85555	
-6.78425	
-6.74015	
1.40353	
0.834257	
1.13682	
0.332604	
-1.24923	
-0.709746	
-5.41461	
-5.69054	
-5.26331	
-5.36423	
-4.55347	
-4.58169	
-5.43274	
-5.53297	
-5.5169	
-5.88698	
-5.6638	
-5.54114	
-5.51342	
-5.93652	
-5.82461	
-5.74617	
0.114781	
0.274433	
-2.87387	
-2.78518	
-2.19101	
-2.57316	
-0.174611	
-0.783434	
-0.42807	
1.0506	
-5.33099	
-5.31415	
-5.44234	
-5.14874	
-5.7192	
-5.66966	
-6.19861	
-6.31467	
-5.46496	
-5.50551	
-5.5516	
-5.52242	
-5.88201	
-6.16869	
-5.83444	
-6.37039	
-1.22714	
-1.60902	
-0.677683	
-1.36011	
-3.5764	
-3.69983	
-3.66151	
-3.70563	
2.55348	
2.03026	
-2.09586	
-2.50552	
-2.85524	
-2.5945	
-2.34023	
-0.864234	
-1.53068	
-1.46689	
-2.16547	
-6.6449	
-7.11047	
-2.08455	
-2.02131	
-1.40375	
-3.00951	
-2.83784	
-2.66826	
-2.47982	
-2.09809	
-1.8138	
-1.22481	
-2.07409	
-2.7057	
-1.42616	
-2.0079	
-0.855787	
-0.395133	
-1.2658	
-1.23296	
-3.06277	
-4.28947	
-4.37022	
-3.84938	
2.17883	
-5.68215	
-0.0894505	
0.647705	
-7.01818	
-6.88005	
0.888005	
1.18712	
1.57778	
1.8152	
-3.03529	
-3.61646	
-2.84047	
-3.44417	
-4.21242	
-4.99962	
-4.33264	
-4.68065	
-5.26247	
-5.5327	
-5.5978	
-5.94079	
-3.33819	
-4.03478	
-3.29715	
-4.21316	
-4.631	
-4.38382	
-4.75441	
-4.4754	
0.401719	
-0.559063	
0.238379	
-6.40323	
-6.36885	
-6.0807	
-6.4947	
-5.03147	
-5.18429	
-5.3916	
-1.86095	
-1.82095	
2.45594	
1.8029	
0.9433	
0.21783	
0.413068	
-0.279798	
0.593434	
0.307142	
1.36019	
0.813432	
-3.94869	
-1.11832	
-1.60727	
-5.62912	
-4.29346	
-3.77008	
-4.21811	
-3.9042	
-5.69363	
-4.88254	
-5.64749	
-4.91448	
-5.56524	
-5.901	
-4.19356	
-3.68715	
-4.28728	
-4.2788	
-1.59976	
-1.30622	
-1.19091	
-0.914405	
1.12968	
1.49973	
1.42696	
1.94335	
-2.95526	
-2.87682	
-3.28931	
-3.23792	
-4.11749	
-5.82818	
-1.70224	
-0.796431	
-3.25495	
-4.0505	
-3.69587	
-3.32582	
0.577927	
1.56619	
1.70368	
0.992208	
1.42702	
-4.04651	
-0.813428	
0.0446374	
-0.631025	
0.0526339	
-6.55836	
-4.53982	
-4.01299	
-3.15481	
-2.7887	
-2.77739	
-2.82623	
-2.97618	
-2.91615	
-2.90343	
-3.49161	
-3.73801	
-3.28209	
-3.32545	
-4.00437	
-3.90387	
-6.2121	
-5.90733	
-5.74772	
-6.12585	
-5.38477	
-5.44009	
-5.46158	
-5.90179	
1.0727	
1.4908	
-4.48983	
-4.55679	
-4.85472	
-4.8507	
-5.65199	
-5.96102	
-5.23518	
-5.51814	
-6.37201	
-0.305207	
-2.89659	
-2.73971	
-2.21387	
-2.18317	
-3.21919	
-3.04832	
-6.69469	
-6.7934	
-6.1652	
-5.80164	
-6.16745	
-5.90697	
0.0157284	
0.905458	
0.147587	
0.71453	
-4.16135	
-1.86227	
-4.39081	
-3.79391	
-2.1321	
-1.71393	
-3.85237	
-3.19529	
-3.27821	
-2.68739	
-6.51947	
-6.72285	
-6.87018	
-6.85208	
-2.25921	
-2.26741	
0.593875	
0.779373	
0.201069	
0.406171	
-0.197544	
-0.28446	
-6.85138	
-6.33056	
0.53024	
0.368938	
1.07016	
-2.57592	
-2.56414	
-1.39727	
-1.36046	
-2.99657	
-2.8564	
-2.27858	
-2.14548	
0.2658	
-0.228201	
0.135809	
-0.384796	
-6.96792	
-6.6273	
-1.39217	
-0.912843	
-2.22147	
-1.75653	
-2.05051	
-4.75002	
-4.37984	
-5.59987	
-5.49244	
-5.27777	
-5.14991	
-2.26033	
-2.64036	
-2.10909	
-2.41718	
-2.68807	
-2.60895	
-2.65667	
-3.76837	
-3.82993	
-3.23293	