<VTKFile type="UnstructuredGrid" version="0.1" byte_order="LittleEndian">
	<UnstructuredGrid>
		<Piece NumberOfPoints="1917" NumberOfCells="3602">
			<CellData Scalars="scalars">
				<DataArray type="Float64" Name="Doublet Strengths" NumberOfComponents="1" Format="ascii">
1.48689	
0.295462	
1.21615	
1.1925	
1.10547	
2.93166	
0.555045	
0.545253	
0.524583	
0.515675	
0.678627	
0.303235	
0.104489	
2.54897	
0.280388	
0.12221	
0.234118	
2.62839	
0.423292	
0.732335	
0.654855	
0.661296	
0.809551	
0.473272	
0.540586	
0.508261	
0.70702	
0.402234	
0.75961	
0.814639	
0.748632	
0.90344	
0.793611	
0.585112	
0.685126	
0.660161	
0.730972	
0.829549	
0.813988	
0.97753	
0.87226	
0.894558	
0.793645	
0.848275	
0.82775	
0.887312	
0.788364	
0.868572	
0.788622	
0.479905	
0.532024	
0.753495	
0.763816	
0.71876	
0.736219	
1.0577	
0.75849	
0.722275	
0.685164	
0.780188	
0.535361	
0.814774	
0.829637	
0.735401	
0.760206	
0.84905	
0.890168	
0.756617	
0.795334	
0.809628	
0.742871	
0.761023	
0.793024	
0.903646	
0.83617	
0.974252	
0.601935	
1.50219	
0.470632	
0.377791	
0.771778	
0.735046	
0.808714	
0.465617	
0.851177	
0.953299	
0.819804	
0.992969	
0.758003	
0.79344	
0.642647	
0.593909	
0.812911	
0.725262	
0.757999	
0.649936	
0.788597	
0.83811	
0.661568	
0.796949	
0.653217	
0.628411	
0.87493	
0.818911	
0.693351	
0.712469	
0.689032	
0.806021	
0.846112	
0.81242	
0.863575	
0.831797	
0.881349	
0.794746	
0.756585	
0.787365	
0.795846	
0.793104	
0.77681	
0.783147	
0.780426	
0.787686	
0.768633	
0.771882	
0.774507	
1.01178	
0.872644	
0.957888	
0.83116	
0.62771	
0.555564	
0.914429	
0.931958	
0.387363	
0.965691	
1.03854	
0.814108	
0.68762	
0.666875	
0.702368	
0.693025	
0.787507	
0.741791	
0.724783	
0.451141	
0.229251	
0.26852	
0.341193	
1.22049	
1.62685	
1.04223	
0.613275	
0.682523	
0.36705	
0.296436	
1.18728	
1.07018	
0.750336	
0.898555	
0.427602	
0.941427	
0.85167	
0.783496	
0.782745	
0.725943	
2.91839	
2.83627	
0.635371	
0.61865	
0.598737	
0.589154	
0.793469	
0.802428	
0.554494	
0.545428	
0.59132	
0.628527	
0.63203	
0.576682	
0.525525	
0.766138	
0.742265	
0.759035	
0.580442	
0.552954	
0.613304	
0.718518	
0.454062	
0.630609	
0.479339	
0.356051	
0.387705	
0.433873	
0.520485	
0.55331	
0.556396	
0.566884	
0.507524	
0.526574	
0.615381	
0.727471	
0.818405	
0.889648	
0.804259	
0.434456	
0.418191	
0.459147	
0.434944	
1.10644	
1.37429	
1.02594	
0.984218	
1.00933	
0.692021	
0.638971	
0.454596	
0.390201	
0.830722	
0.799944	
0.865208	
0.803417	
1.04196	
0.92834	
1.02681	
0.938258	
0.535431	
0.559878	
0.29882	
1.08168	
0.977344	
0.784356	
0.738546	
0.754573	
0.726633	
0.591967	
0.853833	
0.885377	
0.860336	
0.827694	
0.914985	
0.907258	
1.05233	
1.04152	
0.744728	
0.750252	
0.744882	
0.736939	
0.795926	
0.82506	
0.825511	
0.792818	
0.782643	
0.79304	
0.783399	
1.05156	
0.961806	
1.03152	
0.890766	
0.327061	
0.310345	
0.964708	
0.789036	
0.828558	
0.744259	
0.903373	
0.645977	
0.68243	
0.587181	
0.849342	
0.949029	
0.9497	
0.743789	
0.913454	
0.759658	
0.719051	
0.713752	
0.733805	
0.745236	
0.735297	
0.753952	
0.754219	
0.696582	
0.692228	
0.692303	
0.72094	
0.645392	
0.69727	
0.841661	
1.01514	
0.915887	
1.15064	
1.20547	
0.791549	
0.730949	
0.725823	
0.918758	
0.770285	
0.857602	
0.927157	
0.598469	
0.600605	
0.614688	
0.785315	
0.625949	
0.749719	
0.641337	
0.541247	
0.482497	
0.75499	
0.97265	
0.924593	
0.860322	
0.936088	
0.788936	
0.89954	
0.968457	
0.999292	
0.826394	
0.547536	
0.720016	
0.922646	
1.05602	
1.03087	
1.06419	
0.573495	
0.6114	
0.648807	
0.724212	
0.715639	
0.840694	
0.801841	
0.780121	
0.924271	
0.916613	
0.990372	
1.01745	
0.730905	
0.80018	
0.745193	
0.795681	
0.743233	
0.765406	
0.740581	
0.779399	
0.748538	
0.768931	
0.802031	
0.765731	
0.793284	
0.767934	
0.924213	
0.849791	
1.06261	
0.864524	
0.730134	
0.676967	
0.724688	
0.656796	
0.604275	
0.82283	
0.818381	
0.835876	
0.808875	
0.681356	
1.01299	
0.961777	
0.865016	
0.86811	
0.754077	
0.768585	
0.762374	
0.774518	
0.75711	
0.750965	
0.783325	
0.781074	
0.976167	
0.862825	
0.832027	
0.943657	
0.70506	
0.616884	
0.402726	
0.319213	
0.823215	
0.808088	
0.760595	
0.771941	
0.76976	
0.758934	
0.741405	
0.752917	
0.70329	
0.676666	
0.711482	
0.673498	
0.76716	
0.743089	
0.842372	
0.753402	
0.653343	
0.635143	
0.66257	
0.662999	
0.263442	
0.223738	
1.05322	
1.11919	
0.878107	
0.923155	
0.794061	
0.94494	
0.616585	
0.633314	
0.593069	
0.636134	
0.664958	
0.805523	
0.743605	
0.703641	
0.73311	
0.669772	
0.654602	
0.747156	
0.705938	
0.819369	
0.749259	
0.287734	
0.39219	
0.341767	
0.863149	
0.805598	
0.852758	
0.803584	
0.888754	
1.00862	
1.00008	
0.571077	
0.55647	
0.561996	
0.744216	
0.744578	
0.797275	
0.734618	
0.782454	
0.596643	
0.681847	
0.606795	
0.80792	
0.804809	
0.827737	
0.833674	
0.770572	
0.772542	
0.764902	
0.765202	
0.822547	
0.883445	
0.881326	
1.00115	
0.916631	
1.01837	
0.988124	
0.91522	
1.04721	
0.903134	
1.01528	
0.990492	
0.699073	
0.67311	
0.765359	
0.952182	
0.879856	
0.964085	
0.87449	
0.926113	
0.847183	
0.700979	
0.749546	
0.797901	
0.787653	
0.821988	
0.839181	
0.818886	
0.876597	
0.85524	
0.743982	
0.765654	
0.827592	
0.865347	
0.572042	
0.484676	
0.559573	
0.518656	
0.701363	
0.664656	
0.388642	
0.328441	
0.728131	
0.724745	
0.343527	
0.291114	
0.599281	
0.637786	
0.652327	
0.656333	
0.695145	
0.74209	
0.707769	
0.74244	
0.724198	
0.72864	
0.743887	
0.642103	
0.650036	
0.682328	
0.698197	
0.679775	
0.625533	
0.755559	
0.714169	
0.767571	
0.740337	
0.799392	
0.779971	
0.836327	
0.812092	
0.883598	
0.844947	
0.854426	
0.83049	
0.682631	
0.618851	
0.75145	
0.624166	
0.715656	
1.25197	
1.07934	
1.03429	
1.0673	
0.995502	
0.951014	
0.843848	
1.05029	
0.993424	
0.866489	
1.04903	
0.829958	
0.864686	
0.811086	
0.927365	
0.732216	
0.726004	
0.606422	
0.598572	
0.603095	
0.819101	
0.86553	
0.801804	
0.66743	
0.646747	
0.654094	
0.685919	
0.65231	
0.607214	
0.642705	
0.81835	
0.896451	
0.843038	
0.640359	
0.585948	
0.537238	
0.723124	
0.480473	
0.571427	
0.644721	
0.650487	
0.670495	
0.824917	
0.502996	
0.493223	
0.763415	
0.493363	
0.604446	
0.790628	
0.765582	
0.758383	
0.801726	
0.906869	
0.809942	
0.671989	
0.649887	
0.866703	
0.749781	
0.400112	
0.531161	
0.712736	
0.847205	
0.857003	
0.850034	
0.898443	
0.703481	
0.741762	
0.783197	
0.736133	
0.734873	
0.577071	
0.56806	
0.584009	
0.571929	
0.833012	
0.869287	
0.818229	
0.85221	
0.811688	
0.968119	
0.952486	
0.753993	
0.735816	
0.765103	
0.816958	
0.70095	
0.655857	
0.624151	
0.881511	
0.813202	
0.931529	
0.866557	
0.918217	
0.780879	
0.91768	
0.622244	
0.563027	
0.511393	
0.69936	
0.683034	
0.7168	
0.691197	
0.952065	
0.925887	
0.889087	
0.839379	
0.743078	
0.769403	
0.760059	
0.774743	
0.889178	
0.86241	
0.847772	
0.868297	
0.440011	
0.430445	
0.72899	
0.770565	
0.738871	
0.664366	
0.726344	
0.655109	
0.763798	
0.996225	
0.859662	
0.97803	
0.955602	
0.89088	
0.99091	
0.975428	
1.01849	
0.607601	
0.620183	
0.680772	
0.646441	
0.679085	
0.834568	
0.82518	
0.805174	
0.819648	
0.784416	
0.734996	
0.787222	
0.738447	
0.775999	
0.787666	
0.804448	
0.837229	
0.89173	
0.955579	
0.61398	
0.635634	
0.661797	
0.643791	
0.834324	
0.891355	
0.771407	
0.769248	
0.78395	
0.677091	
0.686708	
0.644479	
0.675047	
0.740369	
0.743863	
0.695217	
0.604798	
0.622973	
0.535163	
0.715956	
0.71688	
0.715241	
0.716375	
0.887882	
0.850849	
0.833651	
0.824798	
0.636725	
0.744772	
0.87686	
0.853451	
0.597693	
0.587316	
0.856795	
0.874017	
0.929418	
0.856125	
0.850391	
0.864996	
0.834701	
0.810785	
0.802792	
0.794032	
1.07698	
1.21018	
1.12051	
1.29468	
0.228804	
0.242731	
0.11821	
0.16535	
0.687113	
0.618828	
0.697022	
0.630742	
0.759902	
0.724411	
0.74063	
0.719934	
0.891467	
0.906385	
0.796406	
0.804872	
0.57152	
0.494733	
0.522441	
0.498937	
0.857074	
0.790111	
0.754036	
0.756615	
0.717003	
0.724819	
0.705722	
0.713519	
0.798509	
0.829846	
0.805731	
0.820649	
0.786157	
0.804837	
0.775406	
0.287974	
0.776064	
0.769921	
0.643965	
0.661922	
0.653794	
0.255569	
0.361007	
0.641537	
0.608843	
0.573034	
0.539625	
0.506868	
0.662949	
0.637538	
0.610433	
0.576125	
0.325424	
0.437031	
0.327165	
0.870293	
0.841373	
0.989417	
0.799605	
0.811287	
0.874614	
0.726272	
0.705424	
0.723656	
0.672938	
0.947996	
0.981333	
1.12557	
1.22164	
0.827493	
0.772051	
0.703472	
0.667964	
0.686843	
0.697262	
0.698331	
0.512327	
0.490845	
0.735514	
0.751523	
0.832055	
0.839647	
0.40564	
0.351276	
0.402601	
0.715939	
0.720402	
0.713571	
1.7939	
1.28501	
0.683595	
0.642637	
0.411425	
0.861692	
0.901509	
0.948098	
1.37119	
0.589515	
0.594462	
0.691236	
0.674431	
0.316946	
0.293616	
0.383807	
0.382449	
0.782985	
0.778515	
0.725635	
0.73236	
1.04625	
0.966085	
0.531951	
0.522914	
0.930894	
0.774022	
0.698528	
0.696446	
0.652952	
0.687606	
0.759497	
0.748858	
0.879541	
0.819127	
0.942568	
0.808989	
0.899004	
0.762325	
0.397946	
0.357643	
0.296479	
0.283243	
0.602568	
0.59004	
0.58453	
0.57439	
0.447072	
0.475721	
-1.80034	
-3.32895	
-2.28278	
-2.2949	
-2.54918	
-1.62669	
0.600166	
2.35793	
0.345454	
0.603807	
-0.457789	
-0.480334	
0.48216	
-0.416225	
-0.491134	
-1.18151	
-0.671131	
-1.56033	
-1.48524	
-1.58938	
-1.16473	
-0.766856	
-1.52661	
-0.214037	
-0.0459954	
-0.0813567	
-0.898041	
-1.30472	
-1.17795	
-1.10057	
-0.66584	
-0.782709	
-1.55293	
-2.2429	
-1.53455	
-1.4771	
-1.56905	
-1.40463	
-0.340978	
-2.16337	
-0.977813	
0.0283009	
0.182032	
-1.30673	
-1.46415	
0.301427	
0.748519	
-1.57016	
-0.77645	
0.13697	
-0.47874	
-1.26359	
-2.07322	
-1.03223	
-1.37389	
-1.51084	
-2.23259	
-1.99914	
-0.476232	
-0.126051	
-0.882725	
-0.863871	
-1.58068	
-1.17112	
-1.45703	
-0.692989	
-0.957228	
-0.591292	
-0.826918	
-0.135709	
-1.03132	
-0.565044	
-1.0454	
-0.746123	
-1.83881	
-1.80842	
-0.283267	
-2.12913	
-1.32062	
-0.760534	
-0.374404	
-0.659946	
-1.28644	
-1.49171	
-1.55458	
-1.55607	
-1.4589	
-1.00003	
-1.46227	
-1.66424	
-1.53812	
-0.439887	
-0.61778	
-1.57534	
-1.57295	
0.263988	
-0.0551173	
0.202418	
0.190707	
-1.71077	
-2.24465	
-1.5516	
-2.14021	
-0.000871283	
-0.656728	
0.104218	
0.212653	
-0.515725	
-0.545932	
-0.599411	
-0.651553	
-1.66772	
-1.75614	
-1.71846	
-1.64596	
0.304987	
-1.39876	
-0.656597	
0.433765	
-0.193521	
0.124452	
-1.44126	
-1.73317	
-0.500316	
1.21067	
1.61634	
0.525517	
-0.0773008	
-0.251344	
0.0107489	
-0.373273	
-0.279046	
-1.65364	
-1.72726	
-1.82763	
-0.858243	
-0.994505	
-0.806474	
-1.03254	
-0.981224	
-0.353782	
0.340224	
-1.68487	
-1.79065	
-2.06089	
-1.83621	
0.012077	
0.113628	
0.206047	
0.195227	
-0.9861	
-1.2816	
-1.19083	
-1.40945	
-0.416055	
-0.736855	
-0.13361	
-0.49121	
-1.54303	
-1.39181	
-1.53693	
-1.57977	
-1.5196	
-1.59946	
-1.33352	
-2.26023	
-1.59583	
-2.32719	
-2.21525	
-2.30076	
-2.07958	
-2.15607	
-1.94027	
-1.48319	
-1.39102	
0.265315	
0.472067	
0.428097	
-0.96043	
-0.986107	
-1.07037	
-1.09527	
-1.03046	
-0.661033	
-0.860146	
-0.948169	
-1.36525	
1.07619	
1.22416	
1.41749	
0.0251044	
-0.0611611	
-1.56101	
-1.66997	
0.866198	
1.87817	
-1.84837	
-1.39433	
-1.3007	
-0.0895403	
-0.0560848	
0.0513647	
0.455801	
0.40746	
0.303982	
0.354267	
0.747421	
0.382351	
0.358381	
0.29057	
-1.42096	
-2.47342	
-2.38367	
0.293369	
0.198764	
0.786278	
0.438129	
-0.38945	
-0.19831	
-1.49614	
-1.38669	
-1.33086	
-1.47063	
-1.42822	
-1.47803	
-1.53782	
-1.26586	
-1.31793	
-1.42844	
-2.17655	
-1.72609	
-1.62043	
-1.57395	
-1.53575	
-1.52922	
0.0844853	
0.0171784	
-1.14564	
-0.69035	
-0.965258	
-1.22273	
-0.0648643	
-0.327646	
0.228574	
-0.0575842	
-1.79779	
-1.64102	
-1.67214	
-1.65506	
-1.56301	
-1.57747	
-1.62119	
-1.5555	
-1.53241	
-1.51459	
-1.52781	
-1.52442	
-2.56097	
-2.12751	
-2.14389	
-2.02473	
-0.206521	
-0.394478	
-0.20606	
-0.493604	
-1.03414	
-0.998278	
-1.13684	
-1.4708	
1.15581	
1.62341	
-0.588518	
-0.524252	
-0.659427	
-0.68422	
-0.860029	
-0.917602	
-0.918415	
-0.413057	
-2.40244	
-2.21967	
-0.780517	
-0.535773	
-0.73869	
-1.5818	
-1.12992	
-0.731819	
-0.636294	
-0.86048	
-0.893008	
-0.655081	
-0.374569	
-0.572987	
-0.782085	
-0.629323	
-1.19958	
-2.0266	
-1.55757	
-0.399813	
-0.274803	
-0.238079	
0.0387673	
-0.723351	
-1.37769	
-1.34379	
-1.06008	
0.315168	
-1.81797	
0.32791	
0.0620335	
-2.47154	
-3.1171	
0.504305	
0.610338	
1.2576	
1.42671	
-1.12899	
-1.30061	
-1.3193	
-1.47706	
-2.00639	
-1.87328	
-1.7759	
-1.88725	
-1.55336	
-1.7254	
-1.69905	
-2.14526	
-2.13617	
-1.29604	
-2.23524	
-1.97002	
-1.72161	
-2.46205	
-1.70871	
-2.25235	
-0.205128	
0.233463	
-1.64637	
-1.58495	
-1.6407	
-1.67504	
-1.41806	
-1.22963	
-1.35307	
-0.660035	
-0.601213	
0.703027	
1.10411	
0.177989	
0.767754	
-0.0238642	
0.413208	
0.549825	
0.149391	
0.547613	
0.266769	
-1.09965	
-0.484236	
-0.585846	
-1.50067	
-1.19873	
-1.28386	
-1.22717	
-1.30558	
-1.4777	
-1.54681	
-1.53025	
-1.98005	
-1.39437	
-1.31578	
-1.63758	
-1.33979	
-1.18328	
-1.29517	
-1.36245	
-0.44888	
-0.360853	
-0.625279	
-0.508837	
0.313557	
0.158244	
0.507769	
0.393416	
-1.26018	
-1.90176	
-0.741313	
-0.806915	
-0.833741	
-0.96308	
-1.49627	
-0.433078	
-0.248994	
-1.11608	
-1.27184	
-0.939264	
-0.873977	
0.0843691	
0.863133	
1.08756	
0.813313	
0.675432	
-1.06434	
-0.140318	
0.060155	
-0.206658	
0.0418487	
-1.76441	
-1.32393	
-1.13662	
-0.929402	
-0.848333	
-0.955347	
-0.90412	
-0.927416	
-0.879574	
-1.04506	
-1.27292	
-1.12466	
-1.22058	
-1.04831	
-1.02501	
-2.16938	
-1.74386	
-1.58808	
-1.58856	
-1.77992	
-1.69076	
-1.60859	
-1.59141	
0.276447	
0.210336	
-0.320935	
-1.79532	
-2.43979	
-1.70378	
-2.35988	
-1.63137	
-1.60315	
-1.49565	
-1.59243	
-1.80588	
-0.106573	
-0.645904	
-0.691485	
-0.820033	
-0.843442	
-1.17855	
-1.46039	
-2.28298	
-2.76567	
-1.66976	
-1.57601	
-1.5854	
-1.56673	
0.412298	
0.0219191	
0.838192	
0.16213	
-1.53588	
-0.417145	
-1.21892	
-1.45193	
-0.630493	
-0.78785	
-1.20395	
-1.71448	
-1.15896	
-1.45344	
-1.8828	
-2.47105	
-1.74765	
-1.89099	
-0.569876	
-0.555568	
0.182876	
0.125657	
0.299768	
0.179592	
0.109244	
0.0283712	
0.108235	
-2.25037	
-2.46566	
0.333597	
0.184043	
0.324067	
-1.11192	
-0.775229	
-0.783769	
-0.507016	
-1.04475	
-1.22393	
-0.905539	
-0.967713	
0.0337531	
-0.185544	
0.00074231	
-0.149152	
-2.88988	
-2.87496	
-2.23878	
-0.46308	
-0.698193	
-0.724385	
-0.558825	
-1.59785	
-1.63306	
-1.89669	
-1.94745	
-1.80537	
-1.82135	
-0.730136	
-0.599169	
-0.566829	
-0.798378	
-0.749516	
-1.08269	
-1.40914	
-1.58558	
-1.8592	
-1.12786	
-1.06497	
-1.47244	
-1.22896	
-1.54917	
0.256949	
0.197462	
-0.0364292	
-0.226132	
-0.115543	
-0.285918	
-0.772439	
-0.942835	
-0.764687	
-0.941077	
-1.38296	
-1.01618	
-1.81717	
-1.27957	
-1.16883	
-1.33732	
-1.48769	
0.465428	
0.308957	
0.25415	
-1.5096	
-1.53098	
-1.58969	
-1.54081	
-1.53511	
-1.43621	
-1.43777	
-1.40948	
0.0216808	
-0.0515644	
0.21434	
0.29394	
-0.376438	
-0.394083	
-0.0503161	
-0.19087	
0.986013	
0.890694	
1.5764	
0.0830594	
0.361359	
0.780258	
-1.21051	
-1.26483	
-1.31059	
-1.31275	
-1.41011	
-1.40128	
-1.64162	
-1.59136	
-1.58393	
-1.5369	
-1.84499	
-1.86246	
-0.550543	
-0.511377	
-0.676366	
-0.760434	
-0.866446	
-0.884887	
-1.05124	
-1.13068	
-0.898496	
-0.875563	
-1.03512	
-1.14032	
-1.43206	
-1.51355	
-1.47367	
-1.55151	
-1.51995	
-1.44047	
0.227019	
0.388366	
-1.15212	
-1.24849	
-1.22438	
-1.49901	
-1.43285	
-1.63361	
-2.33694	
-1.50739	
-1.49997	
0.362114	
-1.16049	
-1.11134	
-1.16676	
-1.55323	
-1.54001	
-1.73587	
-1.47124	
2.86448	
-1.22437	
-1.29136	
-1.14339	
-1.13346	
0.270369	
0.26458	
0.607045	
0.460636	
0.533788	
0.344489	
1.2927	
-1.38234	
-1.40687	
-1.68187	
-1.73984	
-1.68449	
0.43817	
-1.52477	
-1.67063	
-1.4163	
-1.42188	
0.279118	
0.232537	
-1.38602	
0.366032	
0.34372	
-1.1178	
-1.18089	
-1.04617	
-1.05651	
-1.14533	
-1.21319	
-2.08789	
-2.27697	
-1.32466	
-1.51916	
-1.17076	
-1.11652	
-1.03013	
-1.48552	
-1.26643	
-1.37745	
-1.35094	
-1.57388	
-1.3881	
-1.24766	
-1.15343	
-1.24982	
-1.09412	
-1.16436	
-1.2228	
0.575345	
0.431617	
0.476058	
-1.57189	
0.249555	
0.16591	
0.166686	
0.22311	
0.224215	
-1.51432	
-1.50607	
-1.50763	
0.0123368	
0.0706814	
-0.0447135	
0.0392558	
-1.51273	
-1.43326	
-1.47659	
-1.51891	
-1.50427	
-1.71372	
-1.51295	
-1.81602	
-1.57726	
0.53939	
0.605746	
0.403382	
-2.35773	
-1.65542	
-2.50175	
-1.69403	
-1.36491	
0.200137	
-1.52157	
-1.49561	
1.40606	
0.911686	
0.972554	
0.355574	
-1.32585	
-1.15112	
-1.0512	
-0.641411	
-0.619259	
-0.382244	
-1.17259	
-1.20416	
-2.11054	
-1.63232	
-1.72	
-1.66576	
-1.88863	
-0.201911	
-0.459614	
0.535402	
0.42403	
0.449472	
0.397469	
0.47456	
0.278088	
0.247547	
0.226912	
0.149628	
-1.84519	
-1.67646	
-1.76839	
-1.67336	
-1.36691	
-1.34409	
-1.51719	
-2.03275	
-2.1068	
0.148892	
0.0460843	
-0.277519	
-1.54287	
-1.70165	
-1.46301	
-1.63445	
-1.58801	
-1.48484	
-1.48166	
-1.41338	
-1.73405	
-1.75568	
-1.58909	
-1.30459	
-1.3886	
-1.43152	
-1.55995	
-1.28273	
-1.22437	
-1.33453	
-1.19981	
0.747436	
0.246744	
-1.35401	
-1.42124	
-1.43619	
-1.66707	
-0.809425	
-1.0438	
-1.31562	
-1.33873	
-1.44847	
-1.43692	
-1.38316	
-1.42667	
-1.03575	
-1.19136	
-1.60753	
-1.60447	
-1.56591	
-1.55178	
-1.714	
-1.64527	
-1.63833	
-1.59939	
-1.49775	
-1.69881	
-1.1006	
-1.10036	
-1.86039	
-2.2368	
-2.18485	
-1.70919	
-1.97295	
-1.80252	
-0.0887397	
-0.331841	
-0.364502	
0.29765	
0.208471	
-1.32795	
-1.37356	
-1.32574	
-0.348901	
-0.367228	
-0.281863	
-1.6349	
-1.55833	
-1.63989	
-1.56378	
-0.540488	
-0.459505	
-0.692977	
-0.770579	
-0.993048	
-1.41847	
-1.28121	
0.637235	
0.887238	
1.17642	
0.720149	
-0.187268	
-0.235638	
0.287487	
0.348196	
0.283041	
0.36578	
-1.7959	
-1.95213	
-1.77281	
-1.96481	
-0.693274	
-0.562711	
-0.231118	
1.8772	
2.83414	
-1.84423	
-2.00368	
-2.16015	
-2.68808	
-0.370508	
-0.275675	
-0.605032	
-0.423212	
0.494059	
0.488077	
0.293464	
0.280705	
0.198182	
-0.137747	
-0.339105	
0.0972455	
-0.243799	
0.312627	
0.361118	
-1.47608	
-2.01938	
-1.45447	
-1.57072	
-0.561351	
-0.724406	
-0.666407	
-0.809245	
1.3531	
1.20267	
-1.89888	
-1.76479	
0.304589	
0.339311	
0.400875	
0.380663	
0.690091	
0.26427	
-0.0692604	
-0.131556	
-0.0873986	
-0.0687982	
-0.0361069	
-0.0312115	
-0.0434227	
0.0242611	
0.0476125	
0.127275	
0.172947	
0.154284	
0.0866058	
-0.00317969	
-0.099621	
-0.0897333	
-0.0914234	
-0.0863736	
-0.0685202	
0.170805	
-0.0306503	
0.148239	
0.0711407	
0.114737	
0.0227237	
-0.110091	
0.140874	
0.0982216	
0.00196423	
-0.0721497	
0.0375232	
-0.175797	
-0.203135	
-0.238643	
-0.189913	
-0.218722	
-0.268291	
-0.135576	
0.127436	
0.0794728	
-0.179027	
-0.0627041	
-0.109769	
0.00239113	
-0.139991	
-0.168486	
-0.163334	
-0.158492	
-0.174925	
-0.197764	
0.15555	
1.29788	
0.102823	
1.22082	
1.19824	
1.13019	
1.49206	
0.5555	
0.518096	
0.524007	
0.542794	
0.700747	
0.205703	
0.102823	
1.18506	
0.274447	
0.0872416	
0.21964	
1.34583	
2.58585	
0.421536	
0.511156	
1.00829	
0.763951	
0.945749	
0.716858	
0.674964	
0.873155	
0.8468	
0.439857	
0.488278	
0.496422	
0.714254	
0.332062	
0.783088	
0.816203	
0.807294	
0.947596	
0.800129	
0.60253	
0.713688	
0.765672	
0.86283	
0.845555	
1.03588	
0.873099	
0.870879	
0.913059	
0.891188	
0.84327	
0.871134	
0.820275	
0.892582	
0.870653	
0.451677	
0.472819	
0.806093	
0.793432	
0.878692	
0.827742	
1.07971	
0.859578	
0.978035	
0.714393	
0.859773	
0.531541	
0.823947	
0.846427	
0.773319	
0.794629	
0.979946	
1.05534	
0.775469	
0.821601	
0.966471	
0.788822	
0.793124	
0.902422	
0.979154	
0.985165	
0.801514	
0.804808	
0.832809	
0.635138	
1.13056	
0.913134	
0.363176	
1.02963	
0.831087	
0.436243	
0.979275	
0.863471	
0.895711	
1.05316	
0.844571	
0.895048	
0.840226	
0.833488	
0.589112	
0.733134	
0.799896	
1.13564	
0.922036	
0.676294	
0.865844	
0.827041	
0.884288	
0.813568	
0.661654	
0.613361	
0.608033	
0.828864	
0.810515	
0.744294	
0.700063	
0.73307	
0.815555	
0.868472	
0.81145	
0.853577	
1.04358	
0.868478	
0.849792	
0.834865	
0.859963	
0.857953	
0.864821	
0.849513	
0.884839	
0.830846	
0.841948	
0.847213	
0.855346	
0.920306	
0.963406	
0.901401	
0.919585	
0.611314	
0.69721	
0.954028	
0.841715	
0.369219	
0.980666	
1.04658	
0.239124	
0.85584	
0.685146	
0.70604	
0.72343	
0.730267	
0.815457	
0.751536	
0.780026	
0.429657	
0.230806	
0.200043	
0.29766	
1.63145	
0.703834	
0.630683	
0.31405	
1.19601	
1.09733	
0.767873	
0.934141	
0.894299	
1.1518	
0.850545	
0.843623	
0.913346	
0.824997	
2.5152	
2.69052	
0.748502	
0.60981	
0.774698	
0.657425	
0.827639	
0.835451	
0.511052	
0.584314	
0.66161	
0.559968	
0.471879	
0.783839	
0.837391	
0.797951	
0.556578	
0.582591	
0.574854	
0.739565	
0.413853	
0.38892	
0.433422	
0.476401	
0.48598	
0.548178	
0.543725	
0.503754	
0.528579	
0.575971	
0.608002	
0.954747	
0.888549	
0.881728	
0.437036	
0.320934	
0.404711	
0.342871	
1.09993	
1.0392	
1.03101	
0.686607	
0.704243	
0.837541	
0.86986	
0.838606	
0.902723	
0.969521	
1.07209	
0.975725	
1.07738	
0.722214	
0.758692	
0.597146	
0.892789	
0.848093	
0.345884	
0.275674	
1.09543	
0.99283	
0.900097	
1.00424	
0.934481	
1.05661	
0.608405	
0.881968	
0.870968	
0.873801	
0.902965	
1.08528	
1.06449	
1.05021	
0.943787	
0.751944	
0.746178	
0.756649	
0.849338	
0.817737	
0.861826	
0.861262	
0.882355	
0.866297	
1.11299	
1.07149	
0.88956	
0.828475	
0.993456	
0.844648	
0.806853	
0.885646	
0.775976	
0.772698	
0.651586	
0.592626	
0.914959	
1.0224	
1.01528	
0.662256	
0.763304	
0.935354	
0.730675	
0.70397	
0.742229	
1.13891	
0.777636	
0.790279	
0.826031	
0.782588	
0.76637	
0.713841	
0.718852	
0.735457	
0.618919	
0.632037	
1.09277	
0.980282	
0.907776	
1.21189	
1.16978	
0.762362	
0.814322	
0.745815	
0.750566	
0.757864	
0.944902	
0.887896	
0.881568	
0.621046	
0.618988	
0.648433	
0.646175	
0.677041	
0.642044	
0.689247	
0.628488	
0.457149	
0.828892	
1.0238	
0.824273	
0.987164	
0.924705	
0.839086	
0.957097	
1.01127	
0.845671	
0.8363	
0.773038	
0.665447	
1.08511	
1.1122	
0.965906	
0.998885	
0.579716	
0.619208	
0.793893	
0.766274	
0.862295	
0.852912	
0.803889	
0.914287	
0.936916	
0.999807	
1.00271	
0.751864	
0.739331	
0.913419	
0.75433	
0.816226	
0.813771	
0.778403	
0.799715	
0.831548	
0.854331	
0.848676	
0.785888	
0.767607	
0.786681	
0.772914	
0.845387	
0.888416	
0.806144	
0.944646	
0.799022	
0.71304	
0.6205	
0.673084	
0.882451	
0.853929	
0.876551	
0.861514	
0.725099	
0.912667	
0.897354	
0.901681	
0.934718	
0.99744	
0.775666	
0.760188	
0.780073	
0.765787	
0.754695	
0.768353	
0.765602	
0.779794	
0.859516	
0.970451	
1.00486	
0.952932	
0.6164	
0.380051	
0.298263	
0.777264	
0.788203	
0.839436	
0.940042	
1.0826	
1.05771	
1.06966	
1.05346	
0.744628	
0.794427	
0.737425	
0.847566	
0.905278	
1.01769	
1.02811	
0.637701	
0.671304	
0.64553	
0.701186	
0.167678	
0.179848	
1.12504	
1.06104	
0.959449	
0.976877	
0.808749	
0.956324	
0.669936	
0.593965	
0.630724	
0.622969	
0.63516	
0.657779	
0.738754	
0.639326	
0.677932	
0.703893	
0.754802	
0.750211	
0.816265	
0.758706	
0.792391	
0.276894	
0.327968	
0.37537	
0.824025	
0.880149	
0.824087	
0.848261	
0.904804	
1.01571	
1.03352	
0.453396	
0.80756	
0.741859	
0.809434	
0.749389	
0.631452	
0.572548	
0.775898	
0.715664	
0.87131	
0.872585	
0.905574	
0.890195	
0.919945	
0.865828	
0.902294	
0.869882	
0.919008	
0.904466	
1.04193	
0.95301	
0.94865	
0.949301	
0.993473	
1.01787	
1.04568	
1.07862	
0.921172	
1.04406	
0.722925	
0.692401	
1.12163	
1.02538	
0.894981	
0.868605	
0.89971	
0.95366	
0.905214	
0.943483	
0.857734	
1.25338	
0.809484	
0.838952	
0.891159	
0.879904	
0.858409	
0.897716	
0.918184	
0.815791	
0.77879	
0.903585	
0.865272	
0.908284	
0.937394	
0.562709	
0.514036	
0.567091	
0.513366	
0.699174	
0.730758	
0.712439	
0.320898	
0.379868	
0.784115	
0.773343	
0.315653	
0.266059	
0.63272	
0.616014	
0.728748	
0.679972	
0.81316	
0.822288	
0.799556	
0.791602	
0.805734	
0.823761	
0.719015	
0.674777	
0.684084	
0.755975	
0.66888	
0.666404	
0.681998	
0.799045	
0.774168	
0.786653	
0.746927	
0.870313	
0.847996	
0.832994	
0.800779	
0.905802	
0.867117	
0.932523	
0.890391	
1.0236	
0.685326	
0.667877	
0.626067	
0.546501	
1.0955	
1.20205	
1.1238	
1.07026	
1.1065	
1.04586	
0.908486	
1.09052	
1.04326	
1.10187	
1.06646	
0.903085	
0.910293	
0.884163	
0.970831	
0.63354	
0.648653	
0.628542	
0.842608	
0.860589	
0.896029	
0.698597	
0.678798	
1.08324	
0.705229	
0.671656	
0.628697	
0.661369	
0.871422	
0.920374	
0.652208	
0.756345	
0.608984	
0.537137	
0.664394	
0.707495	
0.683514	
0.506442	
0.439734	
0.918233	
0.697253	
0.461714	
0.522028	
1.17073	
1.08759	
0.83028	
0.820347	
0.844004	
0.66796	
0.68843	
0.836085	
0.844466	
0.287568	
0.765295	
0.840665	
0.871179	
0.825747	
0.829017	
0.717892	
0.762623	
0.915529	
0.875698	
0.881126	
0.614046	
0.606787	
0.604508	
0.593959	
0.892001	
0.929752	
0.900286	
0.93494	
0.983885	
0.775009	
0.96884	
0.772389	
0.752196	
1.23045	
1.93295	
1.05129	
0.700072	
0.776692	
1.05208	
0.911453	
0.874002	
0.519028	
0.78812	
0.860973	
0.946801	
0.966248	
0.875622	
0.913258	
0.801124	
0.782128	
0.804949	
0.793791	
0.893709	
0.925732	
0.945398	
0.916713	
0.424899	
0.431255	
0.790703	
0.75024	
0.890542	
0.854861	
0.826175	
0.827031	
0.777743	
0.996527	
0.902192	
0.749311	
0.691179	
0.785201	
0.725371	
0.979583	
0.968621	
1.01052	
0.900556	
1.00165	
0.893452	
1.02082	
0.992581	
0.703465	
0.672364	
0.702555	
0.647356	
0.66543	
0.823724	
0.771018	
0.937986	
0.778659	
0.862834	
0.8546	
0.981217	
1.01831	
0.656097	
0.657853	
0.665517	
0.682962	
0.846667	
0.830266	
0.721344	
0.713751	
0.70685	
0.6936	
0.865589	
0.888315	
0.824986	
0.825172	
0.830737	
0.619208	
0.713807	
0.548829	
0.640617	
0.77763	
0.791349	
0.732891	
0.817886	
0.874066	
0.974572	
0.820247	
0.833702	
0.86882	
0.848872	
0.872561	
0.904067	
0.837082	
1.0708	
0.84373	
0.606307	
0.617108	
0.941756	
0.86739	
0.90121	
0.886656	
0.872139	
0.884831	
0.865257	
0.873648	
0.832084	
0.843841	
1.21704	
1.0877	
1.48277	
1.12846	
0.231236	
0.241817	
0.147541	
0.0865963	
0.687813	
0.716898	
0.678596	
0.687666	
0.742881	
0.777891	
0.739623	
0.759012	
0.951997	
0.92486	
0.867543	
0.861214	
0.611898	
0.626966	
0.630734	
0.566602	
0.812522	
0.88138	
0.777527	
0.760473	
0.824612	
0.739802	
0.911519	
0.797405	
0.858436	
0.88441	
0.916473	
0.977832	
0.951853	
0.932719	
0.917696	
0.935725	
1.04489	
1.08261	
0.305618	
0.823329	
0.822185	
0.689013	
0.693201	
0.693032	
0.765905	
0.852259	
0.574069	
0.627561	
0.648727	
0.755294	
0.336586	
0.408781	
0.390601	
0.266061	
0.216065	
0.206378	
0.600255	
0.731969	
0.727937	
0.357552	
0.319955	
0.480944	
0.190362	
0.271593	
0.418605	
0.306878	
0.31027	
0.831467	
0.894944	
0.830681	
0.902178	
0.952828	
0.877717	
0.755174	
0.850835	
0.573493	
0.548194	
0.577325	
0.73044	
0.708818	
0.74109	
0.734576	
0.810428	
0.800417	
0.839797	
0.895621	
0.335059	
0.387217	
0.776245	
0.793961	
0.798198	
1.1389	
1.35008	
0.672675	
0.711331	
0.752923	
0.34772	
0.408266	
0.431212	
0.356831	
0.438562	
0.967229	
0.917557	
0.884473	
1.10825	
0.606397	
0.600955	
0.358129	
0.402326	
0.910113	
0.775042	
0.762828	
0.760394	
0.350909	
0.3961	
0.290224	
0.357979	
0.174153	
0.243881	
0.260938	
0.836978	
1.17372	
0.782438	
0.908408	
0.97221	
0.909182	
0.908716	
0.862299	
0.513977	
0.469277	
0.553158	
0.512069	
0.799681	
0.822352	
0.719253	
0.705281	
0.105307	
0.24327	
0.191451	
0.559449	
0.504197	
0.613498	
0.509081	
0.591955	
0.591967	
0.617291	
0.609852	
0.219746	
0.147523	
0.217172	
0.144031	
0.472704	
0.509062	
0.507682	
-1.8932	
-3.33516	
-2.29608	
-2.58032	
-3.23787	
0.620069	
2.31707	
0.345441	
0.454908	
-0.498041	
-0.640693	
0.496335	
-0.505507	
-0.582787	
-1.24279	
-0.686434	
-1.72143	
-1.77013	
-1.21783	
-0.817375	
-1.6932	
-1.84351	
-0.191259	
-0.0323466	
-0.0634455	
-1.04868	
-1.45559	
-1.27359	
-1.14677	
-0.812993	
-0.757532	
-1.71462	
-1.74546	
-1.66947	
-1.73227	
-1.61626	
-1.8473	
-0.347625	
-2.22779	
-0.998755	
0.0459113	
0.212836	
-1.31249	
-1.51006	
0.404862	
1.06118	
-1.53468	
-0.801981	
0.138402	
-0.545222	
-1.31487	
-1.37017	
-1.31957	
-1.38855	
-1.6621	
-2.38373	
-2.36198	
-0.569374	
-0.194957	
-0.837987	
-0.865558	
-1.73238	
-1.7591	
-1.19696	
-0.744837	
-0.903585	
-0.700941	
-0.923691	
-0.405782	
-1.04798	
-0.745754	
-1.40267	
-0.683363	
-1.49328	
-1.69576	
-0.28608	
-1.12013	
-1.49544	
-0.73894	
-0.630522	
-0.35137	
-1.96499	
-2.44376	
-1.67857	
-1.49731	
-0.961141	
-1.48709	
-1.43789	
-1.44693	
-0.445104	
-0.619563	
-1.61221	
-1.65165	
0.522302	
-0.0217218	
0.217871	
0.170319	
-1.68737	
-2.18489	
-1.73701	
-2.23772	
0.00249662	
0.107204	
0.190311	
-0.77225	
-0.717669	
-0.666192	
-0.629414	
-1.63573	
-1.86795	
-1.76605	
-1.87539	
0.302174	
-1.43621	
-0.793826	
0.432931	
-0.189182	
0.120878	
-1.28494	
-1.83176	
-0.638192	
1.70858	
0.923807	
0.557092	
-0.0761716	
0.0124205	
-0.0597353	
-0.379478	
-0.27827	
-1.69693	
-1.4055	
-1.5418	
-1.41347	
-1.07432	
-0.883208	
-1.09916	
-0.917384	
-0.349042	
0.322018	
-2.07855	
-1.9043	
-1.79297	
-1.65832	
0.0908263	
0.0661628	
0.18476	
0.198653	
-1.23588	
-1.45799	
-1.02108	
-1.06412	
-0.129346	
-0.776134	
-0.129663	
-0.724204	
-2.34251	
-1.56381	
-1.34316	
-1.75103	
-1.86828	
-1.93443	
-1.3317	
-1.75377	
-1.58351	
-2.10374	
-1.45633	
-2.35944	
-2.01723	
-1.50423	
-1.47992	
-1.71208	
-1.9364	
0.408703	
0.457639	
-1.08069	
-0.977114	
-1.10516	
-0.77957	
-1.04751	
-1.0143	
-0.983118	
-0.676886	
-1.50805	
1.20418	
1.34933	
0.0335703	
-0.0529281	
-2.03011	
-2.06644	
1.89168	
0.880708	
-1.40577	
-1.28515	
-1.45719	
-0.159192	
0.0202538	
-0.107049	
0.411148	
0.470095	
0.284263	
0.322173	
0.947574	
0.363895	
0.388117	
0.293962	
-1.62665	
-2.63077	
-2.58585	
0.849913	
0.475423	
0.609338	
0.228362	
-0.612093	
-0.312506	
-1.52901	
-1.62385	
-1.56677	
-1.58179	
-1.39839	
-1.37913	
-1.65531	
-1.36716	
-1.436	
-1.56571	
-1.81401	
-2.31152	
-1.74685	
-1.68174	
-1.69254	
-1.6716	
-0.0548829	
0.00853303	
-1.11597	
-0.950084	
-0.752795	
-1.28516	
-0.0610583	
-0.336526	
-0.258116	
0.231456	
-1.77061	
-1.89155	
-1.8157	
-1.79004	
-1.78297	
-1.80112	
-1.96903	
-2.39513	
-1.67405	
-1.67537	
-1.66012	
-1.65262	
-2.16502	
-2.31934	
-2.01597	
-2.19438	
-0.373461	
-0.498034	
-0.197127	
-0.395678	
-1.12977	
-1.19938	
-1.57842	
-1.27948	
1.62456	
1.43569	
-0.597423	
-0.760659	
-0.81665	
-0.930006	
-0.763442	
-0.423648	
-0.622523	
-0.644832	
-0.942141	
-2.30593	
-2.52377	
-0.754562	
-0.710517	
-0.520305	
-1.06578	
-0.877653	
-0.826272	
-0.741696	
-0.646945	
-0.58569	
-0.366377	
-0.938712	
-1.18311	
-0.58645	
-0.798703	
-0.212905	
-0.0119087	
-0.367693	
-0.261036	
-1.06048	
-1.32043	
-1.39156	
-1.36532	
0.318015	
-1.79564	
0.0797419	
0.343528	
-3.31877	
-3.40229	
0.624903	
0.85672	
1.16928	
1.27119	