<VTKFile type="UnstructuredGrid" version="0.1" byte_order="LittleEndian">
	<UnstructuredGrid>
		<Piece NumberOfPoints="1917" NumberOfCells="3602">
			<CellData Scalars="scalars">
				<DataArray type="Float64" Name="Doublet Strengths" NumberOfComponents="1" Format="ascii">
1.57213	
0.32501	
1.30515	
1.28462	
1.19634	
3.00333	
0.666696	
0.661096	
0.631844	
0.623077	
0.778051	
0.338063	
0.121082	
2.6276	
0.334041	
0.138829	
0.266081	
2.70458	
0.496378	
0.843527	
0.759785	
0.755696	
0.901384	
0.531367	
0.604947	
0.570625	
0.789099	
0.450949	
0.84917	
0.911751	
0.846484	
1.00238	
0.883548	
0.678252	
0.790932	
0.761447	
0.834957	
0.939467	
0.91601	
1.07208	
1.01543	
0.994469	
0.893723	
0.948157	
0.924568	
0.9817	
0.890112	
0.967295	
0.88416	
0.550821	
0.600605	
0.852783	
0.86792	
0.817574	
0.837016	
1.20671	
0.855774	
0.821006	
0.779034	
0.876698	
0.600441	
0.905011	
0.924566	
0.830593	
0.859095	
0.94327	
0.987382	
0.853838	
0.88934	
0.903626	
0.839048	
0.85883	
0.876786	
0.983177	
0.922301	
1.05455	
0.673617	
1.5943	
0.537712	
0.433397	
0.86923	
0.833614	
0.909364	
0.528682	
0.944096	
1.04846	
0.91096	
1.08557	
0.851463	
0.884999	
0.763884	
0.704388	
0.885858	
0.803034	
0.845397	
0.739401	
0.890061	
0.933921	
0.734105	
0.869641	
0.771493	
0.737364	
0.970063	
0.908602	
0.793483	
0.812333	
0.794881	
0.897696	
0.940904	
0.906436	
0.960684	
0.928252	
0.96761	
0.897925	
0.852595	
0.881843	
0.893399	
0.886235	
0.876841	
0.880298	
0.87374	
0.88052	
0.861773	
0.862637	
0.867697	
1.16446	
0.982838	
1.05969	
0.944394	
0.734337	
0.62505	
1.006	
1.02287	
0.436156	
1.05711	
1.13507	
0.905582	
0.801742	
0.771696	
0.806772	
0.794492	
0.893217	
0.844446	
0.829852	
0.511603	
0.261738	
0.305882	
0.38847	
1.30871	
1.72205	
1.14367	
0.703172	
0.784071	
0.413003	
0.333194	
1.27919	
1.16143	
0.842777	
0.979724	
0.479095	
1.06456	
0.967701	
0.886145	
0.873142	
0.818016	
2.99563	
2.91365	
0.717191	
0.700111	
0.684204	
0.66856	
0.896441	
0.911822	
0.667341	
0.655986	
0.703425	
0.745534	
0.705691	
0.631805	
0.584142	
0.867797	
0.844263	
0.857047	
0.695051	
0.664031	
0.690821	
0.82151	
0.508145	
0.688712	
0.537919	
0.402318	
0.437346	
0.488443	
0.584134	
0.618333	
0.626438	
0.640631	
0.568751	
0.589643	
0.683621	
0.796175	
0.913413	
0.98264	
0.900572	
0.491728	
0.479485	
0.517593	
0.491256	
1.20909	
1.48928	
1.11092	
1.06543	
1.09644	
0.79354	
0.741075	
0.511543	
0.442628	
0.930736	
0.898547	
0.968927	
0.905687	
1.13759	
1.02616	
1.12405	
1.03803	
0.618434	
0.642415	
0.342499	
1.16971	
1.06797	
0.887461	
0.83722	
0.854299	
0.82509	
0.688924	
0.952522	
0.981639	
0.967759	
0.927198	
1.02108	
1.00799	
1.15155	
1.13909	
0.830694	
0.841893	
0.828934	
0.820023	
0.896391	
0.923585	
0.926875	
0.895477	
0.880464	
0.889461	
0.880126	
1.14698	
1.06218	
1.12608	
1.02332	
0.355563	
0.347124	
1.05641	
0.884884	
0.923644	
0.861394	
1.05619	
0.72008	
0.758027	
0.656712	
0.945083	
1.04011	
1.04059	
0.846123	
1.0059	
0.833761	
0.798363	
0.795472	
0.829484	
0.846518	
0.841134	
0.866826	
0.877103	
0.800259	
0.802636	
0.797708	
0.82343	
0.701954	
0.760945	
0.939166	
1.11686	
1.01864	
1.24075	
1.29531	
0.874097	
0.81374	
0.828896	
1.02292	
0.87448	
0.961611	
1.03686	
0.687997	
0.68857	
0.702759	
0.889744	
0.728853	
0.876172	
0.744265	
0.621356	
0.539709	
0.848197	
1.0633	
1.01852	
0.951598	
1.02562	
0.879762	
0.989501	
1.05224	
1.08821	
0.916239	
0.630194	
0.79789	
1.02265	
1.15405	
1.12737	
1.15943	
0.68112	
0.712223	
0.750738	
0.822795	
0.809149	
0.941499	
0.905512	
0.880418	
1.00344	
0.99738	
1.06999	
1.09868	
0.80972	
0.88113	
0.82613	
0.876946	
0.838437	
0.862455	
0.834527	
0.876231	
0.840832	
0.859091	
0.89266	
0.854254	
0.885605	
0.855791	
1.01398	
0.944676	
1.15859	
0.956289	
0.834487	
0.762906	
0.835788	
0.772596	
0.704599	
0.919791	
0.913033	
0.939057	
0.90571	
0.776868	
1.11265	
1.06833	
0.972741	
0.987187	
0.838475	
0.852837	
0.848788	
0.862092	
0.844476	
0.837301	
0.871832	
0.869541	
1.08023	
0.966624	
0.936359	
1.04669	
0.833669	
0.741532	
0.455728	
0.360539	
0.9239	
0.905123	
0.859951	
0.88296	
0.871963	
0.856643	
0.839449	
0.84957	
0.802354	
0.777616	
0.809467	
0.772643	
0.865782	
0.842789	
0.938452	
0.851038	
0.756691	
0.739562	
0.762864	
0.763374	
0.296556	
0.252427	
1.14828	
1.22675	
0.970448	
1.0148	
0.8936	
1.03555	
0.708687	
0.748576	
0.698214	
0.740933	
0.768203	
0.938072	
0.875086	
0.814765	
0.876644	
0.749446	
0.732053	
0.832906	
0.790895	
0.914098	
0.860502	
0.336103	
0.451253	
0.393668	
0.958547	
0.901034	
0.949778	
0.901286	
0.983637	
1.10499	
1.0937	
0.653749	
0.627614	
0.627232	
0.822398	
0.82183	
0.876893	
0.813676	
0.854916	
0.666069	
0.76285	
0.683824	
0.903149	
0.899932	
0.924255	
0.928833	
0.866903	
0.866892	
0.860709	
0.858898	
0.921038	
1.00435	
0.980819	
1.09838	
1.03968	
1.12317	
1.09462	
1.02352	
1.14599	
1.00384	
1.11469	
1.08768	
0.802613	
0.776145	
0.858445	
1.04479	
0.987935	
1.08741	
0.97639	
1.03034	
0.952943	
0.792463	
0.838314	
0.903962	
0.891727	
0.925879	
0.938937	
0.921615	
0.977791	
0.962337	
0.845598	
0.866005	
0.928989	
0.965836	
0.634191	
0.543787	
0.625553	
0.581018	
0.809177	
0.768158	
0.458694	
0.38855	
0.823148	
0.819673	
0.389521	
0.330302	
0.698277	
0.739496	
0.755769	
0.759467	
0.801636	
0.85009	
0.812952	
0.853974	
0.82199	
0.826509	
0.861014	
0.743079	
0.756178	
0.791392	
0.804774	
0.782101	
0.729605	
0.861664	
0.816139	
0.871582	
0.845447	
0.901803	
0.880034	
0.942127	
0.913879	
0.990303	
0.948238	
0.955046	
0.930037	
0.779429	
0.698806	
0.818165	
0.696271	
0.776827	
1.35362	
1.19042	
1.13252	
1.16442	
1.12331	
1.05514	
0.939487	
1.14471	
1.08877	
0.959061	
1.15057	
0.9237	
0.957789	
0.907686	
1.01974	
0.821757	
0.816283	
0.691045	
0.685379	
0.693194	
0.914325	
0.961076	
0.894635	
0.765806	
0.747156	
0.779945	
0.790379	
0.755389	
0.698793	
0.739569	
0.910021	
0.987592	
0.934936	
0.743306	
0.66356	
0.610226	
0.797591	
0.534063	
0.622595	
0.738001	
0.750061	
0.770826	
0.940445	
0.571527	
0.556004	
0.861908	
0.556466	
0.698481	
0.883192	
0.85629	
0.849154	
0.905747	
1.05008	
0.913644	
0.774236	
0.754022	
0.960592	
0.846346	
0.445451	
0.571454	
0.817101	
0.950764	
0.967404	
0.960619	
1.03409	
0.80274	
0.846921	
0.875135	
0.833422	
0.829996	
0.662848	
0.655568	
0.667799	
0.658055	
0.925312	
0.961256	
0.910189	
0.943534	
0.904012	
1.05445	
1.03615	
0.866141	
0.846565	
0.856953	
0.910218	
0.788882	
0.735884	
0.701414	
0.977283	
0.910425	
1.02516	
0.976693	
1.02443	
0.891378	
1.02723	
0.755862	
0.682355	
0.605062	
0.797443	
0.780917	
0.819114	
0.789593	
1.04591	
1.01989	
0.981036	
0.9337	
0.83859	
0.868378	
0.858187	
0.87196	
0.988062	
0.961535	
0.94472	
0.962967	
0.517221	
0.514968	
0.817806	
0.856963	
0.84049	
0.749853	
0.811642	
0.739875	
0.84667	
1.08867	
0.951779	
1.07015	
1.04669	
1.00046	
1.09194	
1.0723	
1.11338	
0.698996	
0.710289	
0.776342	
0.735537	
0.769069	
0.931446	
0.925377	
0.905952	
0.92201	
0.882766	
0.831687	
0.88126	
0.834756	
0.876914	
0.886688	
0.902429	
0.935725	
0.990427	
1.05247	
0.713954	
0.740833	
0.767577	
0.748548	
0.928378	
0.984738	
0.861189	
0.858973	
0.874181	
0.782176	
0.78842	
0.74677	
0.777193	
0.83476	
0.835099	
0.786578	
0.702196	
0.715574	
0.620783	
0.822929	
0.826892	
0.821302	
0.822519	
1.00739	
0.962418	
0.943158	
0.933238	
0.722399	
0.853823	
0.979842	
0.962831	
0.66792	
0.657044	
0.95121	
0.967214	
1.04067	
0.950499	
0.948587	
0.963161	
0.92929	
0.915279	
0.898378	
0.891354	
1.16541	
1.29608	
1.20825	
1.37843	
0.261466	
0.27555	
0.137608	
0.189353	
0.771647	
0.703266	
0.780677	
0.717689	
0.869146	
0.828027	
0.838423	
0.820564	
0.98372	
0.998395	
0.892225	
0.901434	
0.645521	
0.562331	
0.599092	
0.574202	
0.975963	
0.891981	
0.857826	
0.855629	
0.815704	
0.821862	
0.80655	
0.811194	
0.901273	
0.922674	
0.898457	
0.923109	
0.886784	
0.907973	
0.874768	
0.32208	
0.86625	
0.85957	
0.740648	
0.754999	
0.745095	
0.287318	
0.402086	
0.736169	
0.695132	
0.665795	
0.627634	
0.589114	
0.720317	
0.688714	
0.656959	
0.667833	
0.368469	
0.491884	
0.372481	
0.971245	
0.933816	
1.08714	
0.89551	
0.909247	
0.972416	
0.823799	
0.80364	
0.821075	
0.76756	
1.04088	
1.07111	
1.22001	
1.31686	
0.942177	
0.874075	
0.798755	
0.758754	
0.779999	
0.790336	
0.790371	
0.568649	
0.541551	
0.836994	
0.851155	
0.928438	
0.941626	
0.456736	
0.399416	
0.455407	
0.819462	
0.823703	
0.817637	
1.88437	
1.39094	
0.786281	
0.73743	
0.469919	
0.958486	
0.997385	
1.03931	
1.47318	
0.690969	
0.701629	
0.786532	
0.768137	
0.337572	
0.324959	
0.421862	
0.421963	
0.877122	
0.873518	
0.822275	
0.832893	
1.15019	
1.0827	
0.604504	
0.590236	
1.02284	
0.867573	
0.792451	
0.79079	
0.76895	
0.808954	
0.881427	
0.873468	
0.983133	
0.921334	
1.03928	
0.89206	
0.999941	
0.849577	
0.442096	
0.399101	
0.333201	
0.318032	
0.697403	
0.680687	
0.678248	
0.664559	
0.535094	
0.557818	
-1.95976	
-3.48418	
-2.46604	
-2.47027	
-2.74919	
-1.70298	
0.682071	
2.42756	
0.426067	
0.69852	
-0.504987	
-0.562053	
0.568418	
-0.491028	
-0.582014	
-1.2438	
-0.745039	
-1.74696	
-1.69473	
-1.78753	
-1.33697	
-0.84568	
-1.72597	
-0.246763	
-0.0374985	
-0.102391	
-1.00116	
-1.46648	
-1.32414	
-1.21231	
-0.739661	
-0.866405	
-1.74902	
-2.4394	
-1.73053	
-1.6526	
-1.74391	
-1.56639	
-0.368868	
-2.35613	
-1.08823	
0.0471911	
0.217107	
-1.44054	
-1.62421	
0.345968	
0.805761	
-1.7229	
-0.848845	
0.170604	
-0.525101	
-1.37338	
-2.20914	
-1.11889	
-1.50469	
-1.73643	
-2.43258	
-2.16894	
-0.509112	
-0.129245	
-0.960639	
-0.971752	
-1.7819	
-1.27658	
-1.58475	
-0.766609	
-1.04841	
-0.657703	
-0.9159	
-0.1508	
-1.11389	
-0.630653	
-1.14909	
-0.836858	
-1.99391	
-1.97716	
-0.297894	
-2.23458	
-1.41721	
-0.82947	
-0.418101	
-0.723047	
-1.4129	
-1.67588	
-1.75349	
-1.75389	
-1.61963	
-1.0772	
-1.62762	
-1.82058	
-1.6974	
-0.488899	
-0.693016	
-1.75266	
-1.76301	
0.309984	
-0.0489744	
0.254475	
0.247159	
-1.88543	
-2.40168	
-1.7057	
-2.28813	
0.028756	
-0.705969	
0.112756	
0.251143	
-0.571381	
-0.60255	
-0.664801	
-0.719467	
-1.83424	
-1.92358	
-1.8943	
-1.79431	
0.383342	
-1.54904	
-0.759413	
0.523015	
-0.194379	
0.165984	
-1.55707	
-1.92123	
-0.555584	
1.27482	
1.65699	
0.545651	
-0.0564492	
-0.259159	
0.0416024	
-0.400288	
-0.301288	
-1.78488	
-1.87437	
-1.98577	
-0.988233	
-1.11512	
-0.912969	
-1.15916	
-1.11625	
-0.372122	
0.358685	
-1.83911	
-1.92361	
-2.20296	
-1.95704	
0.0365713	
0.156243	
0.263636	
0.250464	
-1.07437	
-1.39726	
-1.29496	
-1.51847	
-0.451221	
-0.789611	
-0.153221	
-0.528745	
-1.69927	
-1.52639	
-1.73348	
-1.78854	
-1.71281	
-1.80603	
-1.39365	
-2.39833	
-1.77331	
-2.44832	
-2.33338	
-2.40349	
-2.17904	
-2.27538	
-2.05053	
-1.62451	
-1.521	
0.327955	
0.546292	
0.504529	
-1.06994	
-1.09752	
-1.14149	
-1.19254	
-1.12192	
-0.740593	
-0.975945	
-1.0567	
-1.49275	
1.13653	
1.28643	
1.4987	
0.053689	
-0.0482521	
-1.76953	
-1.89272	
0.95071	
1.95012	
-1.97847	
-1.54087	
-1.46444	
-0.0862419	
-0.0465889	
0.0806292	
0.563152	
0.509162	
0.376381	
0.436451	
0.815425	
0.464027	
0.432239	
0.354308	
-1.59984	
-2.67677	
-2.58414	
0.302164	
0.199033	
0.815966	
0.453463	
-0.439288	
-0.213028	
-1.72244	
-1.59287	
-1.4909	
-1.66762	
-1.60059	
-1.66877	
-1.71625	
-1.45801	
-1.50778	
-1.63	
-2.34113	
-1.9083	
-1.80193	
-1.77678	
-1.73351	
-1.72539	
0.126142	
0.032621	
-1.22542	
-0.767234	
-1.07373	
-1.29242	
-0.0531677	
-0.346976	
0.274523	
-0.0409627	
-1.9689	
-1.81512	
-1.83639	
-1.83213	
-1.75601	
-1.78891	
-1.81873	
-1.75962	
-1.71998	
-1.70319	
-1.71289	
-1.71492	
-2.72703	
-2.29155	
-2.33213	
-2.2082	
-0.232513	
-0.44162	
-0.236375	
-0.554202	
-1.16655	
-1.1161	
-1.26626	
-1.5843	
1.17747	
1.67338	
-0.682427	
-0.614383	
-0.770293	
-0.777329	
-0.951763	
-0.974922	
-0.981577	
-0.435666	
-2.62672	
-2.42653	
-0.840388	
-0.575128	
-0.799573	
-1.69343	
-1.21976	
-0.824081	
-0.715539	
-0.964306	
-1.00721	
-0.728876	
-0.416027	
-0.613217	
-0.840732	
-0.670681	
-1.27329	
-2.19938	
-1.75499	
-0.447898	
-0.312481	
-0.273039	
0.0220521	
-0.833968	
-1.52756	
-1.51513	
-1.23688	
0.391189	
-2.00245	
0.331302	
0.0483449	
-2.65687	
-3.30075	
0.512534	
0.621808	
1.28626	
1.45848	
-1.22267	
-1.41899	
-1.40187	
-1.5817	
-2.13045	
-1.98824	
-1.95313	
-2.00763	
-1.71916	
-1.89769	
-1.88412	
-2.30894	
-2.23509	
-1.39953	
-2.33714	
-2.06563	
-1.86212	
-2.57569	
-1.85379	
-2.38919	
-0.220745	
0.23775	
-1.88517	
-1.79745	
-1.87495	
-1.91646	
-1.61343	
-1.40517	
-1.55021	
-0.717109	
-0.664792	
0.75661	
1.18216	
0.180155	
0.779651	
-0.0401367	
0.41063	
0.589485	
0.155885	
0.575954	
0.263544	
-1.25305	
-0.532375	
-0.616356	
-1.70693	
-1.33969	
-1.43336	
-1.36166	
-1.45097	
-1.66405	
-1.74566	
-1.7013	
-2.15952	
-1.59841	
-1.50882	
-1.73548	
-1.46391	
-1.31967	
-1.42797	
-1.49091	
-0.48484	
-0.383189	
-0.684621	
-0.54795	
0.371141	
0.202048	
0.587419	
0.467759	
-1.41602	
-2.05953	
-0.850526	
-0.919772	
-0.953977	
-1.09308	
-1.6896	
-0.481613	
-0.271606	
-1.22179	
-1.40333	
-1.09018	
-1.00942	
0.11801	
0.915253	
1.1133	
0.84835	
0.690837	
-1.22501	
-0.160213	
0.0706643	
-0.23102	
0.0328397	
-1.99387	
-1.49964	
-1.23566	
-1.01916	
-0.933122	
-1.05865	
-1.00432	
-1.03805	
-0.989224	
-1.15932	
-1.38728	
-1.24543	
-1.34137	
-1.18838	
-1.17269	
-2.34285	
-1.94287	
-1.77783	
-1.78624	
-1.9688	
-1.87131	
-1.7853	
-1.76802	
0.339979	
0.259264	
-0.348374	
-1.96525	
-2.56024	
-1.84643	
-2.47308	
-1.82884	
-1.80189	
-1.68069	
-1.81754	
-2.02236	
-0.109893	
-0.747383	
-0.800658	
-0.895448	
-0.917172	
-1.27473	
-1.55811	
-2.46366	
-2.94825	
-1.87317	
-1.761	
-1.78308	
-1.75908	
0.427517	
0.00724361	
0.853542	
0.155404	
-1.65849	
-0.462272	
-1.32799	
-1.59727	
-0.682039	
-0.851843	
-1.30347	
-1.82388	
-1.23448	
-1.54661	
-2.10535	
-2.67442	
-1.96335	
-2.09312	
-0.671156	
-0.647399	
0.223212	
0.155314	
0.309117	
0.177865	
0.133561	
0.0349014	
0.102916	
-2.44699	
-2.69625	
0.351517	
0.214269	
0.377279	
-1.18047	
-0.829306	
-0.83551	
-0.545778	
-1.1384	
-1.30417	
-0.992471	
-1.03946	
0.0467465	
-0.188693	
0.0215444	
-0.145677	
-3.07772	
-3.05606	
-2.4274	
-0.508519	
-0.776113	
-0.804987	
-0.619238	
-1.72921	
-1.76692	
-2.06405	
-2.12226	
-1.96545	
-1.99054	
-0.831533	
-0.690915	
-0.656843	
-0.899313	
-0.856657	
-1.16457	
-1.50032	
-1.67474	
-1.95703	
-1.234	
-1.1755	
-1.59574	
-1.35682	
-1.72891	
0.313744	
0.229332	
-0.022963	
-0.240171	
-0.11623	
-0.301976	
-0.890608	
-1.08388	
-0.884072	
-1.0823	
-1.50352	
-1.11087	
-1.92126	
-1.3786	
-1.31104	
-1.52528	
-1.6798	
0.553075	
0.368883	
0.303485	
-1.66889	
-1.70017	
-1.74694	
-1.69975	
-1.74724	
-1.63358	
-1.61018	
-1.59062	
0.0318305	
-0.0586331	
0.238592	
0.317005	
-0.424287	
-0.444463	
-0.06991	
-0.220709	
1.0331	
0.93606	
1.66239	
0.107094	
0.421306	
0.869034	
-1.326	
-1.39096	
-1.45896	
-1.45739	
-1.57123	
-1.57438	
-1.83528	
-1.76054	
-1.76514	
-1.70066	
-2.0857	
-2.07953	
-0.6079	
-0.564669	
-0.749211	
-0.843368	
-0.954976	
-0.971891	
-1.15073	
-1.2271	
-0.988828	
-0.96331	
-1.13413	
-1.24461	
-1.62225	
-1.71023	
-1.67546	
-1.76694	
-1.72478	
-1.62922	
0.289026	
0.478524	
-1.32162	
-1.43676	
-1.40698	
-1.72102	
-1.637	
-1.86989	
-2.54327	
-1.71103	
-1.69387	
0.444462	
-1.32916	
-1.27283	
-1.32374	
-1.72768	
-1.71416	
-1.92897	
-1.65568	
2.92579	
-1.40268	
-1.48416	
-1.31059	
-1.30092	
0.32481	
0.313716	
0.675149	
0.527791	
0.586689	
0.388442	
1.37028	
-1.55591	
-1.58582	
-1.88167	
-1.97084	
-1.92439	
0.535351	
-1.71533	
-1.86441	
-1.59576	
-1.60042	
0.345752	
0.28387	
-1.56288	
0.450678	
0.42466	
-1.24827	
-1.30753	
-1.16713	
-1.18555	
-1.27662	
-1.36028	
-2.21379	
-2.4126	
-1.50204	
-1.7242	
-1.27576	
-1.20886	
-1.11875	
-1.69071	
-1.45495	
-1.57966	
-1.55655	
-1.70266	
-1.51478	
-1.36036	
-1.25781	
-1.41413	
-1.25184	
-1.31893	
-1.3851	
0.652286	
0.49944	
0.563259	
-1.69602	
0.298994	
0.213103	
0.214525	
0.279411	
0.28466	
-1.69454	
-1.69436	
-1.70218	
0.0287976	
0.100381	
-0.0350382	
0.0638603	
-1.69688	
-1.60561	
-1.64991	
-1.69945	
-1.69514	
-1.92405	
-1.71481	
-2.01648	
-1.78144	
0.628853	
0.689288	
0.459766	
-2.55247	
-1.87394	
-2.69735	
-1.90525	
-1.47517	
0.252695	
-1.6867	
-1.65975	
1.4817	
0.982004	
1.04005	
0.436851	
-1.49611	
-1.31814	
-1.20538	
-0.681503	
-0.660604	
-0.40067	
-1.34712	
-1.37169	
-2.31467	
-1.81469	
-1.89984	
-1.8507	
-2.08522	
-0.197437	
-0.479755	
0.641319	
0.521346	
0.53968	
0.490608	
0.583839	
0.348076	
0.313567	
0.285815	
0.194637	
-2.02434	
-1.85524	
-1.93821	
-1.83953	
-1.54308	
-1.51376	
-1.72936	
-2.21487	
-2.28768	
0.170442	
0.0609933	
-0.281044	
-1.74423	
-1.90951	
-1.57481	
-1.72772	
-1.72609	
-1.62699	
-1.66779	
-1.59047	
-1.82778	
-1.8456	
-1.66823	
-1.45596	
-1.53448	
-1.5927	
-1.70852	
-1.43882	
-1.37601	
-1.49139	
-1.34366	
0.797205	
0.291993	
-1.48358	
-1.56304	
-1.57391	
-1.83009	
-0.86241	
-1.09199	
-1.42405	
-1.45057	
-1.61218	
-1.60909	
-1.55513	
-1.60764	
-1.10564	
-1.26172	
-1.81243	
-1.81924	
-1.76908	
-1.75127	
-1.86967	
-1.80576	
-1.79371	
-1.76293	
-1.59301	
-1.80647	
-1.20846	
-1.21004	
-2.01311	
-2.41017	
-2.35583	
-1.85162	
-2.13376	
-1.95074	
-0.0931713	
-0.357339	
-0.397846	
0.370256	
0.262264	
-1.49973	
-1.55052	
-1.50646	
-0.385868	
-0.39954	
-0.312148	
-1.77085	
-1.68132	
-1.78016	
-1.67379	
-0.564379	
-0.47232	
-0.721152	
-0.81569	
-1.05149	
-1.59139	
-1.45252	
0.707058	
0.972779	
1.26521	
0.804234	
-0.201845	
-0.256221	
0.348952	
0.419221	
0.337837	
0.442086	
-1.97463	
-2.13715	
-1.93894	
-2.13373	
-0.762998	
-0.620182	
-0.264917	
1.925	
2.89045	
-2.03735	
-2.18863	
-2.35362	
-2.86522	
-0.391837	
-0.284207	
-0.654199	
-0.447613	
0.561672	
0.540222	
0.35062	
0.318023	
0.241671	
-0.16388	
-0.38051	
0.0884426	
-0.278492	
0.370799	
0.405887	
-1.6085	
-2.16323	
-1.58711	
-1.72064	
-0.614823	
-0.795452	
-0.740276	
-0.895342	
1.44	
1.28126	
-2.05819	
-1.91506	
0.364752	
0.390253	
0.496355	
0.470414	
0.725042	
0.319877	
-0.0507703	
-0.111024	
-0.102216	
-0.0809457	
-0.0394268	
-0.0312631	
-0.0520438	
0.0320774	
0.0586137	
0.148944	
0.203721	
0.180921	
0.102498	
0.000264972	
-0.116833	
-0.105304	
-0.0985645	
-0.0983204	
-0.0715873	
0.202207	
-0.0291299	
0.175556	
0.0858874	
0.136106	
0.0313661	
-0.128397	
0.170886	
0.12154	
0.009987	
-0.0732743	
0.0508057	
-0.188953	
-0.219132	
-0.265631	
-0.220677	
-0.250563	
-0.289158	
-0.142816	
0.154049	
0.0980531	
-0.191591	
-0.0627631	
-0.115637	
0.00957846	
-0.163099	
-0.196539	
-0.188829	
-0.184763	
-0.198351	
-0.215723	
0.186366	
1.38154	
0.11999	
1.3098	
1.2904	
1.22141	
1.58596	
0.663214	
0.618049	
0.627596	
0.648559	
0.800714	
0.23908	
0.119217	
1.27356	
0.325926	
0.101458	
0.249479	
1.4403	
2.66054	
0.490439	
0.610808	
1.09298	
0.870448	
1.02926	
0.821363	
0.741696	
0.963033	
0.936586	
0.489927	
0.541936	
0.551773	
0.785895	
0.374179	
0.864173	
0.908682	
0.910273	
1.04355	
0.88406	
0.686503	
0.814535	
0.865145	
0.963223	
0.945759	
1.12632	
1.01864	
0.957761	
1.00713	
0.988232	
0.935002	
0.960036	
0.91811	
0.987932	
0.963725	
0.515544	
0.534229	
0.903823	
0.896134	
0.978909	
0.935069	
1.19279	
0.951328	
1.06735	
0.808646	
0.951627	
0.589886	
0.908551	
0.949091	
0.869686	
0.893383	
1.06426	
1.13054	
0.868176	
0.912765	
1.05461	
0.888321	
0.889604	
1.01602	
1.05669	
1.05877	
0.878863	
0.879305	
0.928806	
0.699716	
1.21418	
0.966981	
0.415323	
1.12075	
0.927655	
0.494543	
1.07459	
0.954186	
0.988504	
1.14206	
0.935719	
0.985601	
0.929952	
0.937713	
0.68761	
0.803572	
0.864882	
1.21012	
1.03365	
0.757348	
0.95863	
0.924688	
0.978949	
0.877914	
0.726737	
0.70851	
0.70531	
0.907743	
0.893434	
0.834888	
0.791878	
0.825751	
0.903596	
0.959277	
0.897129	
0.942708	
1.12138	
0.950316	
0.926253	
0.928078	
0.952273	
0.949204	
0.961067	
0.941768	
0.980296	
0.920374	
0.933797	
0.939094	
0.947821	
1.01632	
1.05884	
1.02978	
1.05823	
0.676807	
0.758023	
1.04267	
0.932329	
0.413322	
1.0718	
1.1431	
0.270371	
0.946704	
0.781228	
0.809487	
0.81767	
0.83089	
0.932333	
0.855899	
0.885919	
0.483104	
0.261439	
0.227698	
0.335422	
1.72556	
0.805341	
0.720184	
0.353724	
1.28789	
1.1894	
0.851231	
1.00715	
0.993656	
1.25393	
0.953525	
0.932328	
1.00625	
0.912526	
2.58907	
2.76574	
0.81199	
0.672626	
0.841937	
0.731375	
0.929206	
0.9437	
0.614052	
0.685887	
0.728162	
0.609841	
0.524706	
0.881467	
0.93704	
0.893931	
0.664355	
0.693092	
0.642926	
0.837919	
0.462894	
0.435785	
0.483285	
0.530402	
0.540499	
0.609147	
0.603301	
0.558203	
0.585578	
0.634791	
0.668466	
1.04738	
0.984839	
0.977106	
0.487887	
0.360965	
0.453378	
0.386278	
1.19856	
1.11795	
1.10554	
0.779251	
0.796634	
0.933867	
0.967266	
0.938901	
1.0194	
1.06437	
1.1654	
1.0726	
1.1719	
0.784285	
0.852355	
0.672193	
0.990465	
0.954986	
0.38291	
0.308571	
1.18294	
1.08296	
0.993369	
1.09361	
1.02934	
1.14726	
0.698587	
0.985443	
0.963404	
0.968543	
0.995132	
1.18139	
1.15855	
1.15167	
1.04113	
0.829027	
0.822273	
0.83561	
0.947803	
0.918199	
0.960372	
0.964012	
0.978501	
0.962864	
1.20481	
1.16475	
1.02493	
0.94586	
1.08096	
0.934901	
0.898116	
1.05552	
0.904523	
0.839683	
0.718585	
0.655335	
1.00792	
1.11092	
1.10408	
0.759749	
0.860929	
1.02461	
0.802774	
0.772223	
0.816219	
1.22877	
0.881274	
0.907764	
0.918987	
0.883286	
0.878711	
0.814488	
0.817876	
0.832573	
0.670432	
0.697256	
1.18762	
1.07966	
1.00129	
1.30175	
1.26038	
0.846954	
0.889262	
0.821354	
0.84883	
0.857774	
1.04499	
0.987781	
0.981815	
0.693974	
0.689326	
0.723281	
0.740546	
0.76923	
0.737072	
0.782046	
0.696314	
0.509772	
0.915157	
1.10489	
0.915652	
1.07212	
1.01417	
0.929473	
1.0458	
1.09414	
0.925696	
0.920431	
0.838091	
0.730381	
1.17763	
1.20423	
1.06259	
1.09971	
0.683787	
0.714701	
0.912294	
0.864924	
0.959515	
0.948978	
0.899803	
0.987313	
1.00842	
1.07398	
1.07537	
0.822196	
0.810828	
0.985991	
0.828278	
0.909624	
0.909303	
0.87364	
0.89572	
0.920126	
0.944301	
0.93711	
0.870085	
0.848112	
0.868072	
0.85209	
0.925062	
0.967984	
0.884486	
1.02559	
0.898984	
0.789836	
0.714542	
0.782082	
0.98262	
0.947849	
0.970108	
0.954423	
0.818615	
1.03954	
1.00292	
1.00281	
1.0327	
1.10126	
0.853438	
0.837844	
0.861267	
0.84541	
0.833113	
0.847201	
0.846238	
0.858345	
0.965384	
1.06952	
1.10515	
1.05883	
0.720338	
0.426892	
0.335136	
0.88147	
0.893791	
0.935056	
1.0286	
1.17247	
1.14929	
1.15911	
1.14474	
0.841226	
0.889832	
0.829774	
0.947311	
1.002	
1.11096	
1.12111	
0.732029	
0.765953	
0.739322	
0.794267	
0.19219	
0.208743	
1.23253	
1.15591	
1.04971	
1.06538	
0.902973	
1.04621	
0.768905	
0.69331	
0.73878	
0.718546	
0.731993	
0.76481	
0.851896	
0.740098	
0.778126	
0.773719	
0.826134	
0.826963	
0.903129	
0.869724	
0.905565	
0.322296	
0.376381	
0.430448	
0.915038	
0.971238	
0.917538	
0.943405	
0.999415	
1.10488	
1.12391	
0.507285	
0.879181	
0.811964	
0.882748	
0.818023	
0.697486	
0.632532	
0.838083	
0.775023	
0.963826	
0.965645	
0.999995	
0.983902	
1.0244	
0.959876	
0.99728	
0.963145	
1.01635	
0.999305	
1.13738	
1.04884	
1.05127	
1.06871	
1.11325	
1.12069	
1.14255	
1.17442	
1.01711	
1.14042	
0.8218	
0.790909	
1.22158	
1.11342	
0.986457	
0.958704	
0.998206	
1.05473	
1.00968	
1.04804	
0.967428	
1.33322	
0.907029	
0.941128	
0.986821	
0.975677	
0.957422	
1.00126	
1.01596	
0.912177	
0.876181	
1.00058	
0.962925	
1.05825	
1.05347	
0.62265	
0.570025	
0.623563	
0.566458	
0.797537	
0.834046	
0.809687	
0.378348	
0.446711	
0.888308	
0.874157	
0.355179	
0.30007	
0.72726	
0.709299	
0.825195	
0.777667	
0.914851	
0.920175	
0.905817	
0.883855	
0.894541	
0.914012	
0.824757	
0.776141	
0.784337	
0.857059	
0.765098	
0.765188	
0.779211	
0.898964	
0.874989	
0.888716	
0.844551	
0.972365	
0.945762	
0.931476	
0.897103	
1.00284	
0.967535	
1.03584	
0.990209	
1.10844	
0.743027	
0.723583	
0.695136	
0.608319	
1.19488	
1.29345	
1.21752	
1.16861	
1.20122	
1.17039	
1.00027	
1.18149	
1.13539	
1.19299	
1.16796	
0.995561	
1.00438	
0.979253	
1.06515	
0.708209	
0.721919	
0.709797	
0.934505	
0.95517	
0.990967	
0.788279	
0.768679	
1.17668	
0.804679	
0.76942	
0.712191	
0.757123	
0.96503	
1.01125	
0.748698	
0.817466	
0.672702	
0.596689	
0.757834	
0.796648	
0.778038	
0.560207	
0.490913	
1.01496	
0.794969	
0.511202	
0.566211	
1.28773	
1.21016	
0.930354	
0.919902	
0.951442	
0.766405	
0.785005	
0.926845	
0.937574	
0.324998	
0.855241	
0.939798	
0.973034	
0.91693	
0.923388	
0.811347	
0.861174	
1.00583	
0.96489	
0.968305	
0.687118	
0.683603	
0.675457	
0.671939	
0.98054	
1.01706	
0.989385	
1.02337	
1.06397	
0.86198	
1.04571	
0.87942	
0.857531	
1.33574	
2.01421	
1.12478	
0.768964	
0.84746	
1.14634	
1.00851	
0.976584	
0.610238	
0.88006	
0.953603	
1.04057	
1.05984	
0.967035	
1.00464	
0.899717	
0.880041	
0.900975	
0.891812	
0.985676	
1.0169	
1.04065	
1.01229	
0.50628	
0.50416	
0.869857	
0.832314	
0.981738	
0.945714	
0.915194	
0.916193	
0.877186	
1.11502	
1.01473	
0.826532	
0.767855	
0.85998	
0.799628	
1.06647	
1.05468	
1.09826	
0.990361	
1.09743	
0.992208	
1.11223	
1.08529	
0.796164	
0.754052	
0.785723	
0.730283	
0.75206	
0.913409	
0.861178	
1.02615	
0.868353	
0.958666	
0.950974	
1.07512	
1.1126	
0.756109	
0.754352	
0.765396	
0.784084	
0.948669	
0.936518	
0.818404	
0.814009	
0.804354	
0.7899	
0.953654	
0.977046	
0.913252	
0.913688	
0.920075	
0.714601	
0.802821	
0.633326	
0.731834	
0.876464	
0.885889	
0.83294	
0.91513	
0.977515	
1.07421	
0.915962	
0.933779	
0.964575	
0.949042	
0.978123	
1.00887	
0.941015	
1.15189	
0.95791	
0.669467	
0.680585	
1.04713	
0.956419	
0.98977	
0.974777	
0.966738	
0.979114	
0.958175	
0.965704	
0.927135	
0.936798	
1.30277	
1.17595	
1.56785	
1.21608	
0.259571	
0.26963	
0.167699	
0.100585	
0.75778	
0.791089	
0.752655	
0.762069	
0.841426	
0.872433	
0.835432	
0.852182	
1.04059	
1.01422	
0.959029	
0.952837	
0.67089	
0.679793	
0.688571	
0.620382	
0.910308	
0.996116	
0.872292	
0.857709	
0.915674	
0.831324	
1.00065	
0.888098	
0.950499	
0.976667	
1.0121	
1.09011	
1.04625	
1.02958	
1.01413	
1.03126	
1.13731	
1.1734	
0.346576	
0.911496	
0.911186	
0.790904	
0.787711	
0.787461	
0.871491	
0.974009	
0.680744	
0.743222	
0.758082	
0.877625	
0.380056	
0.4588	
0.438351	
0.300978	
0.24683	
0.236571	
0.686717	
0.839608	
0.836426	
0.402397	
0.362183	
0.552026	
0.217242	
0.30665	
0.468199	
0.345541	
0.351752	
0.919034	
0.977934	
0.911427	
0.99523	
1.04599	
0.969196	
0.857621	
0.979216	
0.684817	
0.650293	
0.676388	
0.827447	
0.802852	
0.836327	
0.829557	
0.90363	
0.896102	
0.932098	
0.98726	
0.379372	
0.434021	
0.866706	
0.884719	
0.893363	
1.22786	
1.43501	
0.769835	
0.815525	
0.799128	
0.390702	
0.456948	
0.481121	
0.3966	
0.482958	
1.05908	
1.01089	
0.96389	
1.19239	
0.711511	
0.699597	
0.403092	
0.450185	
1.0014	
0.869093	
0.863258	
0.857915	
0.395009	
0.445481	
0.328568	
0.402145	
0.200503	
0.277598	
0.296444	
0.920356	
1.26715	
0.870988	
0.992752	
1.05919	
1.0007	
0.994527	
0.949413	
0.572868	
0.526025	
0.617253	
0.569749	
0.891323	
0.920875	
0.81228	
0.800237	
0.123701	
0.276848	
0.220009	
0.631096	
0.577318	
0.698585	
0.584651	
0.675762	
0.673868	
0.705012	
0.692732	
0.250243	
0.169639	
0.247847	
0.166606	
0.56072	
0.584748	
0.595434	
-2.0661	
-3.49007	
-2.47892	
-2.74573	
-3.40571	
0.703189	
2.38771	
0.425255	
0.5429	
-0.556064	
-0.726729	
0.57977	
-0.577474	
-0.671568	
-1.30724	
-0.766161	
-1.89951	
-1.94923	
-1.37301	
-0.896115	
-1.88813	
-2.00813	
-0.220074	
-0.0219907	
-0.0822698	
-1.15803	
-1.62696	
-1.41671	
-1.25599	
-0.89563	
-0.838079	
-1.89202	
-1.92637	
-1.84674	
-1.9016	
-1.78418	
-2.04189	
-0.374006	
-2.41908	
-1.10588	
0.0665749	
0.249726	
-1.44409	
-1.66421	
0.450693	
1.13275	
-1.67553	
-0.872166	
0.172732	
-0.591304	
-1.42218	
-1.51387	
-1.43277	
-1.51677	
-1.8779	
-2.58113	
-2.53616	
-0.60023	
-0.199894	
-0.914509	
-0.951022	
-1.92745	
-1.86597	
-1.30008	
-0.82651	
-0.996425	
-0.773335	
-1.01037	
-0.439512	
-1.1484	
-0.833596	
-1.49045	
-0.750111	
-1.64164	
-1.85571	
-0.298824	
-1.21834	
-1.60944	
-0.804381	
-0.689447	
-0.391293	
-2.08844	
-2.63106	
-1.87011	
-1.64775	
-1.03745	
-1.64051	
-1.59327	
-1.60356	
-0.491951	
-0.692069	
-1.78444	
-1.83555	
0.559367	
-0.0100405	
0.271465	
0.224139	
-1.8472	
-2.32916	
-1.9076	
-2.39758	
0.0254532	
0.117561	
0.234756	
-0.849076	
-0.786811	
-0.726327	
-0.687262	
-1.78233	
-2.042	
-1.92607	
-2.03908	
0.381229	
-1.58127	
-0.892398	
0.522229	
-0.188451	
0.163931	
-1.39947	
-2.01632	
-0.734974	
1.75007	
0.970438	
0.578889	
-0.0537248	
0.0447108	
-0.041731	
-0.404481	
-0.29853	
-1.85488	
-1.53413	
-1.67735	
-1.54069	
-1.19808	
-0.996437	
-1.22502	
-1.02854	
-0.365261	
0.345901	
-2.20007	
-2.02267	
-1.94541	
-1.8052	
0.132678	
0.108179	
0.240179	
0.25697	
-1.33756	
-1.56437	
-1.10706	
-1.14872	
-0.147669	
-0.826355	
-0.143431	
-0.775487	
-2.52849	
-1.71133	
-1.47092	
-1.94308	
-2.06884	
-2.13459	
-1.39178	
-1.8438	
-1.75653	
-2.20696	
-1.56809	
-2.46962	
-2.13264	
-1.64068	
-1.59939	
-1.84969	
-2.04273	
0.48434	
0.53578	
-1.19119	
-1.08095	
-1.20035	
-0.831989	
-1.13685	
-1.14667	
-1.08916	
-0.75412	
-1.63759	
1.26794	
1.4318	
0.0637548	
-0.0382956	
-2.23432	
-2.29068	
1.96437	
0.966169	
-1.5697	
-1.42218	
-1.6292	
-0.163694	
0.0475617	
-0.100863	
0.513007	
0.578927	
0.357475	
0.400559	
1.01944	
0.43748	
0.469816	
0.357732	
-1.78536	
-2.8315	
-2.78336	
0.880864	
0.492419	
0.639132	
0.230539	
-0.647243	
-0.340552	
-1.722	
-1.83811	
-1.74694	
-1.76659	
-1.55328	
-1.53621	
-1.82706	
-1.54996	
-1.61681	
-1.75817	
-1.99034	
-2.46414	
-1.92161	
-1.86963	
-1.88252	
-1.85475	
-0.0408376	
0.0250418	
-1.19526	
-1.06412	
-0.836634	
-1.35808	
-0.0480169	
-0.3543	
-0.264405	
0.278415	
-1.93889	
-2.0578	
-1.98743	
-1.95219	
-1.96877	
-1.98418	
-2.16399	
-2.57725	
-1.84933	
-1.85334	
-1.83835	
-1.82965	
-2.32769	
-2.49386	
-2.18298	
-2.3814	
-0.419013	
-0.556221	
-0.221048	
-0.440595	
-1.25523	
-1.32758	
-1.69013	
-1.41433	
1.67628	
1.46916	
-0.675141	
-0.847524	
-0.922238	
-1.02281	
-0.85637	
-0.444564	
-0.669652	
-0.684344	
-1.00328	
-2.51078	
-2.74589	
-0.813242	
-0.770052	
-0.558065	
-1.15482	
-0.978465	
-0.930071	
-0.831144	
-0.723614	
-0.643725	
-0.404363	
-0.994072	
-1.25658	
-0.62493	
-0.85549	
-0.243164	
-0.0252128	
-0.40871	
-0.295176	
-1.15859	
-1.46764	
-1.53617	
-1.48491	
0.39535	
-1.97117	
0.0691305	
0.349639	
-3.49869	
-3.57128	
0.638522	
0.873886	
1.19286	
1.30144	
-1.3877	
-1.57031	
-1.27874	
-1.27808	
-2.04382	
-2.28987	
-2.06263	
-1.86419	
-2.0364	
-2.00022	
-2.44783	
-2.54282	
-1.45793	
-2.12487	
-1.63503	
-2.28128	
-2.34396	
-1.82106	
-2.51154	
-1.84044	
0.308624	
-0.225904	
0.236032	
-2.25936	
-2.34343	
-2.24394	
-2.8918	
-1.59634	