<VTKFile type="UnstructuredGrid" version="0.1" byte_order="LittleEndian">
	<UnstructuredGrid>
		<Piece NumberOfPoints="1917" NumberOfCells="3602">
			<CellData Scalars="scalars">
				<DataArray type="Float64" Name="Doublet Strengths" NumberOfComponents="1" Format="ascii">
1.69093	
0.36522	
1.42652	
1.40848	
1.32114	
3.1055	
0.820665	
0.820991	
0.781088	
0.772179	
0.918568	
0.380724	
0.145169	
2.73948	
0.408106	
0.161476	
0.309943	
2.81292	
0.598047	
1.00417	
0.909862	
0.903354	
1.03045	
0.615166	
0.69744	
0.659567	
0.911496	
0.519955	
0.980967	
1.05343	
0.986698	
1.14314	
1.01475	
0.813099	
0.94351	
0.906303	
0.985129	
1.09981	
1.06473	
1.20634	
1.1921	
1.14169	
1.03502	
1.09102	
1.06497	
1.11996	
1.03602	
1.11063	
1.01846	
0.649051	
0.695245	
0.990768	
1.0123	
0.954502	
0.975681	
1.42129	
0.99377	
0.960382	
0.912678	
1.01369	
0.693279	
1.03678	
1.06131	
0.967575	
1.00255	
1.07691	
1.1241	
0.993802	
1.02258	
1.0372	
0.977313	
1.00022	
0.999171	
1.09969	
1.04836	
1.17279	
0.774605	
1.72651	
0.634211	
0.50215	
1.006	
0.971496	
1.05327	
0.615112	
1.07221	
1.17776	
1.03708	
1.21643	
0.983757	
1.01432	
0.931082	
0.858437	
0.992613	
0.915976	
0.968745	
0.868511	
1.03575	
1.06946	
0.838722	
0.975342	
0.937498	
0.88933	
1.10813	
1.03865	
0.935861	
0.954989	
0.948368	
1.03166	
1.07991	
1.04401	
1.10319	
1.0672	
1.09087	
1.05449	
0.995318	
1.01439	
1.02926	
1.01685	
1.01796	
1.01625	
1.00415	
1.01009	
0.992234	
0.98943	
0.997972	
1.39038	
1.14751	
1.21073	
1.11395	
0.90037	
0.727275	
1.13702	
1.15267	
0.502701	
1.18259	
1.2645	
1.03242	
0.960848	
0.917613	
0.949934	
0.934925	
1.03489	
0.984192	
0.972839	
0.597375	
0.305734	
0.356388	
0.452826	
1.43332	
1.85688	
1.28724	
0.829533	
0.927237	
0.477603	
0.384055	
1.40317	
1.28648	
0.983493	
1.10052	
0.550399	
1.23895	
1.13585	
1.0334	
1.00015	
0.94877	
3.10605	
3.02412	
0.839322	
0.822989	
0.81234	
0.786536	
1.04546	
1.07418	
0.823374	
0.810185	
0.858593	
0.907661	
0.811213	
0.708877	
0.666786	
1.01424	
0.99171	
0.997217	
0.854808	
0.820078	
0.798193	
0.968938	
0.586328	
0.773948	
0.622821	
0.46691	
0.507579	
0.566422	
0.677593	
0.713788	
0.730031	
0.749543	
0.657381	
0.681037	
0.782225	
0.896557	
1.04534	
1.11193	
1.03468	
0.571832	
0.560862	
0.600154	
0.570244	
1.35525	
1.65376	
1.23622	
1.18519	
1.22452	
0.93806	
0.884472	
0.593279	
0.515276	
1.07461	
1.04099	
1.11847	
1.05458	
1.27367	
1.16554	
1.26399	
1.18017	
0.73788	
0.761299	
0.40526	
1.29311	
1.19375	
1.03161	
0.975914	
0.99528	
0.964361	
0.829343	
1.09527	
1.12111	
1.12154	
1.07014	
1.17762	
1.15385	
1.29606	
1.27973	
0.957017	
0.977965	
0.951773	
0.941657	
1.04218	
1.06649	
1.0737	
1.03935	
1.01671	
1.02369	
1.01522	
1.28107	
1.20487	
1.25968	
1.18863	
0.394644	
0.397198	
1.19003	
1.02311	
1.06135	
1.0172	
1.23589	
0.827137	
0.866513	
0.756357	
1.07957	
1.1685	
1.16902	
0.990289	
1.13674	
0.940848	
0.91362	
0.913667	
0.965398	
0.992103	
0.994973	
1.0286	
1.0605	
0.947771	
0.957868	
0.9463	
0.972124	
0.780544	
0.850372	
1.07513	
1.25535	
1.16004	
1.36413	
1.41768	
0.994628	
0.934687	
0.975744	
1.17165	
1.02404	
1.1112	
1.19024	
0.821974	
0.818002	
0.832633	
1.04073	
0.874446	
1.06864	
0.890681	
0.736984	
0.618112	
0.983663	
1.19615	
1.15562	
1.08038	
1.15139	
1.00778	
1.11578	
1.17556	
1.21947	
1.04767	
0.749353	
0.910758	
1.16353	
1.29036	
1.26495	
1.29402	
0.83247	
0.854861	
0.89508	
0.962593	
0.943128	
1.08841	
1.05689	
1.02652	
1.12058	
1.11676	
1.18754	
1.21857	
0.924618	
0.999208	
0.944336	
0.995717	
0.975326	
1.00246	
0.969151	
1.01598	
0.971482	
0.986278	
1.02451	
0.983023	
1.02009	
0.983761	
1.14303	
1.08218	
1.29684	
1.08901	
0.983837	
0.883087	
0.983442	
0.94496	
0.850507	
1.05813	
1.0484	
1.08789	
1.04451	
0.912339	
1.25611	
1.21729	
1.12887	
1.16573	
0.961998	
0.975821	
0.974864	
0.989809	
0.972253	
0.96365	
1.00059	
0.99854	
1.23121	
1.11445	
1.08812	
1.19491	
1.00653	
0.913652	
0.529207	
0.412788	
1.06883	
1.04663	
1.00418	
1.04705	
1.01485	
0.994025	
0.977005	
0.985228	
0.939936	
0.918017	
0.946863	
0.911385	
1.00296	
0.981239	
1.07276	
0.987282	
0.901027	
0.885564	
0.903547	
0.904854	
0.335256	
0.290813	
1.27635	
1.36488	
1.10288	
1.14625	
1.03681	
1.16506	
0.838785	
0.909343	
0.845613	
0.888289	
0.914944	
1.10822	
1.05203	
0.966817	
1.08553	
0.863261	
0.843194	
0.957027	
0.914603	
1.04839	
1.00887	
0.401442	
0.532128	
0.463077	
1.09634	
1.03834	
1.0895	
1.04153	
1.12218	
1.24665	
1.2303	
0.777186	
0.733312	
0.722832	
0.93655	
0.93488	
0.994034	
0.93027	
0.961619	
0.767533	
0.884371	
0.797243	
1.03742	
1.03341	
1.0601	
1.06209	
1.00283	
0.999859	
0.995576	
0.990368	
1.05982	
1.17975	
1.12023	
1.23544	
1.22861	
1.27807	
1.25175	
1.18315	
1.2897	
1.14939	
1.26	
1.22892	
0.950209	
0.92301	
0.990523	
1.17618	
1.14561	
1.27537	
1.12481	
1.18366	
1.096	
0.919308	
0.96292	
1.05676	
1.0413	
1.07385	
1.08088	
1.06862	
1.12155	
1.11487	
0.992455	
1.01113	
1.07498	
1.11052	
0.722076	
0.627311	
0.719319	
0.669504	
0.964391	
0.915018	
0.555766	
0.471408	
0.959467	
0.955552	
0.452634	
0.383041	
0.841186	
0.884633	
0.905033	
0.907474	
0.955241	
1.00531	
0.964567	
1.01385	
0.961637	
0.966182	
1.02075	
0.886782	
0.907824	
0.947782	
0.957587	
0.928166	
0.879055	
1.01494	
0.96305	
1.0224	
0.997191	
1.05076	
1.02464	
1.09822	
1.06144	
1.13507	
1.09329	
1.09508	
1.07052	
0.913608	
0.80892	
0.910661	
0.797602	
0.862108	
1.49952	
1.3496	
1.26842	
1.29944	
1.28277	
1.1975	
1.07518	
1.27848	
1.22433	
1.08634	
1.28335	
1.05361	
1.08671	
1.04103	
1.14727	
0.948386	
0.944184	
0.813602	
0.811616	
0.823125	
1.04849	
1.09552	
1.02458	
0.9047	
0.892667	
0.952093	
0.938427	
0.902557	
0.831289	
0.876	
1.03923	
1.1137	
1.06169	
0.891943	
0.77739	
0.716993	
0.905767	
0.611694	
0.696313	
0.872932	
0.894077	
0.916254	
1.0916	
0.670657	
0.647451	
1.00195	
0.64805	
0.828506	
1.01337	
0.983754	
0.97704	
1.05875	
1.27238	
1.06565	
0.921509	
0.904601	
1.09468	
0.983856	
0.510321	
0.629245	
0.969167	
1.10282	
1.12882	
1.12519	
1.24551	
0.946448	
0.996986	
1.00603	
0.971873	
0.965542	
0.786698	
0.782142	
0.788954	
0.782863	
1.05571	
1.09135	
1.04018	
1.07279	
1.03847	
1.18108	
1.15904	
1.02215	
1.00204	
0.986493	
1.04164	
0.911701	
0.848718	
0.809669	
1.10901	
1.04401	
1.15404	
1.12118	
1.1667	
1.03813	
1.17302	
0.941794	
0.848006	
0.736396	
0.93452	
0.918316	
0.96433	
0.92865	
1.17381	
1.14733	
1.10789	
1.06481	
0.976403	
1.01111	
1.00002	
1.01256	
1.12444	
1.09959	
1.07945	
1.09581	
0.624844	
0.633622	
0.94729	
0.983003	
0.986279	
0.874059	
0.935719	
0.863462	
0.96832	
1.22367	
1.08627	
1.20426	
1.17983	
1.16382	
1.2416	
1.21392	
1.25223	
0.825681	
0.840601	
0.914819	
0.864807	
0.89965	
1.0645	
1.06278	
1.04355	
1.06161	
1.02377	
0.970359	
1.01527	
0.972375	
1.01579	
1.02386	
1.04434	
1.07845	
1.13343	
1.19319	
0.857338	
0.89139	
0.916645	
0.897651	
1.0584	
1.11354	
0.986769	
0.984765	
1	
0.932804	
0.934844	
0.89331	
0.92389	
0.968932	
0.964857	
0.915597	
0.839585	
0.846074	
0.741082	
0.976572	
0.986448	
0.973672	
0.975102	
1.18265	
1.12717	
1.10249	
1.09385	
0.840047	
1.00139	
1.13141	
1.12449	
0.768175	
0.755872	
1.08884	
1.10334	
1.20619	
1.08898	
1.09119	
1.10572	
1.06497	
1.06776	
1.03557	
1.03164	
1.28831	
1.41596	
1.32968	
1.4949	
0.308108	
0.322023	
0.164932	
0.222684	
0.897394	
0.828727	
0.903674	
0.845728	
1.02927	
0.975639	
0.979655	
0.964445	
1.11549	
1.12992	
1.02867	
1.03921	
0.751916	
0.659945	
0.709644	
0.682284	
1.14021	
1.03729	
1.0057	
0.997824	
0.9578	
0.960476	
0.950787	
0.950078	
1.04096	
1.05119	
1.02743	
1.06883	
1.02928	
1.05428	
1.01507	
0.367855	
0.992365	
0.985188	
0.877234	
0.88702	
0.87458	
0.325954	
0.459398	
0.869892	
0.816606	
0.793686	
0.749881	
0.703083	
0.804629	
0.76375	
0.724489	
0.800456	
0.425444	
0.568548	
0.429356	
1.11845	
1.06795	
1.22844	
1.03151	
1.04794	
1.11093	
0.96222	
0.942337	
0.959268	
0.901552	
1.17284	
1.19951	
1.35467	
1.45281	
1.10343	
1.01893	
0.932528	
0.887852	
0.912368	
0.923024	
0.921751	
0.650315	
0.614247	
0.982718	
0.993209	
1.06559	
1.08528	
0.526005	
0.462577	
0.531367	
0.967399	
0.97145	
0.966557	
2.01478	
1.54427	
0.931152	
0.870611	
0.553936	
1.09605	
1.13304	
1.17081	
1.62116	
0.833918	
0.853233	
0.921556	
0.900155	
0.365828	
0.367177	
0.475282	
0.477714	
1.01235	
1.00958	
0.959939	
0.977373	
1.30077	
1.25228	
0.710573	
0.688668	
1.15412	
1.00031	
0.926167	
0.92445	
0.925824	
0.971044	
1.04381	
1.03534	
1.13015	
1.06563	
1.17621	
1.00927	
1.14306	
0.972468	
0.504842	
0.458636	
0.385266	
0.366716	
0.834683	
0.812164	
0.813749	
0.795068	
0.657018	
0.672521	
-2.18099	
-3.70388	
-2.72389	
-2.71793	
-3.02571	
-1.81092	
0.796183	
2.52517	
0.537574	
0.831414	
-0.571817	
-0.677183	
0.689754	
-0.596098	
-0.708762	
-1.3318	
-0.849547	
-2.01195	
-1.99387	
-2.07013	
-1.58199	
-0.958133	
-2.00979	
-0.294083	
-0.0285292	
-0.132682	
-1.14616	
-1.69592	
-1.5324	
-1.37161	
-0.844706	
-0.985935	
-2.02711	
-2.71864	
-2.00809	
-1.90243	
-1.99274	
-1.79712	
-0.40976	
-2.62772	
-1.2451	
0.0719703	
0.265448	
-1.63767	
-1.85126	
0.408047	
0.886346	
-1.93999	
-0.952756	
0.215825	
-0.592788	
-1.53051	
-2.40175	
-1.2449	
-1.69286	
-2.06043	
-2.71098	
-2.40695	
-0.559285	
-0.137618	
-1.06902	
-1.10681	
-2.06816	
-1.42778	
-1.76504	
-0.871166	
-1.17716	
-0.752456	
-1.04103	
-0.174094	
-1.23166	
-0.72415	
-1.29775	
-0.966542	
-2.21319	
-2.21497	
-0.319062	
-2.38611	
-1.55526	
-0.928326	
-0.480999	
-0.813586	
-1.59148	
-1.93802	
-2.03564	
-2.03508	
-1.8482	
-1.18626	
-1.8628	
-2.04292	
-1.92403	
-0.557898	
-0.800441	
-2.0039	
-2.03266	
0.369617	
-0.0421183	
0.325438	
0.319071	
-2.1318	
-2.62614	
-1.9251	
-2.50033	
0.0616586	
-0.777058	
0.123217	
0.30353	
-0.652711	
-0.684501	
-0.758438	
-0.816699	
-2.07243	
-2.16305	
-2.14937	
-2.00783	
0.489647	
-1.76274	
-0.903794	
0.644333	
-0.197715	
0.222488	
-1.7204	
-2.18964	
-0.634791	
1.36228	
1.71306	
0.573277	
-0.0270504	
-0.272104	
0.0850056	
-0.437341	
-0.333655	
-1.96926	
-2.08188	
-2.21	
-1.17056	
-1.28642	
-1.06177	
-1.33904	
-1.3101	
-0.399031	
0.382865	
-2.05927	
-2.11411	
-2.40697	
-2.1302	
0.0695223	
0.212766	
0.343594	
0.325683	
-1.20133	
-1.56778	
-1.44453	
-1.67592	
-0.50058	
-0.863277	
-0.182776	
-0.583124	
-1.92155	
-1.7196	
-2.01274	
-2.08539	
-1.98816	
-2.10041	
-1.47953	
-2.59377	
-2.02397	
-2.62199	
-2.50301	
-2.55117	
-2.32173	
-2.44609	
-2.20776	
-1.82585	
-1.70593	
0.414062	
0.649751	
0.611238	
-1.2233	
-1.25307	
-1.2442	
-1.33346	
-1.2537	
-0.850576	
-1.13451	
-1.21021	
-1.67582	
1.22083	
1.37337	
1.61192	
0.0919227	
-0.0317702	
-2.06472	
-2.20826	
1.06805	
2.05057	
-2.16234	
-1.74806	
-1.69567	
-0.084134	
-0.0360665	
0.118959	
0.713109	
0.651655	
0.475846	
0.549683	
0.910482	
0.576919	
0.534504	
0.44226	
-1.85405	
-2.96209	
-2.86688	
0.314001	
0.198726	
0.856637	
0.474305	
-0.51995	
-0.236273	
-2.04078	
-1.88443	
-1.71799	
-1.94537	
-1.84496	
-1.93917	
-1.96955	
-1.7328	
-1.77938	
-1.91875	
-2.57594	
-2.16859	
-2.06056	
-2.06667	
-2.01543	
-2.00456	
0.185243	
0.0531757	
-1.33833	
-0.875373	
-1.22661	
-1.39079	
-0.0410881	
-0.376424	
0.337129	
-0.0196162	
-2.21212	
-2.06313	
-2.07188	
-2.08494	
-2.02949	
-2.08804	
-2.09866	
-2.04873	
-1.98627	
-1.97172	
-1.97548	
-1.98574	
-2.96203	
-2.52412	
-2.59837	
-2.46785	
-0.269999	
-0.508652	
-0.279752	
-0.640098	
-1.35231	
-1.28112	
-1.44817	
-1.74341	
1.20668	
1.74238	
-0.81514	
-0.74127	
-0.926396	
-0.90687	
-1.08013	
-1.05812	
-1.07321	
-0.469375	
-2.94511	
-2.71816	
-0.925241	
-0.630594	
-0.885123	
-1.84917	
-1.34667	
-0.955902	
-0.82764	
-1.11167	
-1.16942	
-0.836355	
-0.47602	
-0.671919	
-0.925441	
-0.730817	
-1.37987	
-2.44647	
-2.03738	
-0.517755	
-0.367859	
-0.323884	
-0.00342659	
-0.990256	
-1.74065	
-1.75867	
-1.48768	
0.499823	
-2.264	
0.336578	
0.028755	
-2.91546	
-3.55742	
0.52301	
0.636984	
1.3254	
1.50195	
-1.35455	
-1.58827	
-1.52003	
-1.73263	
-2.30855	
-2.1538	
-2.20977	
-2.18075	
-1.95503	
-2.14121	
-2.14815	
-2.54265	
-2.37715	
-1.54961	
-2.48329	
-2.2027	
-2.06246	
-2.73884	
-2.06057	
-2.58482	
-0.244521	
0.241848	
-2.22119	
-2.0986	
-2.20468	
-2.25945	
-1.89221	
-1.65559	
-1.82916	
-0.797967	
-0.754284	
0.8301	
1.28928	
0.181671	
0.794902	
-0.0649332	
0.405834	
0.644317	
0.164693	
0.614645	
0.258181	
-1.47093	
-0.601152	
-0.659885	
-2.00035	
-1.53996	
-1.64569	
-1.55269	
-1.6574	
-1.92848	
-2.02922	
-1.94382	
-2.41449	
-1.88993	
-1.78465	
-1.87469	
-1.63859	
-1.50884	
-1.61511	
-1.67247	
-0.534473	
-0.41517	
-0.763437	
-0.602246	
0.451185	
0.262729	
0.697113	
0.571013	
-1.6376	
-2.28375	
-1.00385	
-1.07774	
-1.12286	
-1.27559	
-1.96361	
-0.553541	
-0.307823	
-1.37184	
-1.58979	
-1.30328	
-1.20072	
0.162635	
0.986493	
1.14799	
0.895483	
0.710762	
-1.45255	
-0.190051	
0.0838182	
-0.267215	
0.0181042	
-2.32298	
-1.74871	
-1.3761	
-1.14686	
-1.05354	
-1.20351	
-1.1448	
-1.1914	
-1.14196	
-1.31982	
-1.5485	
-1.4144	
-1.51127	
-1.38563	
-1.38022	
-2.59072	
-2.22841	
-2.04757	
-2.06601	
-2.23692	
-2.12746	
-2.03554	
-2.0185	
0.428163	
0.326404	
-0.388815	
-2.20748	
-2.73292	
-2.05002	
-2.63541	
-2.10614	
-2.08507	
-1.9433	
-2.13871	
-2.32989	
-0.115727	
-0.890322	
-0.954362	
-1.00426	
-1.02343	
-1.41306	
-1.69869	
-2.71658	
-3.20456	
-2.16521	
-2.02518	
-2.06402	
-2.0333	
0.448929	
-0.0147832	
0.874179	
0.145562	
-1.83087	
-0.527725	
-1.48278	
-1.80285	
-0.756185	
-0.944061	
-1.44576	
-1.9808	
-1.34327	
-1.68157	
-2.42135	
-2.96462	
-2.27241	
-2.38225	
-0.811187	
-0.77629	
0.278708	
0.195	
0.320475	
0.17363	
0.165313	
0.0421746	
0.0929076	
-2.72256	
-3.01611	
0.372494	
0.253566	
0.448343	
-1.27888	
-0.907521	
-0.909398	
-0.60221	
-1.26894	
-1.41721	
-1.11036	
-1.13753	
0.0633175	
-0.19445	
0.0488795	
-0.142516	
-3.34323	
-3.31265	
-2.69246	
-0.574411	
-0.887444	
-0.919318	
-0.705878	
-1.91392	
-1.95546	
-2.29917	
-2.36772	
-2.19121	
-2.2287	
-0.972723	
-0.818086	
-0.781563	
-1.04051	
-1.00274	
-1.28156	
-1.63068	
-1.80289	
-2.09687	
-1.38529	
-1.33281	
-1.77	
-1.53875	
-1.98429	
0.391728	
0.272636	
-0.00552291	
-0.261529	
-0.119847	
-0.327213	
-1.05689	
-1.28196	
-1.05251	
-1.28152	
-1.67678	
-1.24606	
-2.07051	
-1.52008	
-1.51129	
-1.79395	
-1.95442	
0.674528	
0.451393	
0.370792	
-1.89501	
-1.93955	
-1.97065	
-1.92552	
-2.04925	
-1.91298	
-1.85513	
-1.8482	
0.0453202	
-0.0693403	
0.271899	
0.348614	
-0.492862	
-0.516435	
-0.0986262	
-0.263318	
1.0979	
0.998144	
1.78359	
0.138554	
0.50479	
0.993653	
-1.49016	
-1.57046	
-1.66974	
-1.66234	
-1.80081	
-1.82121	
-2.11304	
-2.00101	
-2.02235	
-1.93332	
-2.43048	
-2.38975	
-0.690409	
-0.641673	
-0.853269	
-0.961924	
-1.08121	
-1.09597	
-1.29237	
-1.36428	
-1.11778	
-1.08896	
-1.27518	
-1.39363	
-1.89329	
-1.99031	
-1.96269	
-2.07198	
-2.01652	
-1.8981	
0.374907	
0.601306	
-1.56341	
-1.70327	
-1.66735	
-2.035	
-1.92793	
-2.20929	
-2.83771	
-2.00251	
-1.97091	
0.558221	
-1.5699	
-1.50314	
-1.54752	
-1.97613	
-1.96199	
-2.20464	
-1.91802	
3.01188	
-1.65601	
-1.75684	
-1.54837	
-1.53945	
0.400332	
0.381957	
0.769952	
0.620978	
0.660793	
0.45005	
1.47888	
-1.80291	
-1.84027	
-2.16503	
-2.29946	
-2.26353	
0.668587	
-1.98569	
-2.13952	
-1.85092	
-1.85444	
0.43727	
0.354584	
-1.81453	
0.567486	
0.536604	
-1.43393	
-1.48825	
-1.33905	
-1.36861	
-1.46332	
-1.56927	
-2.39154	
-2.60441	
-1.75341	
-2.01692	
-1.42395	
-1.33907	
-1.24334	
-1.98404	
-1.72307	
-1.86789	
-1.84952	
-1.88464	
-1.69398	
-1.51973	
-1.40491	
-1.6466	
-1.47429	
-1.53673	
-1.61451	
0.759026	
0.593602	
0.685434	
-1.87096	
0.366694	
0.276855	
0.278188	
0.356083	
0.36641	
-1.95062	
-1.96218	
-1.97873	
0.0496143	
0.138575	
-0.0236254	
0.095726	
-1.95886	
-1.85087	
-1.89652	
-1.95602	
-1.9667	
-2.22458	
-2.0034	
-2.30197	
-2.07188	
0.753981	
0.805944	
0.537629	
-2.83034	
-2.18705	
-2.97678	
-2.20756	
-1.63116	
0.315508	
-1.92177	
-1.89357	
1.58714	
1.08239	
1.13431	
0.549231	
-1.73611	
-1.55299	
-1.42264	
-0.739343	
-0.719811	
-0.427677	
-1.59692	
-1.61081	
-2.60547	
-2.07351	
-2.15502	
-2.11367	
-2.36552	
-0.190685	
-0.510392	
0.790386	
0.659329	
0.665399	
0.618554	
0.734807	
0.444548	
0.404229	
0.365738	
0.255579	
-2.27732	
-2.10796	
-2.17793	
-2.07447	
-1.7922	
-1.75427	
-2.03355	
-2.47164	
-2.54353	
0.197892	
0.0801294	
-0.288126	
-2.03106	
-2.2055	
-1.73281	
-1.85953	
-1.92412	
-1.82987	
-1.93258	
-1.84234	
-1.95991	
-1.97206	
-1.78017	
-1.67291	
-1.74403	
-1.82337	
-1.92087	
-1.66068	
-1.59184	
-1.71546	
-1.54804	
0.863671	
0.351761	
-1.66851	
-1.76474	
-1.77132	
-2.06525	
-0.938422	
-1.16155	
-1.57697	
-1.60837	
-1.84515	
-1.85459	
-1.7996	
-1.86558	
-1.20504	
-1.36156	
-2.10308	
-2.12346	
-2.05685	
-2.03324	
-2.08949	
-2.03264	
-2.01357	
-1.99424	
-1.72824	
-1.95909	
-1.36106	
-1.36491	
-2.22609	
-2.65104	
-2.59413	
-2.05156	
-2.35897	
-2.15826	
-0.100918	
-0.394912	
-0.446549	
0.470096	
0.336289	
-1.7439	
-1.8027	
-1.76444	
-0.439573	
-0.444676	
-0.35134	
-1.9602	
-1.8536	
-1.97404	
-1.82791	
-0.601126	
-0.495958	
-0.764659	
-0.880721	
-1.13354	
-1.83838	
-1.69691	
0.804615	
1.09312	
1.39003	
0.922119	
-0.223038	
-0.28696	
0.433602	
0.517405	
0.412389	
0.546886	
-2.22892	
-2.39958	
-2.17506	
-2.37327	
-0.862801	
-0.702837	
-0.313561	
1.99178	
2.96916	
-2.31227	
-2.45094	
-2.62876	
-3.11612	
-0.422413	
-0.297269	
-0.724905	
-0.483586	
0.656011	
0.609565	
0.430446	
0.367101	
0.302645	
-0.201738	
-0.439687	
0.0751413	
-0.328209	
0.44884	
0.465444	
-1.79846	
-2.3701	
-1.77703	
-1.93635	
-0.690635	
-0.896727	
-0.843751	
-1.01732	
1.56296	
1.39156	
-2.28169	
-2.12664	
0.446547	
0.459883	
0.629709	
0.595363	
0.771296	
0.388954	
-0.0282621	
-0.0957518	
-0.123167	
-0.098957	
-0.0452261	
-0.0325361	
-0.0648913	
0.0422266	
0.0730835	
0.177231	
0.245219	
0.216023	
0.123287	
0.00425057	
-0.14157	
-0.127793	
-0.10959	
-0.115734	
-0.0768013	
0.244872	
-0.0277476	
0.211981	
0.105034	
0.164106	
0.0424658	
-0.154083	
0.211306	
0.152239	
0.0200012	
-0.075524	
0.0678819	
-0.208107	
-0.242268	
-0.303595	
-0.264086	
-0.295298	
-0.319001	
-0.153692	
0.189549	
0.122343	
-0.209958	
-0.0636159	
-0.12461	
0.0185533	
-0.195554	
-0.236032	
-0.224902	
-0.22192	
-0.231443	
-0.241434	
0.228175	
1.49785	
0.142859	
1.43116	
1.41425	
1.34658	
1.71759	
0.810602	
0.755686	
0.771076	
0.795456	
0.941599	
0.279926	
0.14169	
1.39784	
0.397518	
0.120064	
0.290034	
1.57201	
2.7655	
0.587207	
0.747248	
1.21306	
1.02363	
1.14805	
0.97072	
0.838679	
1.08874	
1.06284	
0.561385	
0.619187	
0.630744	
0.890835	
0.433214	
0.983993	
1.04443	
1.05672	
1.17934	
1.00571	
0.807069	
0.959336	
1.00821	
1.1086	
1.09123	
1.25429	
1.20178	
1.08348	
1.13964	
1.12634	
1.06699	
1.08889	
1.059	
1.12556	
1.09406	
0.605111	
0.620058	
1.03935	
1.03777	
1.11959	
1.08436	
1.3464	
1.0807	
1.19268	
0.942271	
1.08132	
0.67323	
1.03111	
1.09817	
1.00784	
1.03616	
1.18408	
1.23941	
1.0006	
1.04088	
1.17942	
1.03056	
1.02794	
1.16826	
1.16942	
1.16575	
0.991038	
0.987424	
1.06712	
0.791837	
1.33262	
1.04391	
0.47979	
1.24793	
1.06481	
0.575069	
1.20383	
1.07945	
1.11664	
1.26719	
1.06446	
1.11319	
1.05623	
1.08041	
0.823521	
0.90546	
0.958798	
1.31687	
1.18288	
0.872283	
1.08773	
1.06432	
1.11265	
0.971156	
0.820152	
0.839397	
0.838474	
1.02121	
1.01314	
0.961384	
0.920231	
0.955563	
1.03208	
1.09168	
1.02158	
1.07225	
1.23372	
1.07016	
1.03807	
1.07106	
1.08125	
1.07654	
1.0945	
1.07071	
1.11308	
1.04509	
1.06177	
1.06708	
1.07682	
1.15236	
1.19921	
1.22762	
1.26843	
0.771147	
0.846567	
1.1685	
1.05989	
0.47381	
1.1968	
1.27243	
0.313444	
1.07235	
0.913188	
0.949623	
0.947608	
0.968308	
1.09116	
0.998093	
1.03072	
0.55969	
0.303751	
0.265107	
0.388114	
1.85707	
0.947965	
0.845517	
0.409111	
1.41166	
1.31509	
0.976951	
1.11346	
1.13428	
1.39647	
1.09944	
1.05647	
1.13732	
1.036	
2.69311	
2.87183	
0.904211	
0.764328	
0.939597	
0.840454	
1.07559	
1.10389	
0.756552	
0.826641	
0.824059	
0.679966	
0.599715	
1.0222	
1.07978	
1.03161	
0.814937	
0.846167	
0.739101	
0.977816	
0.53244	
0.502227	
0.554503	
0.607593	
0.619027	
0.697544	
0.689392	
0.636295	
0.667164	
0.719504	
0.75525	
1.17607	
1.11934	
1.10932	
0.560129	
0.417169	
0.522475	
0.447436	
1.33785	
1.23279	
1.21414	
0.907913	
0.925402	
1.07236	
1.10675	
1.08435	
1.19413	
1.19875	
1.29753	
1.20982	
1.30719	
0.873029	
0.983299	
0.779611	
1.12515	
1.10214	
0.435544	
0.354	
1.30548	
1.2079	
1.12471	
1.2187	
1.16219	
1.27447	
0.828324	
1.13274	
1.09596	
1.10464	
1.12741	
1.32044	
1.293	
1.30086	
1.18137	
0.941208	
0.933313	
0.950752	
1.08949	
1.06129	
1.09712	
1.10752	
1.11243	
1.09702	
1.33316	
1.29568	
1.19672	
1.10108	
1.20697	
1.06455	
1.02871	
1.27397	
1.073	
0.936547	
0.815327	
0.745313	
1.13788	
1.23502	
1.22823	
0.896258	
0.996707	
1.14975	
0.907431	
0.870692	
0.923981	
1.35614	
1.03121	
1.08306	
1.05153	
1.02955	
1.03078	
0.955345	
0.957881	
0.97203	
0.742545	
0.790218	
1.31824	
1.21596	
1.13154	
1.42405	
1.38417	
0.972613	
0.999053	
0.931743	
0.988492	
1.00018	
1.1869	
1.12913	
1.1252	
0.798885	
0.790439	
0.830691	
0.871883	
0.897758	
0.869539	
0.911838	
0.793389	
0.582365	
1.03939	
1.22287	
1.04766	
1.19553	
1.13945	
1.05695	
1.17019	
1.21511	
1.04179	
1.04244	
0.931906	
0.82339	
1.30835	
1.33336	
1.198	
1.23672	
0.829098	
0.848047	
1.08077	
1.00576	
1.10035	
1.08607	
1.03795	
1.09451	
1.11267	
1.18191	
1.18107	
0.92466	
0.914612	
1.09141	
0.935765	
1.04295	
1.04647	
1.00997	
1.03359	
1.04484	
1.07131	
1.06197	
0.992496	
0.964912	
0.98595	
0.966845	
1.04041	
1.08199	
0.997818	
1.14114	
1.04168	
0.899401	
0.850424	
0.94339	
1.12642	
1.08164	
1.10289	
1.08616	
0.951137	
1.21932	
1.1552	
1.14801	
1.17381	
1.24559	
0.966242	
0.950882	
0.979002	
0.961021	
0.948171	
0.962588	
0.96312	
0.972423	
1.11912	
1.21108	
1.2499	
1.20593	
0.860983	
0.492364	
0.381649	
1.03307	
1.04873	
1.0715	
1.15658	
1.29821	
1.27781	
1.28443	
1.27295	
0.974274	
1.02199	
0.95774	
1.08644	
1.1362	
1.24118	
1.25088	
0.862143	
0.896423	
0.869292	
0.923382	
0.224288	
0.2415	
1.37052	
1.28366	
1.17776	
1.191	
1.03725	
1.17431	
0.90835	
0.83122	
0.888398	
0.851534	
0.866379	
0.908818	
1.00298	
0.877187	
0.914612	
0.874792	
0.929207	
0.939997	
1.03392	
1.01868	
1.05736	
0.384104	
0.441514	
0.506435	
1.04502	
1.10153	
1.05083	
1.07952	
1.13777	
1.23364	
1.25499	
0.584237	
0.983425	
0.914095	
0.989197	
0.917917	
0.793485	
0.719166	
0.928101	
0.860613	
1.09304	
1.09572	
1.1313	
1.11524	
1.17265	
1.09172	
1.13081	
1.09388	
1.15467	
1.13253	
1.27274	
1.18268	
1.20208	
1.25169	
1.29553	
1.2718	
1.28127	
1.31287	
1.1556	
1.28039	
0.961893	
0.93047	
1.36361	
1.23798	
1.11568	
1.08614	
1.1409	
1.20257	
1.1614	
1.20177	
1.11632	
1.44666	
1.04696	
1.08773	
1.12245	
1.11033	
1.09847	
1.14812	
1.1541	
1.05053	
1.01637	
1.13949	
1.10282	
1.26256	
1.21077	
0.707642	
0.649646	
0.703571	
0.641446	
0.936967	
0.982039	
0.948257	
0.458063	
0.539948	
1.03933	
1.01856	
0.410001	
0.346062	
0.861997	
0.843108	
0.963269	
0.918163	
1.06066	
1.06058	
1.05781	
1.01588	
1.02092	
1.04236	
0.972737	
0.920297	
0.927194	
1.00157	
0.901542	
0.90662	
0.918025	
1.04303	
1.01992	
1.03512	
0.984373	
1.12233	
1.08721	
1.0741	
1.03576	
1.13743	
1.10959	
1.17518	
1.12959	
1.22887	
0.824825	
0.802051	
0.793237	
0.695212	
1.33307	
1.42172	
1.34705	
1.30195	
1.33208	
1.32466	
1.12996	
1.30936	
1.26568	
1.32126	
1.30037	
1.12251	
1.13388	
1.11065	
1.19427	
0.814592	
0.826709	
0.825418	
1.06292	
1.08828	
1.12442	
0.912276	
0.896058	
1.30766	
0.944281	
0.907985	
0.831542	
0.89136	
1.09489	
1.13668	
0.886874	
0.905806	
0.764167	
0.681784	
0.891891	
0.923549	
0.913687	
0.637069	
0.563443	
1.15074	
0.933968	
0.581507	
0.629093	
1.45067	
1.3802	
1.07564	
1.06466	
1.10994	
0.907736	
0.92282	
1.05513	
1.07005	
0.376549	
0.981704	
1.08581	
1.12419	
1.0499	
1.06183	
0.94504	
0.99995	
1.13409	
1.09154	
1.09198	
0.792052	
0.793691	
0.776841	
0.783714	
1.10529	
1.14058	
1.1147	
1.14769	
1.18007	
0.986644	
1.15715	
1.02679	
1.00405	
1.48556	
2.12916	
1.23006	
0.867419	
0.949014	
1.27573	
1.14196	
1.11764	
0.737317	
1.00793	
1.08249	
1.16722	
1.18725	
1.09259	
1.13068	
1.0412	
1.021	
1.03919	
1.03305	
1.1142	
1.14445	
1.17227	
1.14512	
0.62126	
0.606632	
0.983724	
0.95009	
1.10972	
1.0731	
1.04042	
1.04165	
1.01798	
1.27981	
1.172	
0.937255	
0.877367	
0.96768	
0.906541	
1.19186	
1.17906	
1.22501	
1.12034	
1.23786	
1.13622	
1.24541	
1.21969	
0.926325	
0.870523	
0.904238	
0.848216	
0.875547	
1.03979	
0.987912	
1.15091	
0.994754	
1.09671	
1.0901	
1.21071	
1.2489	
0.898446	
0.891099	
0.906724	
0.92538	
1.09004	
1.08319	
0.957312	
0.956955	
0.943882	
0.927208	
1.07843	
1.10289	
1.03637	
1.03708	
1.04407	
0.848379	
0.927601	
0.751478	
0.859707	
1.0185	
1.02144	
0.97686	
1.05459	
1.12107	
1.20971	
1.05375	
1.07999	
1.10169	
1.09522	
1.13295	
1.16312	
1.09002	
1.26767	
1.11457	
0.759486	
0.771601	
1.20313	
1.0857	
1.11881	
1.10208	
1.10324	
1.11508	
1.09106	
1.09674	
1.06343	
1.06939	
1.42236	
1.29851	
1.6864	
1.33729	
0.299625	
0.308861	
0.196048	
0.11954	
0.859736	
0.899461	
0.859254	
0.868576	
0.980822	
1.00841	
0.971559	
0.985564	
1.1662	
1.14079	
1.08869	
1.08246	
0.755364	
0.755383	
0.772215	
0.697882	
1.04869	
1.1535	
1.00727	
0.996208	
1.0441	
0.95966	
1.12569	
1.01472	
1.07835	
1.10472	
1.14736	
1.25338	
1.17901	
1.16652	
1.14937	
1.16532	
1.26662	
1.30057	
0.403444	
1.03517	
1.03543	
0.934501	
0.921398	
0.92093	
1.01927	
1.14402	
0.826296	
0.901776	
0.905558	
1.04024	
0.441572	
0.529981	
0.506465	
0.348826	
0.287264	
0.273624	
0.810798	
0.98981	
0.989435	
0.465527	
0.421698	
0.651997	
0.254164	
0.355207	
0.537985	
0.396893	
0.403785	
1.04559	
1.0966	
1.02751	
1.12658	
1.17779	
1.09837	
1.00345	
1.1617	
0.838404	
0.790309	
0.812628	
0.965399	
0.936281	
0.971976	
0.964518	
1.03625	
1.03308	
1.06334	
1.11714	
0.437697	
0.497808	
0.995904	
1.01411	
1.02903	
1.35375	
1.55539	
0.905987	
0.962122	
0.86501	
0.451218	
0.525622	
0.552641	
0.451888	
0.54577	
1.18877	
1.14288	
1.07764	
1.31203	
0.859458	
0.837603	
0.466701	
0.518239	
1.13155	
1.00321	
1.00693	
0.996224	
0.457374	
0.514875	
0.382124	
0.463685	
0.235167	
0.324112	
0.345884	
1.03773	
1.39858	
0.995788	
1.11261	
1.18279	
1.13116	
1.117	
1.07444	
0.6568	
0.606874	
0.709469	
0.652958	
1.02049	
1.06195	
0.943367	
0.934324	
0.147918	
0.322898	
0.25768	
0.732331	
0.680244	
0.819075	
0.690968	
0.796005	
0.791391	
0.830917	
0.811753	
0.292289	
0.199626	
0.289675	
0.196788	
0.682529	
0.689989	
0.718646	
-2.30282	
-3.70929	
-2.73612	
-2.97976	
-3.63946	
0.818822	
2.48685	
0.536321	
0.664538	
-0.636449	
-0.848083	
0.696199	
-0.678458	
-0.795142	
-1.39697	
-0.879333	
-2.15256	
-2.20511	
-1.59319	
-1.00687	
-2.16558	
-2.2422	
-0.261066	
-0.0102113	
-0.109	
-1.31032	
-1.86886	
-1.61949	
-1.41138	
-1.01205	
-0.952025	
-2.14394	
-2.18232	
-2.09839	
-2.14208	
-2.02325	
-2.31992	
-0.412682	
-2.68834	
-1.25745	
0.093976	
0.300657	
-1.63785	
-1.88183	
0.514973	
1.23495	
-1.87408	
-0.972715	
0.21888	
-0.656298	
-1.5755	
-1.71767	
-1.59978	
-1.70098	
-2.18772	
-2.85522	
-2.7785	
-0.643792	
-0.207448	
-1.02078	
-1.0667	
-2.2051	
-2.01907	
-1.44771	
-0.941055	
-1.12588	
-0.875667	
-1.13209	
-0.486898	
-1.2917	
-0.958573	
-1.61512	
-0.844914	
-1.85105	
-2.08075	
-0.317169	
-1.35779	
-1.76839	
-0.897328	
-0.773044	
-0.448073	
-2.26203	
-2.89788	
-2.14194	
-1.86008	
-1.14513	
-1.85683	
-1.81414	
-1.82625	
-0.557588	
-0.795098	
-2.02801	
-2.0961	
0.605637	
0.00558867	
0.344605	
0.293604	
-2.07756	
-2.53578	
-2.14786	
-2.62528	
0.0514813	
0.131647	
0.295436	
-0.956778	
-0.884093	
-0.811875	
-0.768815	
-1.99314	
-2.29388	
-2.15522	
-2.27302	
0.489531	
-1.78661	
-1.03043	
0.643443	
-0.189571	
0.22251	
-1.56074	
-2.27959	
-0.876176	
1.80745	
1.03453	
0.60917	
-0.0219984	
0.0901828	
-0.018378	
-0.438464	
-0.327857	
-2.07571	
-1.71481	
-1.86739	
-1.71893	
-1.37348	
-1.15099	
-1.4031	
-1.18606	
-0.389156	
0.377645	
-2.37428	
-2.19204	
-2.16274	
-2.01489	
0.189702	
0.169167	
0.316878	
0.339098	
-1.48343	
-1.71807	
-1.23051	
-1.27133	
-0.175376	
-0.897984	
-0.164873	
-0.84701	
-2.78922	
-1.91975	
-1.65182	
-2.21689	
-2.35499	
-2.41947	
-1.47756	
-1.97038	
-2.00059	
-2.35265	
-1.72514	
-2.62551	
-2.29574	
-1.83403	
-1.76721	
-2.04475	
-2.19322	
0.589355	
0.644708	
-1.34467	
-1.22619	
-1.33811	
-0.907724	
-1.26541	
-1.33639	
-1.23882	
-0.860498	
-1.8232	
1.35718	
1.54685	
0.104322	
-0.0192574	
-2.5251	
-2.61002	
2.0657	
1.08473	
-1.80087	
-1.61394	
-1.86822	
-0.168902	
0.0850107	
-0.0923356	
0.656453	
0.731615	
0.457972	
0.508538	
1.11946	
0.539111	
0.582532	
0.44555	
-2.00929	
-3.11298	
-3.06157	
0.923506	
0.515886	
0.680052	
0.233248	
-0.696746	
-0.377153	
-1.99356	
-2.13816	
-2.00194	
-2.02808	
-1.77246	
-1.7585	
-2.07053	
-1.81085	
-1.87513	
-2.03371	
-2.24204	
-2.68192	
-2.17065	
-2.13732	
-2.15244	
-2.11529	
-0.021123	
0.0483409	
-1.3073	
-1.22219	
-0.953512	
-1.45981	
-0.034083	
-0.381468	
-0.27512	
0.342429	
-2.17861	
-2.29379	
-2.23266	
-2.18395	
-2.23237	
-2.24399	
-2.44142	
-2.83666	
-2.09863	
-2.10592	
-2.09192	
-2.08115	
-2.55821	
-2.74026	
-2.41974	
-2.64578	
-0.483834	
-0.638311	
-0.255302	
-0.50416	
-1.43086	
-1.5069	
-1.84584	
-1.60051	
1.74807	
1.51544	
-0.784498	
-0.970045	
-1.07068	
-1.15183	
-0.985041	
-0.475798	
-0.737309	
-0.741909	
-1.09185	
-2.79932	
-3.06087	
-0.896296	
-0.853603	
-0.611247	
-1.28033	
-1.12102	
-1.07466	
-0.958473	
-0.83164	
-0.726041	
-0.458351	
-1.07437	
-1.36222	
-0.68107	
-0.937409	
-0.286283	
-0.0447994	
-0.46712	
-0.34468	
-1.2969	
-1.67468	
-1.74041	
-1.65382	
0.506736	
-2.21978	
0.0540901	
0.359226	
-3.75012	
-3.80717	
0.657255	
0.897519	
1.2253	
1.34319	
-1.50308	
-1.71806	
-1.3892	
-1.42978	
-2.20546	
-2.48973	
-2.23166	
-2.07306	
-2.27754	
-2.25142	
-2.67642	
-2.78351	
-1.59236	
-2.26224	
-1.75677	
-2.42101	
-2.50888	
-2.00803	
-2.67544	
-2.03427	
0.321597	
-0.247547	
0.241933	
-2.56064	
-2.63177	
-2.5154	
-3.141	
-1.84529	
-2.0062	
-2.52769	
-0.822394	
-0.862335	
1.30604	
1.00636	
0.727546	
0.195189	
0.427653	
0.0214153	
0.356627	
0.292314	
0.726686	
0.404654	
-1.53269	
-0.49496	
-0.702247	
-2.07729	
-1.68749	
-1.49236	
-1.68812	
-1.57592	
-2.10494	
-1.90293	
-2.14974	
-1.99088	
-1.87058	
-1.97779	
-2.24148	
-1.54099	
-1.79949	
-1.74293	
-0.741056	
-0.583736	
-0.518862	
-0.402326	
0.272357	
0.461215	
0.429978	
0.711544	
-1.19336	
-1.14124	
-1.40195	
-1.3047	
-1.53833	
-2.30861	
-0.90574	
-0.429684	
-1.45488	
-1.70923	
-1.64734	
-1.40394	
0.133063	
1.16766	
0.852082	
0.814228	
0.910196	
-1.76841	
-0.265269	
0.0449248	