<VTKFile type="UnstructuredGrid" version="0.1" byte_order="LittleEndian">
	<UnstructuredGrid>
		<Piece NumberOfPoints="1917" NumberOfCells="3602">
			<CellData Scalars="scalars">
				<DataArray type="Float64" Name="Doublet Strengths" NumberOfComponents="1" Format="ascii">
4.0928	
1.01676	
3.90749	
4.1127	
4.28992	
6.43691	
6.77602	
6.76802	
6.75632	
6.77103	
6.71899	
1.0317	
0.416651	
6.40555	
3.94543	
0.393695	
1.36366	
6.49753	
5.33527	
3.96802	
3.98295	
3.03058	
4.11983	
2.54734	
2.92441	
2.89342	
3.2439	
2.018	
3.93103	
4.16216	
5.0989	
4.40458	
3.98874	
3.61243	
3.93701	
3.8906	
3.99625	
4.03131	
4.46441	
4.04838	
5.30711	
4.08596	
4.48141	
4.47014	
3.83296	
3.77096	
4.51664	
4.23814	
4.27666	
4.57528	
3.96481	
4.54201	
4.57192	
4.62505	
4.62305	
5.28126	
4.60563	
4.61839	
5.73352	
4.5591	
3.05118	
3.93174	
4.76897	
4.73557	
4.58823	
4.49736	
4.96936	
3.89217	
5.43885	
5.08859	
4.84237	
4.65098	
3.78848	
3.60791	
3.78807	
3.62598	
3.67019	
5.55336	
2.70408	
2.35607	
4.4504	
4.57901	
4.00159	
3.50789	
4.24772	
4.19646	
4.17599	
4.07968	
4.17585	
3.81449	
5.90283	
6.02506	
3.27486	
3.48259	
4.52141	
3.35994	
4.10818	
4.08711	
3.22964	
3.33077	
5.49109	
5.48042	
4.46559	
4.28302	
4.82425	
5.30202	
5.33765	
4.0627	
4.09462	
4.11907	
4.1509	
4.30352	
4.3502	
4.05414	
3.96226	
4.23744	
4.20207	
4.15912	
4.3862	
4.36247	
4.27401	
4.22532	
4.26954	
4.18658	
4.21608	
4.87847	
4.25432	
4.20715	
4.40897	
2.92222	
2.70182	
4.77115	
4.95979	
2.36737	
3.94361	
4.06251	
4.13344	
5.04846	
4.97481	
4.78936	
4.74732	
4.66876	
4.6666	
4.74459	
2.58809	
1.44511	
1.64725	
2.02107	
6.51092	
6.61619	
6.53745	
6.6529	
6.82698	
1.9014	
1.57665	
4.16198	
4.24012	
3.27996	
3.3925	
1.85149	
5.40604	
5.12809	
5.2389	
4.09457	
4.01385	
6.55093	
6.49734	
3.12878	
3.03652	
2.98108	
2.92891	
4.56862	
4.52713	
6.89731	
6.87649	
6.10502	
5.88919	
3.55289	
2.81788	
2.91097	
4.06413	
4.03332	
3.9845	
6.89217	
6.76449	
4.16077	
3.84436	
2.27915	
2.40741	
2.49172	
1.99497	
2.12201	
2.40073	
2.62869	
2.57168	
2.78399	
2.82357	
2.76103	
2.75616	
3.07196	
3.04121	
4.33904	
4.29859	
4.31197	
2.53742	
2.2285	
2.6697	
2.49626	
6.31088	
6.43534	
3.65355	
3.52131	
3.66697	
4.99057	
5.27985	
2.55689	
2.22452	
4.48466	
4.53824	
4.44145	
4.52751	
4.30199	
4.35085	
4.2471	
4.33881	
3.05383	
3.27244	
1.60966	
3.92484	
3.89375	
4.53662	
4.56911	
4.58467	
4.64013	
3.71874	
4.12656	
4.08076	
4.09566	
4.04253	
4.18285	
4.2021	
4.25556	
4.27721	
3.8842	
3.76112	
3.85699	
3.7521	
4.42168	
4.41843	
4.36801	
4.43842	
4.45404	
4.38532	
4.3963	
4.3144	
4.36659	
4.35207	
4.91897	
1.19785	
1.42713	
3.92019	
3.90997	
3.88411	
4.95821	
5.10606	
3.29971	
3.54484	
3.24244	
4.09471	
4.08047	
4.03234	
5.61885	
5.67423	
3.46923	
3.54728	
3.69494	
4.0942	
4.01456	
4.00391	
3.97281	
3.97138	
3.8264	
3.82322	
3.7804	
3.67192	
3.0925	
3.41901	
4.22139	
4.215	
4.25349	
4.2448	
4.20328	
3.75808	
3.6902	
3.91039	
3.98609	
3.96414	
4.10614	
4.07464	
3.0066	
2.98851	
3.14253	
5.17174	
5.74123	
5.13772	
5.70586	
3.02732	
3.0263	
3.58889	
3.7265	
3.73835	
3.8069	
3.83594	
3.90814	
3.85307	
3.70775	
3.71309	
3.85285	
3.23965	
3.02082	
4.22759	
4.27045	
4.25942	
4.30551	
6.85283	
6.00621	
5.9948	
5.22331	
4.87394	
4.30669	
4.65558	
4.5981	
3.45759	
3.43246	
3.55557	
3.57842	
3.54704	
3.5094	
3.66904	
3.69004	
4.76184	
4.66057	
4.92804	
4.72459	
3.9409	
3.94199	
4.20172	
4.01609	
4.13406	
4.03151	
4.70952	
4.39823	
4.86199	
4.41542	
3.92645	
6.09031	
4.77694	
3.57254	
3.5995	
4.51127	
4.61063	
4.51718	
4.57047	
6.02602	
4.34476	
4.37603	
4.43876	
4.46924	
3.88551	
3.86192	
3.97922	
3.95514	
3.97716	
3.92298	
4.1206	
4.10776	
4.08894	
4.03637	
4.06791	
4.02249	
5.7347	
6.88454	
2.35439	
1.68244	
3.79413	
3.6958	
3.80019	
3.70873	
4.53055	
4.47182	
4.54703	
4.48215	
4.66615	
4.8167	
4.62383	
4.80855	
4.48253	
4.57707	
4.48298	
4.55092	
5.05005	
5.2817	
4.93734	
5.02727	
0.611937	
0.874521	
3.95809	
4.01394	
5.00542	
4.9255	
5.39226	
5.04058	
6.6954	
5.88143	
6.06828	
5.46988	
5.4216	
5.12327	
5.36318	
4.93975	
5.30566	
3.90565	
3.72239	
4.07135	
3.78534	
3.99912	
4.82119	
2.87732	
3.51711	
2.92819	
3.98318	
3.96056	
4.03449	
4.00163	
4.02076	
4.1507	
4.08222	
2.77859	
2.68479	
2.51365	
3.47038	
3.35089	
3.43126	
3.33188	
3.14392	
2.89002	
3.13566	
2.89113	
4.17154	
4.2122	
4.13805	
4.15277	
4.35509	
4.30288	
4.35606	
4.30402	
4.3022	
4.37936	
4.28841	
4.32131	
4.14172	
4.20642	
4.12608	
4.15128	
4.28599	
4.37896	
4.26719	
4.31405	
3.86705	
3.86307	
3.95446	
3.96801	
4.15059	
4.19098	
4.19853	
4.22163	
4.59917	
5.16026	
5.00217	
4.09519	
4.05112	
4.12185	
4.07622	
4.14164	
4.19635	
4.16711	
4.03775	
4.07049	
4.15228	
4.18374	
3.17455	
2.81837	
3.207	
3.01926	
3.90331	
3.84988	
4.72906	
4.22563	
4.78913	
4.89988	
2.08283	
1.77266	
3.61625	
3.71026	
3.92035	
4.01524	
3.97902	
4.25296	
3.96981	
4.43929	
3.90447	
3.9057	
3.79477	
3.85269	
4.01715	
4.19927	
4.18366	
3.87986	
3.93138	
3.97446	
3.95876	
4.01026	
3.99204	
4.08222	
4.09838	
4.1216	
4.12723	
4.17566	
4.15702	
4.14587	
4.1123	
6.07975	
4.32017	
3.8791	
3.68676	
3.4225	
5.65305	
5.63687	
4.24838	
4.27608	
4.20724	
4.23384	
4.45701	
4.34948	
4.40033	
4.20434	
4.15854	
4.32763	
4.27942	
4.417	
4.27875	
3.97452	
3.97142	
3.1159	
3.10746	
3.32846	
3.94368	
3.91732	
4.00774	
3.28957	
3.19452	
6.03258	
3.73083	
3.68313	
3.41486	
6.73456	
5.23936	
3.9683	
4.09924	
3.53287	
2.86609	
2.71887	
2.8988	
2.10718	
2.09573	
3.50506	
3.53579	
3.59379	
4.79076	
2.56352	
2.31876	
3.93656	
2.33225	
5.80646	
4.04297	
4.00532	
3.95934	
4.43918	
4.32939	
4.38996	
3.62797	
3.62149	
4.69697	
4.68225	
1.78531	
1.66941	
4.94314	
4.3821	
4.25788	
4.42198	
4.32442	
3.6172	
3.59072	
3.93292	
4.3246	
3.98831	
3.52168	
3.44882	
3.20746	
3.30711	
4.06005	
4.04911	
4.01468	
4.0016	
3.63417	
3.61589	
3.54586	
3.72881	
3.67825	
3.96899	
4.01201	
4.39133	
4.03042	
3.94728	
4.38519	
4.45109	
4.33389	
4.62366	
4.64282	
4.76385	
4.70737	
6.89044	
6.76263	
6.74687	
4.66296	
4.73689	
4.65454	
4.73246	
4.06853	
4.11751	
4.02373	
4.0463	
4.63227	
4.53269	
4.56246	
4.48513	
4.18949	
4.15071	
4.18835	
4.12381	
5.21612	
5.02856	
3.51462	
3.49097	
3.89609	
3.35031	
3.41747	
3.27631	
3.38633	
4.02461	
3.95945	
3.97311	
3.91175	
4.27696	
4.21277	
4.201	
4.14632	
5.92143	
3.44312	
3.53154	
3.42362	
3.48604	
4.43615	
4.49477	
4.52402	
4.54566	
4.74456	
4.89761	
4.97931	
5.05054	
4.53659	
4.45768	
4.43058	
4.36679	
4.36546	
4.30755	
3.78094	
4.16283	
3.79057	
3.94969	
4.36028	
4.32616	
4.14364	
4.10594	
4.11021	
3.9191	
3.93448	
3.90486	
3.90345	
4.16316	
3.94051	
6.14231	
6.83458	
6.64964	
6.65974	
4.18955	
3.97519	
4.27702	
4.17149	
4.73401	
4.53012	
4.82795	
4.51329	
4.3312	
4.75562	
4.26932	
4.32127	
3.41708	
3.42725	
3.82158	
3.8594	
3.76964	
3.83099	
4.23532	
4.18356	
4.70779	
4.68809	
4.60709	
4.59306	
3.88582	
3.93082	
3.87013	
3.81239	
1.14149	
1.18487	
0.447495	
0.820814	
3.23238	
3.10181	
3.29663	
3.17937	
3.75808	
3.76997	
3.84128	
3.82117	
4.77151	
4.70443	
4.59721	
4.56625	
2.8446	
2.63965	
2.82909	
2.96518	
3.96444	
3.96412	
3.92176	
3.91841	
4.88004	
4.73951	
4.81369	
4.71417	
4.56322	
4.25805	
4.21839	
4.34815	
4.37712	
4.43212	
4.43128	
1.19775	
4.05003	
4.04167	
6.78238	
5.94791	
5.90013	
0.741307	
1.56345	
6.7535	
6.6133	
5.5336	
5.68318	
5.35182	
2.37349	
2.15293	
1.97412	
3.67296	
1.98863	
2.48837	
1.88228	
4.48233	
4.34483	
4.74672	
4.50262	
4.46862	
4.40542	
5.33115	
5.46129	
5.71827	
5.96303	
5.10478	
4.96936	
5.59938	
5.40486	
6.55212	
5.76427	
6.56693	
5.55707	
5.39129	
5.21526	
5.08113	
2.26325	
2.04649	
3.98812	
3.96155	
4.00732	
3.96642	
2.63655	
2.34923	
2.05206	
3.96563	
4.0772	
4.06285	
5.56531	
5.38128	
6.81998	
6.70314	
2.44927	
4.45992	
4.3979	
4.6842	
5.3229	
6.88185	
6.78865	
5.97216	
6.73157	
0.666792	
1.00426	
1.46121	
1.51838	
4.89509	
5.23185	
5.17107	
5.35002	
4.9296	
4.76663	
2.68172	
2.50889	
5.31847	
5.54429	
5.76556	
5.98304	
6.12697	
5.77693	
5.87249	
5.58033	
5.92961	
6.46121	
6.55118	
6.49923	
6.26371	
6.14691	
1.78188	
1.67565	
1.46452	
1.32307	
3.51272	
3.45781	
3.59016	
3.51301	
6.59684	
6.44001	
-8.35241	
-10.576	
-11.2311	
-11.0831	
-10.348	
-4.78816	
6.54369	
6.35921	
5.2974	
6.57362	
-2.87451	
-5.38631	
6.51263	
-4.35706	
-4.64935	
-4.03134	
-4.48917	
-10.4251	
-10.9425	
-10.9053	
-10.1527	
-4.86973	
-10.2677	
-1.28393	
0.993458	
-0.329302	
-5.97227	
-8.82466	
-7.46247	
-5.5194	
-3.66128	
-4.83051	
-11.2818	
-11.2566	
-11.2974	
-9.90044	
-9.67523	
-8.79537	
-0.643291	
-11.2855	
-5.61342	
2.07289	
3.56177	
-5.3893	
-9.01964	
4.19654	
5.03285	
-8.94643	
-3.20078	
3.59377	
-2.78341	
-5.68892	
-8.37048	
-3.88184	
-6.3607	
-10.621	
-10.8407	
-10.2197	
-1.87039	
-0.205719	
-3.83427	
-2.84798	
-10.4573	
-5.03328	
-5.66807	
-4.54431	
-5.57647	
-3.9708	
-5.22212	
0.019706	
-4.27017	
-2.67884	
-4.80894	
-3.51558	
-9.43901	
-10.3184	
-0.147373	
-6.91151	
-5.46884	
-3.3639	
-1.88971	
-3.06151	
-8.10172	
-10.3049	
-10.6609	
-10.3583	
-9.74311	
-4.30627	
-9.90515	
-8.79958	
-8.63982	
-1.65816	
-3.1561	
-10.5185	
-10.7407	
3.34244	
0.395099	
3.83353	
1.99751	
-8.83839	
-8.77854	
-8.17369	
-8.03839	
1.25404	
-2.0222	
0.586743	
3.91278	
-3.31123	
-3.46438	
-4.02788	
-4.25698	
-8.8503	
-8.55107	
-7.85558	
-7.23027	
3.76827	
-8.42928	
-6.67322	
6.1709	
0.730406	
3.29007	
-6.93109	
-10.6239	
-3.24383	
4.60165	
4.24482	
2.29526	
1.52168	
0.353312	
2.15545	
-0.973463	
-0.517324	
-7.74933	
-9.02973	
-9.16985	
-8.13832	
-5.97016	
-4.10532	
-5.8803	
-4.89283	
-0.320443	
2.47885	
-8.07773	
-7.19026	
-7.55669	
-6.65015	
0.966489	
1.85552	
2.55716	
2.81973	
-4.19812	
-4.54828	
-5.16014	
-5.40939	
-0.990063	
-2.09479	
-0.116697	
-1.27469	
-9.35685	
-7.56786	
-10.6311	
-10.9336	
-10.4537	
-10.8453	
-3.71271	
-8.78116	
-10.0133	
-8.01513	
-7.693	
-6.84666	
-6.48377	
-7.31412	
-6.58762	
-7.88389	
-7.1645	
4.13153	
6.51532	
6.42523	
-6.63664	
-6.74001	
-3.35156	
-4.41036	
-4.23856	
-2.89155	
-4.04615	
-4.68283	
-6.16182	
5.11499	
5.20316	
6.38095	
2.27229	
1.57296	
-10.9894	
-11.2187	
6.48217	
6.56375	
-8.67571	
-9.03343	
-9.35681	
0.21923	
0.537184	
1.59166	
5.80517	
5.62871	
6.36984	
6.5777	
6.52999	
6.49993	
6.49001	
6.17812	
-10.2844	
-11.1821	
-11.1521	
1.56003	
1.10815	
3.11568	
2.06847	
-1.84882	
-0.781446	
-10.6598	
-10.692	
-8.98768	
-9.65525	
-9.47703	
-9.99087	
-11.0743	
-10.4557	
-10.4002	
-10.7208	
-9.13897	
-9.75682	
-9.96117	
-10.7714	
-11.1032	
-11.1572	
1.25573	
0.644506	
-4.58309	
-4.36431	
-5.11068	
-4.34191	
1.0855	
-0.301989	
3.68101	
1.60587	
-8.99424	
-9.60162	
-8.55299	
-9.54419	
-10.5808	
-11.0606	
-10.3624	
-10.9449	
-10.7032	
-11.0112	
-10.6584	
-10.9782	
-10.8349	
-10.4547	
-11.1454	
-10.9883	
-0.476545	
-1.55487	
-0.714176	
-2.35736	
-8.25915	
-7.43356	
-8.21325	
-7.35338	
2.68776	
4.57458	
-6.28044	
-5.64138	
-6.7366	
-5.27041	
-5.02793	
-2.57447	
-2.82609	
-0.550052	
-11.2594	
-11.3127	
-3.04722	
-1.49859	
-2.86222	
-6.40099	
-5.23828	
-3.82746	
-3.28621	
-4.77225	
-4.95847	
-3.17678	
-1.91442	
-1.48756	
-2.55755	
-1.60738	
-3.547	
-10.0845	
-9.97477	
-2.11521	
-1.50273	
-1.41936	
-0.33602	
-7.49379	
-8.87273	
-9.49394	
-8.65532	
3.22391	
-11.1072	
0.711522	
-0.101715	
-10.6792	
-10.9838	
1.50456	
1.70316	
3.30232	
3.53296	
-4.84383	
-6.07868	
-4.22188	
-5.25166	
-6.82238	
-6.13607	
-7.77291	
-6.29647	
-9.11311	
-8.71283	
-9.87443	
-8.93837	
-6.37193	
-4.89777	
-6.58437	
-5.91606	
-8.72449	
-7.63265	
-8.90185	
-8.41129	
0.0665064	
1.49563	
-11.2682	
-11.1861	
-11.1722	
-11.1453	
-10.4484	
-10.3355	
-10.5942	
-3.43436	
-3.68049	
3.85552	
4.76587	
0.533503	
1.7112	
-0.416422	
0.663804	
3.25476	
1.35438	
2.74923	
0.977777	
-9.07991	
-2.8397	
-2.02434	
-10.6749	
-7.81893	
-8.44684	
-7.41939	
-8.22653	
-9.94071	
-10.3045	
-9.47797	
-9.87989	
-10.811	
-10.6275	
-6.61796	
-7.52939	
-7.80572	
-8.60473	
-8.21789	
-0.990033	
-0.373893	
-1.91472	
-1.31846	
4.25431	
3.41708	
5.20392	
5.16495	
-9.51224	
-9.75397	
-7.14989	
-6.91899	
-7.80396	
-7.91091	
-11.2893	
-2.61774	
-1.07745	
-6.58089	
-8.29086	
-8.42798	
-8.49865	
2.07016	
3.85377	
2.75384	
2.72417	
1.69523	
-9.07179	
-0.0326232	
1.80328	
-0.322997	
0.709364	
-10.9381	
-9.61923	
-6.25668	
-5.57508	
-5.24553	
-6.06624	
-5.83602	
-5.50726	
-5.01045	
-7.0898	
-7.35269	
-7.64583	
-7.81381	
-8.6087	
-8.76099	
-9.57051	
-9.83691	
-10.3622	
-10.5518	
-10.879	
-11.186	
-10.7418	
-11.0679	
5.10018	
4.75573	
-1.61092	
-8.47919	
-7.83237	
-7.93359	
-7.28128	
-9.81766	
-10.2466	
-10.0725	
-10.457	
-11.1833	
-0.16201	
-6.98694	
-7.26719	
-3.8304	
-3.78966	
-4.99853	
-5.49305	
-10.6428	
-10.9066	
-10.0456	
-10.0768	
-10.5425	
-10.5834	
1.60205	
-0.0948341	
2.17106	
0.361898	
-7.52796	
-2.5755	
-5.88249	
-7.81418	
-1.97926	
-2.7952	
-4.75002	
-5.539	
-3.64678	
-4.48788	
-11.1171	
-11.0961	
-10.7757	
-10.8235	
-4.82466	
-5.55011	
3.48612	
2.99077	
1.89762	
1.22352	
2.91522	
1.63988	
0.840266	
-11.3079	
-11.2883	
1.99387	
3.0858	
4.19863	
-3.32964	
-2.30129	
-2.22059	
-1.33468	
-4.7308	
-4.05828	
-3.75752	
-3.00932	
2.02835	
0.822685	
2.38017	
1.1797	
-11.2471	
-11.3065	
-11.0518	
-2.72173	
-3.6969	
-3.51362	
-2.955	
-8.2083	
-8.26655	
-10.1687	
-10.5075	
-9.7139	
-9.8061	
-6.32485	
-5.39096	
-4.44173	
-6.19654	
-4.55821	
-4.32192	
-4.98768	
-5.08146	
-5.88844	
-5.61638	
-5.89204	
-6.50494	
-6.94795	
-11.3199	
4.66972	
3.11075	
0.414932	
-0.848573	
-0.133202	
-0.98792	
-7.88003	
-8.59334	
-8.00311	
-8.8015	
-6.83314	
-5.56134	
-6.54282	
-5.73853	
-8.85225	
-10.3621	
-10.3448	
6.44873	
4.97975	
3.99091	
-9.10177	
-9.49697	
-8.90153	
-9.31317	
-10.3603	
-10.4847	
-10.0364	
-10.3278	
1.3214	
0.593507	
2.7209	
2.58647	
-1.75246	
-1.91497	
-0.112213	
-0.838186	
4.11933	
3.85502	
6.33188	
2.23462	
4.46729	
6.38645	
-7.28594	
-7.7208	
-9.08153	
-8.73674	
-9.35078	
-9.63559	
-9.81762	
-9.18803	
-9.76311	
-9.1463	
-11.0223	
-11.0953	
-3.28531	
-2.87566	
-4.09598	
-4.37342	
-4.47524	
-4.345	
-5.30965	
-5.14229	
-5.44699	
-5.10892	
-6.19705	
-6.33243	
-10.745	
-10.983	
-11.0273	
-11.1968	
-11.0087	
-10.6425	
4.51222	
6.15229	
-9.8605	
-10.4682	
-10.3698	
-10.7465	
-10.8497	
-10.825	
-11.0978	
-10.5179	
-10.5505	
6.55249	
-10.0477	
-9.81471	
-9.49782	
-10.7355	
-10.9931	
-10.9504	
-10.8205	
6.47068	
-10.3944	
-10.5339	
-10.1034	
-9.9528	
4.64925	
4.54275	
6.40441	
6.25007	
4.95807	
3.94381	
6.42353	
-10.4452	
-10.8847	
-11.2829	
-11.2121	
-11.2834	
6.50899	
-11.177	
-11.1393	
-11.074	
-11.031	
4.97258	
4.34136	
-10.8358	
6.53076	
6.58275	
-6.40868	
-6.27721	
-6.3976	
-6.37245	
-7.18733	
-7.99071	
-7.93134	
-8.62314	
-9.81751	
-10.9129	
-5.73907	
-5.34417	
-4.89565	
-10.921	
-10.5833	
-10.8285	
-10.7309	
-7.57959	
-7.20477	
-6.37368	
-5.6751	
-9.65149	
-9.11896	
-9.1831	
-9.41206	
6.49315	
6.25828	
5.94494	
-7.32254	
4.60094	
3.15859	
2.73786	
3.90029	
2.94246	
-11.2095	
-11.2188	
-11.3259	
0.897705	
1.57177	
0.624758	
1.54974	
-11.2084	
-10.5365	
-10.9383	
-11.3184	
-11.3121	
-11.0387	
-10.9147	
-11.0227	
-10.9642	
5.95712	
6.16893	
3.53288	
-10.9632	
-10.603	
-10.988	
-10.6191	
-6.37581	
2.08064	
-9.79969	
-9.41959	
6.51979	
4.46381	
6.4648	
6.44839	
-9.63286	
-9.31748	
-9.15322	
-1.95965	
-1.95598	
-0.514327	
-9.80913	
-9.89983	
-11.2376	
-11.332	
-11.308	
-11.2496	
-11.198	
0.433401	
-0.865749	
5.81892	
4.45571	
5.90038	
4.55543	
5.85579	
4.43797	
3.75185	
4.01718	
2.96408	
-10.8031	
-10.6661	
-10.465	
-10.327	
-9.10069	
-8.79626	
-9.82654	
-11.0287	
-11.1802	
2.20343	
1.82668	
0.137251	
-10.8033	
-10.8143	
-6.57893	
-5.75863	
-8.00778	
-8.58775	
-11.2231	
-10.6109	
-5.8552	
-5.53835	
-4.92305	
-7.44131	
-7.01013	
-8.27963	
-7.90615	
-8.24534	
-7.68419	
-8.02454	
-7.15548	
4.25651	
3.21145	
-6.88776	
-7.66745	
-7.00656	
-7.77985	
-2.75992	
-2.83298	
-6.38212	
-6.55476	
-9.09584	
-9.59147	
-9.06049	
-9.55398	
-3.88435	
-4.09435	
-11.2363	
-11.2325	
-11.0635	
-10.9245	
-9.5827	
-10.0231	
-9.35804	
-9.82931	
-6.28514	
-7.21099	
-6.47823	
-6.96771	
-8.91263	
-9.46604	
-9.90674	
-8.87721	
-9.75399	
-9.08323	
-0.157398	
-1.32248	
-1.83828	
6.37059	
4.66777	
-9.97958	
-10.1004	
-10.2393	
-1.94837	
-1.78992	
-1.09041	
-7.74539	
-7.434	
-7.06279	
-6.55716	
-1.20746	
-0.836256	
-1.68175	
-2.32322	
-3.04424	
-9.98226	
-10.0861	
4.71314	
6.32368	
6.2392	
6.22375	
-0.746155	
-1.10775	
6.1481	
6.50786	
5.16818	
6.42781	
-10.7246	
-11.0489	
-10.3111	
-10.6465	
-3.17364	
-2.65049	
-1.06158	
4.89634	
6.40296	
-11.2896	
-11.3245	
-11.2896	
-11.2979	
-0.604088	
0.184075	
-2.0251	
-0.652231	
4.54397	
2.67328	
2.95558	
1.67997	
1.73199	
-0.670198	
-1.65115	
0.347981	
-1.27498	
4.54239	
3.75964	
-6.65597	
-7.59461	
-6.48333	
-7.28231	
-2.21955	
-3.1434	
-2.9409	
-3.83845	
6.45723	
6.37894	
-9.83927	
-9.32869	
4.94158	
4.58882	
6.56253	
6.36471	
3.51794	
2.52887	
1.12008	
0.363491	
-1.1409	
-1.01816	
-0.541164	
-0.350018	
-0.794858	
0.181895	
0.373283	
0.9926	
1.7578	
1.33443	
0.660301	
-0.100118	
-1.25703	
-1.13746	
-0.703646	
-0.92811	
-0.462043	
1.9086	
-0.160931	
1.46009	
0.639289	
1.02991	
0.280372	
-1.35807	
1.7017	
1.16221	
0.360101	
-0.140531	
0.640025	
-0.938844	
-1.11685	
-1.57701	
-1.83119	
-1.85458	
-1.38797	
-0.568985	
1.41465	
0.911145	
-0.957742	
-0.151771	
-0.53321	
0.288044	
-1.61595	
-1.79056	
-1.58194	
-1.66378	
-1.4299	
-1.19536	
1.88214	
3.81105	
0.656353	
3.90726	
4.11693	
4.28973	
6.49935	
6.79667	
6.80257	
6.7548	
6.87769	
6.71817	
1.05746	
0.459143	
6.39658	
3.94465	
0.421858	
1.50159	
6.51916	
6.49916	
5.34459	
6.76069	
5.50807	
3.91812	
5.05938	
4.18028	
3.13749	
4.11147	
3.96625	
2.56491	
2.76826	
2.89476	
3.24398	
2.06422	
3.92926	
4.15634	
5.16848	
4.39699	
3.98544	
3.5879	
3.88542	
3.95952	
4.04693	
4.46225	
4.01151	
5.33296	
3.95544	
4.47738	
4.4645	
3.82676	
3.81662	
4.42323	
4.23201	
4.2675	
4.55226	
3.94207	
4.62585	
4.6237	
4.57624	
4.57064	
5.35332	
4.60421	
4.63424	
5.7382	
4.55614	
3.04815	
3.92826	
4.68766	
4.73841	
4.58929	
4.95078	
4.34892	
3.88158	
5.4392	
4.9598	
4.89074	
4.66442	
5.98141	
3.7044	
3.6228	
3.78525	
3.68664	
4.42947	
3.65355	
5.58396	
2.9983	
2.35252	
4.57992	
3.98955	
3.49658	
4.19591	
4.1785	
4.24538	
4.04873	
4.16088	
3.7956	
3.9007	
4.51907	
5.90711	
3.48022	
3.32982	
4.53748	
4.70344	
3.36223	
4.63184	
4.08192	
4.07434	
3.2748	
3.22879	
5.5039	
5.60487	
4.43823	
4.33189	
4.88993	
5.16338	
5.30094	
4.11666	
4.14911	
4.05966	
4.09192	
4.49338	
4.30013	
4.06915	
4.05209	
4.22782	
4.15176	
4.19297	
4.26272	
4.30652	
4.17916	
4.20693	
4.21866	
4.26686	
4.90087	
4.20576	
4.32492	
4.33038	
2.91916	
2.85228	
4.77028	
5.08862	
2.36331	
3.94552	
4.06707	
1.36132	
4.13437	
4.98824	
4.96667	
4.81467	
4.79852	
4.66556	
4.75139	
4.66821	
2.58516	
1.65327	
1.44465	
2.02548	
6.62075	
6.82738	
6.65239	
2.0111	
4.1598	
4.24064	
3.27963	
3.43142	
5.15751	
5.49745	
5.28012	
4.08799	
4.07189	
3.96925	
6.43807	
6.55215	
2.95869	
2.89132	
3.08671	
3.02771	
4.56775	
4.52661	
6.74321	
6.03823	
3.54784	
2.81101	
2.81377	
3.99537	
4.00831	
3.95864	
6.76492	
6.89461	
4.21761	
3.83275	
2.39788	
2.32257	
2.51932	
2.58598	
2.65596	
2.69385	
2.80274	
2.76381	
2.9271	
2.89558	
3.07222	
4.2965	
4.35761	
4.33723	
2.67396	
2.10522	
2.53828	
2.23491	
6.42012	
3.65023	
3.57581	
5.04033	
5.01495	
4.53527	
4.47989	
4.52505	
4.46525	
4.34168	
4.24613	
4.32984	
4.26611	
3.2484	
6.53563	
3.53381	
4.35631	
4.49426	
1.63783	
1.51983	
3.91753	
3.89051	
4.5824	
4.61497	
4.53356	
4.52511	
3.69281	
4.08699	
4.02712	
4.11986	
4.07453	
4.24469	
4.23391	
4.19389	
4.18639	
3.85426	
3.74878	
3.92154	
4.3667	
4.5227	
4.48165	
4.43722	
4.39425	
4.38377	
4.30352	
4.31106	
4.92227	
4.78726	
3.96701	
3.87712	
3.90125	
5.13254	
5.17108	
3.46679	
3.29779	
3.2391	
4.07719	
4.01706	
4.06573	
5.9956	
5.61924	
5.67448	
3.54485	
3.54152	
3.69184	
4.17066	
3.88355	
3.90743	
3.9212	
3.95471	
3.77758	
3.76794	
3.81353	
3.66643	
3.08192	
3.66181	
4.23425	
4.23954	
4.17134	
4.2011	
4.24479	
3.7584	
3.75554	
3.68744	
3.88939	
3.9059	
3.96668	
4.02258	
4.0959	
3.00848	
3.01453	
3.15012	
5.43628	
5.20451	
5.71597	
5.34161	
3.31874	
3.01746	
3.63118	
3.6634	
3.69029	
3.72187	
3.84982	
3.80403	
3.82172	
3.70949	
3.78475	
3.84925	
3.0811	
3.20839	
4.29061	
4.29399	
4.21134	
4.21904	
6.85445	
6.00863	
5.67386	
4.87156	
4.30395	
4.84602	
4.6079	
3.39189	
3.45579	
3.51952	
3.55284	
3.46818	
3.54387	
3.60474	
3.66534	
4.89743	
4.72524	
4.76451	
4.66113	
3.93918	
3.9345	
3.96962	
4.12775	
4.02911	
4.1983	
4.11238	
4.39772	
4.72589	
4.29028	
4.89857	
3.94318	
4.2688	
3.58234	
3.56091	
4.51246	
4.56708	
4.50634	
4.56272	
5.76818	
5.84268	
4.4346	
4.43589	
4.37339	
4.3688	
3.85878	
3.88267	
3.9518	
3.97628	
3.88286	
3.97667	
4.0151	
4.12662	
4.00883	
4.00398	
4.07379	
4.06161	
5.9104	
2.35158	
1.68063	
3.7525	
3.70344	
3.78877	
3.73315	
4.54562	
4.44345	
4.56614	
4.46452	
4.74695	
4.66415	
4.80714	
4.54163	
4.45267	
4.55054	
4.48258	
5.30191	
5.06359	
5.29295	
4.94602	
0.869789	
0.582534	
4.01447	
3.95829	
5.31966	
5.04117	
5.23486	
4.92619	
6.68257	
6.07641	
5.89336	
5.75447	
5.48413	
5.51501	
4.98529	
5.44851	
5.08301	
3.71692	
3.90144	
3.78171	
3.95894	
4.82954	
4.76161	
2.87442	
2.92364	
3.50998	
3.9518	
3.97581	
3.99155	
4.03357	
4.08283	
4.07708	
4.14248	
2.49173	
3.42948	
3.33139	
3.50691	
3.3501	
3.03694	
2.90123	
3.14606	
3.04385	
4.19869	
4.16064	
4.20649	
4.1203	
4.35395	
4.29922	
4.35035	
4.29788	
4.33888	
4.29205	
4.35816	
4.27756	
4.16775	
4.12534	
4.17959	
4.11203	
4.33752	
4.27719	
4.36063	
4.25919	
3.84504	
3.82759	
6.31579	
3.93158	
3.97231	
3.93424	
4.19041	
4.21265	
4.14069	
4.13918	
4.59086	
5.01239	
4.02787	
4.06467	
4.04038	
4.08263	
4.11722	
4.14539	
4.1778	
4.07262	
4.00888	
4.16483	
4.13035	
4.61389	
4.63419	
3.19926	
3.01443	
3.16476	
2.90401	
3.83875	
3.87948	
3.85119	
4.22325	
4.72511	
4.79137	
4.93919	
2.08148	
1.77123	
3.76795	
3.60517	
3.9481	
3.85204	
4.17531	
4.06937	
3.86953	
3.89709	
3.81038	
3.96248	
3.80528	
4.00178	
3.96167	
4.14962	
3.83033	
3.88559	
3.86513	
3.98356	
3.96001	
3.94994	
3.9267	
4.102	
4.10416	
4.06128	
4.04483	
4.12133	
4.09448	
4.15647	
4.135	
5.29254	
3.40197	
3.40368	
4.08669	
3.8452	
5.69657	
5.68309	
4.26347	
4.199	
4.25721	
4.19093	
4.45075	
4.34255	
4.39239	
4.33978	
4.15533	
4.20245	
4.27804	
4.32598	
4.27833	
3.13168	
3.15557	
3.33527	
4.00363	
3.93463	
3.91153	
3.29385	
3.20721	
5.24182	
3.7209	
3.67476	
3.41379	
6.73475	
4.04139	
3.97055	
3.52156	
2.94873	
2.90188	
2.74547	
3.52978	
3.52956	
3.58845	
2.60926	
2.35873	
3.91944	
5.73325	
2.40297	
2.12835	
6.59379	
6.55593	
4.39144	
4.44283	
4.41185	
3.61386	
3.62032	
4.68196	
4.74403	
1.6553	
4.87849	
4.42207	
4.25348	
4.37241	
4.25139	
3.61139	
3.58652	
4.09811	
3.99282	
3.89044	
3.23686	
3.32304	
3.3201	
3.44309	
3.98845	
3.97161	
4.03523	
4.01898	
3.61319	
3.58604	
3.54332	
3.72089	
3.67163	
6.28502	
6.16764	
4.40328	
3.92801	
4.02149	
4.33067	
4.38243	
4.42895	
6.74708	
4.73963	
4.66032	
4.11368	
4.0672	
4.09695	
4.02035	
4.53809	
4.63891	
4.4863	
4.56432	
4.13213	
4.09695	
4.16986	
4.1262	
5.02634	
5.21074	
3.48849	
3.5118	
4.00363	
4.03961	
3.96422	
4.00953	
3.90593	
6.54079	
6.57029	
3.41576	
3.35108	
3.38423	
3.29389	
3.91415	
3.90689	
4.01955	
4.01672	
4.21114	
4.26747	
4.14773	
4.19726	
5.91064	
3.4253	
3.48433	
3.44196	
3.50157	
4.97872	
5.04924	
4.77027	
4.89658	
4.36443	
4.41572	
4.30271	
4.30821	
4.14804	
3.69887	
3.93522	
3.77515	
4.45351	
4.53146	
3.89843	
3.87848	
3.87497	
3.85524	
3.92359	
3.94151	
4.0961	
4.13548	
4.10811	
6.8347	
6.1427	
6.65946	
6.64975	
3.85054	
3.89148	
3.8843	
4.1229	
4.41014	
4.32216	
4.66689	
4.51884	
4.74398	
4.5338	
4.3201	
4.27614	
4.71928	
4.74427	
4.54978	
3.41858	
3.41146	
3.76564	
3.82698	
3.76624	
3.85471	
4.23036	
4.17827	
4.76879	
4.70662	
4.5909	
4.60456	
3.92592	
3.88504	
4.08069	
3.86886	
1.2118	
1.18161	
0.839642	
0.427565	
3.11432	
3.22975	
3.17824	
3.2755	
3.76151	
3.79418	
3.81233	
3.83225	
4.70291	
4.69567	
4.60793	
4.59458	
3.02928	
2.7599	
2.87921	
2.71397	
3.95242	
3.94907	
3.90749	
3.88247	
4.73956	
4.95535	
4.70646	
4.77367	
4.21446	
4.2552	
4.36833	
4.37128	
4.42477	
4.42616	
4.38199	
4.38476	
4.44994	
4.47935	
1.87735	
4.03738	
4.04343	
6.78348	
5.90261	
5.95244	
6.73462	
5.91294	
6.89915	
6.90728	
5.95373	
5.75044	
2.04345	
2.34557	
2.29194	
1.74665	
1.36232	
1.08138	
3.5667	
6.64352	
6.73491	
2.12495	
1.9371	
5.34851	
1.36992	
1.82682	
2.48408	
1.98604	
1.87982	
4.43244	
4.70938	
4.44966	
4.46341	
4.39816	
4.4979	
5.33877	
5.55115	
6.86927	
6.86271	
6.0821	
5.37265	
5.55175	
5.07827	
5.22134	
3.87562	
3.9184	
3.88818	
3.96115	
2.34526	
2.63094	
3.78288	
3.9123	
3.86521	
5.39573	
5.5597	
6.69922	
6.82056	
2.49601	
2.25506	
2.52234	
2.58365	
1.88796	
2.16602	
4.39007	
4.45363	
4.71899	
5.32978	
6.7886	
6.88206	
2.22977	
2.43639	
5.00752	
4.93175	
5.35496	
5.17658	
2.04943	
2.14955	
1.70946	
1.94575	
0.976112	
1.48138	
1.63741	
6.04959	
6.19104	
6.04159	
5.20062	
4.99863	
4.82076	
4.75751	
4.61495	
2.68936	
2.50925	
2.77028	
2.6579	
5.54519	
5.39441	
5.98392	
6.02753	
0.743968	
1.56901	
1.21941	
4.82739	
5.476	
5.62541	
5.63136	
3.64109	
3.49271	
3.5004	
3.45058	
1.43689	
1.00344	
1.43109	
0.992825	
6.44697	
6.44233	
6.482	
-8.3418	
-10.5715	
-11.2299	
-10.831	
-10.3543	
6.53288	
6.34181	
5.30352	
6.59553	
-2.83844	
-5.64905	
6.42467	
-4.36629	
-4.6555	
-4.03077	
-3.90304	
-10.4015	
-10.4833	
-9.9248	
-4.87147	
-10.2588	
-10.8848	
-1.28298	
0.990552	
-0.329312	
-6.6374	
-9.08848	
-7.98219	
-5.51372	
-4.83625	
-4.43406	
-11.1667	
-11.2655	
-11.2382	
-9.11663	
-9.11872	
-9.98101	
-0.641989	
-11.2768	
-5.60912	
2.06829	
3.55405	
-5.38357	
-9.01286	
3.9353	
4.45735	
-8.93257	
-3.19756	
3.59258	
-2.78229	
-5.68277	
-8.27426	
-4.54305	
-6.35346	
-10.5943	
-10.8332	
-10.225	
-1.86505	
-0.20018	
-3.83273	
-3.75328	
-10.4439	
-5.53226	
-5.02761	
-4.43988	
-5.20767	
-3.99453	
-5.24012	
-0.989981	
-4.80567	
-3.5132	
-4.98453	
-3.17154	
-9.20792	
-9.82914	
-0.147978	
-5.4022	
-6.41486	
-3.36171	
-3.0594	
-1.88813	
-8.14206	
-10.6816	
-10.3416	
-9.73249	
-4.30965	
-9.89991	
-8.76626	
-8.62706	
-1.65752	
-3.15403	
-10.4987	
-10.7198	
2.52406	
0.889237	
3.82734	
1.99705	
-7.77033	
-8.02745	
-8.82735	
-9.12556	
1.2443	
0.581264	
3.91672	
-4.53383	
-4.25356	
-3.28329	
-3.45983	
-7.27184	
-7.7582	
-8.53891	
-8.53223	
3.77683	
-8.42261	
-6.68119	
6.16531	
0.728782	
3.28487	
-6.98374	
-10.6094	
-3.01914	
4.24106	
3.85306	
2.29394	
1.52017	
2.15371	
1.60514	
-0.973229	
-0.518016	
-9.2482	
-7.81681	
-8.30517	
-8.6322	
-5.87473	
-4.04283	
-6.36655	
-4.95448	
-0.319115	
2.4853	
-6.81402	
-6.64301	
-8.06904	
-7.90192	
1.85936	
1.25826	
2.8254	
2.56139	
-5.15446	
-5.40313	
-4.19365	
-3.87755	
-0.116597	
-2.21889	
0.0190883	
-2.09342	
-11.0419	
-9.34342	
-7.58321	
-10.4591	
-10.838	
-10.9289	
-3.71284	
-5.53832	
-10.0012	
-6.83085	
-6.84349	
-7.61561	
-7.67781	
-7.87815	
-6.50053	
-7.9276	
-6.58339	
5.15668	
6.39576	
-6.74165	
-5.97335	
-4.40589	
-2.29891	
-4.23402	
-4.88846	
-4.67839	
-2.8894	
-6.64796	
5.202	
6.37592	
2.26917	
1.57006	
-10.9431	
-11.1079	
6.55964	
6.47614	
-9.01037	
-8.56011	
-9.54548	
0.166532	
1.58868	
0.533312	
5.64024	
5.83154	
6.32101	
6.467	
6.44295	
6.48855	
6.49851	
6.17625	
-10.2822	
-11.1745	
-11.1546	
3.11259	
2.06669	
2.74568	
1.10682	
-1.83105	
-0.81454	
-10.6835	
-10.6501	
-9.92788	
-9.97653	
-8.9782	
-8.81439	
-11.055	
-10.4447	
-10.3832	
-10.701	
-9.73945	
-8.76523	
-9.93927	
-11.0762	
-10.5234	
-11.1226	
0.412495	
0.642533	
-4.58513	
-4.9968	
-4.3172	
-4.33681	
1.08402	
-0.300891	
0.353673	
3.67935	
-9.58209	
-8.97924	
-9.52467	
-8.83279	
-10.8941	
-10.5526	
-10.8925	
-10.5091	
-10.6321	
-10.9428	
-10.6789	
-10.9794	
-10.4552	
-11.0771	
-10.6355	
-11.1414	
-1.75167	
-2.35597	
-0.477271	
-1.55436	
-7.92062	
-8.26223	
-7.35416	
-7.79493	
4.5772	
3.53507	
-5.40083	
-6.29993	
-6.7544	
-5.02884	
-5.2748	
-0.54905	
-2.02308	
-1.60533	
-2.82295	
-11.3079	
-11.2615	
-3.04961	
-2.86375	
-1.49878	
-5.251	
-4.76871	
-4.10214	
-3.82474	
-3.28402	
-3.19918	
-1.97431	
-2.57153	
-3.64259	
-1.48554	
-2.55447	
-1.42331	
-0.427444	
-2.14511	
-1.54058	
-7.51652	
-9.5566	
-8.95244	
-8.77191	
3.22679	
-11.1718	
-0.101447	
0.712353	
-10.9775	
-10.6843	
1.70438	
2.17088	
2.69141	
3.30198	
-4.21775	
-5.2462	
-4.0544	
-5.87203	
-6.12808	
-7.54367	
-6.28807	
-7.21949	
-8.6836	
-9.60055	
-8.90299	
-9.53363	
-5.48902	
-6.36582	
-5.07871	
-6.57984	
-7.99774	
-8.70663	
-7.82267	
-8.88351	
1.89727	
0.0673326	
1.49549	
-11.1216	
-11.1662	
-11.1935	
-11.1341	
-10.524	
-10.5873	
-10.4515	
-3.64104	
-3.42824	
4.77181	
3.86457	
1.69646	
0.525704	
0.664008	
-0.342277	
1.55775	
0.975806	
3.24979	
2.58176	
-9.17834	
-1.88929	
-2.64762	
-10.6636	
-8.43901	
-7.18111	
-8.21974	
-7.41339	
-10.2952	
-9.46748	
-10.2368	
-9.47103	
-10.6125	
-10.798	
-7.57934	
-8.20003	
-8.20042	
-8.6157	
-1.9142	
-1.31865	
-0.990268	
-0.374831	
3.41379	
4.25092	
4.12545	
5.19849	
-6.9266	
-7.15959	
-7.43867	
-7.82529	
-9.58232	
-11.2671	
-2.57748	
-1.05897	
-6.60217	
-8.41186	
-8.38628	
-7.99485	
2.06422	
2.76006	
3.86413	
1.71445	
2.72355	
-9.15583	
-0.322172	
1.63948	
-0.0318227	
1.22359	
-11.0883	
-9.69634	
-7.22181	
-6.26848	
-5.57059	
-5.57724	
-5.83591	
-6.06564	
-5.10498	
-5.49836	
-7.63413	
-7.80452	
-7.08954	
-6.96901	
-8.78668	
-8.60183	
-10.2734	
-10.3356	
-9.77938	
-9.8123	
-10.7296	
-11.0512	
-10.6556	
-11.1027	
4.75428	
5.09878	
-7.30873	
-7.2755	
-8.47058	
-8.39972	
-10.3503	
-10.4473	
-9.8132	
-9.87138	
-11.1371	
-0.203691	
-7.28468	
-7.02326	
-3.78823	
-3.82935	
-4.89604	
-4.99408	
-10.6443	
-10.9049	
-10.7502	
-10.5669	
-10.0269	
-9.8038	
0.348068	
1.60145	
0.362298	
1.50492	
-7.51786	
-2.37669	
-7.79957	
-6.07006	
-2.79207	
-1.97699	
-5.66116	
-4.74459	
-4.4827	
-3.54302	
-10.756	
-10.9678	
-10.9161	
-11.0675	
-5.5564	
-4.82781	
2.98996	
3.10983	
1.803	
2.91415	
0.839914	
0.709424	
-11.2865	
-11.3055	
3.08414	
1.99242	
4.19596	
-3.34833	
-3.32678	
-1.33324	
-1.2735	
-4.83633	
-4.72257	
-3.00689	
-2.84602	
2.37651	
1.17737	
2.02702	
0.822663	
-11.2422	
-11.288	
-2.72454	
-1.61704	
-3.9128	
-3.16786	
-3.68231	
-9.06754	
-8.21434	
-10.5001	
-10.1806	
-10.2936	
-9.77378	
-5.39384	
-6.3304	
-4.44283	
-4.56008	
-6.20211	
-4.26758	
-4.3193	
-5.8848	
-5.91275	
-5.88773	
-5.61245	
-6.94269	
-7.15944	
-11.3056	
3.48507	
4.66838	
-0.127204	
-0.983568	
0.969969	
-0.85054	
-8.55406	
-8.81481	
-7.90683	
-8.15505	
-6.51389	
-5.67364	