<VTKFile type="UnstructuredGrid" version="0.1" byte_order="LittleEndian">
	<UnstructuredGrid>
		<Piece NumberOfPoints="1917" NumberOfCells="3602">
			<CellData Scalars="scalars">
				<DataArray type="Float64" Name="Doublet Strengths" NumberOfComponents="1" Format="ascii">
2.18639	
0.518635	
1.92128	
1.89442	
1.80482	
3.50535	
1.40917	
1.42788	
1.35392	
1.3432	
1.47832	
0.528817	
0.246332	
3.18719	
0.695756	
0.251665	
0.48252	
3.22513	
0.997197	
1.71476	
1.55714	
1.63749	
1.55392	
0.965537	
1.08556	
1.03108	
1.47714	
0.798539	
1.59792	
1.57565	
1.50971	
1.70361	
1.52788	
1.39984	
1.6058	
1.52848	
1.63403	
1.80079	
1.69476	
1.76811	
1.7308	
1.73462	
1.57443	
1.66683	
1.64181	
1.66232	
1.58405	
1.67301	
1.54327	
1.03243	
1.06488	
1.5285	
1.58074	
1.47947	
1.50263	
2.07303	
1.53754	
1.50992	
1.44983	
1.55374	
1.08049	
1.55503	
1.61276	
1.52438	
1.60811	
1.63829	
1.67313	
1.56986	
1.54997	
1.56698	
1.49464	
1.52505	
1.49649	
1.58702	
1.55154	
1.66084	
1.1858	
2.2589	
1.03996	
0.735044	
1.54406	
1.50727	
1.62806	
0.950741	
1.57969	
1.68464	
1.54028	
1.75755	
1.54335	
1.56199	
1.55077	
1.44699	
1.45569	
1.399	
1.47481	
1.40761	
1.6521	
1.64475	
1.28307	
1.4292	
1.55568	
1.46038	
1.6188	
1.58109	
1.49185	
1.51274	
1.54332	
1.54446	
1.61287	
1.55797	
1.62521	
1.68493	
1.62209	
1.91453	
1.74533	
1.53721	
1.56338	
1.54089	
1.58917	
1.55707	
1.52175	
1.52888	
1.50926	
1.49769	
1.51548	
1.99329	
1.68277	
1.73474	
1.64328	
1.55018	
1.16171	
1.66207	
1.67202	
0.766301	
1.69379	
1.7705	
1.54195	
1.55154	
1.46759	
1.47995	
1.46503	
1.54325	
1.49979	
1.49708	
0.970247	
0.476443	
0.555768	
0.702576	
1.8992	
2.3602	
1.81423	
1.32561	
1.49318	
0.737322	
0.586243	
1.88748	
1.77564	
1.72055	
1.64403	
0.822452	
1.83437	
1.76337	
1.58008	
1.5176	
1.50408	
3.53246	
3.46288	
1.38154	
1.38164	
1.34856	
1.30169	
1.6727	
1.87127	
1.41514	
1.40609	
1.4428	
1.51542	
1.26455	
1.02536	
1.00584	
1.64483	
1.63405	
1.59272	
1.46888	
1.43403	
1.21912	
1.59004	
0.908851	
1.13056	
0.979318	
0.726306	
0.793938	
0.888017	
1.07498	
1.12153	
1.17997	
1.22293	
1.02682	
1.06754	
1.20086	
1.33124	
1.5646	
1.62331	
1.56316	
0.900637	
0.856433	
0.940828	
0.894187	
1.95347	
2.33246	
1.7417	
1.68909	
1.74572	
1.49768	
1.43371	
0.92957	
0.803597	
1.65314	
1.61854	
1.71407	
1.66552	
1.81537	
1.72052	
1.82538	
1.74377	
1.2392	
1.2682	
0.667682	
1.81106	
1.71224	
1.58251	
1.51508	
1.54911	
1.51181	
1.45992	
1.65314	
1.66726	
1.71504	
1.63465	
1.80924	
1.7435	
1.86893	
1.84056	
1.49995	
1.59545	
1.46036	
1.45966	
1.5924	
1.64654	
1.63886	
1.62816	
1.55118	
1.5556	
1.54974	
1.80063	
1.73435	
1.78222	
1.69991	
0.548702	
0.592386	
1.72435	
1.58611	
1.62181	
1.56355	
1.75665	
1.28935	
1.33879	
1.17702	
1.62593	
1.69495	
1.70186	
1.54899	
1.65224	
1.40371	
1.41296	
1.44528	
1.54154	
1.62419	
1.68991	
1.71062	
1.9851	
1.56751	
1.60461	
1.5675	
1.62999	
1.09714	
1.21435	
1.60947	
1.78452	
1.69951	
1.84567	
1.8966	
1.53704	
1.46527	
1.58514	
1.77291	
1.64856	
1.70365	
1.7889	
1.37249	
1.3731	
1.37216	
1.62383	
1.43739	
1.80226	
1.45862	
1.22557	
0.925972	
1.55161	
1.73593	
1.73158	
1.62458	
1.67874	
1.54504	
1.64133	
1.67081	
1.72951	
1.56265	
1.25454	
1.38775	
1.7248	
1.8194	
1.81501	
1.82566	
1.42523	
1.41113	
1.46318	
1.49383	
1.47417	
1.6568	
1.58883	
1.55218	
1.62744	
1.63291	
1.67971	
1.71564	
1.41429	
1.49765	
1.44441	
1.48906	
1.53194	
1.5776	
1.51105	
1.58336	
1.52062	
1.5185	
1.53626	
1.50837	
1.53383	
1.48851	
1.67267	
1.67698	
1.83832	
1.62173	
1.6088	
1.35504	
1.49966	
1.82246	
1.52209	
1.61444	
1.59144	
1.71198	
1.6064	
1.45382	
1.82561	
1.79551	
1.75725	
1.88149	
1.4636	
1.47103	
1.47636	
1.49496	
1.53265	
1.48765	
1.54071	
1.51879	
1.84333	
1.70531	
1.72391	
1.80355	
1.62208	
1.57582	
0.830146	
0.603299	
1.67043	
1.65957	
1.62223	
1.83832	
1.56089	
1.52364	
1.51162	
1.513	
1.46542	
1.45081	
1.48294	
1.4438	
1.54263	
1.51497	
1.59854	
1.51678	
1.44851	
1.43971	
1.44269	
1.44842	
0.455997	
0.437935	
1.78383	
1.87735	
1.63951	
1.67689	
1.63887	
1.68668	
1.3469	
1.5191	
1.41296	
1.45321	
1.48131	
1.6729	
1.67465	
1.52169	
1.86652	
1.35336	
1.32714	
1.52286	
1.49007	
1.61413	
1.53243	
0.654641	
0.845198	
0.724123	
1.6447	
1.59083	
1.6408	
1.60128	
1.66697	
1.78319	
1.76273	
1.27956	
1.17254	
1.12098	
1.42349	
1.42354	
1.50277	
1.44688	
1.43137	
1.20666	
1.44296	
1.29586	
1.57688	
1.5624	
1.61377	
1.60099	
1.53422	
1.52014	
1.53052	
1.50938	
1.59158	
1.74774	
1.65432	
1.75851	
2.01118	
1.88607	
1.88411	
1.80788	
1.85787	
1.73112	
1.83124	
1.78883	
1.57135	
1.54516	
1.54788	
1.7267	
1.78111	
1.95527	
1.71066	
1.77872	
1.59651	
1.41069	
1.46207	
1.72142	
1.68955	
1.69643	
1.67852	
1.68209	
1.70473	
1.75747	
1.624	
1.62323	
1.67699	
1.69956	
1.08119	
0.974677	
1.10201	
1.0351	
1.63608	
1.53715	
0.937849	
0.79414	
1.49105	
1.47436	
0.705001	
0.588757	
1.48011	
1.51372	
1.55697	
1.5478	
1.62713	
1.67648	
1.62367	
1.69988	
1.55843	
1.56129	
1.6612	
1.50207	
1.5617	
1.62379	
1.61605	
1.55335	
1.5257	
1.66593	
1.59028	
1.66662	
1.64714	
1.67298	
1.63135	
1.74324	
1.67296	
1.69208	
1.68372	
1.65994	
1.65248	
1.4319	
1.2345	
1.27629	
1.21096	
1.20523	
2.02557	
1.89609	
1.7927	
1.82071	
1.81614	
1.7428	
1.61009	
1.80704	
1.76403	
1.58987	
1.78501	
1.56298	
1.59322	
1.55431	
1.64518	
1.48167	
1.48384	
1.32497	
1.33788	
1.3723	
1.61504	
1.66192	
1.5625	
1.46378	
1.48213	
1.58739	
1.56418	
1.54527	
1.40071	
1.41319	
1.55962	
1.63083	
1.57152	
1.55155	
1.2551	
1.16335	
1.36308	
0.936759	
1.00864	
1.45308	
1.52821	
1.55264	
1.59984	
1.09451	
1.0391	
1.59146	
1.04217	
1.32974	
1.54775	
1.50957	
1.5098	
1.58962	
1.80728	
1.61871	
1.56729	
1.59089	
1.63225	
1.53049	
0.777841	
0.861511	
1.56141	
1.62658	
1.67944	
1.65939	
1.81745	
1.56385	
1.61004	
1.56033	
1.55851	
1.54218	
1.31757	
1.32674	
1.30105	
1.31314	
1.59362	
1.63039	
1.58105	
1.61072	
1.60505	
1.70724	
1.67373	
1.66537	
1.65532	
1.52543	
1.58432	
1.40111	
1.31129	
1.24443	
1.61017	
1.5491	
1.65	
1.63008	
1.66246	
1.55099	
1.6664	
1.66699	
1.49162	
1.24807	
1.46428	
1.45107	
1.55431	
1.47525	
1.68011	
1.64957	
1.62052	
1.6022	
1.51759	
1.56653	
1.5786	
1.57398	
1.66397	
1.6567	
1.6169	
1.6369	
1.05157	
1.11375	
1.49141	
1.51504	
1.58769	
1.39822	
1.46392	
1.39069	
1.49346	
1.75407	
1.61545	
1.73692	
1.70646	
1.70632	
1.77088	
1.75491	
1.78431	
1.31514	
1.39688	
1.501	
1.40911	
1.45065	
1.56447	
1.56543	
1.55361	
1.56673	
1.60025	
1.51993	
1.54754	
1.51558	
1.54764	
1.56004	
1.61198	
1.638	
1.70512	
1.74778	
1.48535	
1.54449	
1.54671	
1.5373	
1.56311	
1.61244	
1.4942	
1.49684	
1.50955	
1.57659	
1.56029	
1.52475	
1.5524	
1.53752	
1.51437	
1.42278	
1.38291	
1.3596	
1.21256	
1.64014	
1.70129	
1.63183	
1.63586	
1.7395	
1.67185	
1.65961	
1.62872	
1.28996	
1.53432	
1.69153	
1.75297	
1.19158	
1.16466	
1.64094	
1.63788	
1.76694	
1.61718	
1.64568	
1.66012	
1.60919	
1.69025	
1.58822	
1.59867	
1.79702	
1.91516	
1.83157	
1.97974	
0.502117	
0.514001	
0.278988	
0.360306	
1.47192	
1.36523	
1.43993	
1.38915	
1.76959	
1.60844	
1.5723	
1.57319	
1.64228	
1.65659	
1.57156	
1.59172	
1.20023	
1.07369	
1.17574	
1.13492	
1.74693	
1.61537	
1.60534	
1.57654	
1.5167	
1.50822	
1.51792	
1.49605	
1.55936	
1.56252	
1.54341	
1.60903	
1.5823	
1.59493	
1.55207	
0.537207	
1.50919	
1.49988	
1.41225	
1.40965	
1.38255	
0.450374	
0.680468	
1.38953	
1.28367	
1.28517	
1.22632	
1.14663	
1.15506	
1.07398	
0.99963	
1.38371	
0.641133	
0.891834	
0.62884	
1.6344	
1.58441	
1.75728	
1.56495	
1.58278	
1.6418	
1.48465	
1.47255	
1.48166	
1.41794	
1.70734	
1.7202	
1.90146	
1.99889	
1.70403	
1.55962	
1.43759	
1.39553	
1.42759	
1.44831	
1.4379	
0.991514	
0.910185	
1.60798	
1.5945	
1.6405	
1.67526	
0.796205	
0.697715	
0.851113	
1.59633	
1.60298	
1.60332	
2.52097	
2.1214	
1.50259	
1.38976	
0.905466	
1.64306	
1.66327	
1.69758	
2.2312	
1.39684	
1.46067	
1.43861	
1.40369	
0.472095	
0.528453	
0.686919	
0.702318	
1.55799	
1.56491	
1.50937	
1.5756	
1.83941	
1.80582	
1.15411	
1.10476	
1.68589	
1.52966	
1.46601	
1.45625	
1.49822	
1.54578	
1.61263	
1.57858	
1.65964	
1.60209	
1.68122	
1.4487	
1.72526	
1.46256	
0.767501	
0.703436	
0.600127	
0.563966	
1.44116	
1.38319	
1.41832	
1.36377	
1.12078	
1.12029	
-3.04287	
-4.63092	
-3.78455	
-3.74907	
-4.09304	
-2.25314	
1.23525	
2.90624	
0.965015	
1.3588	
-0.851807	
-1.14454	
1.17285	
-1.01942	
-1.20196	
-1.68234	
-1.28369	
-3.11887	
-3.26503	
-3.26302	
-2.62435	
-1.43895	
-3.19611	
-0.500961	
-0.0111358	
-0.258019	
-1.73225	
-2.64491	
-2.40332	
-2.02867	
-1.28758	
-1.49537	
-3.18387	
-3.88445	
-3.15944	
-2.94567	
-3.03362	
-2.76322	
-0.590564	
-3.75126	
-1.89139	
0.158482	
0.45137	
-2.50927	
-2.78618	
0.651473	
1.20422	
-2.83847	
-1.3813	
0.372772	
-0.910523	
-2.18533	
-3.20316	
-1.77029	
-2.49233	
-3.45293	
-3.81892	
-3.36835	
-0.838136	
-0.22909	
-1.49011	
-1.42534	
-3.2684	
-2.06434	
-2.49048	
-1.32279	
-1.70781	
-1.15941	
-1.55117	
-0.289756	
-1.72623	
-1.10652	
-1.92131	
-1.48536	
-3.12327	
-3.19283	
-0.388481	
-3.02607	
-2.13714	
-1.34332	
-0.752103	
-1.19966	
-2.32849	
-3.03233	
-3.20114	
-3.21149	
-2.79719	
-1.63375	
-2.84257	
-2.98133	
-2.87878	
-0.829766	
-1.24062	
-3.04839	
-3.15789	
0.563077	
-0.0412906	
0.588092	
0.52723	
-3.14329	
-3.57005	
-2.84556	
-3.39829	
0.130067	
-1.07512	
0.145475	
0.498872	
-1.02902	
-1.05804	
-1.16801	
-1.24081	
-3.07152	
-3.16362	
-3.24498	
-2.90864	
0.872806	
-2.64937	
-1.48353	
1.08452	
-0.232978	
0.432955	
-2.39087	
-3.34243	
-0.982402	
1.67979	
1.91996	
0.676383	
0.10702	
-0.340983	
0.272174	
-0.51807	
-0.457096	
-2.7186	
-2.9357	
-3.14982	
-1.90641	
-1.9915	
-1.64503	
-2.07171	
-2.08264	
-0.516549	
0.46397	
-2.97947	
-2.91494	
-3.2624	
-2.85634	
0.165982	
0.392136	
0.644066	
0.593548	
-1.72878	
-2.27873	
-2.06888	
-2.33457	
-0.693649	
-1.14843	
-0.322855	
-0.818139	
-2.84252	
-2.54929	
-3.17018	
-3.32271	
-3.14003	
-3.34063	
-1.83741	
-3.40447	
-3.05865	
-3.34806	
-3.21748	
-3.17225	
-2.9245	
-3.1559	
-2.86173	
-2.66316	
-2.47392	
0.738206	
1.04487	
1.02569	
-1.83655	
-1.86847	
-1.68469	
-1.9411	
-1.81623	
-1.27175	
-1.72769	
-1.8257	
-2.45104	
1.54851	
1.71068	
2.04813	
0.231308	
0.0253413	
-3.28182	
-3.50672	
1.51778	
2.44021	
-2.91795	
-2.59823	
-2.64134	
-0.116929	
-0.0381558	
0.231572	
1.30362	
1.21955	
0.849913	
0.978763	
1.27035	
1.00445	
0.922241	
0.774038	
-2.91832	
-4.12167	
-4.03096	
0.355639	
0.191427	
1.00479	
0.549893	
-1.0671	
-0.377668	
-3.32129	
-3.08221	
-2.65762	
-3.07999	
-2.85389	
-3.05931	
-3.031	
-2.91046	
-2.94118	
-3.15389	
-3.56273	
-3.27163	
-3.14936	
-3.30453	
-3.20967	
-3.17873	
0.389539	
0.114128	
-1.80378	
-1.31398	
-1.8343	
-1.78815	
-0.0405342	
-0.516193	
0.567045	
0.0490409	
-3.2244	
-3.10542	
-3.06337	
-3.15185	
-3.1647	
-3.32136	
-3.26007	
-3.24558	
-3.10541	
-3.09539	
-3.07611	
-3.11323	
-3.94952	
-3.50671	
-3.71287	
-3.55683	
-0.426711	
-0.782392	
-0.460837	
-0.98861	
-2.10971	
-1.94307	
-2.18045	
-2.37773	
1.30586	
1.99894	
-1.35917	
-1.25348	
-1.5588	
-1.40429	
-1.58744	
-1.41189	
-1.45903	
-0.619809	
-4.26712	
-3.92152	
-1.27249	
-0.852284	
-1.22611	
-2.46878	
-1.8669	
-1.50293	
-1.28165	
-1.71587	
-1.83662	
-1.32217	
-0.744219	
-0.927994	
-1.28809	
-0.990344	
-1.83007	
-3.48455	
-3.22073	
-0.829162	
-0.627291	
-0.54928	
-0.124781	
-1.63269	
-2.62145	
-2.77405	
-2.51893	
0.962078	
-3.36056	
0.37027	
-0.0600082	
-3.94762	
-4.5928	
0.551792	
0.686143	
1.46532	
1.65789	
-1.88387	
-2.30264	
-2.01518	
-2.37694	
-3.05624	
-2.84875	
-3.29191	
-2.90742	
-2.93581	
-3.13797	
-3.25912	
-3.51884	
-2.97746	
-2.19743	
-3.09809	
-2.78076	
-2.89604	
-3.4209	
-2.91907	
-3.39326	
-0.35728	
0.237583	
-3.58147	
-3.34379	
-3.53984	
-3.67495	
-3.07354	
-2.71152	
-2.98208	
-1.1317	
-1.11972	
1.1006	
1.6821	
0.168082	
0.83602	
-0.189768	
0.372779	
0.850877	
0.198904	
0.755157	
0.229527	
-2.37868	
-0.899423	
-0.853449	
-3.21813	
-2.369	
-2.52602	
-2.34239	
-2.51415	
-3.02471	
-3.21918	
-2.94262	
-3.46424	
-3.13542	
-2.96212	
-2.44886	
-2.34767	
-2.25067	
-2.37826	
-2.4209	
-0.719252	
-0.547321	
-1.01658	
-0.80806	
0.765075	
0.501636	
1.11075	
0.969202	
-2.56463	
-3.21799	
-1.62109	
-1.70589	
-1.80679	
-2.01908	
-3.10468	
-0.919279	
-0.539655	
-1.99538	
-2.36172	
-2.1751	
-1.98558	
0.305574	
1.24449	
1.26587	
1.0578	
0.767679	
-2.39097	
-0.330014	
0.119047	
-0.43391	
-0.0648859	
-3.73506	
-2.77649	
-1.95858	
-1.68508	
-1.56122	
-1.79103	
-1.71188	
-1.78897	
-1.73231	
-1.96423	
-2.20555	
-2.09575	
-2.20681	
-2.19104	
-2.22137	
-3.63315	
-3.45062	
-3.16897	
-3.22364	
-3.36398	
-3.20175	
-3.07607	
-3.06662	
0.769323	
0.576641	
-0.584215	
-3.18951	
-3.45123	
-2.89449	
-3.31216	
-3.2135	
-3.26581	
-3.02	
-3.46913	
-3.60658	
-0.160149	
-1.47728	
-1.58031	
-1.47774	
-1.48102	
-2.00605	
-2.29838	
-3.73563	
-4.24786	
-3.42131	
-3.13741	
-3.243	
-3.19291	
0.53733	
-0.116787	
0.943985	
0.095944	
-2.53065	
-0.834792	
-2.12287	
-2.65278	
-1.07345	
-1.33846	
-2.03807	
-2.6342	
-1.80317	
-2.24726	
-3.7352	
-4.1897	
-3.58901	
-3.60447	
-1.34224	
-1.28236	
0.489174	
0.332139	
0.345986	
0.136267	
0.263855	
0.0498567	
0.0236883	
-3.84282	
-4.26496	
0.408511	
0.37383	
0.690525	
-1.69452	
-1.24495	
-1.21655	
-0.849577	
-1.77768	
-1.87045	
-1.52661	
-1.49075	
0.113987	
-0.228394	
0.139998	
-0.145877	
-4.44707	
-4.39157	
-3.77536	
-0.873404	
-1.3588	
-1.39447	
-1.07897	
-2.66544	
-2.72641	
-3.25627	
-3.36655	
-3.12013	
-3.20264	
-1.5351	
-1.3182	
-1.25903	
-1.59561	
-1.53201	
-1.77741	
-2.1772	
-2.34797	
-2.68284	
-2.01378	
-1.98413	
-2.48083	
-2.29477	
-3.05868	
0.683418	
0.430121	
0.0319639	
-0.382275	
-0.183969	
-0.480354	
-1.73384	
-2.08416	
-1.74246	
-2.09746	
-2.42342	
-1.81667	
-2.70473	
-2.11729	
-2.32749	
-2.93628	
-3.12578	
1.13881	
0.761049	
0.617542	
-2.82391	
-2.91558	
-2.88844	
-2.85459	
-3.29844	
-3.06317	
-2.86829	
-2.91745	
0.0994475	
-0.115925	
0.397924	
0.46556	
-0.775085	
-0.811853	
-0.219873	
-0.434504	
1.33771	
1.22474	
2.26614	
0.241246	
0.833228	
1.49004	
-2.16965	
-2.32081	
-2.53915	
-2.50685	
-2.7595	
-2.85571	
-3.29726	
-3.00476	
-3.09252	
-2.90532	
-3.89053	
-3.7086	
-1.05214	
-0.976239	
-1.29919	
-1.47113	
-1.61771	
-1.61458	
-1.88502	
-1.93696	
-1.66398	
-1.62035	
-1.86791	
-2.02479	
-3.03722	
-3.16853	
-3.1706	
-3.33251	
-3.24539	
-3.03368	
0.710979	
1.05076	
-2.59696	
-2.81859	
-2.77451	
-3.31863	
-3.14675	
-3.66362	
-4.07814	
-3.24434	
-3.14658	
0.995897	
-2.59163	
-2.4818	
-2.49156	
-3.03495	
-3.01431	
-3.38832	
-3.02282	
3.3428	
-2.7171	
-2.88259	
-2.55446	
-2.5537	
0.692268	
0.646135	
1.1299	
0.97389	
0.950752	
0.696043	
1.89966	
-2.8467	
-2.91273	
-3.34053	
-3.66782	
-3.64779	
1.16183	
-3.11379	
-3.28809	
-2.92726	
-2.92923	
0.780282	
0.623131	
-2.87777	
1.01093	
0.964775	
-2.19978	
-2.23857	
-2.04893	
-2.12091	
-2.23432	
-2.43647	
-3.12299	
-3.39812	
-2.78937	
-3.25057	
-2.03091	
-1.87058	
-1.74524	
-3.23159	
-2.85369	
-3.08956	
-3.09237	
-2.63496	
-2.43414	
-2.17475	
-2.00327	
-2.60236	
-2.38458	
-2.42593	
-2.55731	
1.16031	
0.950997	
1.17001	
-2.58745	
0.622687	
0.504474	
0.49397	
0.635547	
0.654692	
-3.02562	
-3.08785	
-3.1409	
0.103378	
0.248537	
-0.0104981	
0.186626	
-3.06814	
-2.89134	
-2.94204	
-3.03511	
-3.11387	
-3.50115	
-3.23141	
-3.50675	
-3.29422	
1.24642	
1.26206	
0.831989	
-4.00208	
-3.51966	
-4.15748	
-3.48953	
-2.27686	
0.444464	
-2.90221	
-2.86905	
1.98547	
1.49287	
1.49351	
0.982555	
-2.71181	
-2.50565	
-2.31389	
-0.983971	
-0.965916	
-0.542751	
-2.66636	
-2.62422	
-3.84812	
-3.15984	
-3.22527	
-3.2271	
-3.56374	
-0.139057	
-0.649874	
1.38826	
1.22987	
1.15698	
1.09946	
1.30958	
0.810098	
0.743548	
0.66132	
0.47222	
-3.32356	
-3.15552	
-3.16778	
-3.04876	
-2.81578	
-2.74823	
-3.31899	
-3.53142	
-3.61079	
0.28569	
0.14444	
-0.326508	
-3.23089	
-3.44299	
-2.38415	
-2.40094	
-2.76705	
-2.67525	
-3.05265	
-2.90753	
-2.49863	
-2.48332	
-2.23924	
-2.5925	
-2.63583	
-2.80059	
-2.81278	
-2.58575	
-2.49385	
-2.66	
-2.39622	
1.09086	
0.551669	
-2.44469	
-2.60793	
-2.60625	
-3.07824	
-1.25906	
-1.45678	
-2.20549	
-2.25602	
-2.81785	
-2.88126	
-2.81566	
-2.94588	
-1.61912	
-1.77404	
-3.31057	
-3.37983	
-3.24785	
-3.20193	
-3.00346	
-2.97468	
-2.93321	
-2.95563	
-2.28505	
-2.58468	
-1.99035	
-1.99447	
-3.06989	
-3.59521	
-3.53815	
-2.86017	
-3.2608	
-2.99065	
-0.154686	
-0.573169	
-0.671278	
0.846145	
0.619358	
-2.76028	
-2.85816	
-2.85441	
-0.696252	
-0.647232	
-0.497981	
-2.70806	
-2.54606	
-2.72016	
-2.44774	
-0.772504	
-0.629434	
-0.968902	
-1.15504	
-1.4668	
-2.87896	
-2.72779	
1.18793	
1.57402	
1.88719	
1.38912	
-0.331113	
-0.450116	
0.750768	
0.887368	
0.682315	
0.936154	
-3.31274	
-3.51296	
-3.17843	
-3.38383	
-1.27525	
-1.04966	
-0.519612	
2.24652	
3.26771	
-3.48097	
-3.55284	
-3.79727	
-4.17015	
-0.534059	
-0.350381	
-1.01364	
-0.638289	
1.02555	
0.845086	
0.742232	
0.527981	
0.537541	
-0.366937	
-0.692743	
0.0110656	
-0.545223	
0.724393	
0.674808	
-2.60116	
-3.24728	
-2.57416	
-2.85028	
-0.97727	
-1.30562	
-1.24728	
-1.50696	
2.05791	
1.82477	
-3.18534	
-2.98787	
0.748357	
0.722424	
1.16096	
1.0894	
0.931269	
0.581233	
0.0429467	
-0.114802	
-0.206764	
-0.174147	
-0.0737269	
-0.0436712	
-0.119241	
0.0764824	
0.123801	
0.276791	
0.398256	
0.340948	
0.19646	
0.0145366	
-0.241752	
-0.219652	
-0.158476	
-0.187672	
-0.103476	
0.403093	
-0.0287561	
0.342515	
0.169957	
0.261199	
0.0782257	
-0.256907	
0.355318	
0.254401	
0.0459145	
-0.0947232	
0.119639	
-0.292662	
-0.341812	
-0.453081	
-0.43605	
-0.471866	
-0.441646	
-0.206881	
0.313798	
0.202595	
-0.289162	
-0.076384	
-0.168669	
0.0427603	
-0.325587	
-0.394115	
-0.368776	
-0.369779	
-0.362526	
-0.345982	
0.380982	
1.98154	
0.239439	
1.92601	
1.9002	
1.83044	
2.24023	
1.35983	
1.27398	
1.32273	
1.36413	
1.51027	
0.42111	
0.242486	
1.89565	
0.685167	
0.200427	
0.457497	
2.08219	
3.18149	
0.979884	
1.25472	
1.70707	
1.70945	
1.64631	
1.62193	
1.28107	
1.60055	
1.58924	
0.871617	
0.953532	
0.975373	
1.38786	
0.68544	
1.57291	
1.61486	
1.62955	
1.72987	
1.50522	
1.33939	
1.59524	
1.63419	
1.72726	
1.72532	
1.79409	
1.73288	
1.59653	
1.65672	
1.69342	
1.62242	
1.6194	
1.61455	
1.68081	
1.60681	
0.969793	
0.971223	
1.54835	
1.54839	
1.67299	
1.64516	
1.90367	
1.59863	
1.68774	
1.49009	
1.60111	
1.0366	
1.53185	
1.71949	
1.59226	
1.66292	
1.69122	
1.7355	
1.55677	
1.55531	
1.68758	
1.59821	
1.57364	
1.70664	
1.63894	
1.62423	
1.4642	
1.4531	
1.6401	
1.18675	
1.8142	
1.37712	
0.706205	
1.74055	
1.62314	
0.900146	
1.7088	
1.57784	
1.61956	
1.78853	
1.61006	
1.65435	
1.58725	
1.58871	
1.33697	
1.35602	
1.37496	
1.78108	
1.67221	
1.36188	
1.58425	
1.66227	
1.68098	
1.38607	
1.23017	
1.32729	
1.32739	
1.4988	
1.50127	
1.45586	
1.42606	
1.47055	
1.55221	
1.60735	
1.5263	
1.59496	
1.73911	
1.63973	
1.57434	
1.90114	
1.59261	
1.58932	
1.6191	
1.58012	
1.63247	
1.54455	
1.56999	
1.57751	
1.58632	
1.67588	
1.71404	
1.7795	
1.78446	
1.18802	
1.24506	
1.68226	
1.57371	
0.726152	
1.70647	
1.77829	
0.493518	
1.57688	
1.40038	
1.44042	
1.43126	
1.45798	
1.58166	
1.49263	
1.52593	
0.912789	
0.481935	
0.420852	
0.613084	
2.36932	
1.51902	
1.34357	
0.643886	
1.89496	
1.80471	
1.66729	
1.58802	
1.67693	
1.93967	
1.66555	
1.56329	
1.69083	
1.55684	
3.11031	
3.2967	
1.31549	
1.18155	
1.37714	
1.36492	
1.70739	
1.91287	
1.3017	
1.36575	
1.25457	
0.981379	
0.928265	
1.64255	
1.70528	
1.63499	
1.40983	
1.43607	
1.13595	
1.5768	
0.836439	
0.79	
0.865278	
0.95013	
0.96327	
1.09995	
1.06922	
0.97706	
1.02251	
1.09398	
1.13565	
1.68078	
1.64799	
1.62391	
0.875356	
0.658257	
0.827562	
0.712565	
1.90623	
1.70979	
1.67888	
1.40125	
1.42621	
1.64617	
1.67899	
1.695	
1.9077	
1.74398	
1.83584	
1.76477	
1.85839	
1.25381	
1.49227	
1.24778	
1.64411	
1.63574	
0.664239	
0.550106	
1.8204	
1.72337	
1.64892	
1.70825	
1.68135	
1.77228	
1.41933	
1.71359	
1.63366	
1.6514	
1.6613	
1.88403	
1.84319	
1.898	
1.75822	
1.42641	
1.42522	
1.45125	
1.655	
1.62663	
1.62544	
1.67696	
1.63541	
1.6202	
1.83956	
1.80592	
1.70204	
1.59925	
1.72403	
1.60551	
1.57287	
1.78502	
1.58838	
1.37218	
1.2495	
1.14197	
1.66885	
1.75324	
1.74096	
1.43892	
1.52871	
1.64919	
1.37796	
1.3177	
1.42998	
1.89942	
1.71064	
1.97814	
1.61917	
1.69774	
1.64559	
1.55199	
1.55467	
1.60115	
1.04643	
1.18877	
1.8288	
1.74177	
1.65422	
1.90241	
1.86606	
1.56459	
1.51552	
1.4362	
1.57665	
1.6042	
1.76881	
1.70396	
1.70428	
1.26609	
1.22981	
1.29175	
1.38182	
1.39915	
1.38852	
1.42391	
1.21391	
0.879538	
1.57498	
1.71584	
1.63236	
1.70966	
1.66216	
1.59791	
1.6927	
1.69975	
1.52202	
1.53726	
1.33705	
1.22451	
1.83889	
1.85293	
1.7458	
1.76831	
1.40138	
1.37257	
1.7497	
1.59373	
1.6647	
1.61226	
1.56772	
1.5946	
1.58032	
1.64984	
1.64003	
1.37434	
1.37186	
1.54787	
1.40741	
1.59474	
1.61708	
1.58207	
1.61554	
1.56735	
1.60714	
1.58932	
1.49926	
1.45436	
1.47573	
1.45755	
1.55507	
1.56831	
1.49185	
1.61647	
1.64588	
1.35003	
1.4851	
1.77848	
1.74028	
1.63351	
1.64625	
1.62364	
1.49556	
1.91738	
1.78269	
1.73816	
1.75182	
1.81702	
1.44017	
1.43111	
1.46806	
1.4462	
1.46548	
1.49391	
1.46638	
1.47564	
1.80172	
1.80198	
1.84711	
1.78981	
1.35952	
0.776086	
0.560725	
1.74801	
1.8117	
1.64997	
1.70696	
1.7875	
1.7789	
1.77465	
1.77248	
1.46474	
1.52018	
1.44291	
1.61788	
1.6567	
1.74582	
1.75446	
1.35194	
1.38474	
1.36606	
1.41449	
0.353014	
0.345725	
1.88254	
1.79004	
1.70551	
1.70578	
1.59644	
1.70196	
1.46438	
1.3642	
1.45815	
1.36922	
1.38238	
1.40697	
1.50079	
1.37032	
1.40523	
1.33586	
1.39591	
1.48991	
1.75316	
1.5124	
1.55115	
0.633588	
0.696504	
0.811919	
1.58053	
1.63438	
1.59467	
1.62972	
1.71877	
1.75388	
1.77633	
0.921637	
1.45043	
1.37876	
1.45172	
1.36018	
1.23271	
1.10516	
1.33062	
1.23983	
1.60915	
1.62234	
1.65187	
1.6539	
1.74848	
1.60947	
1.65118	
1.60687	
1.67989	
1.65076	
1.79049	
1.70368	
1.82097	
2.02014	
1.96469	
1.89052	
1.84478	
1.87358	
1.72462	
1.84454	
1.55991	
1.52903	
1.95495	
1.7623	
1.66191	
1.62599	
1.71754	
1.78882	
1.78544	
1.8142	
1.61542	
1.92478	
1.65669	
1.73297	
1.6988	
1.67308	
1.69497	
1.77474	
1.72302	
1.63862	
1.62683	
1.7144	
1.68873	
1.74802	
1.69922	
1.07217	
0.994733	
1.04643	
0.964159	
1.53552	
1.63106	
1.54788	
0.778359	
0.917757	
1.709	
1.61257	
0.644154	
0.536921	
1.45893	
1.44897	
1.56791	
1.53805	
1.6976	
1.67548	
1.70291	
1.58793	
1.56078	
1.58949	
1.59555	
1.54751	
1.54922	
1.63075	
1.49151	
1.52473	
1.52238	
1.66752	
1.64848	
1.66543	
1.5894	
1.75168	
1.68235	
1.67876	
1.62855	
1.68482	
1.7136	
1.71664	
1.70373	
1.73011	
1.17359	
1.1328	
1.20197	
1.05517	
1.86027	
1.92181	
1.85508	
1.81676	
1.84814	
1.84348	
1.6502	
1.81885	
1.79379	
1.83765	
1.8001	
1.62225	
1.63922	
1.62079	
1.69474	
1.27013	
1.27326	
1.3227	
1.59515	
1.65208	
1.68859	
1.41629	
1.4155	
1.84284	
1.54393	
1.5213	
1.35365	
1.42613	
1.62773	
1.6527	
1.5095	
1.2886	
1.16428	
1.0528	
1.4913	
1.47078	
1.51727	
0.970229	
0.876659	
1.71066	
1.50739	
0.88516	
0.903676	
2.07681	
2.0266	
1.62844	
1.59434	
1.63111	
1.56172	
1.53671	
1.57261	
1.6228	
0.594791	
1.48707	
1.60717	
1.64844	
1.55812	
1.60116	
1.53052	
1.57722	
1.68303	
1.63181	
1.61805	
1.24409	
1.26975	
1.21808	
1.27277	
1.62612	
1.65635	
1.63464	
1.66691	
1.67506	
1.52078	
1.63671	
1.64389	
1.62891	
2.11387	
2.60286	
1.68176	
1.28686	
1.39034	
1.77067	
1.64677	
1.64309	
1.23554	
1.50086	
1.5801	
1.66709	
1.6927	
1.59853	
1.64061	
1.62063	
1.61554	
1.6144	
1.63536	
1.63714	
1.6677	
1.69644	
1.68504	
1.09821	
1.02566	
1.47649	
1.45639	
1.63965	
1.59669	
1.56222	
1.55842	
1.59724	
1.90881	
1.77848	
1.42112	
1.35124	
1.44687	
1.38856	
1.70856	
1.68802	
1.74156	
1.65105	
1.75687	
1.68905	
1.77107	
1.75175	
1.44867	
1.37115	
1.41475	
1.36195	
1.4168	
1.54978	
1.49615	
1.65838	
1.50447	
1.65641	
1.67233	
1.76117	
1.80417	
1.52159	
1.49092	
1.51864	
1.52868	
1.62711	
1.60986	
1.55906	
1.57488	
1.54926	
1.52341	
1.60896	
1.63889	
1.5381	
1.53579	
1.5471	
1.38227	
1.42399	
1.21933	
1.36875	
1.64097	
1.61298	
1.61316	
1.66374	
1.67952	
1.72319	
1.57731	
1.60814	
1.62568	
1.64319	
1.75719	
1.69563	
1.66874	
1.74449	
1.63023	
1.14944	
1.17333	
1.74071	
1.59308	
1.63757	
1.61687	
1.65119	
1.66041	
1.63862	
1.63318	
1.6267	
1.61437	
1.92004	
1.80612	
2.18073	
1.83838	
0.471167	
0.47946	
0.318333	
0.207681	
1.33149	
1.41394	
1.32887	
1.33701	
1.58873	
1.6034	
1.55746	
1.55658	
1.67832	
1.65718	
1.61851	
1.60738	
1.11955	
1.08276	
1.13406	
1.03357	
1.609	
1.74098	
1.56695	
1.5769	
1.55921	
1.46925	
1.62011	
1.50954	
1.58756	
1.60937	
1.67037	
1.82165	
1.69231	
1.68859	
1.67769	
1.68858	
1.77002	
1.79588	
0.641973	
1.54105	
1.54476	
1.50858	
1.45968	
1.4604	
1.59332	
1.79001	
1.36287	
1.49765	
1.42601	
1.59601	
0.701768	
0.839225	
0.800144	
0.546859	
0.445237	
0.404447	
1.37288	
1.57253	
1.59742	
0.737162	
0.671905	
1.05865	
0.408603	
0.560185	
0.84696	
0.602451	
0.594872	
1.54448	
1.57789	
1.50507	
1.64338	
1.69396	
1.614	
1.59163	
1.86005	
1.42009	
1.31113	
1.32271	
1.52608	
1.47798	
1.52976	
1.51698	
1.60128	
1.62689	
1.61678	
1.66606	
0.66457	
0.757963	
1.5529	
1.5689	
1.60927	
1.85364	
2.03985	
1.44501	
1.54927	
1.15212	
0.711711	
0.824361	
0.860848	
0.691986	
0.817459	
1.70485	
1.67687	
1.55461	
1.79972	
1.45686	
1.38535	
0.741951	
0.812279	
1.67016	
1.5585	
1.61376	
1.56309	
0.722335	
0.806477	
0.606286	
0.730573	
0.374382	
0.518818	
0.554652	
1.51348	
1.93138	
1.50135	
1.60738	
1.67198	
1.64087	
1.60578	
1.56559	
1.02733	
0.965375	
1.12483	
1.02183	
1.54348	
1.6653	
1.47245	
1.47854	
0.251443	
0.515427	
0.408179	
1.14556	
1.09908	
1.31199	
1.12147	
1.3326	
1.31176	
1.39589	
1.33746	
0.470141	
0.326887	
0.466536	
0.325251	
1.15218	
1.09956	
1.21537	
-3.18959	
-4.63435	
-3.79425	
-3.96338	
-4.57128	
1.2706	
2.88355	
0.972425	
1.13098	
-0.953542	
-1.33034	
1.15674	
-1.07872	
-1.26814	
-1.74645	
-1.35097	
-3.21289	
-3.29374	
-2.51968	
-1.46066	
-3.32847	
-3.23705	
-0.429205	
0.0241457	
-0.212073	
-1.90731	
-2.86035	
-2.45672	
-2.04893	
-1.48987	
-1.42767	
-3.20641	
-3.25503	
-3.15636	
-3.14314	
-3.02279	
-3.49854	
-0.581407	
-3.80195	
-1.87566	
0.196552	
0.502813	
-2.49331	
-2.76969	
0.778363	
1.66064	
-2.68066	
-1.38391	
0.38218	
-0.926439	
-2.21126	
-2.56818	
-2.29375	
-2.48272	
-3.51825	
-3.94297	
-3.74243	
-0.829806	
-0.250918	
-1.43196	
-1.47221	
-3.37041	
-2.65492	
-2.06771	
-1.40252	
-1.63871	
-1.30029	
-1.62757	
-0.670227	
-1.88544	
-1.45045	
-2.12941	
-1.22802	
-2.71461	
-3.00244	
-0.370572	
-1.94534	
-2.40403	
-1.27764	
-1.11822	
-0.682009	
-2.9612	
-4.01949	
-3.27811	
-2.72629	
-1.58587	
-2.73833	
-2.74429	
-2.76336	
-0.810335	
-1.21031	
-3.04165	
-3.18482	
0.737444	
0.061685	
0.621233	
0.507481	
-3.06933	
-3.41113	
-3.13439	
-3.58379	
0.110189	
0.181987	
0.520045	
-1.40028	
-1.28412	
-1.16882	
-1.10613	
-2.88622	
-3.35574	
-3.1218	
-3.25109	
0.894873	
-2.63109	
-1.57567	
1.0842	
-0.215411	
0.441078	
-2.21833	
-3.41125	
-1.4984	
2.02832	
1.27811	
0.731708	
0.125876	
0.289929	
0.0624109	
-0.502054	
-0.433701	
-2.96229	
-2.44762	
-2.63437	
-2.43021	
-2.08334	
-1.72275	
-2.1297	
-1.8287	
-0.495254	
0.484702	
-3.10467	
-2.90075	
-3.07123	
-2.89548	
0.392288	
0.399922	
0.607557	
0.664434	
-2.08962	
-2.35895	
-1.74037	
-1.78006	
-0.3057	
-1.19393	
-0.270785	
-1.12158	
-3.85272	
-2.76968	
-2.40224	
-3.36831	
-3.56633	
-3.61605	
-1.83495	
-2.48173	
-3.00781	
-2.94994	
-2.36272	
-3.26521	
-2.96551	
-2.6301	
-2.44336	
-2.84431	
-2.81067	
0.999846	
1.07427	
-1.94062	
-1.80181	
-1.93072	
-1.23258	
-1.81249	
-2.08757	
-1.83454	
-1.26137	
-2.60694	
1.71254	
1.99973	
0.258045	
0.0532365	
-3.75175	
-3.94403	
2.46413	
1.54508	
-2.74996	
-2.37433	
-2.80411	
-0.193	
0.217771	
-0.0694607	
1.23902	
1.34315	
0.834177	
0.917801	
1.50775	
0.927384	
1.01262	
0.779297	
-2.92377	
-4.25782	
-4.20741	
1.08799	
0.610394	
0.83741	
0.246016	
-0.908996	
-0.520193	
-3.09489	
-3.33057	
-3.0545	
-3.10871	
-2.67447	
-2.67425	
-3.09247	
-2.92291	
-2.97633	
-3.21007	
-3.31017	
-3.59958	
-3.22143	
-3.2753	
-3.28764	
-3.21688	
0.0462144	
0.137409	
-1.76818	
-1.82203	
-1.41459	
-1.85998	
-0.0249111	
-0.50833	
-0.331036	
0.581991	
-3.18778	
-3.27823	
-3.26895	
-3.15752	
-3.33116	
-3.32769	
-3.609	
-3.92758	
-3.14642	
-3.16348	
-3.16	
-3.13932	
-3.53209	
-3.76672	
-3.41784	
-3.75266	
-0.744447	
-0.96541	
-0.392831	
-0.758111	
-2.13494	
-2.22471	
-2.45511	
-2.31817	
2.02546	
1.69254	
-1.22158	
-1.46619	
-1.66394	
-1.65214	
-1.46942	
-0.61223	
-1.00981	
-0.98687	
-1.46179	
-3.98955	
-4.36824	
-1.23571	
-1.18568	
-0.823266	
-1.79303	
-1.69934	
-1.63527	
-1.48075	
-1.26309	
-1.06927	
-0.688531	
-1.41294	
-1.80648	
-0.923164	
-1.28485	
-0.465949	
-0.136467	
-0.713342	
-0.571469	
-1.85965	
-2.51432	
-2.57597	
-2.34376	
0.99316	
-3.2634	
-0.00340169	
0.42208	
-4.76663	
-4.7594	
0.731613	
0.989627	
1.348	
1.50319	
-1.98505	
-2.34754	
-1.83024	
-2.05576	
-2.88257	
-3.32808	
-2.94004	
-2.95388	
-3.26467	
-3.30451	
-3.63165	
-3.79728	
-2.15533	
-2.83053	
-2.26486	
-2.99854	
-3.18401	
-2.77162	
-3.34715	
-2.82542	
0.357274	
-0.348169	
0.24924	
-3.79705	
-3.82798	
-3.64071	
-4.18578	
-2.85746	
-3.02543	
-3.44033	
-1.21125	
-1.20556	
1.72401	
1.29027	
0.811989	
0.210927	
0.425195	
-0.0652869	
0.416845	
0.282524	
0.949854	
0.539467	
-2.28251	
-0.757939	
-1.09341	
-3.23166	
-2.53132	
-2.23262	
-2.50694	
-2.33164	
-3.24539	
-2.86943	
-3.27548	
-2.94246	
-2.98493	
-3.16	
-2.87026	
-2.25067	
-2.58279	
-2.57293	
-0.984417	
-0.779913	
-0.694283	
-0.524955	
0.523257	
0.785873	
0.766943	
1.13613	
-1.79249	
-1.72185	
-2.03345	
-1.94223	
-2.33705	
-3.37236	
-1.23583	
-0.578332	
-2.04182	
-2.46034	
-2.29103	
-2.01714	
0.290045	
1.31041	
1.14876	
0.883009	
1.0976	
-2.48668	
-0.421251	
0.0614465	
-0.319286	
0.147648	
-3.89011	
-2.65575	
-2.78125	
-2.02476	
-1.78348	
-1.73049	
-1.78521	
-1.86821	
-1.91177	
-1.86932	
-2.16609	
-2.31516	
-2.03973	
-2.08229	
-2.44653	
-2.34212	
-3.66531	
-3.52823	
-3.49067	
-3.63257	
-3.08577	
-3.11637	
-3.14617	
-3.40689	
0.584783	
0.778154	
-3.0942	
-3.22578	
-3.12559	
-3.30609	
-3.2908	
-3.47434	
-3.19261	
-3.461	
-3.81145	
-0.273089	
-1.71263	
-1.62878	
-1.37253	
-1.32185	
-2.08943	
-1.82889	
-4.56724	
-4.53811	
-3.34878	
-3.21808	
-3.45026	
-3.30218	
0.0604371	
0.587296	
0.147246	
0.598272	
-2.55061	
-1.3748	
-2.54469	
-2.25424	
-1.33294	
-1.06494	
-2.50773	
-2.04568	
-2.2601	
-1.8354	
-3.71082	
-4.2411	
-3.9081	
-4.298	
-1.35558	
-1.40789	
0.34262	
0.441997	
0.130178	
0.273894	
0.0382849	
-0.0514935	
-4.30493	
-3.88201	
0.38333	
0.42044	
0.697321	
-1.66975	
-1.67223	
-0.83507	