<VTKFile type="UnstructuredGrid" version="0.1" byte_order="LittleEndian">
	<UnstructuredGrid>
		<Piece NumberOfPoints="1917" NumberOfCells="3602">
			<CellData Scalars="scalars">
				<DataArray type="Float64" Name="Doublet Strengths" NumberOfComponents="1" Format="ascii">
1.43364	
0.275753	
1.1596	
1.13358	
1.04833	
2.88786	
0.485406	
0.472907	
0.45793	
0.44884	
0.617517	
0.277746	
0.0937565	
2.50085	
0.246947	
0.110563	
0.213602	
2.58182	
0.377811	
0.664465	
0.590607	
0.605922	
0.752709	
0.437276	
0.50077	
0.469562	
0.657571	
0.371353	
0.705605	
0.756284	
0.689227	
0.842602	
0.739216	
0.528462	
0.620489	
0.598172	
0.667577	
0.762873	
0.752125	
0.919537	
0.776478	
0.834637	
0.732015	
0.787057	
0.768716	
0.830726	
0.72625	
0.808688	
0.729597	
0.435549	
0.488884	
0.691587	
0.698876	
0.657081	
0.673012	
0.969249	
0.698675	
0.661228	
0.627635	
0.720922	
0.495092	
0.760124	
0.771748	
0.67737	
0.700234	
0.790949	
0.830025	
0.696909	
0.737458	
0.751822	
0.68452	
0.701852	
0.742189	
0.8553	
0.783974	
0.925498	
0.557397	
1.4462	
0.429651	
0.339453	
0.711439	
0.673776	
0.746807	
0.425665	
0.7929	
0.892574	
0.762655	
0.93603	
0.700565	
0.736979	
0.566806	
0.52536	
0.768466	
0.677823	
0.704062	
0.594863	
0.726892	
0.779174	
0.617019	
0.752541	
0.580012	
0.560761	
0.817671	
0.764559	
0.63185	
0.6513	
0.624779	
0.750788	
0.789156	
0.755959	
0.805577	
0.772837	
0.828416	
0.7336	
0.699315	
0.728875	
0.735123	
0.735417	
0.715093	
0.722873	
0.722409	
0.729866	
0.710845	
0.71548	
0.71665	
0.923481	
0.808002	
0.897581	
0.764916	
0.565653	
0.513221	
0.858346	
0.876201	
0.355993	
0.907949	
0.976318	
0.756862	
0.616663	
0.601659	
0.636887	
0.629707	
0.720008	
0.677038	
0.658663	
0.41348	
0.20766	
0.244643	
0.310963	
1.16638	
1.5686	
0.98021	
0.557739	
0.619977	
0.337853	
0.272891	
1.12854	
1.01247	
0.695303	
0.849389	
0.39427	
0.866449	
0.781997	
0.721301	
0.726733	
0.669466	
2.87133	
2.78903	
0.586084	
0.569798	
0.547718	
0.541328	
0.730757	
0.736833	
0.484077	
0.476857	
0.52138	
0.55562	
0.586871	
0.541908	
0.48859	
0.704256	
0.680268	
0.69901	
0.5093	
0.484378	
0.564719	
0.655177	
0.420302	
0.594695	
0.443062	
0.326749	
0.356509	
0.399838	
0.481382	
0.51343	
0.513672	
0.522192	
0.469465	
0.487682	
0.573403	
0.685453	
0.759107	
0.831644	
0.74425	
0.398471	
0.378659	
0.422653	
0.399819	
1.04373	
1.3043	
0.974465	
0.934764	
0.956452	
0.629722	
0.575804	
0.418992	
0.357072	
0.769607	
0.739878	
0.801701	
0.741366	
0.983237	
0.86818	
0.967423	
0.876667	
0.48484	
0.509558	
0.271961	
1.02702	
0.920681	
0.720204	
0.677092	
0.693076	
0.665887	
0.532988	
0.793744	
0.826462	
0.79463	
0.767136	
0.851185	
0.846063	
0.992055	
0.981839	
0.692611	
0.695299	
0.693907	
0.686616	
0.73516	
0.765267	
0.76404	
0.729222	
0.721851	
0.733022	
0.723261	
0.992793	
0.900553	
0.973446	
0.80239	
0.308415	
0.286134	
0.908857	
0.730346	
0.770509	
0.66931	
0.799639	
0.600661	
0.636438	
0.544396	
0.790132	
0.892817	
0.893693	
0.680536	
0.856498	
0.714449	
0.670834	
0.664382	
0.675148	
0.683553	
0.67115	
0.685245	
0.68088	
0.632581	
0.623622	
0.626678	
0.657908	
0.609676	
0.657399	
0.781198	
0.951866	
0.851446	
1.09371	
1.14849	
0.741633	
0.680834	
0.662526	
0.854629	
0.706483	
0.793876	
0.857832	
0.544625	
0.547609	
0.561069	
0.721779	
0.562567	
0.675176	
0.578136	
0.492458	
0.446076	
0.697572	
0.917661	
0.867118	
0.803971	
0.880569	
0.732803	
0.843564	
0.917712	
0.94574	
0.771988	
0.497164	
0.672591	
0.861213	
0.995454	
0.971718	
1.00559	
0.50707	
0.549348	
0.586111	
0.663769	
0.658533	
0.779825	
0.739817	
0.719878	
0.876201	
0.867416	
0.941997	
0.968092	
0.682931	
0.750845	
0.696023	
0.746297	
0.685145	
0.706302	
0.683151	
0.720479	
0.691849	
0.713284	
0.747322	
0.712215	
0.737648	
0.714832	
0.869546	
0.792221	
1.00438	
0.809053	
0.66617	
0.62377	
0.653751	
0.587385	
0.543343	
0.763463	
0.760436	
0.773076	
0.749672	
0.622712	
0.951937	
0.894518	
0.799129	
0.797104	
0.702836	
0.717496	
0.710077	
0.721521	
0.704209	
0.698534	
0.72967	
0.727451	
0.912564	
0.798596	
0.768625	
0.880335	
0.623326	
0.539217	
0.369076	
0.290442	
0.761225	
0.748822	
0.69953	
0.704684	
0.705921	
0.698466	
0.680324	
0.693008	
0.641578	
0.613774	
0.650732	
0.612007	
0.705827	
0.680909	
0.782706	
0.692675	
0.589232	
0.570374	
0.600421	
0.601038	
0.238978	
0.204378	
0.992114	
1.04723	
0.821675	
0.867135	
0.733409	
0.88943	
0.559985	
0.561822	
0.527984	
0.571392	
0.601546	
0.718777	
0.65995	
0.633852	
0.646153	
0.620877	
0.607252	
0.694869	
0.654978	
0.761244	
0.678162	
0.257195	
0.354825	
0.308281	
0.804532	
0.747151	
0.79351	
0.743744	
0.831314	
0.950786	
0.943258	
0.52136	
0.512955	
0.521577	
0.696641	
0.697574	
0.748898	
0.686668	
0.738394	
0.55416	
0.633178	
0.559758	
0.749047	
0.745971	
0.768215	
0.774954	
0.711147	
0.714182	
0.705686	
0.707174	
0.761903	
0.811248	
0.819851	
0.941359	
0.844259	
0.955399	
0.923921	
0.850322	
0.987165	
0.842008	
0.955068	
0.931563	
0.635324	
0.609728	
0.708252	
0.895306	
0.8144	
0.891848	
0.812704	
0.863074	
0.78062	
0.643972	
0.694602	
0.733479	
0.724277	
0.758468	
0.778163	
0.756469	
0.814665	
0.789977	
0.68212	
0.704609	
0.766029	
0.804167	
0.533004	
0.447728	
0.518284	
0.479835	
0.635525	
0.60094	
0.344893	
0.290794	
0.67019	
0.66689	
0.314035	
0.265362	
0.538912	
0.57519	
0.589073	
0.593368	
0.630031	
0.676256	
0.643726	
0.67449	
0.664511	
0.668895	
0.669097	
0.580046	
0.58498	
0.615697	
0.633083	
0.617004	
0.562024	
0.690775	
0.651859	
0.704198	
0.676264	
0.737236	
0.719074	
0.772567	
0.750428	
0.817264	
0.781478	
0.792419	
0.769453	
0.622344	
0.568579	
0.709545	
0.579158	
0.677219	
1.19062	
1.01248	
0.97334	
1.00724	
0.914194	
0.886429	
0.785195	
0.992262	
0.934884	
0.808031	
0.981729	
0.771334	
0.806284	
0.750707	
0.869276	
0.677128	
0.67056	
0.554681	
0.545676	
0.547849	
0.76022	
0.806253	
0.744176	
0.605971	
0.585517	
0.574999	
0.620989	
0.588852	
0.551198	
0.582952	
0.761784	
0.83926	
0.78534	
0.577229	
0.538863	
0.492898	
0.677849	
0.4473	
0.539983	
0.587451	
0.589534	
0.608827	
0.750418	
0.46129	
0.454904	
0.703078	
0.454877	
0.5458	
0.733141	
0.7094	
0.702352	
0.739764	
0.826354	
0.747827	
0.608935	
0.58626	
0.809159	
0.690494	
0.371646	
0.505497	
0.649513	
0.785561	
0.791222	
0.784927	
0.821385	
0.642342	
0.676644	
0.726868	
0.676594	
0.676709	
0.524822	
0.51474	
0.532839	
0.519292	
0.776058	
0.812737	
0.761792	
0.796062	
0.755192	
0.915468	
0.901438	
0.683071	
0.666456	
0.708599	
0.759203	
0.646358	
0.60637	
0.576134	
0.82157	
0.752335	
0.872804	
0.794506	
0.850684	
0.71017	
0.848031	
0.539336	
0.488871	
0.453409	
0.638473	
0.622406	
0.653832	
0.630492	
0.892209	
0.86583	
0.831164	
0.780596	
0.684963	
0.709238	
0.700508	
0.715726	
0.828015	
0.801303	
0.787851	
0.809981	
0.392018	
0.37823	
0.674255	
0.717713	
0.676299	
0.612094	
0.674345	
0.603649	
0.712892	
0.940108	
0.803824	
0.921868	
0.900247	
0.826295	
0.930866	
0.917008	
0.961233	
0.550684	
0.564856	
0.621898	
0.591528	
0.623369	
0.773959	
0.762546	
0.741837	
0.755296	
0.72429	
0.675866	
0.729489	
0.679424	
0.712731	
0.725898	
0.744966	
0.777462	
0.832082	
0.896816	
0.552757	
0.57122	
0.596082	
0.579337	
0.775479	
0.832794	
0.715628	
0.713634	
0.727822	
0.612744	
0.62452	
0.581963	
0.612596	
0.682563	
0.687921	
0.638915	
0.544774	
0.565859	
0.482222	
0.650791	
0.650009	
0.650603	
0.65161	
0.817278	
0.784888	
0.768159	
0.760566	
0.582879	
0.675964	
0.815264	
0.788206	
0.554393	
0.544025	
0.799875	
0.817238	
0.863985	
0.798937	
0.790895	
0.805481	
0.776859	
0.747693	
0.744409	
0.734742	
1.02148	
1.15658	
1.06521	
1.24219	
0.208506	
0.222188	
0.105905	
0.149971	
0.636023	
0.568378	
0.645761	
0.578119	
0.69326	
0.660335	
0.680439	
0.658003	
0.834912	
0.850012	
0.737659	
0.745746	
0.526488	
0.453542	
0.475752	
0.452967	
0.783286	
0.727281	
0.690067	
0.695619	
0.656792	
0.665277	
0.644009	
0.653493	
0.733507	
0.771869	
0.747818	
0.757996	
0.724336	
0.741789	
0.714211	
0.264845	
0.720051	
0.714288	
0.584534	
0.6048	
0.59777	
0.232734	
0.334262	
0.583406	
0.555676	
0.514968	
0.484877	
0.45554	
0.627414	
0.605451	
0.581137	
0.520288	
0.296955	
0.402418	
0.29605	
0.809924	
0.785593	
0.930336	
0.740713	
0.751157	
0.81496	
0.666738	
0.644988	
0.664045	
0.614899	
0.891007	
0.926509	
1.06785	
1.16352	
0.756988	
0.709717	
0.644723	
0.612303	
0.629715	
0.640278	
0.642033	
0.477277	
0.458885	
0.67362	
0.690797	
0.772933	
0.776714	
0.372723	
0.319436	
0.370232	
0.65296	
0.657441	
0.650169	
1.73915	
1.22134	
0.620409	
0.58412	
0.375616	
0.802295	
0.842952	
0.89274	
1.30969	
0.526938	
0.528597	
0.632853	
0.616767	
0.302937	
0.272668	
0.359206	
0.357185	
0.725485	
0.720476	
0.666377	
0.671122	
0.983865	
0.896647	
0.488111	
0.482293	
0.874546	
0.716493	
0.640949	
0.638451	
0.579698	
0.610323	
0.681876	
0.668157	
0.816405	
0.756469	
0.883432	
0.757965	
0.837128	
0.708586	
0.370675	
0.33143	
0.273811	
0.260517	
0.544663	
0.534679	
0.527468	
0.519453	
0.392192	
0.424855	
-1.70252	
-3.2346	
-2.1711	
-2.18826	
-2.42611	
-1.58083	
0.549337	
2.31493	
0.29531	
0.545278	
-0.429193	
-0.430824	
0.428954	
-0.370745	
-0.435573	
-1.1436	
-0.626154	
-1.44692	
-1.35835	
-1.46927	
-1.06026	
-0.719022	
-1.40545	
-0.194584	
-0.0524678	
-0.0689279	
-0.835074	
-1.20621	
-1.08919	
-1.03279	
-0.620913	
-0.731941	
-1.43355	
-2.12347	
-1.41512	
-1.3705	
-1.46294	
-1.30647	
-0.324799	
-2.04604	
-0.910727	
0.0158846	
0.159908	
-1.22765	
-1.3666	
0.273633	
0.713171	
-1.47721	
-0.732972	
0.11532	
-0.451012	
-1.19726	
-1.99089	
-0.980565	
-1.2952	
-1.37473	
-2.1097	
-1.8954	
-0.457067	
-0.125178	
-0.836219	
-0.80106	
-1.4585	
-1.10759	
-1.37918	
-0.64852	
-0.90157	
-0.55112	
-0.772537	
-0.128022	
-0.981505	
-0.525345	
-0.982881	
-0.691477	
-1.74466	
-1.70568	
-0.274845	
-2.06523	
-1.26201	
-0.718803	
-0.348251	
-0.621884	
-1.20926	
-1.37975	
-1.43336	
-1.43589	
-1.36107	
-0.953731	
-1.36169	
-1.56966	
-1.44171	
-0.410045	
-0.572379	
-1.46761	
-1.45754	
0.233617	
-0.0592504	
0.169522	
0.153925	
-1.60407	
-2.14965	
-1.45821	
-2.05093	
-0.0227976	
-0.627466	
0.098477	
0.187921	
-0.482165	
-0.511839	
-0.559902	
-0.610458	
-1.56698	
-1.65484	
-1.61323	
-1.55674	
0.255633	
-1.30745	
-0.593821	
0.377352	
-0.194552	
0.0978115	
-1.37113	
-1.6195	
-0.467019	
1.17028	
1.59086	
0.512704	
-0.0904601	
-0.247456	
-0.00856829	
-0.356869	
-0.266032	
-1.57376	
-1.63786	
-1.73178	
-0.778662	
-0.921179	
-0.741076	
-0.955462	
-0.899807	
-0.343802	
0.327713	
-1.59142	
-1.71029	
-1.97518	
-1.76324	
-0.00327398	
0.0864464	
0.170344	
0.160544	
-0.933071	
-1.21336	
-1.12818	
-1.3444	
-0.396068	
-0.706012	
-0.122955	
-0.469454	
-1.44806	
-1.31041	
-1.41719	
-1.45281	
-1.40214	
-1.4741	
-1.29775	
-2.17648	
-1.48773	
-2.25371	
-2.14365	
-2.23854	
-2.01932	
-2.08377	
-1.87342	
-1.3975	
-1.31253	
0.22602	
0.426016	
0.380707	
-0.893224	
-0.917571	
-1.0281	
-1.03728	
-0.975691	
-0.611773	
-0.788013	
-0.882016	
-1.28853	
1.03879	
1.18558	
1.36719	
0.00667009	
-0.0698798	
-1.43384	
-1.53407	
0.813648	
1.83353	
-1.76886	
-1.30476	
-1.20051	
-0.0923345	
-0.0628787	
0.0325375	
0.389472	
0.344761	
0.258429	
0.302747	
0.705329	
0.331319	
0.312252	
0.250585	
-1.31228	
-2.34937	
-2.26172	
0.287447	
0.198107	
0.767504	
0.428234	
-0.361386	
-0.190054	
-1.35762	
-1.2608	
-1.23349	
-1.35008	
-1.32317	
-1.3618	
-1.42957	
-1.14962	
-1.20312	
-1.30664	
-2.07681	
-1.61583	
-1.51044	
-1.45126	
-1.41593	
-1.41016	
0.0591588	
0.00734175	
-1.09771	
-0.64343	
-0.899227	
-1.18035	
-0.073961	
-0.316818	
0.199461	
-0.068722	
-1.69397	
-1.53553	
-1.57298	
-1.54787	
-1.44553	
-1.44859	
-1.5009	
-1.43115	
-1.41858	
-1.40001	
-1.41544	
-1.40858	
-2.46011	
-2.02797	
-2.02961	
-1.91313	
-0.191115	
-0.366013	
-0.18804	
-0.456849	
-0.953418	
-0.925553	
-1.05718	
-1.40099	
1.14199	
1.59222	
-0.531556	
-0.46998	
-0.591949	
-0.626975	
-0.803896	
-0.883523	
-0.88081	
-0.400084	
-2.26653	
-2.09366	
-0.74501	
-0.513006	
-0.70268	
-1.51386	
-1.0758	
-0.67606	
-0.588071	
-0.797369	
-0.82359	
-0.610944	
-0.349645	
-0.549312	
-0.747097	
-0.604932	
-1.15551	
-1.92175	
-1.43809	
-0.371076	
-0.25244	
-0.217276	
0.0485291	
-0.656108	
-1.28646	
-1.23977	
-0.952616	
0.26885	
-1.70621	
0.325572	
0.0698571	
-2.35812	
-3.00509	
0.498783	
0.602724	
1.23951	
1.40671	
-1.07255	
-1.22946	
-1.27007	
-1.41457	
-1.9316	
-1.80422	
-1.66972	
-1.81484	
-1.45259	
-1.62021	
-1.58683	
-2.04604	
-2.07633	
-1.2341	
-2.17358	
-1.91223	
-1.63627	
-2.39316	
-1.6206	
-2.16931	
-0.196483	
0.229913	
-1.5002	
-1.45528	
-1.49725	
-1.52823	
-1.29958	
-1.12308	
-1.23277	
-0.625456	
-0.562456	
0.669486	
1.05535	
0.176128	
0.759914	
-0.0144801	
0.41431	
0.524952	
0.144952	
0.529551	
0.268241	
-1.00642	
-0.455254	
-0.567562	
-1.37533	
-1.11265	
-1.19322	
-1.14514	
-1.21725	
-1.36418	
-1.42611	
-1.42595	
-1.87057	
-1.27084	
-1.19891	
-1.57787	
-1.26371	
-1.09885	
-1.21381	
-1.28404	
-0.428492	
-0.348703	
-0.590785	
-0.486343	
0.277628	
0.130754	
0.458042	
0.347157	
-1.16551	
-1.80578	
-0.674568	
-0.737588	
-0.760257	
-0.883668	
-1.37862	
-0.404221	
-0.236313	
-1.05163	
-1.19169	
-0.847238	
-0.791461	
0.0629031	
0.830431	
1.07119	
0.791114	
0.665398	
-0.966519	
-0.1291	
0.0528016	
-0.192801	
0.0462412	
-1.62569	
-1.21697	
-1.0762	
-0.874862	
-0.796837	
-0.892219	
-0.84295	
-0.859314	
-0.812332	
-0.974955	
-1.20298	
-1.05051	
-1.14672	
-0.963073	
-0.934506	
-2.06429	
-1.62367	
-1.47262	
-1.46817	
-1.66556	
-1.58129	
-1.50126	
-1.48426	
0.236735	
0.179417	
-0.304607	
-1.69225	
-2.36675	
-1.61729	
-2.29129	
-1.51021	
-1.48243	
-1.38262	
-1.45591	
-1.67407	
-0.104948	
-0.584241	
-0.624977	
-0.774645	
-0.799075	
-1.12051	
-1.40142	
-2.17253	
-2.65436	
-1.54701	
-1.46387	
-1.46533	
-1.4502	
0.402708	
0.0303923	
0.82831	
0.165716	
-1.46141	
-0.390094	
-1.15324	
-1.36364	
-0.599759	
-0.749612	
-1.14362	
-1.64857	
-1.11365	
-1.39773	
-1.74725	
-2.34775	
-1.61702	
-1.76837	
-0.507623	
-0.499297	
0.157362	
0.10644	
0.293142	
0.179715	
0.0931806	
0.0233413	
0.110166	
-2.13032	
-2.32387	
0.320954	
0.164144	
0.289909	
-1.07122	
-0.743208	
-0.753365	
-0.484401	
-0.988375	
-1.17605	
-0.853897	
-0.925417	
0.0245763	
-0.184863	
-0.013256	
-0.152637	
-2.77581	
-2.76518	
-2.12366	
-0.435798	
-0.650971	
-0.675298	
-0.522283	
-1.51794	
-1.55169	
-1.79463	
-1.84066	
-1.70798	
-1.71826	
-0.668352	
-0.543361	
-0.511602	
-0.736447	
-0.682935	
-1.03335	
-1.35404	
-1.53186	
-1.8	
-1.06357	
-0.99792	
-1.39733	
-1.15167	
-1.44025	
0.221185	
0.177107	
-0.0451154	
-0.217938	
-0.115835	
-0.276767	
-0.700342	
-0.856514	
-0.691991	
-0.854908	
-1.31009	
-0.958665	
-1.7541	
-1.21944	
-1.08146	
-1.22346	
-1.37137	
0.410802	
0.271342	
0.222938	
-1.41226	
-1.42799	
-1.49379	
-1.44437	
-1.4061	
-1.31595	
-1.33236	
-1.29909	
0.0148838	
-0.0477674	
0.19895	
0.279277	
-0.347559	
-0.363748	
-0.0387765	
-0.173016	
0.956514	
0.862149	
1.5235	
0.0672865	
0.323998	
0.725401	
-1.14009	
-1.18808	
-1.21991	
-1.22446	
-1.31276	
-1.29639	
-1.52452	
-1.4886	
-1.47386	
-1.43754	
-1.69954	
-1.73109	
-0.5159	
-0.479046	
-0.632168	
-0.710245	
-0.812836	
-0.831876	
-0.990756	
-1.07196	
-0.843625	
-0.822204	
-0.974947	
-1.07706	
-1.31674	
-1.39415	
-1.3512	
-1.42021	
-1.39573	
-1.32605	
0.188027	
0.331429	
-1.04942	
-1.13395	
-1.11372	
-1.36356	
-1.30873	
-1.49107	
-2.21187	
-1.38424	
-1.38255	
0.310571	
-1.05828	
-1.01349	
-1.07156	
-1.44771	
-1.43465	
-1.6192	
-1.3593	
2.82663	
-1.11594	
-1.17365	
-1.04195	
-1.03194	
0.236357	
0.233876	
0.564754	
0.418831	
0.500974	
0.317164	
1.24475	
-1.27709	
-1.29827	
-1.56021	
-1.59963	
-1.53823	
0.377157	
-1.40865	
-1.55259	
-1.30748	
-1.31376	
0.237478	
0.20043	
-1.27879	
0.313017	
0.29308	
-1.03821	
-1.1038	
-0.972661	
-0.977931	
-1.06538	
-1.12366	
-2.01153	
-2.1947	
-1.21656	
-1.39467	
-1.10756	
-1.06076	
-0.976887	
-1.36111	
-1.15198	
-1.25483	
-1.22624	
-1.49581	
-1.31137	
-1.17962	
-1.09057	
-1.14954	
-0.997934	
-1.06979	
-1.12372	
0.527489	
0.389409	
0.422214	
-1.49658	
0.218118	
0.136152	
0.136221	
0.187781	
0.186113	
-1.40499	
-1.39182	
-1.38958	
0.00202041	
0.0514873	
-0.0513013	
0.0233619	
-1.40142	
-1.32891	
-1.37171	
-1.4095	
-1.38882	
-1.58633	
-1.39073	
-1.6945	
-1.4533	
0.484134	
0.554054	
0.368279	
-2.23966	
-1.52319	
-2.38319	
-1.56602	
-1.29833	
0.164747	
-1.42122	
-1.39598	
1.35918	
0.868753	
0.930745	
0.304682	
-1.2216	
-1.04882	
-0.957085	
-0.618137	
-0.595153	
-0.372149	
-1.06703	
-1.10264	
-1.98703	
-1.52171	
-1.6109	
-1.55393	
-1.76981	
-0.205437	
-0.448791	
0.470289	
0.364465	
0.39359	
0.339267	
0.406561	
0.23451	
0.20629	
0.190134	
0.121247	
-1.73613	
-1.5678	
-1.66506	
-1.57237	
-1.25933	
-1.24066	
-1.3889	
-1.92192	
-1.99711	
0.13411	
0.0356722	
-0.276864	
-1.42054	
-1.57527	
-1.39543	
-1.57819	
-1.50442	
-1.39845	
-1.36914	
-1.30607	
-1.67742	
-1.7013	
-1.54151	
-1.21304	
-1.3007	
-1.33403	
-1.47003	
-1.18791	
-1.13233	
-1.23977	
-1.11236	
0.715455	
0.217415	
-1.27579	
-1.3354	
-1.3529	
-1.56895	
-0.778294	
-1.01549	
-1.25021	
-1.27115	
-1.34913	
-1.33231	
-1.27829	
-1.3168	
-0.994044	
-1.14931	
-1.48283	
-1.47365	
-1.44219	
-1.43032	
-1.6195	
-1.54775	
-1.54413	
-1.50004	
-1.43966	
-1.63305	
-1.03485	
-1.03329	
-1.76694	
-2.13048	
-2.08016	
-1.62239	
-1.87469	
-1.71203	
-0.086509	
-0.3167	
-0.344528	
0.251993	
0.174434	
-1.22349	
-1.26617	
-1.21614	
-0.326866	
-0.347788	
-0.262224	
-1.55182	
-1.48349	
-1.55381	
-1.49698	
-0.527612	
-0.454378	
-0.677748	
-0.744021	
-0.957691	
-1.31344	
-1.17724	
0.594038	
0.83455	
1.12174	
0.668252	
-0.178582	
-0.223578	
0.248856	
0.303755	
0.248264	
0.317814	
-1.68771	
-1.83998	
-1.67217	
-1.8623	
-0.651031	
-0.527996	
-0.210926	
1.84754	
2.79926	
-1.7275	
-1.8914	
-2.04302	
-2.5807	
-0.357972	
-0.271088	
-0.575691	
-0.409063	
0.452197	
0.454848	
0.258162	
0.257024	
0.171495	
-0.122266	
-0.314352	
0.102168	
-0.2232	
0.2753	
0.33202	
-1.39627	
-1.93275	
-1.37474	
-1.48059	
-0.528966	
-0.681518	
-0.621294	
-0.756951	
1.29976	
1.15418	
-1.80167	
-1.67325	
0.266332	
0.306895	
0.341567	
0.324744	
0.66717	
0.226736	
-0.0825535	
-0.15009	
-0.0789515	
-0.0623405	
-0.0351437	
-0.0322351	
-0.0390562	
0.0187236	
0.0400612	
0.112828	
0.153266	
0.136815	
0.0758463	
-0.00608997	
-0.0898854	
-0.0810384	
-0.088001	
-0.0798874	
-0.0674693	
0.15088	
-0.0322738	
0.130575	
0.0611681	
0.100617	
0.016641	
-0.0994064	
0.121728	
0.0830864	
-0.00358966	
-0.0719595	
0.0286762	
-0.168295	
-0.193915	
-0.222629	
-0.17166	
-0.199756	
-0.256102	
-0.131682	
0.110296	
0.0672554	
-0.171994	
-0.0632656	
-0.106776	
-0.00268798	
-0.126354	
-0.151861	
-0.148394	
-0.143022	
-0.161181	
-0.187435	
0.135996	
1.24545	
0.0916379	
1.16426	
1.13932	
1.07284	
1.434	
0.488011	
0.455766	
0.459549	
0.477156	
0.639188	
0.182634	
0.0925002	
1.13041	
0.242686	
0.0783462	
0.200261	
1.28724	
2.53969	
0.378971	
0.448738	
0.956269	
0.698851	
0.894478	
0.652861	
0.634231	
0.817619	
0.791509	
0.408839	
0.454948	
0.462235	
0.670797	
0.305646	
0.734175	
0.760873	
0.744372	
0.888405	
0.749343	
0.551175	
0.652059	
0.704932	
0.801695	
0.784628	
0.980319	
0.777729	
0.81826	
0.855133	
0.831523	
0.787166	
0.816852	
0.760831	
0.83455	
0.813151	
0.412119	
0.434613	
0.745627	
0.73005	
0.816869	
0.761812	
1.0082	
0.803051	
0.922857	
0.656491	
0.803229	
0.495626	
0.77273	
0.784213	
0.71443	
0.734596	
0.928109	
1.00951	
0.718494	
0.765229	
0.912174	
0.728164	
0.734387	
0.83046	
0.932102	
0.940349	
0.75447	
0.759384	
0.774295	
0.595488	
1.07917	
0.879893	
0.327248	
0.973256	
0.771562	
0.399604	
0.918528	
0.806715	
0.837551	
0.998459	
0.788502	
0.839124	
0.784752	
0.76873	
0.527781	
0.689995	
0.760034	
1.09006	
0.85181	
0.626218	
0.808358	
0.76748	
0.826024	
0.774083	
0.621617	
0.554066	
0.547287	
0.78081	
0.760231	
0.688215	
0.643213	
0.675716	
0.76274	
0.814368	
0.759853	
0.800265	
0.996141	
0.81899	
0.803416	
0.779848	
0.802825	
0.801492	
0.804944	
0.792421	
0.825568	
0.775314	
0.785006	
0.790178	
0.798015	
0.861399	
0.90682	
0.828324	
0.841457	
0.571174	
0.659931	
0.89947	
0.785717	
0.341065	
0.922888	
0.984353	
0.219426	
0.799073	
0.625296	
0.641477	
0.66488	
0.66768	
0.743926	
0.686729	
0.714647	
0.396758	
0.211399	
0.182636	
0.27392	
1.57316	
0.641188	
0.575273	
0.289068	
1.13732	
1.03917	
0.718228	
0.889761	
0.833334	
1.08847	
0.787454	
0.788748	
0.856161	
0.77109	
2.4696	
2.64415	
0.709628	
0.571126	
0.733605	
0.61274	
0.765609	
0.770401	
0.446951	
0.521227	
0.620855	
0.528892	
0.439239	
0.724298	
0.776632	
0.73935	
0.489889	
0.513842	
0.532882	
0.678935	
0.383484	
0.359781	
0.402542	
0.443122	
0.452331	
0.510887	
0.50701	
0.470123	
0.493364	
0.539806	
0.570759	
0.897122	
0.829041	
0.822412	
0.40555	
0.295816	
0.374547	
0.315808	
1.03928	
0.991382	
0.985653	
0.629145	
0.647026	
0.778671	
0.810145	
0.777573	
0.832951	
0.911	
1.01471	
0.915712	
1.01937	
0.683932	
0.700712	
0.551097	
0.831876	
0.781979	
0.323017	
0.255293	
1.04105	
0.936407	
0.842615	
0.948955	
0.875796	
1.00066	
0.55333	
0.818461	
0.814542	
0.816052	
0.847006	
1.02667	
1.00686	
0.988988	
0.884477	
0.705073	
0.699965	
0.708563	
0.78937	
0.756134	
0.801025	
0.797951	
0.822878	
0.806466	
1.05621	
1.01393	
0.801106	
0.754093	
0.940202	
0.789486	
0.750938	
0.780358	
0.694592	
0.731746	
0.610619	
0.554149	
0.85753	
0.968119	
0.96075	
0.601956	
0.702569	
0.880095	
0.686721	
0.662201	
0.69718	
1.08379	
0.714579	
0.720077	
0.769053	
0.721234	
0.694449	
0.651029	
0.657587	
0.675696	
0.586748	
0.592001	
1.03376	
0.917812	
0.849793	
1.15491	
1.11256	
0.711583	
0.76887	
0.69998	
0.690015	
0.696492	
0.883268	
0.825932	
0.81992	
0.576425	
0.575781	
0.602468	
0.587662	
0.619905	
0.583107	
0.631815	
0.586773	
0.423925	
0.776095	
0.974442	
0.768414	
0.935377	
0.869041	
0.783319	
0.902073	
0.961232	
0.79711	
0.785405	
0.732813	
0.625438	
1.02813	
1.05542	
0.906353	
0.936187	
0.515277	
0.560065	
0.72165	
0.705875	
0.803284	
0.794286	
0.745771	
0.870034	
0.893412	
0.954615	
0.958471	
0.708457	
0.695557	
0.869104	
0.709237	
0.758914	
0.755429	
0.720127	
0.741061	
0.776839	
0.799027	
0.794281	
0.735082	
0.718864	
0.737377	
0.724878	
0.796942	
0.839764	
0.758515	
0.895117	
0.737728	
0.666108	
0.563185	
0.607561	
0.821311	
0.796321	
0.819082	
0.804456	
0.667625	
0.835022	
0.832862	
0.839551	
0.874585	
0.931636	
0.728405	
0.712903	
0.730868	
0.717515	
0.707039	
0.720561	
0.716794	
0.732098	
0.795216	
0.909544	
0.943353	
0.885743	
0.551148	
0.350631	
0.272592	
0.713524	
0.724188	
0.780461	
0.885846	
1.02706	
1.00127	
1.01439	
0.997232	
0.684666	
0.735293	
0.680118	
0.785932	
0.845542	
0.960045	
0.970644	
0.578977	
0.61235	
0.58726	
0.64343	
0.151582	
0.158776	
1.05312	
1	
0.903951	
0.922434	
0.751016	
0.901139	
0.609018	
0.532244	
0.56359	
0.563652	
0.575062	
0.590493	
0.667669	
0.576248	
0.615341	
0.66123	
0.711249	
0.7035	
0.764387	
0.689139	
0.721608	
0.248627	
0.296937	
0.340783	
0.768303	
0.824666	
0.766683	
0.789771	
0.848091	
0.96165	
0.978933	
0.420167	
0.764005	
0.699237	
0.764222	
0.707051	
0.591113	
0.53569	
0.737771	
0.679182	
0.814051	
0.815158	
0.84693	
0.832421	
0.856168	
0.807814	
0.843783	
0.812329	
0.85926	
0.845956	
0.983385	
0.893649	
0.886744	
0.878943	
0.922773	
0.955594	
0.986005	
1.02013	
0.862475	
0.985487	
0.661958	
0.631564	
1.06042	
0.97119	
0.838857	
0.813297	
0.839816	
0.892641	
0.841693	
0.880127	
0.789746	
1.20431	
0.749969	
0.776768	
0.832545	
0.821062	
0.797997	
0.834451	
0.858184	
0.757051	
0.719374	
0.844376	
0.805862	
0.819774	
0.865997	
0.525787	
0.479511	
0.532313	
0.480552	
0.638648	
0.667666	
0.652439	
0.285185	
0.338396	
0.720982	
0.711909	
0.290629	
0.244005	
0.574638	
0.558935	
0.669833	
0.620305	
0.75115	
0.762575	
0.734726	
0.73531	
0.751327	
0.768489	
0.653149	
0.612501	
0.622532	
0.69413	
0.609547	
0.606015	
0.622496	
0.738104	
0.712635	
0.724304	
0.687234	
0.808724	
0.78858	
0.773102	
0.742063	
0.84587	
0.805677	
0.868174	
0.828952	
0.971538	
0.649716	
0.633314	
0.583631	
0.508172	
1.03372	
1.14559	
1.06567	
1.00892	
1.04779	
0.966468	
0.85192	
1.03436	
0.986493	
1.04567	
0.999216	
0.844853	
0.851481	
0.824892	
0.911647	
0.587572	
0.603374	
0.578416	
0.78556	
0.80211	
0.837151	
0.642025	
0.62345	
1.02529	
0.643247	
0.611289	
0.577453	
0.602154	
0.813076	
0.863359	
0.592841	
0.71856	
0.56977	
0.500442	
0.60706	
0.652691	
0.625144	
0.473275	
0.408065	
0.858374	
0.637529	
0.43115	
0.494809	
1.09819	
1.01145	
0.770054	
0.760675	
0.780777	
0.60761	
0.628557	
0.780132	
0.787266	
0.264412	
0.709739	
0.781771	
0.81135	
0.771034	
0.772695	
0.660301	
0.701563	
0.860244	
0.821042	
0.827601	
0.568904	
0.55949	
0.560881	
0.546138	
0.837575	
0.875889	
0.845391	
0.880697	
0.934996	
0.721609	
0.921929	
0.70448	
0.686092	
1.16603	
1.88297	
1.00635	
0.657874	
0.733417	
0.992955	
0.850771	
0.810116	
0.4624	
0.731105	
0.80353	
0.886977	
0.906487	
0.818348	
0.855608	
0.740994	
0.722488	
0.746458	
0.734187	
0.836902	
0.869501	
0.886263	
0.857666	
0.374899	
0.386249	
0.742324	
0.699958	
0.834179	
0.798528	
0.771173	
0.771691	
0.716206	
0.922969	
0.832574	
0.702159	
0.64414	
0.7399	
0.680389	
0.926669	
0.91641	
0.957294	
0.8462	
0.94463	
0.834207	
0.965912	
0.936565	
0.646257	
0.622133	
0.651704	
0.596524	
0.612237	
0.768343	
0.715292	
0.883678	
0.7233	
0.804433	
0.795824	
0.92402	
0.960814	
0.594685	
0.598262	
0.603956	
0.62027	
0.783626	
0.764853	
0.661945	
0.652472	
0.647052	
0.634503	
0.811526	
0.83389	
0.770447	
0.770284	
0.775337	
0.560245	
0.658743	
0.49645	
0.5842	
0.71735	
0.733697	
0.671798	
0.758602	
0.810012	
0.911728	
0.762226	
0.773697	
0.81054	
0.788855	
0.809372	
0.842139	
0.774214	
1.02129	
0.773905	
0.567443	
0.578145	
0.879426	
0.813941	
0.847332	
0.833397	
0.814633	
0.827552	
0.808248	
0.816936	
0.773967	
0.786837	
1.16353	
1.03229	
1.42961	
1.07323	
0.213443	
0.224518	
0.134952	
0.0777039	
0.645214	
0.671907	
0.633299	
0.642171	
0.681736	
0.719828	
0.680499	
0.701711	
0.897491	
0.869858	
0.811418	
0.804867	
0.575546	
0.594374	
0.595106	
0.53333	
0.752203	
0.810022	
0.719155	
0.700383	
0.76843	
0.683249	
0.856428	
0.741235	
0.801122	
0.826831	
0.85763	
0.910389	
0.893914	
0.873481	
0.858292	
0.877041	
0.987835	
1.02658	
0.27981	
0.768486	
0.766911	
0.626293	
0.635123	
0.634956	
0.700647	
0.777064	
0.507168	
0.555229	
0.579919	
0.677672	
0.309456	
0.377857	
0.36099	
0.243695	
0.195655	
0.184814	
0.547382	
0.665298	
0.661247	
0.329692	
0.293572	
0.437062	
0.173129	
0.249283	
0.387609	
0.281404	
0.281714	
0.778505	
0.844248	
0.781532	
0.844874	
0.895403	
0.821368	
0.69252	
0.772658	
0.504178	
0.484412	
0.515545	
0.67101	
0.651111	
0.682755	
0.676307	
0.753358	
0.741941	
0.782996	
0.839305	
0.305858	
0.357271	
0.720989	
0.738457	
0.740048	
1.08425	
1.29795	
0.612594	
0.647107	
0.724385	
0.320904	
0.378153	
0.400126	
0.332318	
0.41115	
0.910502	
0.860068	
0.835939	
1.05667	
0.54163	
0.539903	
0.330112	
0.372588	
0.854123	
0.717366	
0.701481	
0.700436	
0.32347	
0.365322	
0.266209	
0.330594	
0.156838	
0.222585	
0.238687	
0.785564	
1.1161	
0.727902	
0.856735	
0.918893	
0.853278	
0.856265	
0.809333	
0.477772	
0.434392	
0.513957	
0.47664	
0.743132	
0.762185	
0.661901	
0.646835	
0.0934237	
0.221985	
0.172757	
0.515356	
0.45909	
0.561289	
0.462471	
0.540681	
0.54182	
0.56348	
0.559021	
0.200758	
0.133635	
0.198152	
0.129976	
0.417771	
0.461984	
0.453451	
-1.78619	
-3.24101	
-2.18462	
-2.47984	
-3.13537	
0.568387	
2.27342	
0.295989	
0.399962	
-0.462389	
-0.587519	
0.444545	
-0.461342	
-0.528023	
-1.20331	
-0.638094	
-1.61337	
-1.66184	
-1.12333	
-0.769305	
-1.5749	
-1.74392	
-0.173982	
-0.0399814	
-0.0522833	
-0.981293	
-1.35099	
-1.18657	
-1.08066	
-0.762605	
-0.708602	
-1.60714	
-1.63567	
-1.56195	
-1.62947	
-1.51442	
-1.72969	
-0.332469	
-2.1113	
-0.933582	
0.0323688	
0.189554	
-1.23493	
-1.41604	
0.376348	
1.01745	
-1.44844	
-0.759912	
0.116254	
-0.517215	
-1.2501	
-1.28324	
-1.2528	
-1.31166	
-1.5318	
-2.26244	
-2.25521	
-0.550699	
-0.192628	
-0.792469	
-0.815042	
-1.61398	
-1.69483	
-1.13505	
-0.694936	
-0.84662	
-0.656929	
-0.870756	
-0.386762	
-0.987299	
-0.692761	
-1.3495	
-0.642757	
-1.4032	
-1.59837	
-0.278854	
-1.06057	
-1.42527	
-0.699134	
-0.594808	
-0.32731	
-1.88928	
-2.33021	
-1.56232	
-1.40539	
-0.915399	
-1.39321	
-1.34393	
-1.35221	
-0.416602	
-0.575737	
-1.50759	
-1.54003	
0.49708	
-0.0288555	
0.18396	
0.135429	
-1.59138	
-2.09797	
-1.63293	
-2.14099	
-0.0144921	
0.100366	
0.161949	
-0.725534	
-0.675503	
-0.629511	
-0.594159	
-1.54764	
-1.76379	
-1.66957	
-1.77648	
0.252581	
-1.34793	
-0.733154	
0.376443	
-0.191217	
0.0932799	
-1.21558	
-1.72024	
-0.580528	
1.68257	
0.894499	
0.543318	
-0.0903751	
-0.00785394	
-0.0718099	
-0.36434	
-0.266494	
-1.60034	
-1.32727	
-1.4592	
-1.33498	
-0.999159	
-0.812675	
-1.02259	
-0.849747	
-0.340382	
0.306199	
-2.00534	
-1.83286	
-1.70069	
-1.56947	
0.0643686	
0.0407944	
0.150167	
0.162662	
-1.17472	
-1.39417	
-0.96949	
-1.01386	
-0.119568	
-0.746789	
-0.12286	
-0.694399	
-2.22907	
-1.47375	
-1.26527	
-1.63459	
-1.74681	
-1.81304	
-1.29596	
-1.69931	
-1.47818	
-2.04078	
-1.38787	
-2.29228	
-1.94677	
-1.42124	
-1.40688	
-1.62844	
-1.87171	
0.36154	
0.409096	
-1.01246	
-0.913429	
-1.04859	
-0.748682	
-0.994189	
-0.9346	
-0.918584	
-0.629088	
-1.43013	
1.16468	
1.29822	
0.014094	
-0.0627513	
-1.9063	
-1.93052	
1.84649	
0.827457	
-1.30542	
-1.20066	
-1.35078	
-0.156457	
0.00297938	
-0.111211	
0.348556	
0.403035	
0.238227	
0.273044	
0.902911	
0.317854	
0.336992	
0.253888	
-1.52957	
-2.50837	
-2.46578	
0.830394	
0.464568	
0.590485	
0.226613	
-0.590759	
-0.294883	
-1.41074	
-1.49228	
-1.45695	
-1.46917	
-1.30402	
-1.28347	
-1.55119	
-1.2563	
-1.32645	
-1.44922	
-1.70746	
-2.21933	
-1.64109	
-1.56805	
-1.57727	
-1.56066	
-0.0637379	
-0.0018624	
-1.06834	
-0.879973	
-0.701403	
-1.24059	
-0.0710303	
-0.326768	
-0.255272	
0.201638	
-1.6688	
-1.79085	
-1.71191	
-1.69207	
-1.67001	
-1.68989	
-1.8508	
-2.28472	
-1.56773	
-1.5674	
-1.55205	
-1.54533	
-2.06632	
-2.21319	
-1.91462	
-2.08081	
-0.345847	
-0.462708	
-0.182988	
-0.368565	
-1.05272	
-1.12047	
-1.50955	
-1.19574	
1.59232	
1.4147	
-0.549705	
-0.707422	
-0.75176	
-0.872936	
-0.705976	
-0.411843	
-0.594509	
-0.621868	
-0.905905	
-2.18114	
-2.38923	
-0.719824	
-0.675408	
-0.498569	
-1.01223	
-0.816308	
-0.762508	
-0.687579	
-0.600255	
-0.550485	
-0.3434	
-0.905994	
-1.13926	
-0.563992	
-0.765	
-0.194768	
-0.00423831	
-0.342972	
-0.240712	
-1.00029	
-1.23014	
-1.3031	
-1.29201	
0.271005	
-1.68926	
0.0859726	