<VTKFile type="UnstructuredGrid" version="0.1" byte_order="LittleEndian">
	<UnstructuredGrid>
		<Piece NumberOfPoints="1917" NumberOfCells="3602">
			<CellData Scalars="scalars">
				<DataArray type="Float64" Name="Doublet Strengths" NumberOfComponents="1" Format="ascii">
6.0906	
1.25819	
5.46042	
5.18819	
5.09185	
6.54121	
6.90323	
6.89025	
6.87772	
6.89109	
6.836	
1.2138	
0.799835	
6.49589	
3.98776	
0.688784	
1.50887	
6.60477	
5.3946	
5.2288	
5.72002	
3.47563	
5.19025	
2.8708	
3.21781	
3.15464	
3.71256	
2.31406	
4.22101	
4.5264	
5.35799	
4.97079	
4.42559	
5.14073	
5.31624	
5.3109	
5.10133	
4.92949	
4.91725	
5.20746	
5.61384	
4.5595	
5.05452	
4.98874	
4.52035	
4.39258	
4.88718	
4.7865	
5.06116	
4.6741	
4.08116	
5.10841	
5.11756	
5.12197	
5.12433	
5.50095	
5.07834	
5.09917	
5.95601	
5.05421	
3.30279	
4.41464	
5.13599	
5.08239	
4.97238	
4.71173	
5.15358	
4.68361	
5.70733	
5.40247	
5.13759	
4.97715	
4.23233	
4.06312	
4.26803	
4.11967	
3.86936	
5.72175	
3.71443	
2.44264	
5.07575	
5.10751	
4.75359	
3.6211	
5.10288	
5.13302	
5.13946	
5.19565	
6.15799	
5.71794	
6.13475	
6.23561	
3.66066	
3.83938	
4.71054	
4.17435	
5.02641	
6.05058	
3.55125	
3.68494	
5.76747	
5.75722	
4.75285	
4.55717	
5.21476	
5.59278	
5.62572	
4.48787	
4.53892	
4.51645	
4.56587	
4.54683	
4.56282	
4.31809	
4.21568	
5.08288	
5.11075	
5.14077	
5.06748	
5.07114	
5.08866	
5.11884	
5.08321	
5.13851	
5.11354	
5.13403	
4.62934	
4.6153	
4.77061	
3.53967	
3.17902	
5.14705	
5.29426	
2.50235	
5.38567	
5.23224	
5.18185	
5.39478	
5.33645	
5.20305	
5.17511	
5.14331	
5.14026	
5.17705	
2.78691	
1.56722	
1.79939	
2.19734	
6.61441	
6.74546	
6.67461	
6.76815	
6.96875	
2.15891	
1.7572	
5.16226	
5.10803	
3.7972	
3.92871	
2.15484	
5.61893	
5.37398	
5.47642	
5.21477	
6.00522	
6.68115	
6.61731	
3.67069	
3.52843	
3.55117	
3.43472	
4.98209	
4.94504	
7.04722	
7.02147	
6.31021	
6.12075	
3.80601	
2.98328	
3.09729	
5.11281	
5.12744	
5.33963	
7.04889	
6.89547	
4.31599	
4.81343	
2.61646	
2.82487	
2.83983	
2.21582	
2.38003	
2.68673	
3.01953	
2.996	
3.19769	
3.29379	
3.05996	
3.08703	
3.39321	
3.39938	
5.07684	
5.0823	
5.07814	
2.75199	
2.42983	
2.9106	
2.74524	
6.40707	
6.55076	
4.23552	
4.11979	
4.30429	
5.34171	
5.58378	
2.83197	
2.44756	
4.98174	
4.99013	
4.95511	
4.9719	
4.94946	
4.9477	
4.92185	
4.9287	
4.32956	
4.62183	
2.36623	
5.95236	
5.51427	
5.07313	
5.09417	
5.07773	
5.10224	
5.41661	
4.70471	
4.65712	
4.72602	
4.6977	
4.89673	
4.92121	
4.88461	
4.90953	
4.21626	
4.10566	
4.23448	
4.12716	
4.82498	
4.88442	
4.8159	
5.0828	
5.08283	
5.07557	
5.07439	
5.00408	
5.024	
4.99537	
5.29989	
1.36131	
1.6318	
4.53513	
4.63326	
4.56469	
5.32707	
5.44659	
3.59498	
3.82701	
3.5083	
5.20169	
5.2238	
5.30344	
5.8712	
5.91539	
3.77138	
3.87889	
3.97882	
6.08258	
5.24837	
5.22468	
5.49705	
5.28829	
4.91235	
5.23466	
4.97892	
4.59877	
3.24326	
3.59553	
5.07233	
5.03388	
5.04433	
5.10914	
5.13057	
4.05892	
4.01816	
4.92264	
4.87882	
4.95525	
4.7667	
4.80856	
3.70649	
3.77265	
3.86374	
5.48791	
5.98524	
5.45764	
5.95257	
4.29129	
3.15561	
4.37394	
4.38659	
4.46347	
5.7688	
5.71961	
5.52855	
5.52779	
4.21336	
4.26366	
4.3529	
4.62196	
4.07777	
4.96403	
4.98278	
4.94226	
4.96794	
7.00644	
6.21889	
6.21005	
5.47904	
5.1873	
4.77865	
4.96234	
4.92591	
3.96475	
4.01509	
4.07617	
4.1427	
3.93422	
3.95498	
4.06452	
4.12127	
5.10952	
5.04136	
5.24567	
5.09294	
5.55401	
5.54173	
4.52344	
4.36043	
4.48469	
4.39883	
4.93347	
4.64509	
5.09273	
4.68592	
4.97519	
6.17434	
4.92028	
4.95943	
5.20368	
5.02253	
5.0523	
5.01324	
5.02585	
6.22152	
4.89919	
4.92845	
4.92386	
4.95009	
4.27963	
4.28427	
4.36684	
4.37145	
4.282	
4.27225	
4.41897	
4.42855	
4.85741	
4.80636	
4.92266	
4.86948	
5.98814	
7.04516	
2.5237	
1.79511	
4.53805	
4.46958	
4.61056	
4.56589	
5.08022	
5.06855	
5.0952	
5.07756	
5.13333	
5.21797	
5.11193	
5.20987	
5.09097	
5.11444	
5.08613	
5.10466	
5.39354	
5.58699	
5.30403	
5.37227	
0.874694	
1.21552	
5.36565	
5.29235	
5.31795	
5.25817	
5.65382	
5.35558	
6.81995	
6.11293	
6.27822	
5.74545	
5.70312	
5.45887	
5.6602	
5.31166	
5.61045	
4.13107	
3.96596	
4.30226	
4.04784	
5.37374	
5.22691	
2.9438	
3.61189	
3.01419	
4.61865	
4.65229	
4.6524	
4.70493	
4.53131	
4.62256	
4.62498	
3.37251	
3.20888	
3.03056	
3.88404	
3.76569	
3.90224	
3.78331	
3.53415	
3.25209	
3.5714	
3.29389	
5.12661	
5.08909	
5.1454	
5.12559	
5.05582	
5.0626	
5.06263	
5.06998	
5.04572	
5.03554	
5.03595	
5.01929	
4.89794	
4.87274	
4.85985	
4.8298	
4.87494	
4.89891	
4.84546	
4.84704	
4.96818	
5.06454	
5.51445	
5.41942	
4.79017	
4.8435	
4.79245	
4.82653	
5.12845	
5.30119	
5.16444	
5.06444	
5.16811	
5.06207	
5.15577	
4.99786	
4.96824	
4.99769	
5.07243	
5.01266	
4.96435	
4.94651	
3.36725	
3.02326	
3.42176	
3.24477	
5.06625	
5.16723	
4.79979	
4.28527	
5.10999	
5.19487	
2.24284	
1.90558	
5.36199	
5.20462	
5.50977	
5.75385	
5.60006	
6.06888	
5.59064	
6.33623	
5.84209	
5.72868	
5.17327	
5.43425	
5.8429	
6.03016	
6.0048	
5.32632	
5.66364	
4.99889	
5.07957	
4.98876	
5.05811	
4.95864	
5.0075	
4.93352	
4.9616	
5.02978	
5.02202	
5.07739	
5.09766	
6.18275	
4.45578	
4.01645	
3.86469	
3.5777	
5.83655	
5.82508	
5.02549	
5.00206	
5.01363	
4.98477	
5.02198	
4.97917	
4.9842	
5.12985	
5.16474	
5.07794	
5.08962	
5.08156	
5.09168	
5.82979	
5.81519	
4.13895	
3.98931	
4.3819	
5.41283	
5.4284	
5.30868	
4.17416	
4.02197	
6.24929	
4.91496	
5.00474	
4.51778	
6.8943	
5.39475	
5.34071	
5.20865	
4.79693	
3.67066	
3.45026	
3.85664	
2.60451	
2.7891	
4.50025	
4.63089	
4.64493	
5.20949	
3.34861	
2.90443	
5.51959	
3.01917	
5.9084	
5.28744	
5.32198	
5.42594	
4.80676	
4.71186	
4.7886	
4.74962	
4.90572	
5.11013	
5.11022	
2.23847	
2.01903	
5.29792	
4.70184	
4.60684	
4.74898	
4.68723	
4.54635	
4.45783	
5.59295	
6.25191	
5.85666	
5.00395	
4.85505	
4.34731	
4.47678	
5.2369	
5.23874	
5.32826	
5.33567	
4.3795	
4.29036	
4.19813	
4.78591	
4.71825	
5.43878	
5.33572	
4.57612	
4.23337	
4.13904	
5.08122	
5.08885	
5.08168	
5.12946	
5.13812	
5.19164	
5.1625	
7.0464	
6.89483	
6.86592	
5.12824	
5.16288	
5.11781	
5.15686	
5.23691	
5.19967	
5.28597	
5.26774	
4.98552	
4.90913	
4.94557	
4.8921	
5.06613	
5.09233	
5.08364	
5.13487	
5.29019	
5.0902	
4.27683	
4.19069	
4.8013	
4.07419	
4.10029	
3.94514	
4.00625	
4.57434	
4.4761	
4.57334	
4.48153	
4.69859	
4.6483	
4.69687	
4.64868	
6.00441	
4.43659	
4.42673	
4.28886	
4.31211	
5.08732	
5.10175	
5.10913	
5.11568	
5.14417	
5.25723	
5.31697	
5.37738	
5.10965	
5.08761	
4.87287	
4.83374	
4.87453	
4.82231	
5.46973	
5.93749	
5.3186	
5.65495	
5.07758	
5.08114	
5.17885	
5.20943	
5.19667	
5.27404	
5.15144	
5.41352	
5.1454	
6.00685	
5.6486	
6.34	
6.98653	
6.80917	
6.77069	
6.02077	
5.47153	
6.17966	
5.95415	
5.01426	
4.8418	
5.10528	
4.84036	
4.49182	
4.91204	
4.72045	
4.76145	
3.66157	
3.64722	
4.45233	
4.43824	
4.33737	
4.37456	
4.75935	
4.72104	
5.0985	
5.07385	
5.03691	
5.02028	
5.61689	
5.86706	
5.58932	
5.75235	
1.75093	
1.7035	
0.880908	
1.23436	
3.78453	
3.69404	
3.90598	
3.84216	
4.63308	
4.73191	
4.67581	
4.75201	
5.15531	
5.10587	
5.06047	
5.04049	
3.83065	
3.54719	
4.02628	
4.11893	
4.83395	
4.77001	
4.8534	
4.74338	
5.24738	
5.14804	
5.20409	
5.13706	
5.11784	
5.09929	
5.12003	
5.04121	
5.05152	
5.04753	
5.05678	
1.4183	
5.2735	
5.27571	
6.93013	
6.14493	
6.10201	
0.929379	
1.83994	
6.89468	
6.7151	
5.63308	
5.76459	
5.43936	
2.8358	
2.59931	
2.35843	
5.3156	
2.10632	
2.64386	
1.97863	
4.77714	
4.64082	
4.99939	
5.04327	
5.04255	
5.02283	
5.56736	
5.69369	
5.91832	
6.15059	
5.28542	
5.16915	
5.7531	
5.57923	
6.69985	
5.9601	
6.67493	
5.78876	
5.63831	
5.48536	
5.36542	
2.63641	
2.40367	
5.33231	
5.48091	
5.29318	
5.39764	
2.75989	
2.45276	
2.88447	
5.60762	
6.01337	
5.8898	
5.74693	
5.58606	
6.96098	
6.81419	
3.3973	
5.01109	
5.00937	
4.92432	
5.51832	
7.03969	
6.92163	
6.14883	
6.8603	
0.885407	
1.29513	
1.75702	
1.88462	
5.22453	
5.51185	
5.4518	
5.61	
5.17011	
5.02876	
3.32481	
3.09266	
5.59455	
5.79481	
5.9872	
6.19185	
6.33899	
6.02355	
6.11119	
5.85131	
6.10512	
6.60444	
6.68469	
6.59308	
6.37628	
6.23591	
2.36343	
2.15854	
1.99253	
1.75626	
4.8513	
4.7364	
5.16535	
4.99314	
6.58598	
6.40194	
-8.98469	
-12.4896	
-12.7246	
-12.7287	
-11.2049	
-5.2234	
6.53922	
6.34514	
5.29238	
6.54888	
-3.00053	
-5.86315	
6.49067	
-4.74522	
-4.93145	
-4.19228	
-4.69391	
-11.2709	
-12.741	
-12.5605	
-11.7195	
-5.13197	
-11.0572	
-1.51851	
0.788685	
-0.552875	
-6.23463	
-9.41775	
-7.95943	
-5.93474	
-3.91703	
-5.09992	
-12.4946	
-12.668	
-12.6519	
-10.6393	
-10.3873	
-9.40655	
-0.917481	
-12.6792	
-6.00551	
1.89699	
3.42738	
-5.83363	
-9.61119	
4.08395	
4.95176	
-9.49954	
-3.53653	
3.44704	
-2.98588	
-6.11663	
-8.99671	
-4.24648	
-6.84914	
-12.3713	
-11.8044	
-11.0539	
-2.04602	
-0.338638	
-4.22833	
-3.20405	
-11.2867	
-5.45658	
-6.11344	
-4.7767	
-5.84013	
-4.16307	
-5.46155	
-0.242702	
-4.59573	
-2.96216	
-5.16025	
-3.82746	
-10.1647	
-11.1646	
-0.388188	
-7.30911	
-5.80952	
-3.6577	
-2.14347	
-3.34446	
-8.53979	
-11.1072	
-11.5467	
-11.1634	
-10.4125	
-4.7203	
-10.6073	
-9.4601	
-9.28347	
-1.93432	
-3.45999	
-11.3965	
-11.6693	
3.17975	
0.317294	
3.70361	
1.95132	
-9.49252	
-9.42167	
-8.77601	
-8.62535	
1.02411	
-2.32511	
0.419379	
3.76894	
-3.50563	
-3.67638	
-4.23539	
-4.49206	
-9.49128	
-9.16169	
-8.42357	
-7.75156	
3.69812	
-8.97013	
-7.1049	
6.10136	
0.486871	
3.12673	
-7.46733	
-12.5011	
-3.40609	
4.50296	
4.13344	
2.13403	
1.32248	
0.116069	
1.97378	
-1.23672	
-0.763481	
-8.33518	
-9.71711	
-9.87109	
-8.76516	
-6.38607	
-4.45212	
-6.30082	
-5.2754	
-0.597227	
2.28915	
-8.64272	
-7.69173	
-8.09019	
-7.12507	
0.84035	
1.75226	
2.45323	
2.72946	
-4.57045	
-4.93942	
-5.56776	
-5.83203	
-1.28432	
-2.42332	
-0.382005	
-1.57444	
-9.96992	
-7.98465	
-11.5077	
-11.908	
-11.285	
-11.7827	
-4.10659	
-9.44362	
-10.8071	
-8.48862	
-8.13621	
-7.25442	
-6.86662	
-7.76469	
-7.00428	
-8.37948	
-7.6195	
4.01237	
6.5034	
6.38344	
-6.94482	
-7.06228	
-3.71682	
-4.81279	
-4.63137	
-3.20586	
-4.39519	
-5.06228	
-6.63484	
5.03745	
5.13317	
6.35139	
2.09804	
1.37937	
-11.9842	
-12.4551	
6.44643	
6.54622	
-9.18313	
-9.59587	
-9.99739	
0.112812	
0.423434	
1.49167	
5.79359	
5.60867	
6.31591	
6.56092	
6.52427	
6.46293	
6.47446	
6.11676	
-11.0925	
-12.2902	
-12.2428	
1.38102	
0.918401	
2.97653	
1.90044	
-2.01011	
-0.903076	
-11.6215	
-11.7571	
-9.59069	
-10.3439	
-10.13	
-10.7249	
-12.1117	
-12.154	
-12.1589	
-12.3684	
-9.81869	
-10.5033	
-10.7331	
-11.7055	
-12.153	
-12.2399	
1.12813	
0.491162	
-5.00942	
-4.55411	
-5.32698	
-4.51869	
0.854669	
-0.561822	
3.5396	
1.40438	
-9.65454	
-10.3237	
-9.17109	
-10.2553	
-11.4579	
-12.091	
-11.1897	
-11.9183	
-11.6162	
-12.0192	
-11.5579	
-11.9714	
-12.6807	
-12.4235	
-12.7146	
-12.6709	
-0.714642	
-1.82448	
-0.95592	
-2.64729	
-8.75899	
-7.84004	
-8.67814	
-7.73235	
2.54696	
4.48361	
-7.00476	
-6.06417	
-7.24604	
-5.50179	
-5.23748	
-2.89991	
-3.15713	
-0.812349	
-12.4434	
-12.6489	
-3.41486	
-1.81276	
-3.2218	
-6.91043	
-5.69049	
-4.15709	
-3.603	
-5.13441	
-5.3332	
-3.44804	
-2.14019	
-1.78244	
-2.88799	
-1.90348	
-3.90681	
-10.8529	
-10.7303	
-2.36047	
-1.72533	
-1.6521	
-0.540013	
-8.41026	
-9.40632	
-10.1337	
-9.88626	
3.12819	
-12.1644	
0.524847	
-0.310467	
-11.6044	
-11.998	
1.33005	
1.53733	
3.17108	
3.41192	
-5.27235	
-6.55929	
-4.62264	
-5.69233	
-7.31156	
-6.59315	
-8.32591	
-6.76606	
-9.76264	
-9.32856	
-10.6178	
-9.57994	
-6.76172	
-5.23331	
-6.98847	
-6.29433	
-9.25653	
-8.08398	
-9.45813	
-8.9276	
-0.183147	
1.28736	
-12.5409	
-12.6096	
-12.2789	
-12.2386	
-11.3575	
-11.5431	
-11.6468	
-3.57331	
-3.83583	
3.75305	
4.68405	
0.358919	
1.55425	
-0.616083	
0.480234	
3.11905	
1.16667	
2.59968	
0.781792	
-10.4138	
-2.97503	
-2.13096	
-11.5925	
-8.33051	
-8.9997	
-7.898	
-8.75667	
-10.6621	
-11.0936	
-10.1256	
-10.5827	
-12.2101	
-12.2385	
-6.94339	
-7.92035	
-8.21849	
-9.11717	
-8.66564	
-1.28553	
-0.650734	
-2.24043	
-1.62523	
4.13592	
3.27263	
5.12204	
5.08234	
-10.8044	
-10.827	
-7.59182	
-7.29808	
-8.32017	
-8.38693	
-12.6846	
-2.78779	
-1.21774	
-6.92232	
-8.75266	
-9.54989	
-9.47124	
1.98912	
3.74756	
2.61867	
2.59751	
1.54283	
-10.2722	
-0.289106	
1.60116	
-0.59081	
0.471546	
-11.9234	
-10.3128	
-6.57132	
-5.857	
-5.50284	
-6.33976	
-6.09198	
-5.75339	
-5.22691	
-7.43103	
-7.71935	
-8.03667	
-8.21882	
-9.17528	
-9.40631	
-10.2777	
-10.5831	
-11.1835	
-11.4168	
-11.8522	
-12.29	
-11.6735	
-12.1029	
5.00976	
4.64766	
-1.80418	
-9.00866	
-8.30365	
-8.42634	
-7.7234	
-10.5062	
-11.0215	
-10.8083	
-11.2909	
-12.4311	
-0.238473	
-7.7455	
-7.90128	
-4.12553	
-4.08962	
-5.32743	
-5.84611	
-11.5581	
-11.8938	
-10.8354	
-10.8755	
-11.4174	
-11.4702	
1.42415	
-0.309777	
2.01083	
0.160711	
-8.10148	
-2.72954	
-6.35527	
-8.39611	
-2.29472	
-3.13652	
-5.15836	
-5.97511	
-4.01309	
-4.88025	
-12.2319	
-12.2375	
-11.6939	
-11.7691	
-5.06739	
-5.8714	
3.33791	
2.8246	
1.70103	
1.00423	
2.74404	
1.43093	
0.604966	
-12.6467	
-12.5051	
1.79251	
2.91943	
4.06926	
-3.69666	
-2.63041	
-2.55161	
-1.6343	
-5.15643	
-4.4548	
-4.14679	
-3.36951	
1.82325	
0.581373	
2.18736	
0.950588	
-12.4025	
-12.5564	
-12.089	
-2.93313	
-3.96056	
-3.78648	
-3.20563	
-8.82872	
-8.89062	
-10.9935	
-11.393	
-10.4748	
-10.5777	
-6.6436	
-5.6528	
-4.63576	
-6.48749	
-4.7466	
-4.64448	
-5.33974	
-5.42632	
-6.27122	
-5.99995	
-6.29212	
-6.92314	
-7.3963	
-12.6684	
4.56074	
2.95042	
0.263531	
-1.0211	
-0.275245	
-1.15188	
-8.5707	
-9.28179	
-8.88587	
-9.64796	
-7.20997	
-5.87853	
-6.91391	
-6.07619	
-9.42682	
-11.388	
-11.2358	
6.40118	
4.8834	
3.86014	
-9.69741	
-10.1368	
-9.4715	
-9.92481	
-11.1685	
-11.3494	
-10.7654	
-11.1384	
1.12884	
0.3829	
2.56683	
2.43021	
-2.02132	
-2.18496	
-0.335262	
-1.07814	
4.00923	
3.73397	
6.28386	
2.05093	
4.35502	
6.33646	
-7.66793	
-8.14036	
-9.64283	
-9.24973	
-9.95308	
-10.2955	
-10.5767	
-9.87777	
-10.5195	
-9.83471	
-12.4712	
-12.3922	
-3.51694	
-3.10653	
-4.34858	
-4.64391	
-4.7653	
-4.63894	
-5.6244	
-5.46439	
-5.74477	
-5.403	
-6.52661	
-6.67792	
-12.5695	
-12.6252	
-12.7279	
-12.6387	
-12.7055	
-12.5066	
4.38982	
6.08741	
-11.5591	
-11.8464	
-11.9889	
-11.7348	
-11.9486	
-12.5176	
-12.5299	
-12.2769	
-12.2941	
6.5371	
-11.4721	
-11.4048	
-10.9259	
-12.6358	
-12.7466	
-12.7495	
-12.6026	
6.4496	
-11.6627	
-11.7482	
-11.6201	
-11.5965	
4.54939	
4.4388	
6.36607	
6.19734	
4.87309	
3.82368	
6.41693	
-12.3255	
-12.6708	
-12.5266	
-12.6718	
-12.5701	
6.48289	
-12.699	
-12.6899	
-12.7483	
-12.7631	
4.9617	
4.34308	
-12.6714	
6.51442	
6.56744	
-6.85751	
-6.7242	
-6.8292	
-6.81154	
-7.65772	
-8.51942	
-8.52889	
-9.2727	
-10.6079	
-12.0087	
-6.21055	
-5.80042	
-5.33105	
-12.2542	
-11.9609	
-12.0642	
-11.9633	
-8.15065	
-7.74977	
-6.87329	
-6.14193	
-10.4681	
-9.84623	
-9.8509	
-10.1127	
6.47214	
6.20924	
5.93065	
-7.87863	
4.48288	
3.10611	
2.69355	
3.87383	
2.91637	
-12.3284	
-12.3447	
-12.604	
0.838869	
1.50953	
0.534063	
1.47134	
-12.7518	
-12.4599	
-12.7086	
-12.5638	
-12.6613	
-12.3416	
-12.3472	
-12.1897	
-12.1527	
5.91409	
6.15495	
3.43301	
-12.0175	
-11.4738	
-12.0271	
-11.4908	
-6.88189	
1.88074	
-10.4816	
-10.0328	
6.5036	
4.36172	
6.4318	
6.39451	
-10.5802	
-10.2895	
-10.0138	
-2.29091	
-2.28649	
-0.798738	
-11.2831	
-11.2419	
-12.6931	
-12.6649	
-12.5261	
-12.7476	
-12.7337	
0.17888	
-1.16188	
5.77781	
4.38768	
5.88769	
4.49788	
5.82802	
4.39601	
3.69021	
3.97722	
2.8971	
-11.7544	
-11.5793	
-11.3392	
-11.1732	
-9.72586	
-9.39732	
-10.5446	
-12.0543	
-12.2805	
2.00304	
1.61419	
-0.127642	
-11.7794	
-11.7745	
-7.09669	
-6.23531	
-8.46555	
-9.09539	
-12.7461	
-12.5296	
-6.33713	
-6.00636	
-5.36388	
-7.94962	
-7.49643	
-8.84968	
-8.45348	
-8.80297	
-8.19993	
-8.57067	
-7.64227	
4.12654	
3.04602	
-7.40946	
-8.23658	
-7.53222	
-8.35155	
-3.11907	
-3.19472	
-6.88709	
-7.06781	
-9.73883	
-10.2857	
-9.69147	
-10.2389	
-4.28303	
-4.50188	
-12.3887	
-12.3857	
-12.0963	
-11.8955	
-10.3246	
-10.821	
-10.0729	
-10.5978	
-6.58422	
-7.57277	
-6.78065	
-7.30165	
-9.59187	
-10.2009	
-10.6959	
-9.55232	
-10.5218	
-9.77867	
-0.335221	
-1.52547	
-2.04587	
6.31753	
4.55289	
-10.8424	
-10.9509	
-11.2367	
-2.07945	
-1.9015	
-1.17836	
-8.33403	
-8.00152	
-7.60884	
-7.07483	
-1.51535	
-1.13182	
-2.00502	
-2.66715	
-3.41366	
-11.015	
-11.1992	
4.63669	
6.30077	
6.1996	
6.18647	
-0.840821	
-1.22521	
6.08863	
6.50024	
5.0755	
6.38324	
-12.5712	
-12.6993	
-12.219	
-12.5067	
-3.46854	
-2.92737	
-1.30307	
4.80693	
6.36061	
-12.7312	
-12.6015	
-12.7038	
-12.4983	
-0.861487	
-0.0521974	
-2.32514	
-0.915542	
4.46614	
2.55023	
2.84742	
1.53855	
1.59812	
-0.899524	
-1.90295	
0.141589	
-1.51673	
4.42136	
3.61121	
-7.15716	
-8.14874	
-6.96977	
-7.81094	
-2.51903	
-3.47394	
-3.26028	
-4.18975	
6.43237	
6.34022	
-10.618	
-10.048	
4.83644	
4.46996	
6.53264	
6.31039	
3.35924	
2.33866	
0.885819	
0.105136	
-1.08085	
-0.96459	
-0.484612	
-0.300923	
-0.738722	
0.226128	
0.418346	
1.03106	
1.78909	
1.36877	
0.701545	
-0.0538876	
-1.22631	
-1.11078	
-0.675498	
-0.898683	
-0.436518	
1.93327	
-0.135661	
1.48396	
0.663684	
1.05384	
0.305928	
-1.32577	
1.70508	
1.15728	
0.343098	
-0.164354	
0.626862	
-0.971531	
-1.15121	
-1.61614	
-1.87765	
-1.9037	
-1.42554	
-0.597264	
1.4217	
0.912558	
-0.972448	
-0.160431	
-0.544814	
0.283116	
-1.61913	
-1.83493	
-1.60194	
-1.68288	
-1.44803	
-1.21044	
1.89395	
5.7494	
0.868891	
5.46382	
5.19338	
5.09227	
6.61875	
6.92963	
6.94876	
6.87645	
7.02431	
6.83522	
1.23756	
0.881585	
6.486	
3.9867	
0.713275	
1.67224	
6.62153	
6.60611	
5.40304	
6.8895	
5.67173	
5.17314	
5.24958	
6.00588	
3.56896	
5.18116	
5.42132	
2.88693	
3.06471	
3.15367	
3.709	
2.36145	
4.21799	
4.52237	
5.4221	
4.96314	
4.42127	
5.11564	
5.25692	
5.06092	
4.89935	
4.91475	
5.17201	
5.63688	
4.47034	
5.04975	
4.98305	
4.51156	
4.44498	
4.8257	
4.77932	
5.05224	
4.65036	
4.05772	
5.12459	
5.12681	
5.11557	
5.11849	
5.56828	
5.0769	
5.10132	
5.96069	
5.05109	
3.29764	
4.40953	
5.07337	
5.08543	
4.97346	
5.13725	
4.56059	
4.66998	
5.70777	
5.29433	
5.1815	
4.98931	
6.2075	
4.20772	
4.11398	
4.22776	
4.11586	
4.87117	
3.8518	
5.74962	
4.0277	
2.4385	
5.10867	
4.73917	
3.609	
5.13244	
5.14292	
5.10047	
5.16397	
6.12491	
5.75881	
5.52049	
5.1076	
6.14086	
3.83465	
3.68132	
4.72434	
5.16123	
4.17141	
5.11751	
4.99929	
6.02593	
3.6576	
3.54781	
5.78142	
5.87223	
4.70416	
4.63503	
5.26255	
5.47965	
5.59205	
4.51356	
4.56337	
4.48389	
4.53496	
4.70743	
4.54284	
4.29865	
4.31495	
5.07281	
5.13378	
5.10047	
5.0775	
5.07451	
5.1304	
5.10316	
5.11221	
5.08322	
5.15445	
4.61323	
4.68706	
4.7119	
3.53483	
3.3493	
5.14625	
5.40261	
2.49718	
5.38356	
5.23786	
1.78548	
5.18283	
5.35016	
5.33636	
5.21894	
5.21241	
5.14455	
5.18417	
5.14377	
2.7821	
1.80438	
1.56561	
2.20038	
6.74924	
6.96917	
6.76765	
2.2747	
5.15946	
5.10949	
3.79298	
4.01044	
5.4023	
5.70669	
5.5156	
5.20507	
6.05265	
5.81035	
6.54222	
6.68211	
3.52172	
3.35416	
3.66757	
3.50784	
4.98105	
4.94427	
6.86588	
6.24984	
3.79937	
2.97508	
3.01687	
5.08713	
5.12333	
5.1891	
6.89581	
7.05136	
4.35456	
4.79829	
2.785	
2.66145	
2.86498	
3.00502	
3.04491	
3.16828	
3.2122	
3.09184	
3.21783	
3.25377	
3.39057	
5.08123	
5.06806	
5.07583	
2.91266	
2.33278	
2.75077	
2.43465	
6.53743	
4.22943	
4.13714	
5.38417	
5.36165	
4.98708	
4.97687	
4.96927	
4.94584	
4.93835	
4.92868	
4.9194	
4.89792	
4.44312	
6.64012	
5.01297	
5.07684	
5.10106	
2.37456	
2.04218	
5.9316	
5.49996	
5.07617	
5.10021	
5.0702	
5.07724	
5.38512	
4.71572	
4.64315	
4.69653	
4.64925	
4.87303	
4.90816	
4.85925	
4.9047	
4.23034	
4.12203	
4.26938	
4.81375	
4.89212	
5.09091	
5.0825	
5.07312	
5.0748	
4.99337	
5.00936	
5.30324	
5.20862	
4.56524	
4.55522	
4.62193	
5.47031	
5.50165	
3.76693	
3.59085	
3.50292	
5.18428	
5.28484	
5.208	
6.21091	
5.87169	
5.91573	
3.87438	
3.82191	
3.97411	
6.14595	
5.37231	
5.21556	
5.27802	
5.17141	
5.14741	
4.96149	
4.89555	
4.58935	
3.23156	
3.83902	
5.01158	
5.03043	
5.06688	
5.12788	
5.10986	
4.1012	
4.05479	
4.0136	
4.89674	
4.95118	
4.85602	
4.7904	
4.75484	
3.7875	
3.70806	
3.8651	
5.71665	
5.51631	
5.96196	
5.62938	
4.68807	
3.14581	
4.37332	
4.29783	
4.46071	
4.37916	
5.51908	
5.69984	
5.68799	
4.25759	
4.2629	
4.34745	
4.13578	
4.43009	
4.93793	
4.95639	
4.94741	
4.97015	
7.00797	
6.22127	
5.88766	
5.18686	
4.77494	
5.12208	
4.93474	
3.92462	
3.95981	
4.11475	
4.07056	
3.87916	
3.92868	
4.05754	
4.05875	
5.2268	
5.09351	
5.11219	
5.04181	
5.52493	
5.53883	
5.80255	
4.47989	
4.39569	
4.52099	
4.43198	
4.64375	
4.9474	
4.56307	
5.12396	
4.93096	
4.43107	
5.1802	
4.93939	
5.00855	
5.02249	
5.01764	
5.03705	
5.9898	
6.03435	
4.91931	
4.94932	
4.89285	
4.92091	
4.28167	
4.2758	
4.36737	
4.36306	
4.21341	
4.28025	
4.35831	
4.4238	
4.9041	
4.84811	
4.84058	
4.79369	
6.14864	
2.51931	
1.79233	
4.62457	
4.55735	
4.53011	
4.45537	
5.09484	
5.06481	
5.09358	
5.06225	
5.17748	
5.13503	
5.21034	
5.10912	
5.08212	
5.10522	
5.08556	
5.60677	
5.40706	
5.59652	
5.3124	
1.19857	
0.833373	
5.29307	
5.36274	
5.59574	
5.35619	
5.5148	
5.25886	
6.81042	
6.28618	
6.12484	
5.99762	
5.7592	
5.79703	
5.35164	
5.74074	
5.42692	
3.95904	
4.12539	
4.04273	
4.21108	
5.23548	
5.19252	
2.94046	
3.00904	
3.60409	
4.64121	
4.6092	
4.69263	
4.68682	
4.55498	
4.61825	
4.64347	
2.99892	
3.89739	
3.77955	
3.94978	
3.76193	
3.47423	
3.29695	
3.53248	
3.39832	
5.07546	
5.11637	
5.0575	
5.12765	
5.05901	
5.06232	
5.04754	
5.05414	
5.03273	
5.03643	
5.01575	
5.02556	
4.88059	
4.8803	
4.83102	
4.84448	
4.89147	
4.86546	
4.8691	
4.83665	
4.94067	
5.14114	
6.41458	
5.38251	
5.3416	
5.49232	
4.78317	
4.81655	
4.77891	
4.81637	
5.12618	
5.17455	
5.07535	
5.03298	
5.11972	
5.06769	
4.97233	
4.97541	
4.94914	
4.98038	
5.04197	
4.92662	
4.94114	
5.12962	
5.13801	
3.41242	
3.23806	
3.35603	
3.08882	
5.0351	
5.03819	
5.28889	
4.28249	
4.79532	
5.11351	
5.23171	
2.23996	
1.90292	
5.4493	
5.34145	
5.67489	
5.42803	
5.97734	
5.83424	
5.39846	
5.83639	
5.66014	
5.89642	
5.21476	
5.81747	
5.69339	
5.96431	
5.40387	
5.60734	
5.36549	
4.95862	
5.02248	
4.97088	
5.04279	
4.91244	
4.93683	
4.93622	
4.98549	
5.05282	
5.0343	
5.01097	
4.99986	
5.42962	
3.57739	
3.5579	
4.24336	
3.98189	
5.87972	
5.86436	
4.98965	
5.01825	
4.9696	
4.99774	
5.01575	
4.98597	
4.97628	
4.96951	
5.16055	
5.12774	
5.08895	
5.07722	
5.09262	
4.01066	
4.16882	
4.38531	
5.30232	
5.41099	
5.4183	
4.17122	
4.02809	
5.40086	
4.89919	
4.99217	
4.51205	
6.89452	
5.26009	
5.34311	
4.77921	
3.88281	
3.70106	
3.47101	
4.61683	
4.42001	
4.63417	
3.39431	
2.95771	
5.35112	
5.83721	
3.10979	
2.96438	
6.72607	
6.66883	
4.78919	
4.80951	
4.77255	
4.8936	
4.73631	
5.11021	
5.1439	
2.10152	
5.24715	
4.74848	
4.62814	
4.69366	
4.60219	
4.53571	
4.44911	
6.08358	
5.85027	
5.55579	
4.37767	
4.48751	
4.66414	
4.84912	
5.30043	
5.30537	
5.21049	
5.20801	
4.28455	
4.36744	
4.19208	
4.77382	
4.70788	
6.40143	
6.25764	
4.58583	
4.11917	
4.22332	
5.08151	
5.08087	
5.08515	
6.86614	
5.16415	
5.12413	
5.19439	
5.23472	
5.20503	
5.28021	
4.91351	
4.99157	
4.8927	
4.94731	
5.10491	
5.10757	
5.04642	
5.06757	
5.08748	
5.28416	
4.18402	
4.2697	
5.31972	
5.27736	
5.41959	
5.31997	
4.8341	
6.69332	
6.71599	
4.09386	
4.06966	
3.99965	
3.89765	
4.52693	
4.47463	
4.56753	
4.52564	
4.64556	
4.71752	
4.61829	
4.6919	
5.9927	
4.28549	
4.30547	
4.4274	
4.48937	
5.31659	
5.37651	
5.15427	
5.25672	
4.8306	
4.88122	
4.81661	
4.84045	
5.92156	
5.18702	
5.63333	
5.29718	
5.08708	
5.10903	
5.10953	
5.22557	
5.11243	
5.26745	
5.61056	
5.86188	
5.19537	
5.1687	
5.19362	
6.98668	
6.34044	
6.77042	
6.80931	
5.45278	
5.73848	
5.4999	
6.02436	
5.08026	
5.08069	
4.97263	
4.84498	
5.02322	
4.84464	
4.75931	
4.69673	
4.86388	
4.89854	
5.11463	
3.63709	
3.65429	
4.33101	
4.36843	
4.3853	
4.43136	
4.75327	
4.71445	
5.1358	
5.09736	
5.01808	
5.03438	
5.85835	
5.61437	
6.07174	
5.58893	
1.72212	
1.78267	
1.24535	
0.801246	
3.64663	
3.77656	
3.8337	
3.93821	
4.71953	
4.60183	
4.74002	
4.6637	
5.10445	
5.10899	
5.04968	
5.05788	
4.16163	
3.77634	
3.8546	
3.60739	
4.75587	
4.81561	
4.72974	
4.78425	
5.14934	
5.30805	
5.13443	
5.18039	
5.11619	
5.09681	
5.04244	
5.0277	
5.04902	
5.0411	
5.06519	
5.05575	
5.07542	
5.07694	
2.17749	
5.26647	
5.26293	
6.93394	
6.10645	
6.14972	
6.87063	
6.09704	
7.06095	
7.06655	
6.18307	
6.006	
2.3975	
2.79937	
2.6902	
1.97172	
1.55481	
1.23153	
5.13392	
6.7599	
6.88752	
2.56065	
2.30785	
5.43443	
1.51405	
2.03327	
2.63824	
2.10276	
1.97544	
4.73212	
4.96231	
4.72736	
5.0371	
5.01557	
5.03836	
5.58876	
5.77051	
7.03883	
7.03368	
6.30425	
5.62341	
5.78549	
5.36469	
5.49186	
5.407	
5.25902	
5.45809	
5.24989	
2.44802	
2.75334	
5.65726	
5.85524	
5.49939	
5.59923	
5.74142	
6.81088	
6.96193	
3.4188	
2.47776	
2.77021	
2.85767	
2.49033	
2.88222	
5.00162	
5.00483	
4.95309	
5.5234	
6.92161	
7.03994	
2.4949	
2.7226	
5.31999	
5.24938	
5.6149	
5.45734	
2.51007	
2.68191	
2.12067	
2.47982	
1.25514	
1.82997	
1.97151	
6.1252	
6.29189	
6.13883	
5.33374	
5.23367	
5.07724	
5.01203	
4.89065	
3.32824	
3.08924	
3.3635	
3.17546	
5.79574	
5.65595	
6.19275	
6.22303	
0.924138	
1.83265	
1.43232	
4.94311	
5.56457	
5.72239	
5.69701	
5.27871	
4.96895	
4.8316	
4.72107	
1.7262	
1.24159	
1.69934	
1.21211	
6.39933	
6.42697	
6.45859	
-8.97323	
-12.4804	
-12.7179	
-12.6719	
-11.2126	
6.52806	
6.32716	
5.29856	
6.58459	
-2.96184	
-6.05767	
6.38589	
-4.74293	
-4.92872	
-4.18874	
-4.09093	
-11.2478	
-12.2164	
-11.5629	
-5.13144	
-11.0479	
-12.6696	
-1.51699	
0.786002	
-0.552499	
-6.93982	
-9.71201	
-8.50968	
-5.92867	
-5.10375	
-4.70519	
-12.6442	
-12.5998	
-12.4384	
-9.76727	
-9.76438	
-10.7357	
-0.916355	
-12.667	
-6.00041	
1.89252	
3.41975	
-5.82814	
-9.60264	
3.8152	
4.35552	
-9.48194	
-3.53316	
3.44572	
-2.98319	
-6.11018	
-8.89319	
-4.93415	
-6.84215	
-12.3387	
-11.7949	
-11.0601	
-2.03932	
-0.332112	
-4.22695	
-4.14265	
-11.272	
-5.96844	
-5.45111	
-4.64043	
-5.44351	
-4.19863	
-5.49442	
-1.28438	
-5.15628	
-3.82454	
-5.3359	
-3.46614	
-9.90936	
-10.6041	
-0.388696	
-5.73872	
-6.7924	
-3.6574	
-3.34217	
-2.1415	
-8.57823	
-11.5783	
-11.1437	
-10.3982	
-4.72395	
-10.5988	
-9.42436	
-9.27047	
-1.93337	
-3.4574	
-11.3752	
-11.6475	
2.33363	
0.830772	
3.69729	
1.95121	
-8.34231	
-8.61471	
-9.48187	
-9.80574	
1.01417	
0.414497	
3.7734	
-4.76341	
-4.48636	
-3.47492	
-3.66988	
-7.80054	
-8.31088	
-9.1571	
-9.14235	
3.70715	
-8.96189	
-7.10012	
6.09567	
0.485167	
3.12144	
-7.5232	
-12.4777	
-3.17352	
4.1299	
3.73227	
2.13302	
1.32089	
1.97192	
1.40352	
-1.2363	
-0.763932	
-9.95787	
-8.40746	
-8.93253	
-9.3083	
-6.29462	
-4.39141	
-6.80487	
-5.32857	
-0.595864	
2.29597	
-7.30299	
-7.11762	
-8.63381	
-8.4491	
1.75675	
1.13138	
2.73564	
2.45797	
-5.56189	
-5.82565	
-4.56583	
-4.24214	
-0.382043	
-2.55011	
-0.243445	
-2.42214	
-12.0764	
-9.95319	
-7.99882	
-11.2943	
-11.7801	
-11.912	
-4.10672	
-6.00633	
-10.7951	
-7.2367	
-7.2353	
-8.06638	
-8.11826	
-8.37229	
-6.91767	
-8.4188	
-6.99893	
5.07377	
6.3526	
-7.05711	
-6.23097	
-4.80855	
-2.62823	
-4.62704	
-5.27055	
-5.05747	
-3.20337	
-7.1494	
5.13222	
6.34631	
2.09486	
1.37653	
-11.9335	
-12.2028	
6.54199	
6.44017	
-9.56312	
-9.05617	
-10.2544	
0.0602309	
1.48932	
0.420342	
5.62049	
5.82064	
6.26735	
6.44708	
6.43278	
6.47293	
6.46143	
6.1148	
-11.0886	
-12.2797	
-12.2451	
2.97372	
1.89898	
2.59643	
0.917441	
-1.9911	
-0.936018	
-11.7461	
-11.6082	
-10.6467	
-10.7081	
-9.57955	
-9.40593	
-12.0918	
-12.1396	
-12.1332	
-12.3512	
-10.4862	
-9.40865	
-10.711	
-12.125	
-11.3994	
-12.2035	
0.261838	
0.489895	
-5.01165	
-5.20967	
-4.5029	
-4.5105	
0.853096	
-0.56086	
0.116313	
3.5378	
-10.3039	
-9.63975	
-10.2358	
-9.47355	
-11.8662	
-11.4295	
-11.859	
-11.3701	
-11.5321	
-11.9355	
-11.5926	
-11.9872	
-12.4052	
-12.7143	
-12.4804	
-12.7124	
-2.02011	
-2.64546	
-0.715029	
-1.82361	
-8.38618	
-8.75066	
-7.72471	
-8.19872	
4.48658	
3.41445	
-5.86361	
-7.00007	
-7.25293	
-5.23444	
-5.50135	
-0.811436	
-2.32306	
-1.90153	
-3.15401	
-12.6404	
-12.4457	
-3.41746	
-3.22353	
-1.81306	
-5.70393	
-5.1302	
-4.44841	
-4.15379	
-3.60031	
-3.47018	
-2.20043	
-2.89704	
-4.00902	
-1.78055	
-2.88507	
-1.65545	
-0.626575	
-2.39019	
-1.76304	
-8.40555	
-10.2053	
-9.49298	
-9.93018	
3.13141	
-12.2746	
-0.309682	
0.526214	
-11.9898	
-11.6107	
1.53903	
2.01105	
2.55108	
3.1711	
-4.61872	
-5.68709	
-4.45111	
-6.34476	
-6.58502	
-8.07679	
-6.75762	
-7.74074	
-9.29771	
-10.3063	
-9.5425	
-10.2386	
-5.84089	
-6.75425	
-5.42283	
-6.98272	
-8.46869	
-9.23539	
-8.29237	
-9.43649	
1.70053	
-0.182472	
1.28706	
-12.2256	
-12.3977	
-12.4319	
-12.5386	
-11.7385	
-11.6389	
-11.3617	
-3.79302	
-3.56482	
4.69043	
3.75893	
1.54457	
0.351622	
0.480996	
-0.545722	
1.37908	
0.780164	
3.11434	
2.42575	
-10.5006	
-1.99135	
-2.77642	
-11.5781	
-8.99041	
-7.65042	
-8.74845	
-7.89082	
-11.0822	
-10.1186	
-11.0091	
-10.1169	
-12.2153	
-12.1908	
-7.96993	
-8.65433	
-8.64037	
-9.1081	
-2.24005	
-1.62553	
-1.28591	
-0.651776	
3.2692	
4.13237	
4.0061	
5.1164	
-7.29588	
-7.58937	
-7.83549	
-8.32873	
-10.8739	
-12.636	
-2.74532	
-1.19825	
-6.94162	
-8.8843	
-9.40355	
-8.83761	
1.98368	
2.62541	
3.76211	
1.55804	
2.59727	
-10.255	
-0.590173	
1.43038	
-0.28848	
1.00414	
-12.2018	
-10.4126	
-7.58002	
-6.58055	
-5.83087	
-5.85646	
-6.08774	
-6.33514	
-5.31768	
-5.74076	
-8.01714	
-8.20262	
-7.42485	
-7.29801	
-9.41648	
-9.15257	
-11.0823	
-11.1625	
-10.5132	
-10.558	
-11.6612	
-12.0851	
-11.5687	
-12.1603	
4.6461	
5.00825	
-7.75792	
-7.71623	
-8.9981	
-8.91375	
-11.1553	
-11.2783	
-10.5	
-10.5719	
-12.3813	
-0.280027	
-7.89937	
-7.7658	
-4.08757	
-4.12371	
-5.23078	
-5.32186	
-11.5598	
-11.8915	
-11.6848	
-11.4544	
-10.8169	
-10.5635	
0.142046	
1.4239	
0.161569	
1.33087	
-8.0909	
-2.52466	
-8.38111	
-6.55077	
-3.13358	
-2.29263	
-6.10665	
-5.15309	
-4.87513	
-3.90293	
-11.6721	
-12.0039	
-11.9008	
-12.2041	
-5.86853	
-5.06364	
2.82366	
2.94935	
1.60073	
2.74286	
0.60448	
0.471445	
-12.502	
-12.6451	
2.91767	
1.79096	
4.0665	
-3.7138	
-3.69402	
-1.63306	
-1.57344	
-5.26492	
-5.1482	
-3.36725	
-3.20224	
2.18364	
0.948197	
1.82198	
0.581381	
-12.3956	
-12.6954	
-2.93457	
-1.80927	
-4.18196	
-3.42286	
-3.95902	
-9.75891	
-8.8353	
-11.3837	
-11.0075	
-11.136	
-10.5426	
-5.64853	
-6.64108	
-4.63184	
-4.74463	
-6.48692	
-4.59274	
-4.64171	
-6.26663	
-6.29003	
-6.28693	
-5.99517	
-7.38993	
-7.61323	
-12.6497	
3.33672	
4.55927	
-0.268243	
-1.14637	
0.844635	
-1.02208	
-9.50248	
-9.64038	
-8.58186	
-8.76402	
-6.88098	
-6.00224	
-7.24746	