<VTKFile type="UnstructuredGrid" version="0.1" byte_order="LittleEndian">
	<UnstructuredGrid>
		<Piece NumberOfPoints="1917" NumberOfCells="3602">
			<CellData Scalars="scalars">
				<DataArray type="Float64" Name="Doublet Strengths" NumberOfComponents="1" Format="ascii">
2.40627	
0.575231	
2.1322	
2.10108	
2.0089	
3.66151	
1.64404	
1.65656	
1.57133	
1.56008	
1.70399	
0.581752	
0.28794	
3.36482	
0.808645	
0.284597	
0.548376	
3.38302	
1.15227	
1.99705	
1.83276	
1.75956	
1.77234	
1.08891	
1.22946	
1.17209	
1.67066	
0.901086	
1.79135	
1.76211	
1.70809	
1.91682	
1.71956	
1.6446	
1.87226	
1.78869	
1.89488	
2.09971	
1.93103	
2.00256	
1.92079	
1.98903	
1.78445	
1.88505	
1.8776	
1.87097	
1.78759	
1.88154	
1.75641	
1.18015	
1.20456	
1.74902	
1.82047	
1.68653	
1.71198	
2.26225	
1.75093	
1.72617	
1.66327	
1.76648	
1.23034	
1.75109	
1.81845	
1.7378	
1.84484	
1.83417	
1.87373	
1.80383	
1.75024	
1.76621	
1.68963	
1.7204	
1.68023	
1.76619	
1.73887	
1.84091	
1.34146	
2.47144	
1.20069	
0.819385	
1.76727	
1.7209	
1.85083	
1.07775	
1.79139	
1.89919	
1.75253	
1.9822	
1.79118	
1.80639	
1.76444	
1.66638	
1.61826	
1.57643	
1.65987	
1.61349	
1.90506	
1.90025	
1.44784	
1.59452	
1.75039	
1.65927	
1.80371	
1.77392	
1.69807	
1.71289	
1.7361	
1.73602	
1.82089	
1.74651	
1.8176	
1.88429	
1.81153	
2.10213	
2.04375	
1.75209	
1.78193	
1.75769	
1.83727	
1.78362	
1.73852	
1.74678	
1.72448	
1.70917	
1.72945	
2.1601	
1.86204	
1.92302	
1.82602	
1.69388	
1.3062	
1.86241	
1.8699	
0.873676	
1.91391	
1.98672	
1.76005	
1.74168	
1.6613	
1.6762	
1.6664	
1.73903	
1.70051	
1.694	
1.14272	
0.542685	
0.631912	
0.798768	
2.07498	
2.54936	
2.00911	
1.52026	
1.71707	
0.834998	
0.662463	
2.09284	
1.98222	
2.00974	
1.84649	
0.920038	
2.04195	
2.01155	
1.78909	
1.73484	
1.74774	
3.69738	
3.63542	
1.56243	
1.54177	
1.51153	
1.46562	
1.90664	
2.19846	
1.635	
1.63495	
1.65318	
1.73274	
1.43352	
1.15244	
1.14117	
1.908	
1.8945	
1.83705	
1.69972	
1.67374	
1.37533	
1.8536	
1.0254	
1.25793	
1.10461	
0.823716	
0.901009	
1.00547	
1.20956	
1.26537	
1.3206	
1.37396	
1.16152	
1.20292	
1.35349	
1.47983	
1.78352	
1.83808	
1.78421	
1.03436	
0.965621	
1.07313	
1.01645	
2.19751	
2.60907	
1.93112	
1.87881	
1.94648	
1.69772	
1.63127	
1.05401	
0.911951	
1.86454	
1.82972	
1.91944	
1.88142	
2.02321	
1.93002	
2.03377	
1.95174	
1.43638	
1.47221	
0.774352	
2.0413	
1.9436	
1.79656	
1.72886	
1.76705	
1.72302	
1.73086	
1.86312	
1.87393	
1.93391	
1.85134	
2.01209	
1.956	
2.07127	
2.04568	
1.6928	
1.81623	
1.64455	
1.64693	
1.79758	
1.86303	
1.85011	
1.88829	
1.77315	
1.77989	
1.77336	
2.00717	
1.93847	
1.98842	
1.88492	
0.606259	
0.665463	
1.93261	
1.81191	
1.84758	
1.75495	
1.93899	
1.47034	
1.5141	
1.33891	
1.85157	
1.911	
1.9222	
1.75461	
1.84738	
1.57761	
1.5988	
1.64107	
1.7911	
1.88653	
1.97368	
1.98175	
2.34967	
1.82722	
1.86906	
1.82305	
1.92109	
1.21907	
1.35335	
1.82597	
1.99782	
1.91324	
2.04918	
2.09952	
1.72957	
1.65795	
1.83233	
2.0094	
1.90354	
1.92397	
2.01086	
1.55055	
1.58467	
1.56114	
1.81061	
1.638	
1.96206	
1.65846	
1.41842	
1.04335	
1.78011	
1.94825	
1.96976	
1.86985	
1.91533	
1.78407	
1.88018	
1.85372	
1.91568	
1.75525	
1.4561	
1.56988	
1.94508	
2.0293	
2.02546	
2.03311	
1.65316	
1.61854	
1.67973	
1.69432	
1.67711	
1.87156	
1.78255	
1.74514	
1.81393	
1.82525	
1.86169	
1.90148	
1.59334	
1.6783	
1.62686	
1.67105	
1.74452	
1.79382	
1.71946	
1.79328	
1.76083	
1.75202	
1.72184	
1.70035	
1.72077	
1.67248	
1.86973	
1.89561	
2.04485	
1.81822	
1.86395	
1.53818	
1.67664	
2.2119	
1.81348	
1.83281	
1.80204	
1.96625	
1.82406	
1.67019	
2.03043	
2.00172	
1.9734	
2.07852	
1.64657	
1.65301	
1.66085	
1.68172	
1.72203	
1.67632	
1.72975	
1.70694	
2.06293	
1.93138	
1.96781	
2.04253	
1.83595	
1.84053	
0.955424	
0.676294	
1.9194	
1.92483	
1.88826	
2.23105	
1.77502	
1.73451	
1.72564	
1.72605	
1.67056	
1.64791	
1.69523	
1.64346	
1.76841	
1.72992	
1.8155	
1.73041	
1.64377	
1.63537	
1.64111	
1.64663	
0.497179	
0.4928	
2.00032	
2.09125	
1.84675	
1.87952	
1.89339	
1.88682	
1.54844	
1.74009	
1.62125	
1.65817	
1.67944	
1.86482	
1.87293	
1.71482	
2.04289	
1.5353	
1.50852	
1.73188	
1.71029	
1.85717	
1.72607	
0.753112	
0.966366	
0.824363	
1.85616	
1.80898	
1.85123	
1.81848	
1.88135	
1.99102	
1.96604	
1.43342	
1.31784	
1.26087	
1.59926	
1.59656	
1.68884	
1.63061	
1.58612	
1.35338	
1.60274	
1.43935	
1.80401	
1.78012	
1.84408	
1.82111	
1.75224	
1.73285	
1.75421	
1.72343	
1.80309	
1.94361	
1.86616	
1.96509	
2.18846	
2.08523	
2.09002	
2.01732	
2.06043	
1.94047	
2.03395	
1.99399	
1.83017	
1.80441	
1.78681	
1.95884	
2.01801	
2.13997	
1.92429	
1.98161	
1.79796	
1.59109	
1.64669	
2.0117	
1.96928	
1.96322	
1.9302	
1.93284	
1.93628	
2.02935	
1.87693	
1.86277	
1.90279	
1.92024	
1.22049	
1.1169	
1.2488	
1.17704	
1.92166	
1.79319	
1.08713	
0.919097	
1.69277	
1.67109	
0.806206	
0.669634	
1.7547	
1.77658	
1.82033	
1.81636	
1.89668	
1.95593	
1.89245	
1.98726	
1.81473	
1.81503	
1.91905	
1.7618	
1.84009	
1.91111	
1.89287	
1.81692	
1.79766	
1.93319	
1.84657	
1.92985	
1.91095	
1.90762	
1.87098	
1.95633	
1.89574	
1.91942	
1.92753	
1.89401	
1.89658	
1.62666	
1.3922	
1.41372	
1.37117	
1.33552	
2.2195	
2.08595	
2.00312	
2.02901	
2.02867	
1.95925	
1.81947	
2.01342	
1.9735	
1.80229	
1.99574	
1.7779	
1.80655	
1.76855	
1.85515	
1.71671	
1.72018	
1.51974	
1.53602	
1.59165	
1.86949	
1.9219	
1.79867	
1.67203	
1.69006	
1.81401	
1.82429	
1.81912	
1.63502	
1.623	
1.75528	
1.85706	
1.79167	
1.82795	
1.43137	
1.32812	
1.53521	
1.06209	
1.13318	
1.69494	
1.79966	
1.82688	
1.79011	
1.26086	
1.19499	
1.84356	
1.20175	
1.52155	
1.76754	
1.73727	
1.74206	
1.78182	
1.97239	
1.82289	
1.8458	
1.88925	
1.84245	
1.7423	
0.880982	
0.948636	
1.75006	
1.80745	
1.86356	
1.83924	
1.97558	
1.82413	
1.8559	
1.79386	
1.81014	
1.79026	
1.53518	
1.55071	
1.49972	
1.52388	
1.81452	
1.85234	
1.81322	
1.83989	
1.83698	
1.91313	
1.87159	
1.9334	
1.9294	
1.76207	
1.80815	
1.57923	
1.48282	
1.4066	
1.81824	
1.75573	
1.85871	
1.82862	
1.85883	
1.74353	
1.85837	
1.952	
1.74831	
1.44413	
1.67087	
1.65512	
1.79924	
1.68546	
1.89972	
1.86439	
1.84601	
1.84198	
1.72369	
1.77755	
1.80214	
1.78705	
1.8797	
1.88663	
1.83185	
1.8589	
1.21983	
1.30877	
1.70492	
1.72253	
1.83684	
1.59682	
1.66661	
1.58497	
1.68884	
1.95857	
1.81939	
1.94267	
1.9088	
1.90114	
1.96634	
1.95922	
1.98744	
1.50104	
1.62435	
1.74282	
1.62247	
1.66763	
1.76937	
1.77097	
1.76039	
1.77094	
1.83424	
1.72195	
1.74692	
1.71399	
1.7661	
1.78419	
1.82527	
1.84713	
1.91528	
1.95348	
1.75415	
1.82462	
1.80657	
1.8092	
1.77585	
1.82198	
1.70891	
1.71219	
1.72705	
1.83603	
1.81499	
1.78794	
1.81109	
1.78168	
1.7464	
1.61885	
1.59548	
1.56023	
1.39618	
1.91682	
1.98798	
1.90523	
1.90865	
1.92507	
1.86034	
1.86215	
1.81678	
1.45313	
1.71829	
1.90055	
1.99178	
1.35042	
1.31833	
1.85958	
1.84101	
1.95045	
1.8105	
1.85365	
1.8688	
1.81479	
1.90573	
1.79738	
1.80895	
2.01785	
2.13762	
2.0477	
2.19649	
0.579183	
0.588336	
0.323525	
0.412931	
1.67787	
1.54716	
1.63534	
1.58382	
2.1282	
1.88429	
1.8193	
1.83267	
1.84461	
1.8591	
1.785	
1.80873	
1.3711	
1.23363	
1.36024	
1.31419	
1.97649	
1.84084	
1.8491	
1.8082	
1.71459	
1.71361	
1.72508	
1.70191	
1.76735	
1.77555	
1.76068	
1.81836	
1.80732	
1.803	
1.76553	
0.599227	
1.73293	
1.72245	
1.62315	
1.61619	
1.58152	
0.49294	
0.76171	
1.59351	
1.46533	
1.47009	
1.41111	
1.31653	
1.28113	
1.18934	
1.10167	
1.63085	
0.726168	
1.03533	
0.70391	
1.8159	
1.77329	
1.95297	
1.77404	
1.79141	
1.84804	
1.68282	
1.67358	
1.68081	
1.61812	
1.90916	
1.91657	
2.115	
2.21067	
1.92809	
1.76332	
1.62964	
1.59262	
1.62512	
1.65289	
1.63674	
1.11726	
1.0187	
1.86415	
1.85111	
1.87868	
1.91871	
0.900595	
0.78665	
0.979722	
1.86282	
1.87133	
1.8727	
2.71936	
2.34619	
1.72864	
1.59287	
1.04622	
1.85661	
1.87061	
1.89451	
2.48794	
1.6145	
1.70332	
1.63783	
1.59689	
0.511633	
0.588941	
0.765961	
0.787681	
1.76646	
1.78683	
1.723	
1.82073	
2.03461	
1.99128	
1.31242	
1.26251	
1.89487	
1.73497	
1.68154	
1.6664	
1.71629	
1.75664	
1.82688	
1.77714	
1.85274	
1.80329	
1.86917	
1.6157	
1.95889	
1.65631	
0.871762	
0.798528	
0.685133	
0.638712	
1.69344	
1.61847	
1.67637	
1.60171	
1.30189	
1.30362	
-3.37694	
-5.02189	
-4.22024	
-4.18026	
-4.50307	
-2.43634	
1.41162	
3.0587	
1.13219	
1.57374	
-0.960572	
-1.33189	
1.37321	
-1.18743	
-1.38892	
-1.81786	
-1.45146	
-3.57035	
-3.79935	
-3.75943	
-3.06262	
-1.62837	
-3.67272	
-0.580462	
0.0246085	
-0.294041	
-1.96328	
-3.02255	
-2.7511	
-2.27003	
-1.46234	
-1.69831	
-3.66022	
-4.3573	
-3.63147	
-3.36613	
-3.45422	
-3.15026	
-0.657054	
-4.21006	
-2.14062	
0.217012	
0.540822	
-2.83392	
-3.15689	
0.761168	
1.33708	
-3.20061	
-1.52326	
0.435249	
-1.02903	
-2.42961	
-3.53541	
-1.94978	
-2.80674	
-4.04269	
-4.25971	
-3.75779	
-0.929645	
-0.256305	
-1.6613	
-1.54852	
-3.7543	
-2.31175	
-2.76197	
-1.4991	
-1.91588	
-1.3191	
-1.74786	
-0.340504	
-1.91964	
-1.24513	
-2.16511	
-1.66887	
-3.49883	
-3.59361	
-0.349741	
-3.2871	
-2.37215	
-1.50451	
-0.857473	
-1.35111	
-2.62546	
-3.4728	
-3.66842	
-3.68675	
-3.18015	
-1.81688	
-3.24056	
-3.37467	
-3.27825	
-0.898283	
-1.40179	
-3.48068	
-3.62471	
0.628781	
-0.0398343	
0.703135	
0.591217	
-3.55214	
-3.95389	
-3.22057	
-3.76255	
0.144778	
-1.1692	
0.155717	
0.574078	
-1.16593	
-1.19755	
-1.32513	
-1.40562	
-3.47164	
-3.55745	
-3.6751	
-3.25983	
1.01948	
-3.00321	
-1.71186	
1.24928	
-0.251823	
0.516423	
-2.66533	
-3.84105	
-1.11904	
1.80365	
2.00569	
0.725307	
0.19651	
-0.355329	
0.375892	
-0.366885	
-0.444334	
-3.02496	
-3.28758	
-3.54553	
-2.19741	
-2.26152	
-1.84895	
-2.34086	
-2.33034	
-0.564912	
0.49493	
-3.34418	
-3.23101	
-3.59477	
-3.13685	
0.203437	
0.459399	
0.766303	
0.699045	
-1.91486	
-2.50627	
-2.29905	
-2.57436	
-0.77403	
-1.26442	
-0.381764	
-0.913155	
-3.21174	
-2.90029	
-3.63543	
-3.82517	
-3.60622	
-3.85071	
-1.98768	
-3.74035	
-3.48356	
-3.64046	
-3.50908	
-3.42112	
-3.16811	
-3.43591	
-3.11841	
-2.99776	
-2.78044	
0.874622	
1.20397	
1.19612	
-2.07592	
-2.10692	
-1.85811	
-2.17877	
-2.03657	
-1.39655	
-1.92063	
-2.03721	
-2.75828	
1.68249	
1.8476	
2.22041	
0.308068	
0.0792576	
-3.77219	
-4.0269	
1.6982	
2.59828	
-3.22212	
-2.93954	
-3.01948	
-0.125341	
-0.0353085	
0.276089	
1.53818	
1.4492	
0.994953	
1.14564	
1.41317	
1.17205	
1.07416	
0.904022	
-3.35796	
-4.59128	
-4.50664	
0.384567	
0.199001	
1.06857	
0.588068	
-1.2071	
-0.423934	
-3.82454	
-3.56564	
-3.03246	
-3.52607	
-3.25654	
-3.50648	
-3.47387	
-3.41331	
-3.43473	
-3.67894	
-3.96805	
-3.72879	
-3.59626	
-3.83056	
-3.71274	
-3.66812	
0.454939	
0.138922	
-1.99416	
-1.48094	
-2.06009	
-1.94092	
-0.0500798	
-0.563496	
0.664308	
0.089518	
-3.6298	
-3.5287	
-3.45926	
-3.58552	
-3.62467	
-3.81744	
-3.72876	
-3.72986	
-3.56511	
-3.56314	
-3.52491	
-3.57809	
-4.36459	
-3.92254	
-4.18169	
-4.00896	
-0.468795	
-0.868183	
-0.516461	
-1.10734	
-2.4127	
-2.20182	
-2.47012	
-2.62584	
1.34965	
2.10174	
-1.57905	
-1.45885	
-1.81027	
-1.59154	
-1.78404	
-1.5362	
-1.59042	
-0.662934	
-4.80205	
-4.41358	
-1.41732	
-0.943291	
-1.3683	
-2.71552	
-2.082	
-1.70822	
-1.44283	
-1.94404	
-2.08963	
-1.5357	
-0.852491	
-1.02012	
-1.42267	
-1.07919	
-1.99428	
-3.91076	
-3.7009	
-0.959953	
-0.74171	
-0.639602	
-0.172093	
-1.89117	
-2.97832	
-3.18995	
-2.93046	
1.17216	
-3.82606	
0.410269	
-0.0854526	
-4.35843	
-5.00789	
0.569959	
0.713865	
1.52518	
1.72306	
-2.09897	
-2.59474	
-2.21335	
-2.63154	
-3.34473	
-3.1111	
-3.70109	
-3.18507	
-3.32605	
-3.52861	
-3.71302	
-3.90721	
-3.21736	
-2.45184	
-3.34159	
-3.00957	
-3.23172	
-3.69353	
-3.26284	
-3.71173	
-0.395424	
0.243207	
-4.11811	
-3.84356	
-4.06715	
-4.23859	
-3.57089	
-3.1506	
-3.4511	
-1.26242	
-1.25972	
1.20834	
1.83112	
0.163615	
0.855684	
-0.241897	
0.366838	
0.940526	
0.23102	
0.817447	
0.231364	
-2.75079	
-1.01877	
-0.928739	
-3.70849	
-2.69553	
-2.878	
-2.65324	
-2.85639	
-3.4645	
-3.70787	
-3.33938	
-3.88202	
-3.66635	
-3.46389	
-2.67807	
-2.62846	
-2.53696	
-2.68298	
-2.72271	
-0.796619	
-0.603884	
-1.11772	
-0.892513	
0.900643	
0.611925	
1.27629	
1.13352	
-2.94847	
-3.59995	
-1.86476	
-1.95054	
-2.07854	
-2.31615	
-3.57714	
-1.04091	
-0.607406	
-2.24619	
-2.67485	
-2.5246	
-2.3016	
0.361197	
1.34614	
1.31534	
1.12196	
0.791539	
-2.77103	
-0.382335	
0.137388	
-0.499083	
-0.097346	
-4.32903	
-3.1921	
-2.19109	
-1.89998	
-1.76196	
-2.02007	
-1.93115	
-2.01156	
-1.94663	
-2.21719	
-2.46668	
-2.36418	
-2.48466	
-2.51506	
-2.55476	
-4.05517	
-3.9576	
-3.6207	
-3.68751	
-3.84281	
-3.65313	
-3.50775	
-3.50417	
0.908358	
0.676204	
-0.659494	
-3.56269	
-3.73579	
-3.22946	
-3.57944	
-3.64213	
-3.74624	
-3.44756	
-3.99799	
-4.12337	
-0.175914	
-1.71316	
-1.82828	
-1.67231	
-1.66459	
-2.24799	
-2.54005	
-4.14559	
-4.67039	
-3.95283	
-3.60646	
-3.73227	
-3.68059	
0.586556	
-0.151134	
0.978603	
0.0858376	
-2.81564	
-0.946668	
-2.38354	
-2.99951	
-1.1931	
-1.48798	
-2.2636	
-2.88006	
-1.97564	
-2.45036	
-4.26975	
-4.69332	
-4.13977	
-4.1124	
-1.53747	
-1.47745	
0.579809	
0.388556	
0.362333	
0.126182	
0.302181	
0.0545765	
-0.00623879	
-4.29228	
-4.74817	
0.415519	
0.417018	
0.778606	
-1.86028	
-1.37703	
-1.34058	
-0.947636	
-1.9846	
-2.05388	
-1.69358	
-1.63334	
0.132744	
-0.244362	
0.174466	
-0.151053	
-4.89947	
-4.84161	
-4.21612	
-0.989028	
-1.54584	
-1.58439	
-1.22934	
-2.97045	
-3.04274	
-3.64579	
-3.77272	
-3.50236	
-3.59955	
-1.75371	
-1.50925	
-1.43555	
-1.80988	
-1.71824	
-1.97384	
-2.39101	
-2.56402	
-2.91353	
-2.25943	
-2.23832	
-2.75648	
-2.59583	
-3.51461	
0.800852	
0.498963	
0.0461649	
-0.426124	
-0.20262	
-0.532541	
-2.00219	
-2.40177	
-2.0201	
-2.4274	
-2.73871	
-2.04714	
-2.96513	
-2.35962	
-2.65254	
-3.41927	
-3.6218	
1.32296	
0.886853	
0.719457	
-3.19001	
-3.30131	
-3.247	
-3.22447	
-3.79894	
-3.52737	
-3.27483	
-3.35455	
0.146987	
-0.112731	
0.463736	
0.52471	
-0.871629	
-0.913766	
-0.253251	
-0.483176	
1.43545	
1.31698	
2.46413	
0.289339	
0.97384	
1.69507	
-2.444	
-2.62783	
-2.89044	
-2.84861	
-3.15471	
-3.28253	
-3.79972	
-3.4194	
-3.5344	
-3.30808	
-4.49007	
-4.25913	
-1.19411	
-1.10846	
-1.47578	
-1.67737	
-1.83483	
-1.82237	
-2.12236	
-2.16667	
-1.88366	
-1.83411	
-2.10712	
-2.28342	
-3.51254	
-3.65508	
-3.67142	
-3.83903	
-3.75613	
-3.50893	
0.847448	
1.22007	
-3.03486	
-3.27627	
-3.24342	
-3.8309	
-3.65357	
-4.27385	
-4.58566	
-3.76571	
-3.63633	
1.16833	
-3.02184	
-2.89426	
-2.88594	
-3.49135	
-3.46678	
-3.90199	
-3.48567	
3.47577	
-3.15347	
-3.33987	
-2.97653	
-2.98077	
0.819127	
0.763573	
1.27494	
1.11792	
1.07389	
0.808492	
2.06648	
-3.2851	
-3.36482	
-3.81941	
-4.2222	
-4.19836	
1.34702	
-3.57432	
-3.75499	
-3.38089	
-3.38609	
0.912715	
0.727269	
-3.32651	
1.18151	
1.1307	
-2.48989	
-2.52344	
-2.32473	
-2.40858	
-2.53602	
-2.78034	
-3.4249	
-3.7274	
-3.20823	
-3.76567	
-2.28067	
-2.09007	
-1.9522	
-3.76074	
-3.32522	
-3.60484	
-3.6169	
-2.9426	
-2.73571	
-2.44158	
-2.2475	
-2.99094	
-2.75107	
-2.78292	
-2.93866	
1.31923	
1.09711	
1.36411	
-2.88033	
0.721906	
0.591197	
0.571705	
0.741868	
0.758332	
-3.47696	
-3.56063	
-3.63144	
0.122297	
0.286853	
-0.00373894	
0.221436	
-3.5497	
-3.33713	
-3.39117	
-3.48818	
-3.60713	
-4.03706	
-3.75164	
-4.00338	
-3.79951	
1.44461	
1.44323	
0.951912	
-4.48463	
-4.07408	
-4.64485	
-4.02176	
-2.54397	
0.468697	
-3.30179	
-3.26777	
2.14168	
1.66478	
1.63724	
1.15393	
-3.10275	
-2.88598	
-2.67431	
-1.08563	
-1.06867	
-0.588755	
-3.12078	
-3.05126	
-4.38035	
-3.61956	
-3.67587	
-3.7099	
-4.08258	
-0.106821	
-0.707888	
1.63104	
1.47367	
1.35159	
1.28782	
1.53187	
0.954622	
0.877792	
0.775236	
0.556412	
-3.75533	
-3.58995	
-3.5764	
-3.45247	
-3.22058	
-3.14276	
-3.8329	
-3.96766	
-4.06106	
0.318487	
0.170525	
-0.342344	
-3.72083	
-3.94845	
-2.65358	
-2.62476	
-3.11991	
-3.01954	
-3.53727	
-3.36102	
-2.72001	
-2.69213	
-2.42903	
-2.96553	
-2.99442	
-3.1991	
-3.16896	
-2.95601	
-2.85376	
-3.04325	
-2.72821	
1.17481	
0.624552	
-2.7601	
-2.95247	
-2.94287	
-3.49532	
-1.392	
-1.58142	
-2.46436	
-2.52077	
-3.20676	
-3.29489	
-3.22046	
-3.38016	
-1.78975	
-1.94345	
-3.80556	
-3.88997	
-3.73127	
-3.67147	
-3.37942	
-3.36367	
-3.31308	
-3.3518	
-2.50627	
-2.83444	
-2.24259	
-2.24414	
-3.40491	
-3.9638	
-3.91188	
-3.18723	
-3.6236	
-3.32482	
-0.175727	
-0.643208	
-0.759159	
0.991901	
0.730604	
-3.17421	
-3.29007	
-3.31183	
-0.793349	
-0.723844	
-0.5473	
-3.00149	
-2.82311	
-3.00603	
-2.69743	
-0.845111	
-0.689265	
-1.05662	
-1.26894	
-1.6037	
-3.31485	
-3.16116	
1.34432	
1.76879	
2.08902	
1.57755	
-0.369163	
-0.506886	
0.873999	
1.03043	
0.784079	
1.08423	
-3.77673	
-3.98256	
-3.6077	
-3.81282	
-1.43075	
-1.18144	
-0.590528	
2.35191	
3.38771	
-3.98755	
-4.01381	
-4.29505	
-4.61118	
-0.529552	
-0.341062	
-1.09462	
-0.677236	
1.17607	
0.932243	
0.874226	
0.587339	
0.633111	
-0.423827	
-0.786059	
-0.00549488	
-0.626157	
0.826641	
0.752136	
-2.91937	
-3.59772	
-2.88574	
-3.211	
-1.01775	
-1.43019	
-1.35971	
-1.66698	
2.26202	
2.00001	
-3.55052	
-3.33913	
0.865343	
0.824146	
1.37683	
1.29026	
0.990437	
0.635387	
0.0712836	
-0.135881	
-0.239798	
-0.203874	
-0.0856239	
-0.0491226	
-0.140666	
0.0889419	
0.142798	
0.314315	
0.456443	
0.387818	
0.224183	
0.017362	
-0.281033	
-0.25533	
-0.177985	
-0.215576	
-0.114888	
0.463434	
-0.0300637	
0.39156	
0.194456	
0.297535	
0.0915956	
-0.297802	
0.40906	
0.291509	
0.0555785	
-0.101868	
0.138697	
-0.326163	
-0.381345	
-0.509326	
-0.501938	
-0.538864	
-0.489194	
-0.227879	
0.359863	
0.232211	
-0.320715	
-0.0815362	
-0.186471	
0.0518942	
-0.377163	
-0.456193	
-0.423866	
-0.426932	
-0.41214	
-0.386071	
0.438875	
2.19864	
0.283641	
2.13711	
2.10698	
2.03487	
2.44625	
1.57283	
1.47916	
1.54097	
1.59338	
1.74557	
0.477771	
0.287424	
2.09401	
0.801135	
0.236545	
0.530569	
2.28239	
3.34736	
1.13741	
1.4513	
1.90288	
1.9879	
1.83925	
1.90462	
1.4671	
1.81749	
1.82083	
1.003	
1.09541	
1.12182	
1.59521	
0.792019	
1.76863	
1.87382	
1.85615	
1.94793	
1.7116	
1.57464	
1.85394	
1.89186	
1.97248	
1.97391	
2.02458	
1.92161	
1.811	
1.86537	
1.91762	
1.86134	
1.84373	
1.83893	
1.89838	
1.81624	
1.11646	
1.11098	
1.76162	
1.75993	
1.91786	
1.88985	
2.11426	
1.81379	
1.89254	
1.71728	
1.81624	
1.19055	
1.73947	
1.94576	
1.83491	
1.92306	
1.8855	
1.9234	
1.79335	
1.76389	
1.89448	
1.83285	
1.79699	
1.91308	
1.83071	
1.81301	
1.65748	
1.64299	
1.86959	
1.34564	
2.0061	
1.52016	
0.793129	
1.94609	
1.84968	
1.02944	
1.92357	
1.78957	
1.83218	
2.01037	
1.85301	
1.89811	
1.82511	
1.79656	
1.5414	
1.53999	
1.54816	
1.95967	
1.86355	
1.5699	
1.78818	
1.91337	
1.93464	
1.55951	
1.40169	
1.52164	
1.52078	
1.6836	
1.6979	
1.65782	
1.63196	
1.68138	
1.77411	
1.82083	
1.73708	
1.81822	
1.92694	
1.83392	
1.78443	
2.08995	
1.80476	
1.80402	
1.83524	
1.79122	
1.84947	
1.75403	
1.78127	
1.79311	
1.79949	
1.88539	
1.92249	
1.96173	
1.97081	
1.37002	
1.41939	
1.8908	
1.78153	
0.836009	
1.92601	
1.99446	
0.572261	
1.79428	
1.5942	
1.63384	
1.62663	
1.65366	
1.77398	
1.68921	
1.72636	
1.08927	
0.55942	
0.489675	
0.711882	
2.571	
1.75179	
1.54546	
0.743268	
2.10024	
2.01235	
1.95163	
1.78493	
1.89171	
2.15016	
1.88722	
1.77827	
1.93366	
1.78745	
3.27688	
3.46655	
1.4929	
1.36258	
1.56394	
1.59266	
1.9546	
2.25006	
1.51755	
1.5825	
1.42769	
1.11301	
1.07418	
1.89859	
1.97777	
1.88844	
1.65207	
1.66905	
1.29171	
1.84189	
0.967419	
0.913145	
0.998579	
1.09943	
1.1112	
1.2834	
1.2316	
1.12103	
1.17301	
1.25309	
1.29602	
1.89379	
1.86767	
1.84289	
1.01269	
0.762715	
0.96636	
0.829588	
2.13399	
1.90431	
1.87007	
1.60183	
1.63061	
1.86615	
1.89754	
1.9214	
2.11427	
1.95832	
2.04982	
1.97849	
2.06892	
1.41621	
1.69099	
1.45337	
1.86666	
1.86031	
0.763661	
0.63515	
2.04881	
1.95363	
1.86753	
1.91005	
1.89293	
1.97685	
1.68459	
1.93966	
1.85075	
1.87011	
1.87819	
2.09251	
2.05596	
2.10289	
1.97473	
1.61869	
1.61868	
1.64775	
1.88109	
1.85701	
1.85188	
1.92982	
1.85598	
1.84301	
2.04687	
2.01223	
1.88483	
1.78856	
1.9389	
1.83477	
1.80203	
1.95542	
1.77693	
1.55092	
1.43477	
1.30733	
1.89362	
1.97432	
1.95787	
1.66231	
1.74245	
1.85196	
1.56905	
1.4972	
1.62946	
2.14135	
1.98427	
2.33516	
1.85621	
1.97617	
1.90045	
1.80797	
1.81327	
1.89296	
1.1724	
1.35243	
2.03934	
1.95479	
1.87001	
2.10532	
2.07018	
1.78855	
1.71173	
1.63264	
1.82283	
1.85715	
2.00609	
1.93403	
1.93151	
1.47501	
1.41809	
1.48513	
1.58768	
1.60282	
1.59745	
1.63378	
1.395	
0.999863	
1.80738	
1.92001	
1.89806	
1.92532	
1.90025	
1.84103	
1.92736	
1.89359	
1.71831	
1.73915	
1.50839	
1.39661	
2.05047	
2.06314	
1.96818	
1.986	
1.63315	
1.58631	
2.00907	
1.84561	
1.89092	
1.82189	
1.78109	
1.80155	
1.77439	
1.84373	
1.82982	
1.55766	
1.55775	
1.73551	
1.59669	
1.81788	
1.83994	
1.815	
1.84648	
1.79819	
1.84299	
1.82177	
1.71172	
1.65346	
1.67339	
1.65106	
1.74292	
1.75479	
1.67712	
1.80465	
1.89856	
1.51988	
1.7738	
2.17557	
2.00017	
1.85763	
1.86888	
1.84512	
1.72225	
2.17721	
2.00915	
1.9512	
1.97031	
2.0303	
1.63233	
1.62453	
1.66825	
1.64438	
1.66309	
1.68568	
1.66756	
1.6645	
2.10109	
2.04438	
2.07221	
2.01671	
1.55337	
0.90464	
0.636112	
2.10839	
2.20565	
1.90283	
1.94745	
1.99151	
1.98528	
1.97729	
1.97754	
1.66461	
1.72483	
1.64033	
1.84528	
1.87678	
1.96056	
1.96729	
1.54682	
1.58017	
1.56512	
1.61344	
0.409557	
0.388564	
2.09631	
2.00614	
1.92456	
1.91638	
1.83124	
1.91564	
1.69039	
1.57568	
1.68161	
1.57633	
1.59008	
1.59846	
1.69069	
1.56288	
1.59771	
1.52064	
1.5804	
1.7133	
2.05614	
1.70485	
1.74291	
0.734884	
0.799586	
0.935733	
1.80178	
1.85164	
1.81632	
1.85308	
1.98649	
1.9687	
1.99138	
1.06963	
1.6445	
1.57259	
1.63995	
1.54226	
1.4191	
1.26986	
1.50051	
1.40053	
1.82468	
1.84574	
1.86729	
1.88231	
1.96569	
1.818	
1.86091	
1.81441	
1.88461	
1.85931	
1.99416	
1.91423	
2.02817	
2.20142	
2.15669	
2.10245	
2.05738	
2.0834	
1.94509	
2.05557	
1.81862	
1.78222	
2.19921	
1.98901	
1.90197	
1.86216	
1.93925	
2.00069	
2.02909	
2.02835	
1.81687	
2.11014	
1.91791	
2.02131	
1.94585	
1.91243	
1.94725	
2.04689	
1.95664	
1.87863	
1.87738	
1.93949	
1.91885	
1.93188	
1.89302	
1.22301	
1.14067	
1.1899	
1.10354	
1.79386	
1.91487	
1.80876	
0.906229	
1.06989	
2.04389	
1.86975	
0.748647	
0.620728	
1.72438	
1.721	
1.82558	
1.79	
1.96585	
1.9302	
1.96189	
1.8303	
1.79516	
1.82886	
1.85731	
1.8213	
1.8206	
1.9009	
1.74829	
1.78985	
1.78102	
1.92884	
1.90952	
1.93125	
1.84342	
1.96819	
1.90633	
1.91289	
1.86709	
1.91479	
1.97946	
1.94356	
1.9486	
1.92741	
1.31738	
1.26752	
1.36194	
1.19841	
2.06621	
2.12049	
2.06417	
2.0301	
2.05964	
2.0563	
1.86193	
2.02675	
2.00696	
2.04685	
2.01066	
1.83463	
1.85385	
1.838	
1.90679	
1.46407	
1.4614	
1.53884	
1.83011	
1.90697	
1.94851	
1.62408	
1.62117	
2.04872	
1.803	
1.79481	
1.58487	
1.64317	
1.86632	
1.87797	
1.78626	
1.45164	
1.33704	
1.21328	
1.76431	
1.71328	
1.79329	
1.11389	
1.01279	
1.94836	
1.73775	
1.0164	
1.02321	
2.31862	
2.27192	
1.85031	
1.80539	
1.83342	
1.86246	
1.81671	
1.7904	
1.86865	
0.688639	
1.69711	
1.81157	
1.85272	
1.76292	
1.82705	
1.79138	
1.82335	
1.92394	
1.86727	
1.84623	
1.43574	
1.47447	
1.41057	
1.48826	
1.85736	
1.88061	
1.856	
1.88794	
1.8832	
1.75005	
1.83724	
1.91176	
1.90303	
2.37234	
2.79303	
1.85556	
1.45194	
1.56352	
1.97958	
1.85943	
1.86519	
1.43562	
1.7007	
1.78249	
1.88132	
1.9111	
1.81792	
1.86498	
1.86269	
1.87745	
1.84957	
1.88776	
1.85575	
1.88714	
1.91292	
1.91122	
1.29674	
1.19605	
1.68556	
1.67126	
1.86341	
1.81344	
1.79125	
1.78412	
1.84265	
2.14841	
2.01089	
1.62733	
1.55335	
1.64676	
1.59028	
1.92505	
1.89973	
1.95725	
1.87677	
1.96814	
1.91198	
1.99231	
1.96778	
1.65241	
1.58528	
1.63282	
1.58902	
1.65892	
1.75777	
1.70459	
1.86838	
1.71762	
1.87931	
1.90203	
1.97762	
2.01908	
1.7955	
1.75067	
1.78665	
1.78468	
1.85767	
1.83156	
1.80874	
1.82743	
1.804	
1.78047	
1.84041	
1.87732	
1.75219	
1.74892	
1.76349	
1.60081	
1.62686	
1.40874	
1.57615	
1.89482	
1.86065	
1.86888	
1.91882	
1.9256	
1.93824	
1.78762	
1.81832	
1.83548	
1.86806	
2.01028	
1.90679	
1.86519	
1.92342	
1.84146	
1.30714	
1.33643	
1.93067	
1.79386	
1.85164	
1.8271	
1.86847	
1.87867	
1.85444	
1.8473	
1.84527	
1.8311	
2.14263	
2.02681	
2.40045	
2.05448	
0.545169	
0.55389	
0.372306	
0.249459	
1.53279	
1.63002	
1.53108	
1.53672	
1.86618	
1.87142	
1.81904	
1.80521	
1.88798	
1.87456	
1.83514	
1.82458	
1.27749	
1.2241	
1.28718	
1.17666	
1.83647	
1.97196	
1.8004	
1.82838	
1.77503	
1.6798	
1.82441	
1.71101	
1.80361	
1.8223	
1.87955	
2.01645	
1.89884	
1.89376	
1.89229	
1.89889	
1.97997	
2.00209	
0.742159	
1.76174	
1.76688	
1.74155	
1.67956	
1.68217	
1.81601	
2.03203	
1.57027	
1.73385	
1.62883	
1.81182	
0.813436	
0.973859	
0.927327	
0.630579	
0.511316	
0.459474	
1.62655	
1.79991	
1.84107	
0.854599	
0.779446	
1.22135	
0.476208	
0.649166	
0.993674	
0.689678	
0.672433	
1.74659	
1.76971	
1.69353	
1.85232	
1.90049	
1.8248	
1.83013	
2.11427	
1.64931	
1.51652	
1.52381	
1.75579	
1.69944	
1.76255	
1.7446	
1.84919	
1.87574	
1.86007	
1.9003	
0.756036	
0.865065	
1.7918	
1.80885	
1.86055	
2.05505	
2.2355	
1.66264	
1.78842	
1.27577	
0.82414	
0.952473	
0.992344	
0.79693	
0.934777	
1.9136	
1.89388	
1.74091	
1.99557	
1.70466	
1.60825	
0.860674	
0.937309	
1.89078	
1.78532	
1.87365	
1.79582	
0.837313	
0.93169	
0.703302	
0.84934	
0.434796	
0.602979	
0.64494	
1.70108	
2.14098	
1.69851	
1.79965	
1.86843	
1.84598	
1.80135	
1.76238	
1.19073	
1.12541	
1.31243	
1.18516	
1.75763	
1.9312	
1.69095	
1.70403	
0.297122	
0.597903	
0.472574	
1.30878	
1.26596	
1.50848	
1.29242	
1.57321	
1.54355	
1.64516	
1.56832	
0.546511	
0.382352	
0.542196	
0.38098	
1.34118	
1.26706	
1.42379	
-3.52372	
-5.02447	
-4.22867	
-4.37664	
-4.94137	
1.45425	
3.04466	
1.14529	
1.31672	
-1.06954	
-1.51998	
1.34756	
-1.23425	
-1.4436	
-1.87803	
-1.52928	
-3.65009	
-3.74564	
-2.90518	
-1.6395	
-3.80027	
-3.66138	
-0.49059	
0.0676265	
-0.237756	
-2.13778	
-3.25365	
-2.7884	
-2.28362	
-1.6799	
-1.62095	
-3.66378	
-3.70544	
-3.6019	
-3.54535	
-3.42623	
-3.98609	
-0.643514	
-4.2568	
-2.11226	
0.262601	
0.600139	
-2.81174	
-3.12001	
0.89931	
1.84046	
-3.00169	
-1.51907	
0.448218	
-1.0329	
-2.44979	
-2.92359	
-2.51516	
-2.79086	
-4.08009	
-4.37454	
-4.12669	
-0.903005	
-0.268815	
-1.59964	
-1.6354	
-3.84296	
-2.89464	
-2.3094	
-1.57673	
-1.83396	
-1.46264	
-1.82163	
-0.747528	
-2.11614	
-1.62207	
-2.32897	
-1.37039	
-3.07016	
-3.37913	
-0.324766	
-2.18848	
-2.65399	
-1.42283	
-1.25054	
-0.769992	
-3.23975	
-4.48231	
-3.73708	
-3.07094	
-1.76657	
-3.09051	
-3.13505	
-3.15636	
-0.870877	
-1.36029	
-3.46219	
-3.6382	
0.776872	
0.0829767	
0.743307	
0.575461	
-3.47897	
-3.76778	
-3.53452	
-3.97972	
0.122353	
0.204429	
0.604812	
-1.57272	
-1.4412	
-1.30551	
-1.23805	
-3.23988	
-3.75825	
-3.50981	
-3.638	
1.05047	
-2.96638	
-1.7876	
1.25028	
-0.231231	
0.527747	
-2.48735	
-3.90126	
-1.71734	
2.12164	
1.37888	
0.790004	
0.221736	
0.39962	
0.108193	
-0.343618	
-0.413349	
-3.31821	
-2.74605	
-2.94583	
-2.71008	
-2.34407	
-1.90726	
-2.40785	
-2.07071	
-0.540644	
0.523007	
-3.38746	
-3.17551	
-3.43313	
-3.24861	
0.466654	
0.473285	
0.720984	
0.795159	
-2.31341	
-2.59234	
-1.92	
-1.95336	
-0.361604	
-1.31413	
-0.319101	
-1.23401	
-4.28502	
-3.10655	
-2.71075	
-3.83801	
-4.06869	
-4.10841	
-1.98509	
-2.69052	
-3.42233	
-3.18751	
-2.61708	
-3.51992	
-3.23517	
-2.94676	
-2.70543	
-3.15998	
-3.05314	
1.171	
1.25302	
-2.16886	
-2.02519	
-2.16298	
-1.3603	
-2.02753	
-2.32718	
-2.03882	
-1.37909	
-2.91861	
1.85926	
2.18038	
0.34157	
0.11421	
-4.26176	
-4.48396	
2.62859	
1.73171	
-3.13818	
-2.67236	
-3.16673	
-0.201266	
0.26848	
-0.0612668	
1.47612	
1.58745	
0.980151	
1.07709	
1.66444	
1.08302	
1.18438	
0.912719	
-3.29163	
-4.72165	
-4.67557	
1.16008	
0.657784	
0.907969	
0.263152	
-0.989792	
-0.570944	
-3.53216	
-3.79218	
-3.47753	
-3.54266	
-3.03385	
-3.03872	
-3.52097	
-3.3949	
-3.44151	
-3.70702	
-3.75654	
-3.97495	
-3.65631	
-3.75912	
-3.76275	
-3.68225	
0.0699701	
0.172869	
-1.9569	
-2.03638	
-1.58588	
-2.0103	
-0.0316097	
-0.550849	
-0.340211	
0.684202	
-3.60054	
-3.676	
-3.69235	
-3.5495	
-3.77767	
-3.77212	
-4.09243	
-4.37887	
-3.58076	
-3.60705	
-3.60555	
-3.58724	
-3.9442	
-4.19494	
-3.84311	
-4.21878	
-0.830123	
-1.07449	
-0.426248	
-0.835199	
-2.4133	
-2.5086	
-2.69071	
-2.59228	
2.13831	
1.76757	
-1.393	
-1.66333	
-1.89678	
-1.84195	
-1.64888	
-0.64987	
-1.08409	
-1.07025	
-1.58725	
-4.47632	
-4.897	
-1.37811	
-1.32499	
-0.911382	
-2.00504	
-1.91621	
-1.82972	
-1.67513	
-1.41451	
-1.20541	
-0.782184	
-1.53163	
-1.97371	
-1.01032	
-1.41528	
-0.534643	
-0.175295	
-0.811281	
-0.676069	
-2.08455	
-2.84945	
-2.91299	
-2.62127	
1.21227	
-3.70257	
-0.0147989	
0.474813	
-5.1748	
-5.14157	
0.770494	
1.03375	
1.40227	
1.57244	
-2.17859	
-2.59683	
-2.00943	
-2.3115	
-3.13875	
-3.65515	
-3.21139	
-3.29831	
-3.65367	
-3.73034	
-4.01452	
-4.21105	
-2.3801	
-3.05645	
-2.46443	
-3.22711	
-3.454	
-3.07566	
-3.61283	
-3.1389	
0.377584	
-0.38176	
0.258663	
-4.2961	
-4.30932	
-4.09903	
-4.6086	
-3.26028	
-3.42947	
-3.80657	
-1.35543	
-1.33534	
1.88444	
1.40304	
0.846488	
0.218541	
0.431591	
-0.097606	
0.454701	
0.293171	
1.04758	
0.606348	
-2.58766	
-0.851567	
-1.22977	
-3.6922	
-2.86823	
-2.52201	
-2.83174	
-2.62708	
-3.71068	
-3.25468	
-3.72915	
-3.3198	
-3.45626	
-3.66291	
-3.12015	
-2.52771	
-2.89944	
-2.89984	
-1.08229	
-0.861259	
-0.768568	
-0.578486	
0.639685	
0.927335	
0.910019	
1.30791	
-2.02273	
-1.94782	
-2.27732	
-2.19267	
-2.6651	
-3.82095	
-1.35912	
-0.633278	
-2.27477	
-2.75899	
-2.54946	
-2.26273	
0.35109	
1.37055	
1.26775	
0.913408	
1.17238	
-2.77575	
-0.482743	
0.0695421	
-0.367691	
0.140847	
-4.40034	
-3.01663	
-3.01561	
-2.24388	
-1.98605	
-1.93432	
-1.99819	
-2.09084	
-2.13427	
-2.08857	
-2.42452	
-2.58722	
-2.28322	
-2.3228	
-2.74369	
-2.64177	
-4.14729	
-3.98535	
-3.92087	
-4.12688	
-3.50629	
-3.54113	
-3.57002	
-3.86073	
0.688105	
0.921732	
-3.35813	
-3.47683	
-3.47426	
-3.6018	
-3.75764	
-3.97419	
-3.59452	
-3.85415	
-4.29579	
-0.28857	
-1.93695	
-1.83918	
-1.53308	
-1.48211	
-2.32582	
-2.05073	
-4.95187	
-4.94941	
-3.85917	
-3.69175	
-3.96915	
-3.79176	
0.0549374	
0.646644	
0.149508	
0.627378	
-2.84277	
-1.57796	
-2.88636	
-2.54075	
-1.47848	
-1.18029	
-2.7731	
-2.26564	
-2.45727	
-1.99404	
-4.24686	
-4.7062	
-4.4851	
-4.77741	
-1.53853	
-1.59296	
0.402837	
0.51514	
0.152178	
0.315478	
0.0108216	
-0.0811933	
-4.78617	
-4.32926	
0.429553	
0.43034	
0.78825	
-1.83849	
-1.83358	
-0.929219	
-0.891428	
-2.03845	
-1.91168	
-1.59408	
-1.50538	
0.189825	
-0.132056	
0.151875	
-0.223588	
-4.97689	