<VTKFile type="UnstructuredGrid" version="0.1" byte_order="LittleEndian">
	<UnstructuredGrid>
		<Piece NumberOfPoints="1917" NumberOfCells="3602">
			<CellData Scalars="scalars">
				<DataArray type="Float64" Name="Doublet Strengths" NumberOfComponents="1" Format="ascii">
9.16594	
4.46756	
9.18947	
9.68768	
9.1256	
7.53395	
8.83184	
7.56476	
7.67562	
7.64952	
8.18123	
3.48794	
4.59441	
7.64691	
3.68312	
2.86602	
4.51652	
7.14713	
4.63153	
7.8311	
9.54468	
6.94669	
8.64269	
5.78098	
5.87285	
5.77359	
7.84654	
5.37266	
6.56247	
6.85056	
6.6681	
7.98977	
6.93025	
9.08963	
7.81861	
8.23316	
7.83986	
8.19901	
7.52867	
8.41198	
7.95042	
7.24938	
8.6247	
7.88378	
8.81389	
8.20396	
6.9893	
8.0603	
9.06731	
4.74997	
4.62867	
9.24934	
9.03992	
8.97834	
8.75837	
6.70778	
9.90676	
8.58236	
7.03767	
10.0605	
6.39703	
7.07566	
7.38745	
7.08048	
7.6818	
6.53638	
6.79881	
8.40075	
7.61202	
7.74429	
6.66434	
6.72469	
6.81763	
6.91617	
6.99156	
7.06544	
5.47533	
9.13181	
6.61535	
3.25259	
9.67222	
8.74172	
8.00197	
4.33305	
9.55436	
9.72838	
9.10623	
8.43638	
9.97872	
10.5939	
7.95754	
10.1375	
6.64678	
6.6937	
7.52934	
7.45281	
8.14735	
10.5359	
6.23452	
6.4824	
8.01671	
8.23858	
6.7667	
6.64344	
9.02371	
10.5167	
10.7063	
6.86331	
6.9726	
6.83089	
6.92803	
6.48447	
6.59924	
6.46197	
6.37692	
8.71521	
8.69251	
8.64093	
9.12073	
9.46648	
8.94644	
9.46571	
8.74345	
8.77616	
8.77365	
6.68476	
7.03114	
7.02997	
6.94902	
6.66742	
6.5506	
7.6928	
7.60954	
3.66797	
9.48441	
10.8049	
9.06932	
8.18169	
8.46723	
8.90471	
9.31368	
8.4117	
8.65432	
9.04345	
4.77049	
2.96459	
3.90515	
4.3422	
6.08069	
6.84231	
6.42055	
6.59981	
7.56984	
6.01723	
4.22485	
9.45924	
9.47517	
7.24527	
7.22571	
5.17754	
6.57722	
6.72518	
6.68895	
8.71177	
8.77908	
7.70016	
8.07357	
6.95924	
6.85078	
6.88759	
6.98168	
7.36212	
7.46389	
7.68613	
8.96151	
7.89263	
8.60878	
5.96835	
4.38695	
4.6878	
8.04522	
7.86376	
8.1876	
8.10719	
8.29263	
5.28874	
8.93229	
5.58399	
6.03337	
5.74902	
5.15368	
5.94492	
6.01328	
6.02468	
6.26119	
6.33773	
7.32816	
5.85021	
6.09854	
6.07434	
6.33848	
9.39024	
9.25755	
9.1236	
5.03512	
4.97451	
5.56029	
6.80682	
8.89857	
8.47177	
7.55318	
7.56506	
7.97526	
9.25708	
8.78158	
5.93287	
6.24807	
7.86457	
7.54048	
7.74633	
7.45503	
8.26223	
7.99653	
8.4008	
7.94162	
6.45883	
6.96568	
8.30843	
9.55963	
10.649	
8.71061	
8.56664	
9.04816	
8.6999	
8.7647	
8.04666	
7.79439	
7.9457	
8.1076	
8.78878	
9.17561	
8.10155	
8.14066	
6.71075	
7.20816	
6.7189	
6.78027	
7.14899	
7.66666	
7.56923	
9.70575	
9.24451	
9.45522	
10.0395	
8.59962	
8.75975	
8.5371	
8.00338	
3.60772	
5.0305	
8.25294	
8.94113	
10.1819	
8.07729	
7.96638	
6.34636	
6.41314	
6.58204	
8.54312	
8.67992	
8.93112	
8.55204	
7.78259	
6.48566	
7.07149	
6.68399	
8.71546	
7.9996	
7.90484	
8.13348	
7.90195	
9.67717	
8.66345	
8.78934	
8.45012	
4.4191	
4.99729	
8.66353	
8.59711	
8.86576	
9.25521	
9.28639	
7.02644	
8.76061	
8.67839	
8.56618	
10.0498	
7.87615	
7.96959	
6.67559	
6.70494	
6.91046	
9.00653	
8.54547	
9.10188	
8.70531	
6.52335	
4.09585	
8.59087	
8.2026	
8.53668	
11.3877	
10.0485	
9.48704	
9.93684	
7.13618	
7.40297	
7.12399	
6.7915	
6.6024	
9.2278	
8.59044	
8.45313	
8.3803	
8.10241	
8.55066	
8.67507	
6.72478	
6.84692	
8.42421	
6.71719	
6.73517	
7.19633	
7.37872	
7.18208	
7.39704	
6.73641	
6.94144	
6.7564	
6.7806	
7.07805	
7.21997	
7.01322	
7.28197	
10.3926	
9.34172	
6.8709	
6.78514	
7.11239	
6.76821	
6.66065	
6.60517	
6.90409	
6.9064	
8.74938	
6.17822	
5.95214	
9.33339	
9.52256	
8.23379	
8.06385	
7.99632	
7.8433	
7.93201	
7.96575	
7.87306	
7.72862	
7.66205	
6.71546	
6.7553	
6.77285	
7.05245	
6.56083	
6.68109	
6.57857	
6.68915	
8.02248	
7.99821	
8.05052	
8.24307	
8.06542	
9.614	
4.13481	
2.89212	
8.46309	
9.35142	
8.3528	
8.56884	
8.59429	
8.56782	
8.65746	
8.79071	
9.70741	
9.1205	
8.77565	
9.30965	
9.22211	
8.93648	
9.11112	
8.85424	
8.54401	
8.38246	
9.62021	
9.21169	
3.6469	
3.87811	
9.35023	
9.66984	
7.24729	
7.3626	
7.38875	
7.4449	
7.16526	
8.93016	
8.22888	
9.493	
9.63879	
7.98002	
7.97228	
8.25994	
8.06966	
6.07077	
6.01461	
6.30197	
6.38328	
9.13366	
8.23745	
4.90316	
4.47889	
3.96352	
7.99886	
8.18668	
7.86943	
7.9708	
7.34353	
7.32552	
7.65335	
6.4663	
6.34323	
6.31393	
6.76787	
6.86375	
7.39229	
7.47452	
6.71027	
6.40665	
7.8244	
6.44602	
8.95607	
8.68955	
8.76793	
8.53056	
8.71268	
8.70614	
8.78464	
8.65749	
9.46528	
8.76375	
9.68174	
8.84058	
8.20727	
8.20776	
8.0488	
8.0553	
7.99039	
8.19188	
7.94416	
8.00953	
9.19232	
8.60412	
9.97577	
8.46367	
7.93364	
8.02459	
7.88705	
7.88262	
8.45623	
6.17407	
6.56706	
8.26708	
8.30317	
8.5191	
8.78738	
8.68045	
8.58942	
8.52503	
7.8293	
7.82632	
8.29028	
8.50005	
4.95246	
4.9126	
5.31088	
5.4418	
8.46625	
8.45583	
4.63322	
4.09883	
6.8301	
6.75221	
3.83884	
3.22022	
11.3721	
9.24845	
7.8275	
8.30531	
7.80781	
8.22099	
7.93386	
8.70737	
9.70401	
8.95467	
8.7724	
8.66175	
10.6139	
9.02616	
8.4896	
8.53406	
8.43065	
8.64464	
8.03442	
8.10717	
8.00364	
7.93396	
7.96569	
8.04206	
8.08835	
8.60608	
8.47075	
9.32431	
8.63327	
6.21747	
5.19571	
4.88259	
5.31254	
4.73691	
7.03803	
6.75913	
8.62503	
8.56327	
8.65962	
9.09291	
8.49822	
8.3255	
8.17999	
9.40163	
9.47703	
9.61578	
10.7945	
10.6555	
9.83069	
9.17879	
9.03755	
6.81435	
6.94255	
8.56601	
9.74679	
9.74979	
10.0976	
7.44381	
7.08929	
8.10204	
8.94152	
10.4393	
8.48714	
7.21656	
6.83006	
9.41753	
9.2186	
8.4369	
6.43478	
6.42733	
6.46962	
8.19423	
6.52014	
8.18888	
8.51254	
8.9016	
8.07958	
6.73417	
6.91468	
8.85912	
6.69576	
6.70859	
9.04552	
9.67034	
9.87739	
6.93682	
7.01001	
7.10906	
9.49507	
11.197	
8.46611	
9.19746	
7.86409	
5.82651	
8.72129	
6.67722	
6.82175	
6.75805	
6.93623	
8.39997	
8.37075	
8.56113	
8.81	
9.00841	
7.44408	
7.92299	
6.98469	
7.58529	
8.39141	
8.30363	
8.56041	
8.31262	
9.96493	
8.31874	
8.03432	
8.73119	
8.786	
10.2776	
9.20333	
7.0076	
6.15595	
5.74287	
8.95399	
9.34002	
9.0954	
8.50567	
8.38227	
8.18572	
8.21248	
9.044	
9.48447	
6.90078	
9.2832	
8.89349	
8.67415	
8.72409	
10.283	
9.42589	
9.50503	
9.59285	
6.96161	
7.10927	
7.33542	
7.19733	
8.57516	
8.93514	
8.53861	
8.45389	
5.04077	
5.45699	
8.18479	
8.92214	
8.89472	
7.45781	
8.28503	
7.28262	
7.44338	
7.60917	
7.30379	
7.9291	
7.72449	
7.15202	
7.18086	
7.80422	
7.55901	
5.92066	
8.01045	
8.29727	
7.69243	
7.90566	
8.92556	
8.73015	
8.88227	
8.63974	
8.5859	
8.48834	
8.01384	
8.59208	
9.21336	
11.0035	
7.41698	
7.58374	
8.74121	
7.85652	
9.55876	
9.78306	
8.94633	
9.51978	
9.62276	
9.34453	
8.77903	
8.75814	
8.9507	
7.89986	
7.96542	
8.13045	
8.15222	
8.76523	
8.73583	
7.25242	
7.32785	
7.06306	
6.31616	
8.25712	
7.83473	
7.97851	
7.9451	
6.67094	
6.89304	
6.63793	
7.23854	
5.58838	
6.23536	
7.4166	
7.5291	
5.81889	
5.50645	
8.48094	
7.76185	
7.59304	
7.40137	
8.14062	
8.9217	
7.56835	
7.38853	
7.63668	
7.49943	
9.41763	
9.24283	
9.09489	
8.99137	
5.49692	
4.78058	
3.69893	
3.92224	
7.05963	
7.35656	
7.18254	
7.24073	
8.45813	
8.49931	
8.36493	
8.61055	
8.07804	
7.94782	
9.22756	
8.58106	
6.38416	
6.36388	
6.3736	
6.58736	
8.41707	
8.15562	
8.83419	
8.32543	
8.63387	
9.13282	
8.8258	
8.78625	
8.81003	
9.29696	
9.6192	
8.98166	
8.79064	
8.60046	
8.61867	
3.81326	
9.21208	
9.12053	
7.12662	
7.04313	
6.79769	
3.13066	
4.72336	
7.01992	
6.02326	
5.68127	
6.0872	
5.25404	
6.19626	
6.43772	
5.92096	
8.09671	
3.15453	
4.065	
2.84396	
6.61944	
7.35633	
6.74752	
8.81333	
8.6648	
8.86881	
6.66032	
6.77483	
6.73471	
7.16896	
7.07304	
6.81021	
7.31797	
7.59361	
6.67539	
6.55089	
6.01984	
6.71437	
6.70364	
6.99668	
6.74503	
5.92104	
6.01816	
8.02215	
8.85828	
8.23786	
8.45614	
3.69434	
3.27134	
8.3832	
8.61085	
8.90007	
8.57167	
7.26652	
7.23415	
7.43903	
6.65664	
6.69726	
8.26974	
8.95948	
6.75315	
7.61487	
7.65328	
7.84411	
7.47395	
6.36205	
3.67897	
5.94577	
5.75555	
7.03036	
7.13907	
7.356	
6.99644	
7.1247	
6.73253	
6.66555	
6.54805	
6.72515	
7.42663	
7.43357	
7.28944	
7.79946	
8.26261	
8.20202	
8.14668	
7.90406	
6.32959	
6.35949	
6.20268	
5.50421	
8.7177	
6.89529	
5.8645	
6.0258	
5.07926	
4.84873	
8.11951	
8.02528	
8.25324	
8.21453	
5.54103	
5.64885	
-9.76802	
-13.0894	
-13.3527	
-13.2781	
-12.3213	
-6.39319	
5.55832	
6.57634	
4.23447	
6.58196	
-4.00759	
-5.14881	
6.56759	
-4.06928	
-4.14641	
-5.05865	
-6.36725	
-12.7396	
-14.8138	
-12.891	
-12.0863	
-6.13395	
-11.8832	
-2.32765	
0.107053	
-1.32171	
-8.41392	
-10.8407	
-9.97793	
-7.07284	
-4.73769	
-6.13474	
-13.394	
-13.3087	
-13.0723	
-11.4315	
-11.9592	
-10.7235	
-1.10128	
-13.5206	
-7.44565	
1.17281	
2.93698	
-7.66798	
-11.4771	
4.18732	
4.21842	
-10.8048	
-5.0302	
2.61739	
-3.93584	
-7.44509	
-10.6229	
-5.56317	
-8.45916	
-13.9083	
-12.8687	
-11.6921	
-2.74575	
-0.737517	
-5.5808	
-4.31385	
-12.2535	
-7.36305	
-8.23462	
-6.76146	
-7.08851	
-7.86827	
-6.63979	
-0.907779	
-6.88601	
-4.25225	
-6.87515	
-5.41572	
-12.5703	
-12.1086	
-0.910979	
-8.77082	
-7.09755	
-5.25172	
-3.33394	
-4.55559	
-9.55722	
-11.6574	
-12.2873	
-12.2704	
-11.24	
-6.27124	
-11.471	
-11.6916	
-11.7275	
-2.86308	
-5.50911	
-12.4714	
-13.4365	
2.58657	
-0.0865065	
2.98343	
1.5843	
-11.2635	
-11.4691	
-10.4206	
-10.5316	
0.503039	
-3.749	
0.496876	
3.27469	
-4.6958	
-4.58205	
-6.30841	
-5.49799	
-11.1329	
-11.0153	
-10.9374	
-11.8445	
3.18302	
-12.6475	
-5.9743	
5.25659	
-0.0414027	
5.08301	
-9.12801	
-14.5323	
-7.28684	
4.12231	
3.71325	
1.90393	
0.95787	
-0.528199	
1.79294	
-2.05737	
-1.57728	
-9.59712	
-10.8152	
-11.4487	
-7.77433	
-8.16405	
-5.68773	
-7.52531	
-6.51535	
-1.61911	
1.74147	
-11.9613	
-9.67484	
-10.4048	
-8.91083	
2.18196	
1.59709	
2.20148	
2.25336	
-5.92466	
-6.48599	
-7.23057	
-7.65505	
-2.10854	
-3.41468	
-1.08748	
-2.44529	
-11.4939	
-9.70224	
-12.1528	
-12.8871	
-11.9297	
-12.8978	
-5.20297	
-11.0934	
-12.1169	
-9.98885	
-9.68523	
-8.82722	
-8.33661	
-10.1836	
-9.2335	
-12.801	
-11.6783	
3.48918	
4.99385	
5.32657	
-7.4877	
-7.0375	
-5.18706	
-7.30856	
-7.19541	
-4.23564	
-5.56961	
-6.18573	
-8.98333	
5.13094	
5.4871	
5.98345	
1.41091	
0.599592	
-12.9841	
-12.8093	
5.76231	
6.50333	
-9.86478	
-9.94042	
-10.3611	
-0.41796	
-0.0184069	
1.03282	
5.48858	
5.4333	
5.03437	
5.66352	
4.67615	
5.22865	
4.98277	
4.52354	
-12.4924	
-15.4548	
-15.513	
1.43329	
0.474296	
2.38303	
1.65092	
-2.81976	
-1.56589	
-12.9968	
-12.8834	
-11.0248	
-11.4587	
-11.5333	
-11.8444	
-12.8919	
-15.4553	
-13.9653	
-14.1492	
-12.0928	
-14.2218	
-14.0648	
-14.4032	
-14.8249	
-15.1483	
1.24578	
0.572131	
-6.49052	
-5.72617	
-6.5117	
-5.64916	
0.453	
-0.899138	
3.28513	
0.914708	
-11.566	
-12.3813	
-10.9624	
-11.951	
-12.4617	
-13.1134	
-12.3479	
-13.2383	
-13.0069	
-13.4482	
-12.6845	
-12.9437	
-13.1817	
-12.846	
-14.2479	
-13.3339	
-1.54221	
-2.78083	
-1.86702	
-3.69197	
-9.10652	
-7.38158	
-8.55089	
-7.71345	
2.1618	
4.39875	
-6.87354	
-5.77092	
-6.40821	
-5.14331	
-7.45189	
-4.02879	
-4.41362	
-1.64766	
-14.2908	
-13.8748	
-6.04848	
-3.00488	
-5.07666	
-7.81649	
-7.11903	
-5.67364	
-4.72935	
-6.52561	
-6.82472	
-4.45885	
-2.71024	
-2.55149	
-3.90726	
-2.82479	
-5.21925	
-12.4382	
-12.4121	
-3.12314	
-2.33055	
-2.422	
-1.08336	
-6.76822	
-10.5909	
-11.6109	
-9.52945	
3.05229	
-14.1489	
0.0336722	
-0.847162	
-12.7248	
-13.7951	
0.725565	
0.967627	
2.78957	
3.13251	
-6.63741	
-8.74738	
-6.0424	
-7.37215	
-9.31612	
-8.51918	
-10.8724	
-9.08759	
-11.1236	
-11.2798	
-12.6887	
-11.4013	
-8.53834	
-7.05009	
-8.79468	
-8.16957	
-10.7633	
-9.65093	
-11.0968	
-10.6651	
0.664022	
1.19222	
-13.1655	
-12.6585	
-13.0225	
-13.0887	
-13.6201	
-12.3366	
-12.6151	
-5.59238	
-4.92016	
3.30851	
4.53282	
0.829547	
1.21605	
-0.971013	
0.0249274	
2.51376	
0.771889	
2.03859	
0.273924	
-10.2695	
-5.72438	
-3.40702	
-13.0703	
-9.77161	
-10.9069	
-10.0782	
-11.2756	
-12.1986	
-14.3773	
-11.6839	
-12.5174	
-15.1906	
-14.6691	
-7.96386	
-8.70016	
-8.31792	
-9.08098	
-10.6629	
-2.13228	
-1.45012	
-3.19511	
-2.59107	
4.58833	
3.04654	
4.8165	
4.59501	
-10.9918	
-11.3443	
-6.76996	
-6.67717	
-7.6194	
-8.31827	
-13.238	
-3.87689	
-1.85161	
-7.65409	
-9.53872	
-8.84004	
-8.54843	
1.34466	
3.27465	
2.25132	
2.31427	
1.36381	
-10.0448	
-0.672381	
2.17496	
-1.20005	
-0.0112597	
-13.3047	
-11.1501	
-7.50278	
-7.65804	
-7.49171	
-7.65346	
-7.25756	
-6.91756	
-6.37661	
-7.81911	
-8.41499	
-8.33497	
-9.15939	
-9.46023	
-9.06351	
-12.0036	
-12.2944	
-12.1472	
-12.388	
-13.295	
-13.7154	
-12.4737	
-12.902	
4.91191	
3.75466	
-2.29912	
-11.1131	
-10.0311	
-12.1439	
-9.64154	
-11.9042	
-14.3186	
-11.8006	
-13.2623	
-12.9536	
-0.851096	
-6.6272	
-6.54937	
-5.193	
-5.28332	
-6.90571	
-8.4497	
-12.544	
-13.4886	
-13.4812	
-14.0338	
-13.3969	
-15.0642	
1.07112	
-1.07459	
1.5461	
-0.382504	
-9.24617	
-4.32795	
-8.1985	
-10.089	
-3.20433	
-4.3556	
-6.78838	
-7.9226	
-5.36847	
-6.42182	
-13.2354	
-13.8928	
-13.3003	
-13.6196	
-4.30711	
-4.74103	
3.61804	
2.5636	
1.62293	
0.907866	
1.92168	
1.36289	
0.00955466	
-13.4282	
-14.1178	
1.29405	
2.07501	
3.29499	
-4.97423	
-3.74397	
-3.57968	
-2.49559	
-6.56751	
-5.75562	
-5.36408	
-4.49236	
1.19625	
-0.184112	
2.21777	
0.521214	
-13.9071	
-14.3366	
-13.0642	
-3.71268	
-4.83585	
-4.70289	
-3.88059	
-9.53584	
-9.80397	
-11.6475	
-12.1908	
-11.3774	
-11.8339	
-6.22063	
-5.04848	
-4.14178	
-6.12052	
-5.1032	
-7.62947	
-7.24195	
-7.35886	
-8.22648	
-7.6267	
-7.90192	
-9.31981	
-10.4913	
-13.3559	
4.01925	
3.22995	
0.0810458	
-1.40243	
-0.40266	
-1.58492	
-7.20363	
-8.52715	
-7.55252	
-9.02747	
-8.88047	
-6.82418	
-8.38859	
-7.89873	
-9.25578	
-13.8728	
-13.6896	
5.5308	
4.11992	
3.47112	
-11.1604	
-11.2359	
-10.9408	
-11.1231	
-12.6787	
-12.5227	
-11.55	
-12.264	
0.652662	
-0.217113	
2.16305	
1.78469	
-3.18834	
-3.43585	
-1.11522	
-1.98888	
3.52893	
3.15925	
6.60588	
1.68291	
5.26911	
6.59946	
-8.2811	
-8.9864	
-10.1977	
-10.0154	
-12.6283	
-13.3571	
-13.1052	
-11.5312	
-12.3697	
-11.4541	
-13.9984	
-15.3527	
-4.56132	
-3.78034	
-5.23716	
-5.6478	
-5.91247	
-5.63946	
-6.81486	
-6.66444	
-7.04415	
-6.29797	
-7.39498	
-7.80887	
-12.2984	
-12.5116	
-13.2927	
-12.8298	
-14.1388	
-13.2969	
5.64552	
5.47876	
-12.6035	
-12.3852	
-13.4604	
-13.4397	
-14.6253	
-13.7856	
-13.3439	
-12.8636	
-12.4887	
6.26508	
-12.4118	
-11.5588	
-11.4645	
-13.4334	
-13.2651	
-14.9564	
-12.7626	
6.43955	
-12.0235	
-12.345	
-11.7919	
-11.9474	
4.12672	
3.99362	
4.62618	
4.53421	
4.36007	
4.8297	
5.86141	
-12.3387	
-12.6743	
-13.1487	
-13.6241	
-13.4871	
5.60083	
-12.7221	
-12.8282	
-13.1407	
-13.251	
3.4751	
3.05109	
-12.8471	
5.91996	
5.86848	
-8.1204	
-7.99361	
-8.45545	
-8.27566	
-9.22798	
-9.91619	
-9.95311	
-10.7533	
-11.2277	
-14.7273	
-8.22896	
-7.24605	
-6.72109	
-14.9579	
-12.989	
-15.3745	
-14.312	
-9.48931	
-9.12122	
-8.35198	
-8.41947	
-10.7839	
-9.74983	
-9.72941	
-10.3939	
4.85193	
4.56567	
5.15969	
-9.25964	
4.06335	
2.34914	
2.10045	
2.75834	
2.42235	
-13.0023	
-13.5521	
-13.8761	
0.479578	
0.95999	
0.0726283	
0.829837	
-14.6845	
-12.6043	
-13.0631	
-13.2088	
-14.5138	
-14.469	
-14.2237	
-13.6325	
-14.0017	
5.07717	
5.24283	
2.94102	
-13.6212	
-13.5676	
-13.6706	
-13.29	
-8.92829	
1.87353	
-11.5403	
-11.6121	
5.35837	
3.92151	
4.73874	
5.93299	
-10.5811	
-10.0095	
-9.89136	
-3.7657	
-4.15379	
-1.95194	
-13.7323	
-12.7419	
-14.6922	
-13.4507	
-13.3489	
-14.7388	
-15.2285	
-0.673272	
-2.16087	
5.43469	
4.32895	
5.0703	
3.95481	
5.06849	
3.56342	
3.39564	
2.91633	
2.2006	
-12.6146	
-12.451	
-12.0703	
-11.8549	
-10.8801	
-10.5842	
-11.6967	
-12.9868	
-13.9159	
1.22859	
0.78429	
-0.897221	
-13.3406	
-13.3444	
-9.4504	
-7.82178	
-10.4708	
-10.2903	
-14.7091	
-12.6627	
-7.62617	
-7.10348	
-6.67671	
-9.96525	
-9.29814	
-11.0761	
-11.384	
-10.267	
-9.94478	
-10.891	
-9.16652	
4.12804	
4.75602	
-9.02531	
-10.1898	
-9.06836	
-10.1725	
-4.64835	
-4.23712	
-9.11922	
-8.78164	
-10.8631	
-11.1471	
-10.7757	
-11.1653	
-6.11863	
-6.20393	
-13.6335	
-13.6257	
-13.1107	
-12.7154	
-11.6161	
-11.5621	
-11.3672	
-11.6384	
-7.812	
-8.47648	
-8.59763	
-8.01456	
-10.0963	
-11.0603	
-11.5448	
-10.0587	
-11.1764	
-10.2133	
-0.562531	
-1.97467	
-2.5591	
5.11644	
4.63984	
-11.4241	
-11.861	
-12.9876	
-3.52492	
-3.55696	
-1.87638	
-8.99283	
-8.8183	
-8.548	
-8.04196	
-2.46751	
-1.90412	
-2.84047	
-3.82064	
-4.61825	
-12.3729	
-12.7186	
4.71215	
6.53366	
6.63109	
5.84923	
-1.4306	
-1.97925	
4.34104	
4.89022	
3.72749	
4.8864	
-13.733	
-13.5986	
-13.0519	
-12.8963	
-4.92143	
-4.19056	
-2.27192	
4.35741	
5.95427	
-14.9456	
-13.8708	
-15.6877	
-14.0241	
-1.70636	
-0.826614	
-3.86611	
-1.86313	
4.41082	
2.24281	
2.43684	
1.33443	
1.44312	
-1.78641	
-2.98343	
-0.567002	
-2.53876	
3.70388	
3.16666	
-8.99051	
-10.197	
-10.1517	
-11.9645	
-3.49898	
-4.78847	
-4.27626	
-5.22185	
7.2875	
6.09039	
-11.1836	
-10.9003	
4.30349	
4.15908	
7.61224	
7.1456	
2.90938	
1.97558	
0.293409	
-0.391244	
0.348462	
0.30587	
0.65845	
0.65312	
0.566311	
1.05164	
1.1827	
1.52864	
2.21409	
1.82418	
1.29068	
0.831206	
0.0761369	
0.132458	
0.192249	
0.179205	
0.291944	
2.16443	
0.534635	
1.84903	
1.0963	
1.43194	
0.833946	
0.169456	
1.75225	
1.27933	
0.450214	
-0.0868907	
0.743578	
-0.814755	
-0.99065	
-0.986314	
-0.851093	
-1.04359	
-1.08184	
-0.498327	
1.60577	
1.12233	
-0.571679	
0.0822944	
-0.235856	
0.503561	
-0.240666	
-0.684128	
-0.564685	
-0.509936	
-0.575548	
-0.60289	
1.9454	
8.98974	
2.69345	
9.19387	
9.69461	
9.11734	
7.73777	
7.66052	
7.67014	
7.6667	
9.00014	
8.32613	
2.55478	
2.97964	
6.98395	
3.67315	
2.25351	
3.15495	
6.88132	
7.88121	
4.52276	
7.06173	
7.3933	
7.65131	
7.07489	
8.90964	
7.36185	
8.63554	
10.4304	
5.12927	
5.37789	
5.42205	
7.45782	
4.12706	
6.67797	
7.15899	
7.27417	
8.0147	
7.00817	
8.73356	
7.6353	
7.7043	
7.99475	
7.6661	
8.23779	
8.02471	
7.33912	
8.66278	
7.92518	
8.7586	
8.43262	
7.41805	
8.14479	
9.0601	
4.54797	
4.43122	
8.8862	
8.78027	
8.96185	
9.03321	
7.66114	
9.96622	
8.63224	
7.20661	
10.1184	
6.13545	
7.11089	
7.48794	
7.33679	
7.93197	
6.87356	
6.4491	
8.34464	
7.66259	
7.66467	
7.72531	
7.29594	
8.28258	
7.0625	
6.95426	
6.79363	
6.70942	
7.59721	
5.32734	
7.981	
5.85216	
3.16588	
8.71979	
7.97376	
4.19839	
9.71844	
9.12316	
9.53233	
8.30017	
10.0298	
11.3954	
9.49854	
8.69272	
8.44486	
6.53466	
6.25081	
6.47994	
8.22382	
7.23085	
8.66003	
8.05488	
10.6153	
6.36957	
5.97374	
8.0322	
7.78982	
7.12774	
8.09156	
8.60101	
9.01781	
10.5112	
7.03553	
7.13024	
6.99602	
7.11129	
6.73028	
7.13066	
6.21695	
6.66364	
8.72649	
8.64439	
8.72105	
8.88472	
9.26161	
8.82018	
8.83101	
9.55881	
9.08308	
8.01092	
7.2665	
7.30694	
7.32135	
8.04137	
6.09224	
7.74202	
7.78365	
3.47567	
9.48607	
10.817	
3.67842	
9.08514	
8.45928	
8.2729	
9.1352	
9.17913	
8.44229	
9.04779	
8.69011	
4.41207	
3.20015	
2.58353	
3.65805	
7.7031	
7.69218	
6.69846	
3.97289	
9.45112	
9.44721	
6.92423	
7.16714	
7.88304	
7.47935	
7.3204	
8.71624	
8.85224	
9.20218	
7.89808	
8.66139	
6.65206	
6.12274	
6.62429	
6.36811	
7.49762	
7.63089	
7.65633	
10.0449	
5.83975	
4.17433	
4.62631	
7.7156	
8.13117	
7.76901	
8.28606	
8.08284	
4.95629	
8.84893	
4.89232	
4.61855	
4.96327	
5.3179	
5.29367	
5.76792	
5.65631	
5.58673	
5.49325	
5.92923	
5.73795	
9.28551	
9.74346	
9.34348	
5.09868	
4.18911	
4.564	
4.3441	
7.87001	
7.44461	
7.25607	
9.27991	
8.98128	
7.61945	
7.92483	
7.55615	
7.75025	
8.01488	
8.44231	
7.96849	
8.15346	
5.96135	
6.11448	
7.09698	
9.32485	
8.95193	
6.2985	
4.0339	
9.54541	
10.6386	
9.02727	
8.55998	
8.73613	
8.65956	
8.57713	
7.97072	
7.88996	
8.10115	
7.84146	
8.12044	
8.39581	
8.21303	
9.15869	
6.74888	
6.75513	
6.76362	
7.75694	
7.34994	
9.20978	
9.6742	
9.81209	
9.39012	
8.59358	
8.8371	
8.00631	
8.09337	
7.93937	
10.1462	
8.90742	
7.98345	
7.94038	
6.33761	
6.13477	
6.37386	
8.47888	
8.89344	
8.64098	
8.67992	
8.56506	
7.82157	
6.95164	
6.29909	
6.6308	
8.98825	
7.5429	
7.66475	
7.90858	
7.70472	
8.65228	
8.68096	
9.58183	
8.32725	
4.24138	
5.16205	
8.59559	
8.83919	
8.49075	
9.27742	
9.23996	
7.19803	
7.01957	
8.71529	
8.58881	
8.6599	
8.49849	
7.96621	
7.88788	
6.46913	
6.74834	
6.69697	
9.43726	
8.82329	
8.65714	
10.668	
6.38241	
3.94452	
9.85018	
7.86653	
9.2239	
8.11327	
9.93743	
10.6442	
10.0261	
7.32476	
6.9602	
7.11792	
6.19049	
6.12693	
8.26183	
8.37441	
9.19999	
9.06384	
8.09911	
8.53535	
7.23831	
7.23178	
8.5856	
7.39895	
7.23281	
6.9865	
6.99699	
7.39783	
7.03327	
6.58839	
6.60036	
6.80088	
6.68076	
7.28411	
7.40994	
7.27515	
7.36974	
9.31472	
10.324	
9.04188	
7.09007	
6.86479	
7.20935	
6.89164	
7.69574	
7.12145	
6.99283	
7.86544	
9.96776	
5.528	
9.36556	
9.16812	
8.0354	
7.88935	
8.26457	
8.61063	
7.42101	
7.20329	
7.8276	
7.81064	
8.27498	
7.92057	
6.7733	
6.75102	
7.11444	
6.85119	
6.77934	
6.71356	
6.91249	
6.82008	
8.1284	
8.18605	
7.99194	
7.95076	
7.72095	
3.81146	
2.68088	
8.36141	
8.45431	
8.3865	
8.43997	
8.70919	
8.88349	
8.62972	
8.71803	
10.8354	
9.09913	
8.75058	
9.24014	
9.25362	
8.86992	
9.09024	
8.24688	
8.41641	
8.6798	
9.17446	
2.93801	
2.76249	
9.67253	
9.34944	
7.51529	
7.5227	
7.49222	
7.45702	
7.67464	
8.17408	
8.85321	
8.46165	
9.36127	
7.74179	
8.05774	
7.80079	
8.12715	
5.90816	
5.9283	
6.33701	
6.40097	
8.24563	
8.20519	
4.85521	
3.88478	
4.38312	
8.17316	
8.00198	
7.96145	
8.12006	
7.35843	
7.71761	
7.66476	
5.44099	
7.18381	
7.20387	
6.77735	
6.61695	
6.41628	
5.85198	
6.344	
5.94978	
8.67208	
8.93572	
8.6329	
8.71442	
9.43444	
8.9075	
8.89945	
8.85837	
9.04553	
9.44351	
8.77519	
9.65684	
8.77696	
8.17858	
8.0385	
8.03045	
8.02156	
8.03092	
8.84124	
7.99646	
9.09075	
8.34792	
8.9371	
8.16442	
9.03437	
9.8565	
7.93592	
7.92175	
7.95653	
8.06153	
8.48138	
6.98665	
7.90454	
8.15079	
8.63583	
8.52049	
8.606	
8.46104	
8.5468	
7.87949	
7.70945	
8.46148	
8.2328	
8.55756	
8.41914	
5.10918	
5.1886	
4.75458	
4.45573	
8.50106	
8.36402	
8.41356	
4.06362	
4.57593	
7.41878	
7.77422	
3.44829	
2.90552	
9.41841	
11.2343	
8.11679	
7.59338	
8.03669	
7.68175	
7.73563	
7.53422	
7.98578	
8.24823	
8.55664	
10.4942	
9.42594	
8.35946	
8.54497	
8.28013	
7.99231	
8.01568	
7.88955	
8.55245	
7.92121	
7.99268	
8.02476	
7.87311	
7.73756	
9.23698	
8.41632	
8.5426	
8.39749	
7.97765	
4.82365	
4.55278	
5.15534	
4.61002	
7.68222	
8.33994	
8.54442	
8.55352	
8.57124	
8.61375	
8.52058	
8.54321	
8.19655	
8.32998	
9.46677	
9.39579	
10.7247	
9.51099	
9.76211	
6.68284	
6.50354	
8.32326	
10.1369	
9.74755	
9.73293	
7.20379	
6.8468	
7.09143	
8.82366	
10.3036	
8.22492	
7.29884	
9.59831	
9.42584	
8.27921	
5.97084	
6.01213	
5.77638	
8.3727	
8.13357	
8.75378	
5.64968	
5.11159	
8.0975	
6.99196	
5.27913	
6.14047	
7.46923	
7.08525	
7.38873	
7.29543	
7.31996	
11.0648	
9.35061	
9.11204	
8.54399	
4.16595	
8.54906	
7.28183	
7.36741	
7.35187	
7.3068	
8.25776	
8.22144	
8.55322	
8.29058	
8.18252	
6.71238	
7.30329	
6.68218	
7.61624	
8.43559	
8.14013	
8.28622	
8.16157	
8.18991	
8.45217	
7.87928	
8.61863	
8.66241	
8.50403	
7.38584	
6.23088	
5.59756	
5.94073	
9.08253	
8.92595	
9.00126	
6.922	
8.55112	
8.5456	
9.42061	
10.284	
9.22163	
9.50639	
7.43858	
7.36349	
7.43863	
7.61565	
8.46662	
8.35828	
8.51718	
8.85073	
5.40635	
4.94463	
8.76759	
8.0331	
9.2174	
9.05671	
9.74423	
9.71881	
8.76488	
7.23019	
6.95442	
8.09675	
7.22956	
7.21035	
6.88394	
8.24264	
7.72317	
7.65399	
7.40581	
7.37233	
7.59754	
7.45786	
7.92679	
6.08633	
7.49316	
7.73131	
7.80107	
8.00859	
8.03145	
8.58908	
8.09255	
8.44946	
7.74053	
7.8064	
7.96297	
8.09478	
9.63162	
9.11281	
9.38939	
8.82112	
11.0646	
9.2051	
7.83658	
7.7504	
8.03767	
8.10742	
8.66116	
8.68312	
8.76659	
8.79861	
8.96894	
7.37656	
7.30432	
6.38326	
7.1353	
7.52483	
7.56447	
7.53679	
7.70074	
9.52386	
9.26903	
7.28959	
7.71535	
7.48879	
7.42215	
7.73046	
7.37738	
6.0763	
6.44604	
8.84176	
5.34141	
5.65683	
7.53653	
7.37515	
8.14181	
7.73876	
8.24623	
9.01017	
7.473	
7.6318	
7.57993	
7.69857	
9.23722	
9.4183	
9.14395	
9.09664	
3.77084	
4.28801	
3.17634	
3.98138	
6.49311	
6.70409	
6.9238	
6.99307	
8.40561	
8.27228	
8.53136	
8.29197	
7.9801	
8.4655	
8.09844	
9.25671	
5.71961	
5.47541	
5.67345	
5.48606	
8.11088	
8.35718	
8.27076	
8.82328	
8.70558	
8.74715	
8.56155	
8.49167	
9.63632	
9.30849	
9.04161	
8.80567	
8.71791	
8.65739	
11.0276	
9.0087	
9.31011	
8.89909	
3.91373	
9.14083	
9.22619	
7.4796	
7.07159	
7.24402	
6.70493	
7.03017	
7.60034	
9.1651	
8.30611	
8.54982	
4.32325	
5.58323	
4.82493	
3.44794	
2.8503	
2.44832	
8.04474	
6.80944	
7.79585	
4.77535	
4.32932	
4.94293	
3.55466	
3.59487	
3.8293	
2.97298	
2.71798	
7.84413	
7.61936	
7.3999	
8.69226	
8.89209	
8.84267	
7.14322	
7.21857	
8.06598	
7.76077	
7.82473	
7.04313	
7.00144	
7.09174	
7.28255	
8.42698	
7.73687	
8.34316	
7.98792	
3.15179	
3.54539	
7.69209	
7.83815	
8.06575	
10.2589	
10.5496	
6.87669	
7.62727	
5.48305	
4.65627	
6.17718	
5.34907	
4.64463	
5.20883	
8.99041	
8.29264	
7.26947	
9.75102	
7.88545	
7.67812	
4.68045	
5.47174	
7.37256	
7.20094	
7.30114	
7.21126	
4.62493	
4.81353	
4.38976	
4.74289	
4.79791	
4.98403	
4.03657	
6.02388	
7.08664	
6.35074	
7.59171	
8.2641	
7.87661	
7.74909	
7.57415	
5.96766	
5.54822	
6.43675	
5.74031	
7.50939	
7.5031	
7.88939	
8.05116	
3.0896	
3.43615	
2.92175	
5.12623	
5.05531	
6.02206	
4.97396	
7.84259	
7.95475	
7.91195	
7.78359	
3.56494	
2.9761	
3.37707	
2.94563	
5.62855	
5.17606	
6.73068	
-9.91332	
-13.0829	
-13.3515	
-13.1826	
-12.4723	
5.71392	
6.74717	
4.28841	
5.62559	
-3.16596	
-5.65183	
5.80619	
-3.94409	
-4.11657	
-4.86913	
-6.75913	
-12.6727	
-12.0949	
-11.1953	
-5.67695	
-11.7188	
-13.1869	
-2.05447	
0.303166	
-1.08321	
-7.16691	
-10.6208	
-9.645	
-6.8965	
-5.68353	
-5.24971	
-14.2076	
-13.3512	
-13.2953	
-11.0507	
-10.8826	
-12.1918	
-0.985651	
-13.5295	
-7.17276	
1.36165	
3.13459	
-7.55362	
-11.0152	
5.0711	
4.25538	
-9.72312	
-4.86867	
2.71075	
-3.59139	
-7.28385	
-11.2769	
-6.34429	
-8.34796	
-13.5569	
-12.8815	
-11.8836	
-2.47148	
-0.642659	
-5.38397	
-5.18616	
-12.0072	
-7.79221	
-7.24359	
-5.56	
-6.07193	
-5.62726	
-6.97653	
-1.98365	
-6.58304	
-5.15219	
-6.92843	
-4.6453	
-11.1801	
-11.6887	
-0.740783	
-7.05839	
-7.673	
-4.95861	
-4.25974	
-3.05629	
-8.84181	
-13.0097	
-11.9691	
-10.3019	
-6.11303	
-10.3309	
-11.7231	
-11.69	
-2.66451	
-5.26343	
-12.3741	
-13.3685	
2.36385	
0.588612	
3.14859	
1.67338	
-10.0704	
-10.4275	
-11.1722	
-11.9983	
2.64028	
0.713745	
3.69102	
-6.21285	
-5.04283	
-4.17417	
-4.16762	
-11.8486	
-10.742	
-10.8568	
-10.8855	
3.32543	
-12.2352	
-5.82989	
5.32804	
0.0955799	
5.22382	
-8.66465	
-14.5688	
-4.16606	
3.99766	
3.40146	
2.14312	
1.1094	
1.93336	
1.04599	
-1.87876	
-1.38681	
-10.7702	
-9.31475	
-9.79101	
-8.46987	
-7.31237	
-5.36179	
-8.04104	
-6.58809	
-1.43744	
2.06631	
-9.17702	
-8.76343	
-11.8416	
-11.3132	
1.75265	
1.43252	
2.40858	
2.37524	
-7.07513	
-7.51198	
-5.76837	
-5.41675	
-0.974472	
-3.46011	
-0.790138	
-3.28912	
-13.0533	
-10.6625	
-9.13856	
-11.8738	
-12.6531	
-12.8046	
-5.19001	
-7.11747	
-12.0058	
-8.28757	
-7.82542	
-9.03402	
-8.96359	
-12.3855	
-8.96933	
-11.6788	
-8.85456	
4.74543	
5.50954	
-6.78461	
-8.11772	
-7.19211	
-3.62832	
-7.07709	
-6.31274	
-6.00136	
-4.03925	
-8.878	
5.68373	
6.14242	
1.57522	
0.77414	
-14.0046	
-13.0046	
6.63016	
5.89928	
-9.67465	
-8.52091	
-9.70766	
-0.358561	
1.1717	
0.101578	
5.5141	
5.57161	
5.20402	
5.7011	
5.13673	
5.05239	
5.3093	
4.59681	
-10.8721	
-15.5028	
-15.596	
2.6426	
1.89148	
2.295	
0.710305	
-2.57943	
-1.61522	
-11.9865	
-12.1818	
-11.8262	
-11.5338	
-10.693	
-10.5535	
-12.8638	
-14.9702	
-13.577	
-13.7964	
-14.1308	
-11.3698	
-13.9829	
-14.7792	
-13.3131	
-15.0026	
0.290935	
0.771702	
-6.4046	
-5.88574	
-5.02088	
-5.33951	
0.573304	
-0.774776	
-0.39654	
3.40298	
-12.3037	
-11.4697	
-11.8771	
-11.0254	
-12.701	
-12.4859	
-14.6694	
-13.089	
-12.5859	
-12.7731	
-12.9088	
-13.3053	
-12.8498	
-13.2744	
-12.8971	
-14.2652	
-2.96607	
-3.47566	
-1.32979	
-2.57319	
-8.07366	
-8.82158	
-7.41863	
-7.89507	
4.61225	
3.35266	
-4.97473	
-6.34017	
-6.27773	
-7.24918	
-5.01543	
-1.51025	
-3.71162	
-2.69349	
-4.27052	
-13.8941	
-14.3327	
-5.86819	
-4.90452	
-2.84761	
-6.88362	
-6.27275	
-5.46618	
-5.42933	
-4.50441	
-4.0119	
-2.46428	
-3.89348	
-5.24154	
-2.42535	
-3.78311	
-2.13854	
-0.723269	
-2.81804	
-2.06969	
-6.76033	
-9.55332	
-9.85852	
-8.72824	
3.23073	
-13.7036	
-0.596125	
0.277055	
-13.8696	
-13.1364	
1.20048	
1.77786	
2.38839	
3.01287	
-5.92071	
-7.25645	
-5.62157	
-8.06485	
-8.37926	
-10.2686	
-8.95542	
-11.7203	
-11.1355	
-11.4729	
-11.2172	
-11.7802	
-8.12395	
-8.1062	
-7.02108	
-8.36209	
-9.27381	
-9.89302	
-9.4562	
-10.2564	
1.73375	
0.78158	
1.30907	
-13.015	
-12.5824	
-12.4767	
-12.4547	
-11.2659	
-11.3333	
-11.1812	
-4.2627	
-5.25625	
4.76573	
3.50254	
1.57883	
1.02544	
0.267691	
-0.827533	
1.67235	
0.505135	
2.78234	
2.02596	
-9.29032	
-2.75554	
-3.29546	
-12.5126	
-10.5743	
-8.93478	
-10.9177	
-9.75005	
-13.957	
-11.1525	
-13.822	
-11.2388	
-14.2218	
-14.7239	
-8.24027	
-8.12322	
-9.37677	
-8.99929	
-3.05339	
-2.4451	
-2.0004	
-1.31164	
3.18558	
4.71949	
3.64184	
4.95451	
-6.49663	
-6.59755	
-7.14382	
-7.45629	
-9.94148	
-13.4286	
-3.44046	
-2.16806	
-7.13093	
-8.76149	
-8.42655	
-7.79486	
1.46834	
2.47705	
3.52083	
1.44403	
2.51544	
-9.13234	
-1.08938	
1.4645	
-0.560607	
1.01675	
-12.9664	
-9.90349	
-7.93671	
-7.00728	
-6.57461	
-7.18348	
-6.89774	
-7.23021	
-6.12925	
-6.42472	
-7.82954	
-8.41691	
-7.40352	
-7.54688	
-9.36618	
-9.27368	
-13.0228	
-12.5034	
-11.8465	
-12.2444	
-12.3992	
-12.8693	
-12.345	
-14.1259	
3.84002	
5.00025	
-9.74132	
-9.16131	
-10.561	
-10.0311	
-11.9721	
-12.6857	
-11.2943	
-12.0041	
-12.6727	
-0.710986	
-6.39679	
-6.4063	
-4.98325	
-4.89889	
-6.73472	
-6.95265	
-12.9693	
-13.6203	
-14.3354	
-14.9992	
-13.3913	
-13.0198	
-0.323884	
1.30913	
-0.137615	
0.960434	
-10.5958	
-3.25917	
-10.0218	
-8.6378	
-4.23554	
-3.08726	
-8.11003	
-6.66442	
-6.28707	
-5.08747	
-13.0105	
-13.3425	
-13.0368	
-13.5804	
-4.66662	
-4.26883	
2.66353	
3.33591	
2.27889	
2.01792	
0.116901	
0.0953429	
-14.1318	
-13.443	
2.16979	
1.39691	
3.38161	
-5.07037	
-4.85549	
-2.38206	
-2.33015	
-6.48563	
-6.37152	
-4.35659	
-4.16478	
2.38379	
0.674574	
1.41528	
0.0021298	
-13.9215	
-15.72	
-3.37856	
-2.0179	
-4.6705	
-3.75761	
-4.51457	
-10.6155	
-9.91949	
-12.1594	
-11.6788	
-12.0219	
-11.2811	
-4.96502	
-6.07402	
-4.08841	
-4.98223	
-5.93967	
-6.58798	
-7.31857	
-7.87088	
-7.79516	
-7.60641	
-7.3206	
-10.1635	
-11.3147	
-13.4471	
3.71859	
4.1152	
-0.220193	
-1.35109	
2.35335	
-1.15525	
-8.80475	
-8.95459	
-7.12428	
-7.65126	
-7.36354	
-6.30782	
-7.83354	
-7.05243	
-8.9498	