<VTKFile type="UnstructuredGrid" version="0.1" byte_order="LittleEndian">
	<UnstructuredGrid>
		<Piece NumberOfPoints="1917" NumberOfCells="3602">
			<CellData Scalars="scalars">
				<DataArray type="Float64" Name="Doublet Strengths" NumberOfComponents="1" Format="ascii">
5.56732	
1.23354	
5.15632	
5.05195	
5.01683	
6.53057	
6.89866	
6.88589	
6.87367	
6.88692	
6.83357	
1.19612	
0.7032	
6.48644	
3.98195	
0.634336	
1.49402	
6.59471	
5.38706	
5.04917	
5.32685	
3.45041	
5.0609	
2.84858	
3.19626	
3.13355	
3.68658	
2.29122	
4.19834	
4.5127	
5.35255	
4.94128	
4.40944	
4.79692	
5.09213	
5.0682	
4.97088	
4.85106	
4.9013	
5.05806	
5.60085	
4.5431	
5.02057	
4.96455	
4.48123	
4.36169	
4.87756	
4.7631	
4.99437	
4.66122	
4.0663	
5.07185	
5.08326	
5.09377	
5.09526	
5.49308	
5.05582	
5.07449	
5.95121	
5.02997	
3.28166	
4.39641	
5.12431	
5.07331	
4.96136	
4.69103	
5.13466	
4.62762	
5.69986	
5.39283	
5.13113	
4.9695	
4.2104	
4.03858	
4.24757	
4.09445	
3.8492	
5.70489	
3.51159	
2.4313	
5.03261	
5.07672	
4.70399	
3.60643	
5.01862	
5.0311	
5.03244	
5.05793	
5.65222	
5.2521	
6.12619	
6.22836	
3.63744	
3.81641	
4.69102	
4.10407	
4.94081	
5.545	
3.52904	
3.6622	
5.75678	
5.74673	
4.73435	
4.53518	
5.19798	
5.58347	
5.61615	
4.47301	
4.52395	
4.50266	
4.55242	
4.52508	
4.54211	
4.2958	
4.19361	
5.00477	
5.01905	
5.03344	
5.01606	
5.01474	
5.01397	
5.02819	
5.00943	
5.03582	
5.02343	
5.12485	
4.61779	
4.60264	
4.76096	
3.49708	
3.1498	
5.13413	
5.28384	
2.48644	
5.12915	
5.06963	
5.05429	
5.37976	
5.32058	
5.18269	
5.15379	
5.11668	
5.11395	
5.15483	
2.76754	
1.55396	
1.78366	
2.17969	
6.60677	
6.73459	
6.669	
6.76537	
6.96571	
2.13767	
1.7398	
5.04511	
5.02045	
3.76848	
3.89909	
2.13057	
5.61292	
5.36803	
5.47124	
5.07112	
5.49953	
6.66853	
6.60492	
3.63947	
3.50063	
3.51594	
3.40521	
4.96848	
4.93158	
7.04203	
7.01666	
6.30283	
6.1125	
3.78425	
2.96504	
3.078	
4.99605	
4.99917	
5.1252	
7.04404	
6.89159	
4.29824	
4.71914	
2.5928	
2.79719	
2.81668	
2.19627	
2.35911	
2.66526	
2.99526	
2.96953	
3.17311	
3.26624	
3.03839	
3.06491	
3.37118	
3.37684	
5.01449	
5.01232	
5.01189	
2.73223	
2.41086	
2.89008	
2.72468	
6.39653	
6.53838	
4.20732	
4.08662	
4.27055	
5.32764	
5.57222	
2.81083	
2.42784	
4.96024	
4.97278	
4.93251	
4.95569	
4.90986	
4.91503	
4.87965	
4.8976	
4.04409	
4.33983	
2.18816	
5.42413	
5.18329	
5.04324	
5.06467	
5.05272	
5.07986	
5.01238	
4.67888	
4.63177	
4.69389	
4.66266	
4.84998	
4.87282	
4.84976	
4.87353	
4.19352	
4.0827	
4.21221	
4.10416	
4.81358	
4.86778	
4.80152	
5.03521	
5.03825	
5.02116	
5.0224	
4.95581	
4.97933	
4.95426	
5.28163	
1.34528	
1.61283	
4.50563	
4.58881	
4.52661	
5.31006	
5.43143	
3.57296	
3.80476	
3.4867	
5.06446	
5.0754	
5.11544	
5.86378	
5.90871	
3.74902	
3.85612	
3.95635	
5.57803	
5.07717	
5.05804	
5.2136	
5.08829	
4.78598	
4.99081	
4.81473	
4.51145	
3.2257	
3.57643	
4.99478	
4.96432	
4.97834	
5.02206	
5.03011	
4.0362	
3.99527	
4.81819	
4.80237	
4.85614	
4.73017	
4.76104	
3.65126	
3.69723	
3.80765	
5.47626	
5.97721	
5.44614	
5.9447	
4.0286	
3.13961	
4.31626	
4.3506	
4.41811	
5.26491	
5.26322	
5.1958	
5.16962	
4.19076	
4.23885	
4.33292	
4.31182	
3.90877	
4.91114	
4.93237	
4.89806	
4.92541	
7.00199	
6.2124	
6.20374	
5.47393	
5.17997	
4.76257	
4.95477	
4.918	
3.93735	
3.98203	
4.04899	
4.11444	
3.91082	
3.93027	
4.04115	
4.09775	
5.10011	
5.0298	
5.23758	
5.08181	
5.23131	
5.22174	
4.50362	
4.33896	
4.46881	
4.37946	
4.91279	
4.62341	
5.07292	
4.66457	
4.86108	
6.16475	
4.90379	
4.70684	
4.84973	
4.99795	
5.03423	
4.9908	
5.00711	
6.21702	
4.87323	
4.90203	
4.90485	
4.93101	
4.25855	
4.26502	
4.34906	
4.35455	
4.25935	
4.24998	
4.39671	
4.407	
4.80355	
4.75323	
4.85271	
4.80209	
5.97835	
7.03945	
2.50582	
1.78209	
4.49	
4.4155	
4.55069	
4.4955	
5.04822	
5.03032	
5.06252	
5.03895	
5.10844	
5.19913	
5.08566	
5.19138	
5.04885	
5.08179	
5.04554	
5.07043	
5.37915	
5.57506	
5.2883	
5.35828	
0.839211	
1.16426	
5.12238	
5.09533	
5.30957	
5.24847	
5.64737	
5.34649	
6.81797	
6.10502	
6.2713	
5.73554	
5.69321	
5.44419	
5.64806	
5.29463	
5.59804	
4.10985	
3.94428	
4.28082	
4.02567	
5.15062	
5.20687	
2.93473	
3.59909	
3.00254	
4.58657	
4.61251	
4.62234	
4.66317	
4.51213	
4.60657	
4.60314	
3.33048	
3.17465	
2.99379	
3.86011	
3.74174	
3.87645	
3.75817	
3.5109	
3.22942	
3.54676	
3.27011	
5.02632	
5.00555	
5.03382	
5.02292	
5.00241	
4.99952	
5.00768	
5.00518	
4.98668	
4.99036	
4.97707	
4.9689	
4.84493	
4.8333	
4.81128	
4.78975	
4.84538	
4.87683	
4.81779	
4.82447	
4.83843	
4.90288	
5.216	
5.16744	
4.75603	
4.80662	
4.76386	
4.79604	
5.09538	
5.28529	
5.14685	
4.96697	
5.03234	
4.9703	
5.02948	
4.92467	
4.90991	
4.92869	
4.96062	
4.92318	
4.9001	
4.89066	
3.34752	
3.00341	
3.40125	
3.22417	
4.91826	
4.96322	
4.78995	
4.27687	
5.10254	
5.18848	
2.22586	
1.89082	
4.94368	
4.91462	
5.19681	
5.36607	
5.27078	
5.63047	
5.26515	
5.86863	
5.36352	
5.30754	
4.94137	
5.11749	
5.40258	
5.58663	
5.56396	
5.07147	
5.27762	
4.89112	
4.94487	
4.89219	
4.93887	
4.88366	
4.92458	
4.87057	
4.89381	
4.95491	
4.9458	
4.98616	
4.99491	
6.17079	
4.4395	
3.99983	
3.84551	
3.5598	
5.8231	
5.81634	
4.96295	
4.94855	
4.94735	
4.92859	
4.99072	
4.94072	
4.95187	
5.03074	
5.04645	
5.01307	
5.01383	
5.03035	
5.01505	
5.39133	
5.38357	
3.99355	
3.89179	
4.24022	
5.14458	
5.14349	
5.1055	
4.084	
3.94343	
6.24123	
4.75349	
4.78775	
4.36483	
6.89077	
5.37793	
5.11018	
5.06433	
4.59154	
3.58338	
3.37569	
3.71817	
2.55897	
2.68254	
4.38864	
4.48883	
4.52023	
5.18807	
3.24608	
2.8478	
5.21143	
2.9337	
5.89609	
5.10646	
5.11543	
5.1629	
4.79715	
4.70111	
4.77751	
4.6038	
4.7003	
5.09352	
5.09172	
2.19085	
1.98772	
5.28434	
4.69015	
4.59459	
4.73892	
4.67664	
4.45708	
4.38286	
5.2517	
5.76853	
5.41419	
4.66702	
4.56296	
4.16146	
4.28696	
5.08042	
5.07901	
5.12759	
5.12796	
4.3297	
4.25119	
4.16061	
4.66491	
4.60043	
5.17632	
5.12891	
4.55677	
4.21303	
4.1192	
5.02465	
5.04147	
5.01652	
5.09934	
5.10902	
5.16952	
5.13757	
7.04093	
6.89019	
6.86242	
5.10397	
5.1425	
5.0945	
5.13705	
5.07495	
5.06224	
5.09481	
5.09037	
4.9766	
4.8991	
4.93487	
4.88011	
4.98506	
4.99815	
4.99792	
5.02415	
5.28031	
5.08176	
4.22198	
4.14566	
4.72245	
4.02158	
4.05545	
3.90019	
3.96893	
4.55185	
4.45615	
4.54557	
4.45686	
4.68598	
4.63466	
4.67911	
4.63044	
5.99455	
4.32254	
4.3435	
4.20948	
4.24373	
5.03779	
5.05854	
5.06914	
5.07755	
5.12826	
5.24397	
5.30573	
5.36636	
5.07163	
5.04183	
4.85843	
4.81765	
4.85401	
4.80197	
5.08618	
5.50581	
5.01873	
5.26889	
5.01799	
5.01493	
5.05623	
5.0695	
5.05987	
5.05869	
4.98637	
5.13303	
4.9711	
5.56957	
5.28466	
6.33474	
6.98271	
6.80552	
6.76771	
5.59104	
5.19961	
5.70942	
5.54314	
5.0059	
4.83275	
5.09823	
4.83171	
4.47383	
4.89463	
4.70607	
4.74783	
3.64013	
3.62641	
4.42066	
4.41243	
4.31189	
4.35163	
4.73872	
4.69936	
5.08493	
5.06131	
5.02058	
5.00465	
5.23154	
5.38023	
5.20993	
5.26752	
1.60915	
1.60161	
0.764411	
1.1477	
3.7529	
3.65744	
3.86906	
3.79692	
4.5595	
4.6381	
4.6115	
4.66657	
5.14118	
5.09084	
5.03974	
5.0192	
3.67028	
3.40183	
3.77394	
3.86241	
4.76263	
4.71117	
4.76866	
4.68113	
5.23327	
5.13081	
5.18769	
5.11827	
5.08197	
5.0183	
5.02705	
4.99009	
5.00255	
5.00777	
5.01496	
1.39741	
5.09697	
5.09659	
6.92761	
6.14086	
6.09802	
0.91013	
1.81586	
6.89226	
6.71298	
5.62053	
5.75443	
5.42803	
2.80315	
2.56411	
2.32782	
4.9281	
2.0923	
2.62649	
1.96678	
4.76411	
4.62057	
4.98038	
5.01423	
5.0091	
4.98408	
5.56267	
5.68922	
5.9144	
6.14705	
5.26692	
5.14963	
5.73694	
5.56158	
6.69692	
5.95594	
6.67265	
5.78412	
5.63339	
5.47946	
5.35918	
2.61056	
2.37684	
5.12232	
5.2005	
5.10323	
5.15368	
2.74461	
2.43956	
2.71404	
5.27204	
5.53606	
5.46403	
5.73041	
5.56983	
6.95824	
6.812	
3.1913	
4.98204	
4.97212	
4.90355	
5.50013	
7.03551	
6.91835	
6.1454	
6.85779	
0.86091	
1.26149	
1.72988	
1.84733	
5.21559	
5.50491	
5.44534	
5.60406	
5.15337	
5.01695	
3.27062	
3.04429	
5.58728	
5.78832	
5.98217	
6.18676	
6.33088	
6.014	
6.1019	
5.84041	
6.10016	
6.60121	
6.68026	
6.59027	
6.36378	
6.22591	
2.27783	
2.09851	
1.90424	
1.69418	
4.61046	
4.51558	
4.81664	
4.67858	
6.58408	
6.40056	
-8.93292	
-12.0053	
-12.4379	
-12.3764	
-11.1127	
-5.19772	
6.53722	
6.34915	
5.29512	
6.54701	
-2.98662	
-5.75311	
6.48873	
-4.64532	
-4.88131	
-4.17595	
-4.67574	
-11.1919	
-12.3253	
-12.21	
-11.38	
-5.11277	
-10.9955	
-1.50029	
0.791023	
-0.545909	
-6.21343	
-9.38756	
-7.9396	
-5.92089	
-3.89756	
-5.0806	
-12.3215	
-12.4255	
-12.4308	
-10.5849	
-10.3364	
-9.3719	
-0.910262	
-12.4322	
-5.99426	
1.89828	
3.42777	
-5.81182	
-9.582	
4.08411	
4.95324	
-9.46972	
-3.52787	
3.44882	
-2.96735	
-6.10129	
-8.94896	
-4.23518	
-6.8229	
-11.9689	
-11.6902	
-10.967	
-2.02813	
-0.322425	
-4.20849	
-3.18831	
-11.218	
-5.43814	
-6.0938	
-4.75791	
-5.82084	
-4.14522	
-5.44258	
-0.234428	
-4.58528	
-2.95398	
-5.15037	
-3.81927	
-10.1003	
-11.077	
-0.384687	
-7.28787	
-5.78952	
-3.64511	
-2.12619	
-3.32754	
-8.51615	
-11.0417	
-11.4633	
-11.0998	
-10.3719	
-4.69768	
-10.5611	
-9.40777	
-9.23452	
-1.92929	
-3.4527	
-11.3058	
-11.5687	
3.18393	
0.328797	
3.70366	
1.95958	
-9.44392	
-9.37625	
-8.73465	
-8.58751	
1.03201	
-2.31798	
0.437103	
3.77195	
-3.48749	
-3.65779	
-4.21706	
-4.47318	
-9.44834	
-9.12381	
-8.38962	
-7.72459	
3.70947	
-8.94664	
-7.04758	
6.10128	
0.494516	
3.13022	
-7.43054	
-12.0381	
-3.3894	
4.51386	
4.14326	
2.14768	
1.3246	
0.120275	
1.9754	
-1.23225	
-0.759737	
-8.29161	
-9.65754	
-9.80961	
-8.68996	
-6.37325	
-4.4436	
-6.28731	
-5.26449	
-0.586884	
2.29427	
-8.61249	
-7.66959	
-8.06312	
-7.1052	
0.856261	
1.76667	
2.46755	
2.74274	
-4.55906	
-4.92588	
-5.55376	
-5.81622	
-1.27377	
-2.41048	
-0.373877	
-1.56428	
-9.93733	
-7.96251	
-11.427	
-11.8058	
-11.2148	
-11.6899	
-4.08519	
-9.38966	
-10.7327	
-8.4655	
-8.11348	
-7.2342	
-6.84608	
-7.74829	
-6.99034	
-8.36028	
-7.60363	
4.01218	
6.50155	
6.38215	
-6.922	
-7.03702	
-3.70227	
-4.79537	
-4.61539	
-3.19901	
-4.38651	
-5.0513	
-6.61145	
5.04797	
5.14323	
6.35716	
2.09921	
1.38114	
-11.8756	
-12.2771	
6.44504	
6.54426	
-9.15341	
-9.56158	
-9.95207	
0.127216	
0.438515	
1.50584	
5.79741	
5.6137	
6.31572	
6.55937	
6.52323	
6.46182	
6.4726	
6.11609	
-11.0266	
-12.1375	
-12.0954	
1.38628	
0.925959	
2.98401	
1.91194	
-1.99281	
-0.887829	
-11.5207	
-11.6248	
-9.55963	
-10.3	
-10.0924	
-10.6742	
-11.9851	
-11.7616	
-11.7502	
-12.015	
-9.76713	
-10.4411	
-10.6675	
-11.6053	
-12.0255	
-12.1047	
1.14408	
0.50838	
-4.98521	
-4.53646	
-5.30808	
-4.50149	
0.861267	
-0.556123	
3.5404	
1.40698	
-9.60734	
-10.2671	
-9.13067	
-10.2015	
-11.3735	
-11.9722	
-11.1159	
-11.8142	
-11.5221	
-11.9036	
-11.4674	
-11.86	
-12.2331	
-11.9197	
-12.3944	
-12.3007	
-0.710614	
-1.81958	
-0.951266	
-2.64132	
-8.72162	
-7.80698	
-8.648	
-7.70446	
2.56276	
4.49578	
-6.83689	
-5.98206	
-7.16401	
-5.47882	
-5.21776	
-2.89074	
-3.14799	
-0.807107	
-12.2693	
-12.4243	
-3.3969	
-1.7998	
-3.20491	
-6.87598	
-5.66389	
-4.14909	
-3.59586	
-5.12489	
-5.32304	
-3.42864	
-2.12095	
-1.77471	
-2.87767	
-1.89608	
-3.89496	
-10.7926	
-10.6699	
-2.34127	
-1.70621	
-1.63328	
-0.521454	
-8.21375	
-9.37693	
-10.0912	
-9.61913	
3.14171	
-12.0299	
0.542554	
-0.292679	
-11.4977	
-11.87	
1.34667	
1.55416	
3.18571	
3.42632	
-5.25038	
-6.5325	
-4.60418	
-5.67027	
-7.2896	
-6.57397	
-8.29569	
-6.74497	
-9.72146	
-9.29153	
-10.561	
-9.5384	
-6.7428	
-5.21587	
-6.97262	
-6.28056	
-9.23089	
-8.06426	
-9.43157	
-8.90535	
-0.177738	
1.29075	
-12.3495	
-12.3614	
-12.1408	
-12.1051	
-11.2671	
-11.3491	
-11.5159	
-3.55871	
-3.81995	
3.76661	
4.69553	
0.376859	
1.57124	
-0.597438	
0.498149	
3.12221	
1.16989	
2.60464	
0.786086	
-10.1255	
-2.96009	
-2.11821	
-11.5047	
-8.30966	
-8.97469	
-7.88037	
-8.73424	
-10.6138	
-11.0336	
-10.089	
-10.5379	
-11.9609	
-11.8962	
-6.92331	
-7.8988	
-8.19175	
-9.0849	
-8.64082	
-1.27462	
-0.64087	
-2.22704	
-1.6131	
4.13587	
3.27318	
5.12131	
5.08156	
-10.5477	
-10.6622	
-7.54299	
-7.26182	
-8.26701	
-8.34734	
-12.447	
-2.77035	
-1.20132	
-6.90218	
-8.72814	
-9.3098	
-9.28888	
2.00166	
3.76131	
2.63438	
2.61297	
1.55973	
-10.0319	
-0.282649	
1.60498	
-0.583277	
0.477561	
-11.8196	
-10.2603	
-6.55158	
-5.83762	
-5.48373	
-6.31967	
-6.0717	
-5.73407	
-5.20825	
-7.4085	
-7.69774	
-8.01253	
-8.19545	
-9.1305	
-9.3448	
-10.226	
-10.524	
-11.1125	
-11.3364	
-11.7384	
-12.1438	
-11.5706	
-11.9758	
5.00972	
4.64829	
-1.78567	
-8.98588	
-8.28442	
-8.40708	
-7.70659	
-10.4636	
-10.9642	
-10.7577	
-11.2219	
-12.2494	
-0.227574	
-7.58544	
-7.79483	
-4.10637	
-4.07147	
-5.30794	
-5.82722	
-11.4539	
-11.7733	
-10.7649	
-10.8018	
-11.3307	
-11.3794	
1.43909	
-0.293759	
2.02652	
0.177687	
-8.05887	
-2.71295	
-6.3288	
-8.35614	
-2.28471	
-3.12494	
-5.14185	
-5.95692	
-4.00029	
-4.8661	
-12.0928	
-12.0904	
-11.6064	
-11.6756	
-5.03524	
-5.82522	
3.33939	
2.82691	
1.70414	
1.00867	
2.74689	
1.43535	
0.61116	
-12.4192	
-12.3197	
1.79711	
2.92229	
4.07086	
-3.68143	
-2.61888	
-2.53898	
-1.62457	
-5.13424	
-4.4362	
-4.12787	
-3.35388	
1.8291	
0.589312	
2.19238	
0.957523	
-12.2378	
-12.3626	
-11.9572	
-2.91436	
-3.94096	
-3.76682	
-3.18611	
-8.77932	
-8.84108	
-10.9091	
-11.2964	
-10.4029	
-10.5045	
-6.61227	
-5.62298	
-4.61386	
-6.46147	
-4.72744	
-4.63245	
-5.32894	
-5.41253	
-6.25863	
-5.98872	
-6.28023	
-6.90966	
-7.38112	
-12.446	
4.5611	
2.95217	
0.280697	
-1.00316	
-0.258521	
-1.13427	
-8.46559	
-9.20274	
-8.71529	
-9.52461	
-7.18905	
-5.85858	
-6.89315	
-6.05595	
-9.38578	
-11.259	
-11.1482	
6.40015	
4.88336	
3.86081	
-9.66768	
-10.1013	
-9.44459	
-9.89281	
-11.1044	
-11.2725	
-10.7156	
-11.0727	
1.13108	
0.386079	
2.56847	
2.43267	
-2.01578	
-2.17878	
-0.330416	
-1.07221	
4.02219	
3.74685	
6.29106	
2.05307	
4.35495	
6.33532	
-7.64686	
-8.11803	
-9.60979	
-9.22166	
-9.91682	
-10.251	
-10.5109	
-9.82313	
-10.4527	
-9.77941	
-12.2108	
-12.1912	
-3.49784	
-3.08734	
-4.32932	
-4.62438	
-4.74548	
-4.61913	
-5.60444	
-5.44441	
-5.72515	
-5.38333	
-6.50665	
-6.65764	
-12.1395	
-12.2834	
-12.3594	
-12.3842	
-12.3378	
-12.0616	
4.39173	
6.0872	
-11.1587	
-11.5932	
-11.6347	
-11.6281	
-11.8096	
-12.1459	
-12.2772	
-11.8623	
-11.8911	
6.53557	
-11.1824	
-11.0412	
-10.615	
-12.1704	
-12.352	
-12.3303	
-12.1979	
6.45393	
-11.449	
-11.5592	
-11.2957	
-11.2163	
4.54884	
4.43846	
6.36551	
6.19645	
4.87364	
3.82441	
6.41993	
-11.8689	
-12.2646	
-12.3445	
-12.4092	
-12.3741	
6.48132	
-12.4112	
-12.3909	
-12.3943	
-12.3826	
4.96532	
4.34462	
-12.2393	
6.51276	
6.56582	
-6.84147	
-6.70793	
-6.81527	
-6.7968	
-7.64075	
-8.49655	
-8.48415	
-9.22018	
-10.535	
-11.8726	
-6.1828	
-5.77369	
-5.30692	
-12.0356	
-11.7133	
-11.8772	
-11.775	
-8.11077	
-7.71399	
-6.84316	
-6.11515	
-10.3838	
-9.7724	
-9.79512	
-10.054	
6.47063	
6.20815	
5.93465	
-7.84016	
4.48488	
3.1156	
2.70186	
3.87978	
2.92202	
-12.1806	
-12.1961	
-12.4083	
0.848223	
1.51977	
0.547158	
1.48349	
-12.453	
-11.984	
-12.3082	
-12.3777	
-12.4397	
-12.1375	
-12.0894	
-12.0327	
-11.9868	
5.9219	
6.15896	
3.44661	
-11.8954	
-11.3973	
-11.9096	
-11.414	
-6.84875	
1.88556	
-10.4375	
-9.99635	
6.50629	
4.36486	
6.43284	
6.39443	
-10.4542	
-10.1444	
-9.89912	
-2.27581	
-2.27165	
-0.787618	
-10.9655	
-10.9779	
-12.4231	
-12.4471	
-12.3461	
-12.4648	
-12.4327	
0.18805	
-1.14949	
5.78541	
4.39846	
5.89155	
4.50764	
5.83402	
4.40409	
3.70072	
3.98512	
2.90825	
-11.6448	
-11.4796	
-11.2464	
-11.087	
-9.69115	
-9.36521	
-10.4953	
-11.9263	
-12.1333	
2.00906	
1.62075	
-0.11758	
-11.6775	
-11.6772	
-7.06178	
-6.20534	
-8.44168	
-9.06841	
-12.4575	
-12.0593	
-6.3063	
-5.97691	
-5.3377	
-7.92765	
-7.47635	
-8.8202	
-8.42611	
-8.77606	
-8.17788	
-8.54458	
-7.62285	
4.12841	
3.04937	
-7.3781	
-8.19898	
-7.50115	
-8.31495	
-3.10137	
-3.17649	
-6.85465	
-7.0348	
-9.69936	
-10.239	
-9.65486	
-10.1944	
-4.26156	
-4.47931	
-12.2353	
-12.2327	
-11.9758	
-11.7907	
-10.2579	
-10.7444	
-10.0115	
-10.5275	
-6.56436	
-7.55183	
-6.76028	
-7.28033	
-9.53265	
-10.1321	
-10.6172	
-9.49417	
-10.4473	
-9.71693	
-0.317088	
-1.50666	
-2.027	
6.31726	
4.55461	
-10.7531	
-10.8678	
-11.1136	
-2.06412	
-1.8879	
-1.16688	
-8.28885	
-7.95953	
-7.56954	
-7.03946	
-1.50191	
-1.11926	
-1.99015	
-2.65068	
-3.39479	
-10.8711	
-11.0303	
4.64789	
6.306	
6.20674	
6.19339	
-0.828171	
-1.2105	
6.08792	
6.49833	
5.07598	
6.38246	
-12.1246	
-12.3461	
-11.7295	
-12.0537	
-3.45913	
-2.9167	
-1.29498	
4.8146	
6.36612	
-12.4696	
-12.4006	
-12.4523	
-12.3215	
-0.857094	
-0.0486019	
-2.31847	
-0.91049	
4.47763	
2.56555	
2.86187	
1.55507	
1.61428	
-0.889428	
-1.89169	
0.155943	
-1.5013	
4.42374	
3.61463	
-7.13021	
-8.1157	
-6.94557	
-7.78232	
-2.51277	
-3.46586	
-3.25307	
-4.1805	
6.43754	
6.34686	
-10.5418	
-9.98257	
4.83823	
4.47208	
6.53142	
6.31033	
3.36311	
2.34428	
0.893912	
0.114976	
-1.09207	
-0.971833	
-0.489649	
-0.304935	
-0.744572	
0.222596	
0.414638	
1.0276	
1.78599	
1.36555	
0.698032	
-0.0575498	
-1.23016	
-1.11311	
-0.677233	
-0.900803	
-0.437895	
1.93095	
-0.137013	
1.48204	
0.662128	
1.05214	
0.304417	
-1.33207	
1.7058	
1.15914	
0.346369	
-0.160417	
0.629719	
-0.966899	
-1.14642	
-1.61068	
-1.87011	
-1.89685	
-1.42042	
-0.592978	
1.422	
0.913668	
-0.969627	
-0.158158	
-0.542265	
0.284993	
-1.61928	
-1.82591	
-1.59852	
-1.67968	
-1.44476	
-1.20754	
1.89344	
5.26531	
0.847736	
5.15938	
5.05686	
5.01704	
6.6062	
6.92486	
6.9439	
6.87214	
7.01917	
6.83236	
1.22163	
0.774147	
6.47654	
3.98099	
0.66429	
1.65662	
6.61369	
6.59579	
5.39568	
6.88484	
5.65461	
4.98896	
5.23034	
5.56229	
3.54582	
5.04813	
5.16004	
2.86683	
3.04467	
3.13368	
3.68423	
2.34134	
4.19529	
4.50796	
5.41594	
4.9307	
4.40424	
4.77103	
5.02931	
4.92609	
4.82595	
4.89674	
5.01458	
5.624	
4.44947	
5.01352	
4.95627	
4.47157	
4.41256	
4.81283	
4.75381	
4.98231	
4.6377	
4.04311	
5.09525	
5.09681	
5.08158	
5.08316	
5.56011	
5.05241	
5.07667	
5.95499	
5.02469	
3.27738	
4.39048	
5.05905	
5.07483	
4.96074	
5.11807	
4.53991	
4.61273	
5.6992	
5.28246	
5.17414	
4.98054	
6.19877	
4.18482	
4.08873	
4.2049	
4.09211	
4.85488	
3.83201	
5.73268	
3.81415	
2.42739	
5.07636	
4.68755	
3.59462	
5.03002	
5.03459	
5.01536	
5.01932	
5.62216	
5.25748	
5.18912	
5.06688	
6.13207	
3.81223	
3.65942	
4.70497	
5.13595	
4.10198	
5.09001	
4.90842	
5.52451	
3.63537	
3.52655	
5.77037	
5.86164	
4.68249	
4.61543	
5.24604	
5.46729	
5.58164	
4.49895	
4.54898	
4.46817	
4.51905	
4.68666	
4.52099	
4.27733	
4.29263	
4.99141	
5.02263	
5.00588	
5.00118	
5.00631	
5.02568	
5.01068	
5.01979	
5.0063	
5.14466	
4.59957	
4.67554	
4.70007	
3.49457	
3.32236	
5.13165	
5.39165	
2.48177	
5.12825	
5.075	
1.73238	
5.05424	
5.3336	
5.31901	
5.19905	
5.19142	
5.11706	
5.16139	
5.1167	
2.76361	
1.78949	
1.55296	
2.18369	
6.73808	
6.96559	
6.76446	
2.25556	
5.04232	
5.02133	
3.76543	
3.978	
5.39561	
5.70023	
5.5097	
5.05906	
5.54393	
5.37515	
6.53138	
6.66921	
3.48907	
3.32975	
3.63366	
3.4825	
4.96553	
4.92892	
6.86146	
6.24209	
3.77804	
2.95741	
2.99781	
4.95304	
4.98068	
5.01083	
6.89158	
7.0461	
4.33834	
4.70283	
2.76256	
2.64067	
2.84442	
2.9819	
3.02334	
3.14217	
3.1901	
3.07153	
3.19754	
3.23287	
3.36974	
5.00976	
5.00973	
5.01232	
2.89331	
2.31446	
2.73206	
2.41681	
6.5247	
4.20108	
4.10898	
5.36936	
5.34686	
4.96756	
4.9529	
4.95095	
4.92445	
4.90256	
4.88074	
4.88527	
4.85867	
4.18753	
6.63749	
4.67623	
5.01615	
5.05779	
2.2083	
1.96353	
5.40793	
5.17194	
5.04911	
5.07336	
5.03818	
5.04291	
4.98232	
4.68157	
4.6115	
4.66888	
4.62231	
4.83511	
4.86239	
4.81664	
4.85256	
4.20757	
4.0989	
4.24674	
4.79768	
4.88115	
5.04761	
5.03386	
5.01964	
5.0192	
4.94151	
4.95551	
5.2849	
5.18681	
4.53623	
4.51608	
4.5762	
5.45521	
5.48706	
3.74512	
3.5696	
3.48208	
5.04144	
5.09272	
5.05503	
6.20385	
5.86333	
5.90812	
3.85204	
3.8001	
3.95191	
5.63656	
5.0955	
5.01068	
5.05381	
4.99871	
4.91591	
4.79688	
4.76815	
4.50179	
3.21446	
3.82019	
4.9448	
4.96047	
4.97628	
5.02747	
5.02244	
4.07825	
4.03221	
3.99089	
4.79072	
4.83476	
4.7772	
4.7348	
4.71599	
3.71474	
3.65566	
3.81109	
5.70599	
5.50395	
5.95333	
5.61883	
4.38432	
3.1302	
4.3233	
4.26385	
4.40627	
4.34272	
5.16337	
5.23746	
5.23698	
4.23246	
4.24181	
4.32677	
3.96855	
4.18534	
4.89482	
4.91025	
4.89038	
4.90961	
7.00308	
6.2141	
5.88283	
5.17812	
4.75718	
5.11423	
4.92575	
3.89575	
3.93294	
4.08185	
4.04359	
3.85576	
3.90564	
4.03307	
4.0354	
5.21639	
5.0807	
5.10123	
5.02852	
5.20833	
5.21529	
5.37088	
4.46341	
4.37565	
4.5008	
4.41005	
4.62188	
4.92655	
4.54083	
5.10384	
4.82919	
4.41313	
4.82794	
4.68838	
4.98367	
5.00157	
4.99057	
5.01354	
5.98387	
6.02963	
4.89802	
4.92419	
4.86834	
4.89173	
4.25975	
4.25373	
4.34941	
4.34445	
4.19049	
4.25744	
4.33637	
4.40127	
4.82246	
4.77807	
4.78365	
4.74356	
6.13939	
2.50218	
1.77977	
4.55026	
4.48648	
4.48123	
4.40947	
5.06029	
5.02082	
5.06198	
5.02187	
5.15514	
5.10881	
5.19076	
5.07143	
5.03611	
5.06952	
5.04349	
5.59422	
5.39194	
5.58424	
5.2958	
1.15458	
0.803261	
5.09609	
5.12029	
5.58732	
5.34574	
5.50666	
5.24769	
6.808	
6.2787	
6.11638	
5.98892	
5.74862	
5.78551	
5.33446	
5.72873	
5.41154	
3.93768	
4.10441	
4.02078	
4.1891	
5.21506	
5.16982	
2.93155	
2.99761	
3.59154	
4.59994	
4.57569	
4.64907	
4.64994	
4.53752	
4.59501	
4.62386	
2.9668	
3.87222	
3.75534	
3.92547	
3.73881	
3.45101	
3.27528	
3.51055	
3.37719	
4.988	
5.01163	
4.97572	
5.01099	
5.00202	
4.99562	
4.99232	
4.98896	
4.97864	
4.97403	
4.968	
4.96304	
4.83034	
4.82372	
4.79125	
4.79273	
4.86283	
4.83311	
4.84632	
4.8064	
4.80984	
4.93586	
6.40364	
5.12087	
5.11326	
5.18824	
4.75224	
4.78345	
4.74231	
4.77348	
5.09229	
5.15697	
4.95237	
4.92974	
4.98635	
4.9587	
4.89433	
4.90157	
4.88645	
4.89261	
4.925	
4.86668	
4.87258	
5.09802	
5.10781	
3.39253	
3.21825	
3.33687	
3.07018	
4.87216	
4.8881	
5.03345	
4.27422	
4.78565	
5.10469	
5.22427	
2.22376	
1.88879	
5.06735	
4.92526	
5.28574	
5.11263	
5.5388	
5.42158	
5.10384	
5.33654	
5.21501	
5.40676	
4.96984	
5.37858	
5.30023	
5.52292	
5.08715	
5.22092	
5.08346	
4.85868	
4.89945	
4.86007	
4.90495	
4.84559	
4.86483	
4.85714	
4.89129	
4.95583	
4.93672	
4.93085	
4.91839	
5.41419	
3.55874	
3.5404	
4.22572	
3.96555	
5.87091	
5.85056	
4.93218	
4.94396	
4.91522	
4.92664	
4.98175	
4.94151	
4.94093	
4.92773	
5.04217	
5.02791	
5.0123	
5.0114	
5.01521	
3.91433	
4.02707	
4.24363	
5.0994	
5.14233	
5.13514	
4.08263	
3.95148	
5.38369	
4.73776	
4.77542	
4.35959	
6.89038	
5.08309	
5.11302	
4.57518	
3.7537	
3.61756	
3.40106	
4.47627	
4.33705	
4.50987	
3.29563	
2.90332	
5.09741	
5.8247	
3.02397	
2.79825	
6.72035	
6.66536	
4.77675	
4.79871	
4.76182	
4.68866	
4.59086	
5.08993	
5.12632	
2.05501	
5.23151	
4.73761	
4.6157	
4.68137	
4.58923	
4.44655	
4.37423	
5.56736	
5.40033	
5.20087	
4.1913	
4.29913	
4.38422	
4.55605	
5.09293	
5.08967	
5.04781	
5.0411	
4.24528	
4.30969	
4.15475	
4.65248	
4.58982	
6.38847	
6.24749	
4.56669	
4.09959	
4.2032	
5.01562	
5.02379	
5.03466	
6.86229	
5.14293	
5.09914	
5.057	
5.07292	
5.06048	
5.08967	
4.90202	
4.98123	
4.87903	
4.93497	
4.99691	
4.99087	
4.96038	
4.96776	
5.07919	
5.27446	
4.1394	
4.21514	
5.11126	
5.0952	
5.15853	
5.11338	
4.74755	
6.6893	
6.71255	
4.04977	
4.01807	
3.9632	
3.86201	
4.49634	
4.44903	
4.54382	
4.50541	
4.63078	
4.70174	
4.6011	
4.67263	
5.98297	
4.20675	
4.23751	
4.31479	
4.37887	
5.30393	
5.36418	
5.13848	
5.24202	
4.81264	
4.86253	
4.79418	
4.81557	
5.49051	
4.89788	
5.24835	
4.99788	
5.04005	
5.0698	
4.94169	
5.00752	
4.9358	
5.02356	
5.24704	
5.38433	
5.05406	
5.04448	
5.05564	
6.98232	
6.33443	
6.76705	
6.80506	
5.12528	
5.29329	
5.16558	
5.54774	
5.02767	
5.01345	
4.96413	
4.83538	
5.01409	
4.83477	
4.74421	
4.68291	
4.84737	
4.88135	
5.07701	
3.61679	
3.6334	
4.30502	
4.34484	
4.35385	
4.40476	
4.73077	
4.69101	
5.12246	
5.082	
5.00042	
5.01602	
5.37371	
5.2304	
5.5506	
5.21008	
1.62949	
1.65034	
1.16699	
0.712505	
3.61765	
3.74643	
3.79047	
3.89467	
4.6251	
4.54106	
4.65355	
4.59834	
5.08763	
5.09059	
5.02956	
5.03507	
3.93741	
3.58002	
3.70013	
3.47125	
4.69507	
4.74218	
4.66587	
4.70391	
5.13037	
5.29333	
5.11354	
5.16106	
5.0218	
5.01455	
4.99111	
4.97968	
5.00516	
4.99892	
5.01147	
5.00439	
5.03038	
5.03606	
2.15653	
5.08692	
5.08622	
6.93086	
6.10163	
6.14486	
6.86764	
6.09274	
7.05512	
7.06084	
6.17421	
5.99587	
2.37444	
2.77112	
2.66627	
1.95367	
1.5382	
1.21761	
4.78681	
6.75748	
6.88451	
2.53056	
2.28214	
5.42339	
1.50008	
2.01583	
2.62148	
2.08918	
1.96391	
4.71833	
4.94248	
4.70657	
5.00112	
4.97393	
5.00688	
5.58285	
5.76546	
7.03295	
7.02771	
6.29583	
5.61739	
5.77985	
5.35717	
5.48482	
5.11123	
5.04108	
5.14388	
5.05047	
2.43514	
2.73846	
5.19882	
5.35924	
5.1559	
5.58258	
5.72448	
6.8083	
6.95865	
3.22299	
2.45936	
2.75101	
2.8381	
2.40748	
2.77378	
4.96135	
4.97304	
4.9321	
5.5049	
6.91788	
7.03524	
2.47574	
2.70304	
5.31024	
5.2399	
5.60786	
5.44968	
2.47432	
2.63488	
2.0842	
2.4227	
1.22672	
1.79919	
1.94566	
6.11667	
6.28042	
6.12749	
5.31853	
5.21683	
5.06523	
4.99381	
4.8772	
3.27805	
3.04526	
3.32421	
3.14483	
5.78823	
5.6484	
6.18683	
6.21775	
0.907618	
1.81242	
1.41428	
4.92898	
5.55338	
5.7105	
5.68908	
4.89194	
4.65454	
4.5926	
4.50227	
1.70293	
1.21997	
1.67799	
1.19267	
6.39859	
6.42529	
6.45687	
-8.92147	
-11.9975	
-12.4324	
-12.2263	
-11.12	
6.52619	
6.33133	
5.30132	
6.58283	
-2.949	
-5.98581	
6.38478	
-4.65251	
-4.88537	
-4.17434	
-4.07433	
-11.1629	
-11.8106	
-11.1829	
-5.11319	
-10.9828	
-12.2522	
-1.49814	
0.789274	
-0.544706	
-6.92056	
-9.67503	
-8.48489	
-5.9128	
-5.0852	
-4.68607	
-12.3641	
-12.3759	
-12.2603	
-9.72229	
-9.72114	
-10.6737	
-0.907768	
-12.4215	
-5.98776	
1.89466	
3.42078	
-5.8041	
-9.57205	
3.81648	
4.35907	
-9.45243	
-3.52281	
3.44818	
-2.96526	
-6.09266	
-8.84461	
-4.9185	
-6.81335	
-11.9353	
-11.6804	
-10.9725	
-2.02196	
-0.316276	
-4.20603	
-4.12248	
-11.2002	
-5.94781	
-5.43038	
-4.62373	
-5.42622	
-4.18141	
-5.47668	
-1.27277	
-5.14519	
-3.81521	
-5.32391	
-3.45548	
-9.84731	
-10.5287	
-0.384014	
-5.71839	
-6.77145	
-3.64138	
-3.32397	
-2.1233	
-8.55641	
-11.4876	
-11.0778	
-10.3572	
-4.70058	
-10.5522	
-9.37	
-9.21884	
-1.9271	
-3.44897	
-11.281	
-11.5425	
2.33931	
0.839911	
3.698	
1.95933	
-8.30264	
-8.57352	
-9.4297	
-9.75012	
1.02218	
0.432278	
3.77666	
-4.74578	
-4.4684	
-3.45766	
-3.65206	
-7.76884	
-8.27746	
-9.11292	
-9.10085	
3.71841	
-8.937	
-7.05192	
6.09586	
0.493545	
3.1254	
-7.48499	
-12.0177	
-3.15801	
4.14016	
3.74557	
2.14724	
1.32403	
1.97449	
1.40717	
-1.23058	
-0.759056	
-9.89376	
-8.36215	
-8.8816	
-9.23752	
-6.27929	
-4.3812	
-6.78835	
-5.31693	
-0.584918	
2.30143	
-7.27836	
-7.09527	
-8.60046	
-8.41886	
1.77097	
1.14717	
2.74881	
2.47219	
-5.54576	
-5.80756	
-4.55251	
-4.22891	
-0.372844	
-2.53608	
-0.2342	
-2.40802	
-11.9443	
-9.91997	
-7.97719	
-11.2193	
-11.6817	
-11.8025	
-4.08526	
-5.9768	
-10.7174	
-7.21548	
-7.21395	
-8.04398	
-8.09529	
-8.35182	
-6.90296	
-8.39839	
-6.98386	
5.07346	
6.3516	
-7.03621	
-6.21281	
-4.7891	
-2.61512	
-4.609	
-5.25793	
-5.04468	
-3.1951	
-7.11968	
5.1425	
6.35222	
2.09691	
1.37925	
-11.8197	
-12.0625	
6.54021	
6.43904	
-9.53158	
-9.02869	
-10.1973	
0.0743191	
1.50328	
0.435113	
5.62551	
5.82441	
6.26723	
6.44566	
6.43199	
6.47123	
6.46056	
6.11445	
-11.0218	
-12.1278	
-12.0976	
2.98172	
1.91109	
2.60197	
0.925697	
-1.97439	
-0.921202	
-11.6128	
-11.5065	
-10.5966	
-10.6552	
-9.54664	
-9.37371	
-11.9604	
-11.7472	
-11.7248	
-11.9955	
-10.4194	
-9.35938	
-10.6404	
-11.9911	
-11.3068	
-12.0612	
0.278837	
0.507022	
-4.98684	
-5.1929	
-4.48682	
-4.49518	
0.860481	
-0.553817	
0.121751	
3.53934	
-10.2428	
-9.58846	
-10.1774	
-9.42669	
-11.7542	
-11.3391	
-11.7501	
-11.2849	
-11.4353	
-11.8171	
-11.4922	
-11.8646	
-11.9066	
-12.3643	
-12.0323	
-12.3932	
-2.01349	
-2.6383	
-0.710001	
-1.81755	
-8.35328	
-8.71936	
-7.70183	
-8.17633	
4.49899	
3.42917	
-5.76475	
-6.84665	
-7.18132	
-5.2174	
-5.48195	
-0.804827	
-2.31486	
-1.89257	
-3.14312	
-12.4171	
-12.2715	
-3.39875	
-3.20577	
-1.7993	
-5.67639	
-5.11931	
-4.43845	
-4.14454	
-3.59189	
-3.45039	
-2.18113	
-2.88615	
-3.99426	
-1.77128	
-2.87301	
-1.63617	
-0.607719	
-2.3706	
-1.74371	
-8.22348	
-10.1619	
-9.46333	
-9.68925	
3.1449	
-12.1254	
-0.291338	
0.544349	
-11.8623	
-11.5035	
1.55627	
2.02723	
2.56722	
3.18612	
-4.59848	
-5.66297	
-4.4309	
-6.31638	
-6.56333	
-8.04674	
-6.73388	
-7.71075	
-9.25737	
-10.2522	
-9.4974	
-10.1829	
-5.82126	
-6.73444	
-5.40796	
-6.96588	
-8.44476	
-9.20942	
-8.2719	
-9.40935	
1.70461	
-0.17579	
1.29151	
-12.0812	
-12.2143	
-12.2443	
-12.2898	
-11.5473	
-11.5064	
-11.2694	
-3.77854	
-3.55161	
4.70208	
3.77286	
1.56166	
0.369706	
0.499252	
-0.52683	
1.38503	
0.785229	
3.11805	
2.42887	
-10.2191	
-1.97952	
-2.76266	
-11.489	
-8.9637	
-7.63183	
-8.72448	
-7.87169	
-11.0203	
-10.0792	
-10.9503	
-10.0787	
-11.8733	
-11.9412	
-7.95	
-8.62888	
-8.6182	
-9.08206	
-2.22562	
-1.61253	
-1.27401	
-0.64108	
3.2705	
4.13296	
4.00654	
5.11613	
-7.26626	
-7.54894	
-7.80851	
-8.28437	
-10.6171	
-12.3994	
-2.72865	
-1.18231	
-6.9226	
-8.86012	
-9.19632	
-8.68434	
1.99604	
2.64137	
3.77582	
1.57529	
2.61288	
-10.0505	
-0.5814	
1.43574	
-0.280783	
1.00964	
-12.0583	
-10.3562	
-7.56105	
-6.56217	
-5.81321	
-5.83832	
-6.07003	
-6.3174	
-5.30092	
-5.72341	
-7.9966	
-8.18222	
-7.40567	
-7.27942	
-9.36294	
-9.11455	
-11.0084	
-11.0833	
-10.4532	
-10.4942	
-11.5548	
-11.9543	
-11.4661	
-12.023	
4.64724	
5.00868	
-7.74044	
-7.69835	
-8.97427	
-8.89057	
-11.0901	
-11.208	
-10.4561	
-10.5256	
-12.1947	
-0.269449	
-7.80578	
-7.61807	
-4.06854	
-4.10399	
-5.21244	
-5.30186	
-11.4552	
-11.7707	
-11.5788	
-11.3586	
-10.7416	
-10.4933	
0.157115	
1.43945	
0.179148	
1.34798	
-8.04781	
-2.50902	
-8.33875	
-6.52183	
-3.12023	
-2.28104	
-6.08451	
-5.13435	
-4.85884	
-3.88914	
-11.5814	
-11.8838	
-11.7928	
-12.054	
-5.8295	
-5.03662	
2.82676	
2.95191	
1.6055	
2.74646	
0.611649	
0.478514	
-12.317	
-12.4179	
2.92122	
1.79635	
4.06863	
-3.6975	
-3.67714	
-1.62195	
-1.56199	
-5.24128	
-5.12454	
-3.35026	
-3.18531	
2.18917	
0.955757	
1.82828	
0.589874	
-12.2309	
-12.445	
-2.91626	
-1.79106	
-4.16242	
-3.40327	
-3.93915	
-9.69775	
-8.78519	
-11.2866	
-10.9218	
-11.0476	
-10.468	
-5.62379	
-6.61539	
-4.61342	
-4.72819	
-6.4653	
-4.58097	
-4.62812	
-6.25293	
-6.27524	
-6.2737	
-5.98268	
-7.37336	
-7.59607	
-12.4235	
3.33894	
4.56019	
-0.251852	
-1.12915	
0.860321	
-1.00442	
-9.33129	
-9.52708	
-8.48757	
-8.69878	
-6.86038	
-5.98226	
-7.22695	
-6.70467	
-9.33052	
-10.0925	
-9.65781	