<VTKFile type="UnstructuredGrid" version="0.1" byte_order="LittleEndian">
	<UnstructuredGrid>
		<Piece NumberOfPoints="1917" NumberOfCells="3602">
			<CellData Scalars="scalars">
				<DataArray type="Float64" Name="Doublet Strengths" NumberOfComponents="1" Format="ascii">
1.50066	
0.30031	
1.23081	
1.20774	
1.12023	
2.94307	
0.573037	
0.563931	
0.541829	
0.532958	
0.694519	
0.309231	
0.107233	
2.56149	
0.288982	
0.124931	
0.239272	
2.64052	
0.435025	
0.750001	
0.671532	
0.675931	
0.824292	
0.482528	
0.550842	
0.518193	
0.719932	
0.410069	
0.773754	
0.829937	
0.764225	
0.919255	
0.80781	
0.59987	
0.701938	
0.67625	
0.747482	
0.846923	
0.830154	
0.992623	
0.896225	
0.910254	
0.8097	
0.864211	
0.84303	
0.902164	
0.804553	
0.884199	
0.803961	
0.491301	
0.543064	
0.769431	
0.780615	
0.734711	
0.752536	
1.08112	
0.774054	
0.73811	
0.700147	
0.79562	
0.545691	
0.829019	
0.844757	
0.750545	
0.775886	
0.864097	
0.905729	
0.771985	
0.810376	
0.824661	
0.75816	
0.776527	
0.806274	
0.916231	
0.849777	
0.986946	
0.61335	
1.51681	
0.481324	
0.38716	
0.787456	
0.750913	
0.824697	
0.475799	
0.866173	
0.968836	
0.834516	
1.00777	
0.772936	
0.808083	
0.66222	
0.611665	
0.824458	
0.737589	
0.771952	
0.664178	
0.804745	
0.853427	
0.673091	
0.808471	
0.672209	
0.645938	
0.889935	
0.833137	
0.70936	
0.728405	
0.70584	
0.820461	
0.861009	
0.827209	
0.878765	
0.847136	
0.895069	
0.810892	
0.771743	
0.802548	
0.811557	
0.808066	
0.792871	
0.798804	
0.795439	
0.802577	
0.783611	
0.786468	
0.78949	
1.03545	
0.889763	
0.973784	
0.848773	
0.64415	
0.566491	
0.929045	
0.946477	
0.395261	
0.98055	
1.05445	
0.828878	
0.706016	
0.683777	
0.719291	
0.709408	
0.804783	
0.75847	
0.74187	
0.460755	
0.234522	
0.274502	
0.348822	
1.23457	
1.64202	
1.05839	
0.627683	
0.698773	
0.374449	
0.302373	
1.20245	
1.08504	
0.764789	
0.911359	
0.435972	
0.961018	
0.870001	
0.799809	
0.797257	
0.740642	
2.93067	
2.84858	
0.648246	
0.631425	
0.612099	
0.601623	
0.809831	
0.819662	
0.572683	
0.563188	
0.609392	
0.647378	
0.64371	
0.585461	
0.534688	
0.782307	
0.758459	
0.774652	
0.59886	
0.57075	
0.625754	
0.734851	
0.462695	
0.639808	
0.488663	
0.363493	
0.395662	
0.442597	
0.530573	
0.563581	
0.567465	
0.578488	
0.517331	
0.536609	
0.626227	
0.738359	
0.833759	
0.904646	
0.81979	
0.443623	
0.428168	
0.468478	
0.443919	
1.12278	
1.39256	
1.03935	
0.997062	
1.02307	
0.708241	
0.655361	
0.463737	
0.398627	
0.846645	
0.81562	
0.881723	
0.819633	
1.05724	
0.943972	
1.04229	
0.954218	
0.548664	
0.572989	
0.305782	
1.09581	
0.991964	
0.800956	
0.754397	
0.770551	
0.742413	
0.607323	
0.869457	
0.900597	
0.877399	
0.843465	
0.931709	
0.923232	
1.06806	
1.05705	
0.758362	
0.764672	
0.758192	
0.750076	
0.811827	
0.840689	
0.841569	
0.809373	
0.798587	
0.808623	
0.799063	
1.06686	
0.977815	
1.04666	
0.912905	
0.331706	
0.316362	
0.979193	
0.804189	
0.843577	
0.763444	
0.929266	
0.657714	
0.69436	
0.598205	
0.8647	
0.963629	
0.964252	
0.760196	
0.928251	
0.771387	
0.731598	
0.726632	
0.749076	
0.76133	
0.75206	
0.77189	
0.773519	
0.713078	
0.709886	
0.70916	
0.737206	
0.654454	
0.707393	
0.857327	
1.03154	
0.932488	
1.16532	
1.22017	
0.80459	
0.744029	
0.742163	
0.935266	
0.786823	
0.874133	
0.944837	
0.612372	
0.614407	
0.628449	
0.801921	
0.64242	
0.769483	
0.657783	
0.553996	
0.491734	
0.769676	
0.98693	
0.939329	
0.874921	
0.950421	
0.803487	
0.913876	
0.981685	
1.01329	
0.840571	
0.560672	
0.732411	
0.938636	
1.07177	
1.04627	
1.07943	
0.590736	
0.627528	
0.665107	
0.740011	
0.730538	
0.856613	
0.81818	
0.795955	
0.936779	
0.929387	
1.00296	
1.03029	
0.743388	
0.813012	
0.758005	
0.808544	
0.758385	
0.780832	
0.755549	
0.794786	
0.763284	
0.783371	
0.81636	
0.779718	
0.807853	
0.781816	
0.938474	
0.864833	
1.07781	
0.879143	
0.746707	
0.690734	
0.742775	
0.674994	
0.620148	
0.838305	
0.833492	
0.852283	
0.824314	
0.696614	
1.02887	
0.978991	
0.88213	
0.886796	
0.767459	
0.781913	
0.776036	
0.788355	
0.770942	
0.764669	
0.797355	
0.795108	
0.992681	
0.879369	
0.84854	
0.95997	
0.726002	
0.636961	
0.41124	
0.326163	
0.839127	
0.823377	
0.776153	
0.789352	
0.786215	
0.774631	
0.75717	
0.768455	
0.719264	
0.692945	
0.727231	
0.689435	
0.783209	
0.759173	
0.857887	
0.769146	
0.670003	
0.651938	
0.678656	
0.679087	
0.269189	
0.22847	
1.06884	
1.13721	
0.892822	
0.937764	
0.809898	
0.959402	
0.63131	
0.651836	
0.609944	
0.65294	
0.681458	
0.827471	
0.765033	
0.721706	
0.755894	
0.682429	
0.666888	
0.760661	
0.719356	
0.834498	
0.767498	
0.295504	
0.401721	
0.350218	
0.87824	
0.8207	
0.868067	
0.81907	
0.903726	
1.02377	
1.01486	
0.584044	
0.567547	
0.572295	
0.756601	
0.756808	
0.809856	
0.747096	
0.793906	
0.607645	
0.694567	
0.618986	
0.823232	
0.820098	
0.843201	
0.848909	
0.786033	
0.787723	
0.780294	
0.780266	
0.838327	
0.902447	
0.897287	
1.01672	
0.935782	
1.0349	
1.00492	
0.932296	
1.06289	
0.919141	
1.03102	
1.0059	
0.715528	
0.689483	
0.780222	
0.966974	
0.896947	
0.983293	
0.890614	
0.942561	
0.864344	
0.715677	
0.763754	
0.814755	
0.804196	
0.838586	
0.855085	
0.835217	
0.89274	
0.872304	
0.760114	
0.781576	
0.843638	
0.881305	
0.58174	
0.49404	
0.569898	
0.528524	
0.718454	
0.681089	
0.399896	
0.338105	
0.743262	
0.739873	
0.350953	
0.297508	
0.614977	
0.653987	
0.668758	
0.672713	
0.712066	
0.759235	
0.724474	
0.760162	
0.739761	
0.744217	
0.762884	
0.65817	
0.666915	
0.699652	
0.715131	
0.696036	
0.642056	
0.772416	
0.730362	
0.784074	
0.757018	
0.815599	
0.795888	
0.852973	
0.828166	
0.900802	
0.861467	
0.870557	
0.846391	
0.698186	
0.631726	
0.762166	
0.635661	
0.725442	
1.26805	
1.09691	
1.05009	
1.08291	
1.01649	
0.967784	
0.859144	
1.0654	
1.00866	
0.881453	
1.06595	
0.845126	
0.87978	
0.826724	
0.942379	
0.746531	
0.740425	
0.619877	
0.612307	
0.617422	
0.834362	
0.880848	
0.816725	
0.683208	
0.662633	
0.674461	
0.702605	
0.668717	
0.621753	
0.658217	
0.833005	
0.911197	
0.857925	
0.656734	
0.598249	
0.548849	
0.735017	
0.48897	
0.579574	
0.659547	
0.666308	
0.686509	
0.843899	
0.513912	
0.503174	
0.779119	
0.503385	
0.619562	
0.805489	
0.780132	
0.772921	
0.818061	
0.928676	
0.826268	
0.688323	
0.66641	
0.881695	
0.765217	
0.407364	
0.537625	
0.729299	
0.863453	
0.874332	
0.867287	
0.919186	
0.719288	
0.758531	
0.797863	
0.751639	
0.750027	
0.590678	
0.58194	
0.597329	
0.585611	
0.84779	
0.883994	
0.832925	
0.866805	
0.826263	
0.981752	
0.965716	
0.772029	
0.753541	
0.779798	
0.831913	
0.715028	
0.668623	
0.636498	
0.897026	
0.82897	
0.946714	
0.884756	
0.935542	
0.798975	
0.935552	
0.643718	
0.582219	
0.52642	
0.71514	
0.698759	
0.733174	
0.706968	
0.967426	
0.941322	
0.904006	
0.854594	
0.758269	
0.78512	
0.775619	
0.790163	
0.905021	
0.878293	
0.863288	
0.883448	
0.452392	
0.443961	
0.742981	
0.784249	
0.75504	
0.677956	
0.739956	
0.668627	
0.776938	
1.01082	
0.874202	
0.992587	
0.96998	
0.907968	
1.00672	
0.990702	
1.03345	
0.622288	
0.634502	
0.69601	
0.660635	
0.69337	
0.850266	
0.841426	
0.821638	
0.83628	
0.800097	
0.750421	
0.80225	
0.753823	
0.792351	
0.803678	
0.819989	
0.852841	
0.907389	
0.970928	
0.629864	
0.652352	
0.678727	
0.660478	
0.849554	
0.906498	
0.78584	
0.783657	
0.79847	
0.693809	
0.702867	
0.660726	
0.691267	
0.755425	
0.758425	
0.709841	
0.620388	
0.637801	
0.548891	
0.732948	
0.734328	
0.732086	
0.733236	
0.906594	
0.868311	
0.85091	
0.841822	
0.650525	
0.762414	
0.893042	
0.870623	
0.608835	
0.59838	
0.87168	
0.888717	
0.946762	
0.870979	
0.865921	
0.880514	
0.849791	
0.827327	
0.818021	
0.809511	
1.09129	
1.22403	
1.13478	
1.30825	
0.234027	
0.247994	
0.121344	
0.169162	
0.700434	
0.632095	
0.710274	
0.644445	
0.776844	
0.740802	
0.755998	
0.735833	
0.9062	
0.921075	
0.811711	
0.820285	
0.583625	
0.505554	
0.534697	
0.510934	
0.876092	
0.806244	
0.770583	
0.77226	
0.732743	
0.740355	
0.721814	
0.729146	
0.81525	
0.844782	
0.820617	
0.837025	
0.802272	
0.821439	
0.791349	
0.293634	
0.790562	
0.784319	
0.659423	
0.676789	
0.668379	
0.261011	
0.367692	
0.656667	
0.622659	
0.587968	
0.553754	
0.520086	
0.672002	
0.645519	
0.617831	
0.590659	
0.332494	
0.445811	
0.334777	
0.886169	
0.855992	
1.00479	
0.81495	
0.826969	
0.89025	
0.74206	
0.721163	
0.739255	
0.688071	
0.962803	
0.995612	
1.1406	
1.23679	
0.845837	
0.788338	
0.718733	
0.682464	
0.70173	
0.712111	
0.713011	
0.521281	
0.498946	
0.751653	
0.767384	
0.847437	
0.855974	
0.413935	
0.359206	
0.411009	
0.732398	
0.736827	
0.730115	
1.80822	
1.30172	
0.700019	
0.657825	
0.420747	
0.877164	
0.916847	
0.962574	
1.3873	
0.605762	
0.611591	
0.706474	
0.689429	
0.320352	
0.298774	
0.389961	
0.388812	
0.797961	
0.793667	
0.741062	
0.748355	
1.06262	
0.984401	
0.543547	
0.533583	
0.94557	
0.788981	
0.713522	
0.711527	
0.671776	
0.707391	
0.779367	
0.769358	
0.89603	
0.835447	
0.957984	
0.82226	
0.915094	
0.776267	
0.404961	
0.364326	
0.302358	
0.288875	
0.617623	
0.604427	
0.599381	
0.588685	
0.461244	
0.488897	
-1.82586	
-3.35368	
-2.31202	
-2.32284	
-2.58132	
-1.63878	
0.613323	
2.36908	
0.358407	
0.618988	
-0.465296	
-0.493364	
0.495971	
-0.428157	
-0.505703	
-1.19146	
-0.682916	
-1.58997	
-1.51846	
-1.62082	
-1.19202	
-0.779376	
-1.55824	
-0.219201	
-0.0444995	
-0.0846842	
-0.914513	
-1.33042	
-1.20116	
-1.11831	
-0.677581	
-0.795998	
-1.58412	
-2.27413	
-1.56575	
-1.50494	
-1.59685	
-1.43034	
-0.34531	
-2.19411	
-0.995364	
0.0314099	
0.1877	
-1.32768	
-1.48957	
0.308587	
0.757673	
-1.59442	
-0.787892	
0.142471	
-0.48604	
-1.28099	
-2.0948	
-1.04589	
-1.39453	
-1.54654	
-2.26461	
-2.02627	
-0.481325	
-0.126238	
-0.895031	
-0.880847	
-1.61257	
-1.1878	
-1.47735	
-0.704635	
-0.971781	
-0.601834	
-0.841154	
-0.137926	
-1.04438	
-0.575471	
-1.06183	
-0.760501	
-1.86346	
-1.8353	
-0.285542	
-2.14585	
-1.33595	
-0.771488	
-0.381302	
-0.669941	
-1.30657	
-1.52094	
-1.58622	
-1.58743	
-1.48436	
-1.01225	
-1.48847	
-1.68904	
-1.56339	
-0.44771	
-0.629723	
-1.60357	
-1.60317	
0.271605	
-0.054038	
0.210852	
0.200025	
-1.73858	
-2.26953	
-1.576	
-2.16359	
0.00432502	
-0.664458	
0.105666	
0.218937	
-0.524559	
-0.554888	
-0.609778	
-0.662322	
-1.69411	
-1.78269	
-1.74618	
-1.66941	
0.317674	
-1.42261	
-0.673063	
0.448229	
-0.193474	
0.13123	
-1.45966	
-1.76302	
-0.509064	
1.22104	
1.62288	
0.528777	
-0.0739296	
-0.252475	
0.0157226	
-0.377583	
-0.282538	
-1.67455	
-1.7507	
-1.85276	
-0.879032	
-1.01367	
-0.823507	
-1.05266	
-1.0026	
-0.356568	
0.343313	
-1.70935	
-1.81174	
-2.08339	
-1.85536	
0.0160805	
0.120595	
0.215305	
0.204165	
-1.00006	
-1.29971	
-1.2073	
-1.42666	
-0.421489	
-0.745109	
-0.136572	
-0.497048	
-1.56779	
-1.41313	
-1.56819	
-1.61293	
-1.55022	
-1.63221	
-1.343	
-2.28217	
-1.62409	
-2.3464	
-2.23398	
-2.31704	
-2.09535	
-2.17499	
-1.95777	
-1.50561	
-1.41165	
0.275432	
0.483984	
0.440366	
-0.977964	
-1.00398	
-1.08155	
-1.11057	
-1.04488	
-0.673806	
-0.8788	
-0.965441	
-1.3854	
1.08586	
1.23415	
1.43051	
0.0297792	
-0.0590066	
-1.59418	
-1.70542	
0.87979	
1.88973	
-1.86908	
-1.41764	
-1.32676	
-0.0888788	
-0.054402	
0.0561771	
0.473	
0.423735	
0.315689	
0.367535	
0.75832	
0.395515	
0.37028	
0.30086	
-1.4492	
-2.5059	
-2.41562	
0.294726	
0.19883	
0.79106	
0.440614	
-0.397029	
-0.200524	
-1.53214	
-1.41946	
-1.35628	
-1.50201	
-1.45562	
-1.50835	
-1.56618	
-1.29629	
-1.34801	
-1.46036	
-2.20265	
-1.75498	
-1.64922	
-1.60612	
-1.56714	
-1.56039	
0.0911311	
0.0197108	
-1.15828	
-0.70263	
-0.982558	
-1.23385	
-0.0627468	
-0.330598	
0.236032	
-0.054809	
-1.82491	
-1.66863	
-1.69814	
-1.68313	
-1.59368	
-1.6111	
-1.6526	
-1.58795	
-1.56217	
-1.54458	
-1.55717	
-1.55473	
-2.58741	
-2.1536	
-2.17387	
-2.05397	
-0.210687	
-0.401994	
-0.211109	
-0.50328	
-1.05542	
-1.01717	
-1.15743	
-1.489	
1.15933	
1.63145	
-0.603472	
-0.538639	
-0.677133	
-0.699201	
-0.874709	
-0.92661	
-0.928352	
-0.41655	
-2.4381	
-2.25266	
-0.789943	
-0.541909	
-0.748266	
-1.59957	
-1.14416	
-0.746463	
-0.648929	
-0.876993	
-0.911162	
-0.666709	
-0.381116	
-0.579276	
-0.791317	
-0.635789	
-1.2112	
-2.05401	
-1.58884	
-0.407381	
-0.280706	
-0.24357	
0.0362647	
-0.740966	
-1.40151	
-1.37104	
-1.08818	
0.327271	
-1.84729	
0.328371	
0.0597934	
-2.50121	
-3.14647	
0.505734	
0.612212	
1.26224	
1.43184	
-1.14379	
-1.31931	
-1.3323	
-1.49354	
-2.02603	
-1.89145	
-1.80386	
-1.90628	
-1.57974	
-1.75286	
-1.72842	
-2.17124	
-2.15184	
-1.31234	
-2.25139	
-1.98516	
-1.7439	
-2.48007	
-1.73171	
-2.27405	
-0.207499	
0.234266	
-1.68446	
-1.61877	
-1.67806	
-1.7134	
-1.44897	
-1.25745	
-1.38438	
-0.669112	
-0.611358	
0.711672	
1.11669	
0.178419	
0.769722	
-0.0263597	
0.412852	
0.556191	
0.150374	
0.552169	
0.266248	
-1.12399	
-0.491856	
-0.590655	
-1.5334	
-1.22113	
-1.3076	
-1.24854	
-1.32867	
-1.5073	
-1.57834	
-1.55741	
-2.00846	
-1.42671	
-1.34637	
-1.65318	
-1.35961	
-1.20517	
-1.31634	
-1.3829	
-0.45442	
-0.364269	
-0.634573	
-0.514925	
0.322833	
0.165319	
0.520618	
0.405376	
-1.28488	
-1.92674	
-0.758792	
-0.824985	
-0.852979	
-0.983959	
-1.52703	
-0.440697	
-0.252393	
-1.13291	
-1.29274	
-0.963292	
-0.895537	
0.089864	
0.871549	
1.09173	
0.819007	
0.677975	
-1.08987	
-0.143368	
0.0619561	
-0.21041	
0.0405552	
-1.80076	
-1.35186	
-1.1524	
-0.943671	
-0.861812	
-0.971871	
-0.920128	
-0.945289	
-0.897144	
-1.06333	
-1.29117	
-1.14396	
-1.23984	
-1.07069	
-1.0486	
-2.1969	
-1.77537	
-1.6182	
-1.61995	
-1.80994	
-1.71946	
-1.63671	
-1.61949	
0.286687	
0.218265	
-0.325242	
-1.82226	
-2.45889	
-1.72639	
-2.37782	
-1.66279	
-1.63464	
-1.52489	
-1.62807	
-1.8403	
-0.107026	
-0.662074	
-0.708916	
-0.831955	
-0.855098	
-1.19377	
-1.47584	
-2.31186	
-2.7948	
-1.70197	
-1.60542	
-1.61681	
-1.59727	
0.414753	
0.0197088	
0.840706	
0.161034	
-1.5554	
-0.42426	
-1.23617	
-1.47502	
-0.638608	
-0.797932	
-1.21971	
-1.73179	
-1.17087	
-1.46812	
-1.9182	
-2.50332	
-1.78188	
-1.92311	
-0.586204	
-0.570352	
0.189417	
0.130523	
0.301376	
0.179437	
0.113274	
0.0295529	
0.107555	
-2.28178	
-2.50263	
0.336677	
0.189045	
0.332759	
-1.12269	
-0.783715	
-0.791869	
-0.513059	
-1.05955	
-1.23657	
-0.919258	
-0.978992	
0.0359707	
-0.185902	
0.00421444	
-0.148437	
-2.91979	
-2.90376	
-2.26888	
-0.470252	
-0.710557	
-0.737211	
-0.568401	
-1.61878	
-1.65438	
-1.92342	
-1.97531	
-1.83088	
-1.84831	
-0.746563	
-0.614084	
-0.58133	
-0.814603	
-0.766811	
-1.09563	
-1.42358	
-1.59968	
-1.87471	
-1.14471	
-1.08252	
-1.49207	
-1.24926	
-1.57773	
0.266138	
0.20266	
-0.0342051	
-0.228304	
-0.115501	
-0.288361	
-0.791307	
-0.965368	
-0.783706	
-0.963569	
-1.40206	
-1.03123	
-1.83367	
-1.29528	
-1.19152	
-1.36707	
-1.51809	
0.479537	
0.318637	
0.262152	
-1.53488	
-1.55784	
-1.61463	
-1.56601	
-1.56857	
-1.46741	
-1.46502	
-1.43788	
0.0233392	
-0.0526864	
0.218246	
0.297642	
-0.384145	
-0.402108	
-0.0534152	
-0.195622	
0.993603	
0.89802	
1.59014	
0.0870306	
0.37101	
0.794487	
-1.22889	
-1.28488	
-1.33407	
-1.33575	
-1.43568	
-1.42874	
-1.67236	
-1.61824	
-1.61274	
-1.56291	
-1.88312	
-1.89687	
-0.559629	
-0.519859	
-0.687932	
-0.773574	
-0.880473	
-0.898746	
-1.06705	
-1.14601	
-0.912844	
-0.88953	
-1.05086	
-1.15687	
-1.46224	
-1.54477	
-1.50571	
-1.5858	
-1.55247	
-1.47043	
0.23704	
0.402975	
-1.17897	
-1.27833	
-1.25332	
-1.5343	
-1.46531	
-1.67101	
-2.36968	
-1.53966	
-1.53071	
0.375399	
-1.1872	
-1.13692	
-1.19162	
-1.58092	
-1.56766	
-1.7665	
-1.50053	
2.87429	
-1.25266	
-1.322	
-1.16989	
-1.15999	
0.279138	
0.272493	
0.617978	
0.471431	
0.542267	
0.351536	
1.30513	
-1.4099	
-1.43529	
-1.71366	
-1.77653	
-1.72267	
0.453861	
-1.55509	
-1.70145	
-1.44481	
-1.45023	
0.289849	
0.240802	
-1.4141	
0.379691	
0.356775	
-1.13852	
-1.20099	
-1.06539	
-1.07703	
-1.16619	
-1.23656	
-2.10791	
-2.29853	
-1.35284	
-1.55174	
-1.18739	
-1.13114	
-1.04415	
-1.5181	
-1.29633	
-1.40952	
-1.38354	
-1.59434	
-1.40821	
-1.26551	
-1.16995	
-1.27594	
-1.11925	
-1.189	
-1.24863	
0.587711	
0.44252	
0.490023	
-1.59162	
0.257588	
0.173551	
0.174477	
0.232196	
0.234001	
-1.54296	
-1.53598	
-1.53854	
0.0150729	
0.0755778	
-0.0430525	
0.0433101	
-1.54196	
-1.46062	
-1.5041	
-1.5476	
-1.53457	
-1.74705	
-1.54494	
-1.84777	
-1.60963	
0.553723	
0.619139	
0.412461	
-2.38861	
-1.69004	
-2.53279	
-1.72755	
-1.3824	
0.208979	
-1.54777	
-1.52166	
1.41819	
0.922865	
0.983374	
0.368685	
-1.35296	
-1.17774	
-1.07575	
-0.647671	
-0.625723	
-0.385053	
-1.20021	
-1.23067	
-2.14299	
-1.66131	
-1.74859	
-1.69513	
-1.91984	
-0.20112	
-0.462657	
0.552332	
0.439554	
0.463944	
0.412484	
0.492137	
0.289343	
0.258192	
0.236373	
0.156922	
-1.87373	
-1.70494	
-1.79543	
-1.6998	
-1.39495	
-1.37107	
-1.55077	
-2.06176	
-2.13558	
0.15252	
0.0486128	
-0.277908	
-1.57484	
-1.73466	
-1.48076	
-1.64925	
-1.60989	
-1.50741	
-1.51121	
-1.4415	
-1.74893	
-1.76996	
-1.60164	
-1.32862	
-1.41171	
-1.45709	
-1.58353	
-1.30752	
-1.24844	
-1.35942	
-1.22263	
0.755569	
0.254179	
-1.37451	
-1.44371	
-1.45794	
-1.69267	
-0.817762	
-1.05135	
-1.33282	
-1.35647	
-1.47464	
-1.46408	
-1.41048	
-1.45535	
-1.0468	
-1.20251	
-1.64011	
-1.63863	
-1.59823	
-1.58346	
-1.73871	
-1.67076	
-1.66297	
-1.62538	
-1.51294	
-1.71597	
-1.1178	
-1.11787	
-1.88482	
-2.26458	
-2.21223	
-1.73193	
-1.99869	
-1.82621	
-0.0893694	
-0.33584	
-0.369761	
0.309387	
0.217191	
-1.35517	
-1.40161	
-1.35434	
-0.354698	
-0.372288	
-0.286767	
-1.65662	
-1.57793	
-1.66233	
-1.58128	
-0.544097	
-0.461225	
-0.697238	
-0.777659	
-1.00232	
-1.44558	
-1.30828	
0.648432	
0.90092	
1.19063	
0.733613	
-0.189534	
-0.238824	
0.297415	
0.35964	
0.291933	
0.378062	
-1.82432	
-1.98168	
-1.79921	
-1.99168	
-0.704367	
-0.571843	
-0.236465	
1.88486	
2.84316	
-1.87489	
-2.0331	
-2.1909	
-2.71625	
-0.373849	
-0.276958	
-0.612777	
-0.427003	
0.504909	
0.496584	
0.302634	
0.286824	
0.205156	
-0.141854	
-0.34562	
0.0959041	
-0.249228	
0.322123	
0.368471	
-1.49701	
-2.04211	
-1.47546	
-1.59441	
-0.569852	
-0.735664	
-0.678154	
-0.822924	
1.36697	
1.21525	
-1.92433	
-1.78878	
0.314366	
0.347591	
0.416218	
0.395105	
0.695853	
0.27359	
-0.0660748	
-0.127546	
-0.0897334	
-0.0706696	
-0.0365461	
-0.031127	
-0.0447341	
0.0255668	
0.0494331	
0.130866	
0.177941	
0.15866	
0.0892402	
-0.00256538	
-0.102319	
-0.0921711	
-0.0924837	
-0.088223	
-0.0689404	
0.175885	
-0.0303513	
0.152698	
0.0735925	
0.118262	
0.024174	
-0.112983	
0.14575	
0.102047	
0.00332292	
-0.0722724	
0.0397325	
-0.177849	
-0.205641	
-0.24293	
-0.194807	
-0.223798	
-0.271581	
-0.136679	
0.131778	
0.0825372	
-0.180979	
-0.0626548	
-0.110654	
0.00361311	
-0.143655	
-0.17294	
-0.167385	
-0.162661	
-0.178637	
-0.200585	
0.160538	
1.31144	
0.105724	
1.23548	
1.21351	
1.14501	
1.50713	
0.5729	
0.534199	
0.54067	
0.559785	
0.716738	
0.211416	
0.105565	
1.19926	
0.2827	
0.0900089	
0.224603	
1.36101	
2.59783	
0.432592	
0.52725	
1.02183	
0.780931	
0.959105	
0.733533	
0.685639	
0.887683	
0.861243	
0.447936	
0.496979	
0.505337	
0.725702	
0.338914	
0.795927	
0.830821	
0.823707	
0.962957	
0.813508	
0.615977	
0.729814	
0.781532	
0.878813	
0.861441	
1.05036	
0.897185	
0.884787	
0.928112	
0.90669	
0.858004	
0.885481	
0.835791	
0.907718	
0.885613	
0.461942	
0.482717	
0.821772	
0.809906	
0.894693	
0.844922	
1.09807	
0.8742	
0.99231	
0.72945	
0.874447	
0.540914	
0.837477	
0.862694	
0.788661	
0.810299	
0.99344	
1.06732	
0.790361	
0.836207	
0.980561	
0.804657	
0.808468	
0.920888	
0.991556	
0.996957	
0.813878	
0.816726	
0.848038	
0.645483	
1.14393	
0.921843	
0.372019	
1.04424	
0.846602	
0.445689	
0.994887	
0.878201	
0.910757	
1.06744	
0.859179	
0.909588	
0.85465	
0.850319	
0.604967	
0.744413	
0.810317	
1.14754	
0.940152	
0.689398	
0.880733	
0.842593	
0.899463	
0.823895	
0.672103	
0.628683	
0.623724	
0.841434	
0.823703	
0.75879	
0.714767	
0.747912	
0.8295	
0.88279	
0.825061	
0.867689	
1.05598	
0.88146	
0.861946	
0.849451	
0.874825	
0.872677	
0.88037	
0.864362	
0.900223	
0.845309	
0.856762	
0.862045	
0.870246	
0.935652	
0.978427	
0.921155	
0.940801	
0.621836	
0.706899	
0.968196	
0.856222	
0.376437	
0.995511	
1.0625	
0.244445	
0.870617	
0.700622	
0.722845	
0.738575	
0.746479	
0.834158	
0.768283	
0.79702	
0.438251	
0.235897	
0.204925	
0.303845	
1.64656	
0.72009	
0.64504	
0.320517	
1.21121	
1.11233	
0.781094	
0.945945	
0.910174	
1.16821	
0.866984	
0.857967	
0.928242	
0.839039	
2.52704	
2.70257	
0.758681	
0.619593	
0.7855	
0.669128	
0.843785	
0.852511	
0.527625	
0.600638	
0.672256	
0.568036	
0.480391	
0.799334	
0.85325	
0.813205	
0.573862	
0.600364	
0.585776	
0.755379	
0.421767	
0.3965	
0.441462	
0.485069	
0.494731	
0.557922	
0.553246	
0.512526	
0.537764	
0.585412	
0.617722	
0.969696	
0.904017	
0.897112	
0.445239	
0.327451	
0.412571	
0.349917	
1.11571	
1.05181	
1.04297	
0.701447	
0.719039	
0.852863	
0.885375	
0.854502	
0.920927	
0.984703	
1.08702	
0.991242	
1.09246	
0.732221	
0.773724	
0.609193	
0.908567	
0.865298	
0.35192	
0.281272	
1.10953	
1.00743	
0.914991	
1.01855	
0.949684	
1.07113	
0.622826	
0.898554	
0.885815	
0.888958	
0.917892	
1.10055	
1.0795	
1.06626	
0.959273	
0.764214	
0.75829	
0.769139	
0.864929	
0.833757	
0.877607	
0.877735	
0.897811	
0.881833	
1.12775	
1.08647	
0.911926	
0.84759	
1.00747	
0.859131	
0.821494	
0.913055	
0.796901	
0.783405	
0.662302	
0.602676	
0.929973	
1.0368	
1.02975	
0.67788	
0.778992	
0.949664	
0.742181	
0.714872	
0.754012	
1.15329	
0.794114	
0.808732	
0.84088	
0.798393	
0.784807	
0.730134	
0.734801	
0.751065	
0.627252	
0.642484	
1.10807	
0.996388	
0.922844	
1.2266	
1.18455	
0.775719	
0.826231	
0.757827	
0.766363	
0.773887	
0.960969	
0.903969	
0.89762	
0.632761	
0.63031	
0.660491	
0.661314	
0.691819	
0.657294	
0.704111	
0.6394	
0.465701	
0.842744	
1.0368	
0.838925	
1.00079	
0.939132	
0.853593	
0.971377	
1.02449	
0.858469	
0.849782	
0.783578	
0.675915	
1.09993	
1.12697	
0.981405	
1.01517	
0.59641	
0.634523	
0.81275	
0.781999	
0.877492	
0.868223	
0.819112	
0.926017	
0.94839	
1.01174	
1.01437	
0.763186	
0.750783	
0.92505	
0.766145	
0.831119	
0.828969	
0.793574	
0.814988	
0.845788	
0.868771	
0.862857	
0.799258	
0.780424	
0.799627	
0.78552	
0.858066	
0.901116	
0.818613	
0.957571	
0.815026	
0.725305	
0.635523	
0.690365	
0.898406	
0.868949	
0.891511	
0.876382	
0.74004	
0.932916	
0.91422	
0.917771	
0.950117	
1.01422	
0.788085	
0.772594	
0.793018	
0.778474	
0.767062	
0.780861	
0.77848	
0.792287	
0.876356	
0.986323	
1.02088	
0.970132	
0.633219	
0.387674	
0.304578	
0.793969	
0.805036	
0.854837	
0.954262	
1.09701	
1.07238	
1.08399	
1.06807	
0.760157	
0.809746	
0.75223	
0.863579	
0.920773	
1.03264	
1.04302	
0.652875	
0.68652	
0.660591	
0.71603	
0.171941	
0.185017	
1.14307	
1.07665	
0.97387	
0.991017	
0.823774	
0.970668	
0.685767	
0.60993	
0.648091	
0.638315	
0.650707	
0.675122	
0.75712	
0.655614	
0.69413	
0.715046	
0.766188	
0.762451	
0.829947	
0.776742	
0.810707	
0.284206	
0.335885	
0.384285	
0.838618	
0.894717	
0.839087	
0.863562	
0.919798	
1.02997	
1.0479	
0.462097	
0.819044	
0.75309	
0.821241	
0.760439	
0.641994	
0.582154	
0.785872	
0.725196	
0.886209	
0.887571	
0.920798	
0.905279	
0.936609	
0.880927	
0.917513	
0.884857	
0.934608	
0.919694	
1.0572	
0.968427	
0.964886	
0.967956	
1.01221	
1.03418	
1.06109	
1.09383	
0.936201	
1.05931	
0.738823	
0.708218	
1.13759	
1.03947	
0.90968	
0.883055	
0.915355	
0.969627	
0.921826	
0.960088	
0.875494	
1.26616	
0.825004	
0.855206	
0.906446	
0.895242	
0.874187	
0.914242	
0.933821	
0.831134	
0.794293	
0.919038	
0.880789	
0.931881	
0.956042	
0.572354	
0.523044	
0.576183	
0.521935	
0.714991	
0.747286	
0.727866	
0.330146	
0.390618	
0.800631	
0.78938	
0.322144	
0.271756	
0.647905	
0.630953	
0.744149	
0.695559	
0.829387	
0.837914	
0.816484	
0.806318	
0.819928	
0.838184	
0.736085	
0.691025	
0.700108	
0.772124	
0.68428	
0.682162	
0.697545	
0.81498	
0.790253	
0.802954	
0.762534	
0.886471	
0.863532	
0.848658	
0.816114	
0.921402	
0.883156	
0.949236	
0.906399	
1.03717	
0.694604	
0.676854	
0.63713	
0.556451	
1.11149	
1.21671	
1.1389	
1.08618	
1.12175	
1.06636	
0.923193	
1.10513	
1.05802	
1.11648	
1.08342	
0.918137	
0.925529	
0.899524	
0.986137	
0.645574	
0.660488	
0.641645	
0.857441	
0.87579	
0.911241	
0.713217	
0.693278	
1.09826	
0.721316	
0.687401	
0.642133	
0.676719	
0.886608	
0.935103	
0.667713	
0.76626	
0.619265	
0.546757	
0.679405	
0.72184	
0.698762	
0.515155	
0.448059	
0.933773	
0.712844	
0.469765	
0.52922	
1.18953	
1.1073	
0.846086	
0.836055	
0.860809	
0.683744	
0.704029	
0.850391	
0.859139	
0.294062	
0.779629	
0.856261	
0.887174	
0.840172	
0.843915	
0.732937	
0.778537	
0.929955	
0.889954	
0.895078	
0.625857	
0.619159	
0.615923	
0.606476	
0.906206	
0.943627	
0.914641	
0.949239	
0.996744	
0.788999	
0.981205	
0.789835	
0.769267	
1.24726	
1.94596	
1.06302	
0.711089	
0.787996	
1.06736	
0.927163	
0.890566	
0.53368	
0.802863	
0.875837	
0.962296	
0.981627	
0.890606	
0.928157	
0.816798	
0.797684	
0.820195	
0.809353	
0.908511	
0.94039	
0.960759	
0.932085	
0.437917	
0.442949	
0.803454	
0.763445	
0.905276	
0.869539	
0.840497	
0.841411	
0.793785	
1.01557	
0.920249	
0.761809	
0.703575	
0.797529	
0.737613	
0.993526	
0.982465	
1.02455	
0.914889	
1.01675	
0.909036	
1.03532	
1.00729	
0.718329	
0.685539	
0.715902	
0.66078	
0.679377	
0.838064	
0.785435	
0.95206	
0.792951	
0.878023	
0.869863	
0.996096	
1.03322	
0.672143	
0.673426	
0.681614	
0.699524	
0.863057	
0.847308	
0.736893	
0.729962	
0.722436	
0.708981	
0.879694	
0.902515	
0.839335	
0.839504	
0.845296	
0.634495	
0.728074	
0.56239	
0.655239	
0.793372	
0.806422	
0.748841	
0.833398	
0.89071	
0.990752	
0.835449	
0.849528	
0.884064	
0.864694	
0.889156	
0.920501	
0.853589	
1.08374	
0.861999	
0.616445	
0.62728	
0.958308	
0.881824	
0.915438	
0.901013	
0.887141	
0.899834	
0.880067	
0.888351	
0.847217	
0.858681	
1.23089	
1.10201	
1.49653	
1.14273	
0.235852	
0.246381	
0.150983	
0.0889674	
0.699018	
0.728831	
0.690527	
0.699716	
0.758777	
0.793078	
0.755038	
0.773984	
0.966171	
0.939086	
0.882311	
0.87585	
0.62141	
0.635511	
0.640092	
0.575343	
0.82825	
0.899931	
0.792764	
0.77615	
0.838992	
0.754422	
0.925741	
0.811922	
0.873323	
0.899331	
0.931807	
0.995603	
0.966926	
0.948157	
0.933153	
0.950992	
1.05971	
1.09717	
0.312303	
0.837482	
0.836561	
0.705312	
0.708303	
0.708126	
0.782834	
0.871764	
0.591312	
0.646228	
0.666443	
0.775201	
0.343653	
0.416872	
0.398326	
0.271808	
0.221226	
0.211651	
0.614098	
0.749247	
0.74528	
0.364854	
0.326844	
0.492347	
0.194825	
0.277349	
0.426637	
0.31331	
0.317309	
0.845373	
0.908187	
0.843543	
0.917077	
0.967783	
0.892359	
0.771506	
0.871266	
0.591414	
0.564662	
0.593289	
0.745916	
0.723833	
0.756278	
0.749736	
0.825321	
0.815661	
0.854601	
0.910292	
0.342416	
0.394878	
0.790679	
0.808454	
0.813384	
1.15313	
1.36366	
0.688253	
0.728009	
0.76042	
0.354692	
0.416098	
0.439318	
0.363529	
0.445829	
0.981988	
0.932502	
0.897147	
1.12169	
0.623215	
0.616773	
0.365414	
0.410068	
0.924674	
0.790044	
0.77882	
0.775975	
0.358135	
0.404199	
0.296614	
0.36531	
0.178622	
0.24948	
0.266761	
0.850341	
1.1887	
0.796622	
0.921885	
0.98611	
0.92378	
0.922412	
0.876165	
0.523472	
0.478438	
0.563445	
0.521342	
0.814351	
0.838037	
0.734139	
0.720465	
0.108365	
0.248774	
0.196212	
0.570927	
0.515923	
0.627103	
0.521196	
0.605375	
0.605095	
0.631374	
0.623163	
0.224736	
0.151175	
0.22214	
0.147701	
0.486878	
0.521234	
0.521748	
-1.92101	
-3.35985	
-2.32526	
-2.60667	
-3.26486	
0.633433	
2.32839	
0.35826	
0.469082	
-0.5073	
-0.654523	
0.509738	
-0.517012	
-0.597008	
-1.25307	
-0.699059	
-1.74975	
-1.79861	
-1.24251	
-0.829894	
-1.72418	
-1.86964	
-0.195778	
-0.0305307	
-0.06638	
-1.06621	
-1.4829	
-1.29636	
-1.16418	
-0.826124	
-0.770289	
-1.74281	
-1.77422	
-1.69766	
-1.7592	
-1.64295	
-1.87817	
-0.351733	
-2.25841	
-1.01576	
0.0493186	
0.21881	
-1.33312	
-1.5346	
0.412234	
1.07259	
-1.55716	
-0.813092	
0.144013	
-0.552511	
-1.33192	
-1.39302	
-1.33722	
-1.40883	
-1.69625	
-2.41542	
-2.38994	
-0.574242	
-0.195667	
-0.850078	
-0.879049	
-1.76337	
-1.77604	
-1.21333	
-0.757834	
-0.918398	
-0.712387	
-0.937477	
-0.410996	
-1.06385	
-0.75963	
-1.41655	
-0.69384	
-1.51691	
-1.72128	
-0.288053	
-1.13569	
-1.51366	
-0.749205	
-0.639816	
-0.357644	
-1.9848	
-2.47354	
-1.70897	
-1.52129	
-0.97323	
-1.51156	
-1.46257	
-1.4718	
-0.45256	
-0.631031	
-1.63963	
-1.6809	
0.52853	
-0.0198646	
0.226559	
0.179179	
-1.71267	
-2.20776	
-1.76422	
-2.26311	
0.00651732	
0.108878	
0.19754	
-0.7844	
-0.728636	
-0.675587	
-0.638566	
-1.65894	
-1.89543	
-1.79141	
-1.90137	
0.314946	
-1.45926	
-0.809624	
0.447412	
-0.188901	
0.127894	
-1.30317	
-1.86105	
-0.653393	
1.71528	
0.931354	
0.560639	
-0.0725467	
0.0176224	
-0.0567445	
-0.383462	
-0.281429	
-1.72219	
-1.42601	
-1.56344	
-1.43385	
-1.09407	
-0.901452	
-1.11921	
-0.934918	
-0.351499	
0.325966	
-2.0978	
-1.92309	
-1.81718	
-1.68165	
0.0976146	
0.0728158	
0.193689	
0.207989	
-1.25197	
-1.47463	
-1.03469	
-1.07757	
-0.132112	
-0.784004	
-0.131679	
-0.732231	
-2.37225	
-1.58731	
-1.36351	
-1.78154	
-1.90014	
-1.96627	
-1.34118	
-1.76808	
-1.61108	
-2.12016	
-1.47416	
-2.37697	
-2.03562	
-1.52586	
-1.49901	
-1.73392	
-1.95328	
0.420881	
0.470197	
-1.09846	
-0.993708	
-1.12016	
-0.787812	
-1.06164	
-1.03529	
-1.00004	
-0.689285	
-1.52858	
1.21442	
1.36258	
0.0385062	
-0.0504904	
-2.0626	
-2.10213	
1.90337	
0.894463	
-1.43196	
-1.30712	
-1.48477	
-0.159911	
0.0246842	
-0.106015	
0.427436	
0.487524	
0.296097	
0.334826	
0.959131	
0.375759	
0.40129	
0.304264	
-1.65197	
-2.66289	
-2.6174	
0.854933	
0.478205	
0.614179	
0.228779	
-0.617646	
-0.317041	
-1.55982	
-1.65809	
-1.59545	
-1.6112	
-1.42305	
-1.40413	
-1.68262	
-1.39614	
-1.46464	
-1.59615	
-1.842	
-2.33574	
-1.7746	
-1.71157	
-1.72275	
-1.7007	
-0.0526142	
0.0111799	
-1.12855	
-0.968309	
-0.766165	
-1.29677	
-0.058737	
-0.339245	
-0.259014	
0.239075	
-1.79733	
-1.91795	
-1.84295	
-1.81577	
-1.81256	
-1.83026	
-2.00005	
-2.42408	
-1.70193	
-1.70368	
-1.68846	
-1.68076	
-2.19091	
-2.34716	
-2.04255	
-2.22419	
-0.380697	
-0.507272	
-0.200872	
-0.402792	
-1.14993	
-1.21995	
-1.59642	
-1.30121	
1.63289	
1.4411	
-0.609855	
-0.774538	
-0.833584	
-0.944853	
-0.778375	
-0.426887	
-0.629963	
-0.651034	
-0.951798	
-2.33864	
-2.55913	
-0.763808	
-0.719884	
-0.526193	
-1.0799	
-0.893646	
-0.842844	
-0.755853	
-0.65913	
-0.594857	
-0.372372	
-0.947438	
-1.19476	
-0.592484	
-0.807672	
-0.217655	
-0.0139623	
-0.374152	
-0.266382	
-1.07614	
-1.34395	
-1.41464	
-1.3844	
0.330295	
-1.82356	
0.0781093	
0.344517	
-3.34767	
-3.42948	
0.627135	
0.859524	
1.17311	
1.27609	
-1.31968	
-1.48391	
-1.21253	
-1.18793	
-1.94921	