<VTKFile type="UnstructuredGrid" version="0.1" byte_order="LittleEndian">
	<UnstructuredGrid>
		<Piece NumberOfPoints="1917" NumberOfCells="56">
			<CellData Scalars="scalars">
				<DataArray type="Float64" Name="Doublet Strengths" NumberOfComponents="1" Format="ascii">
-0.918878	
-3.53475	
-2.6825	
-2.87953	
-3.49295	
-3.64495	
-3.71509	
-3.57694	
-2.73318	
-2.53674	
-1.5458	
-4.14892	
-2.70628	
-3.95929	
-2.55037	
-2.76666	
-3.59414	
-3.34769	
-3.32863	
-3.12353	
-3.52835	
-3.61757	
-3.03732	
-3.57367	
-5.66853	
-3.28768	
-2.32543	
-2.59788	
-5.66825	
-2.72303	
-3.26887	
-3.58747	
-3.10509	
-2.5244	
-1.37784	
-4.10479	
-2.6766	
-3.12238	
-3.55078	
-2.49298	
-2.71767	
-3.32836	
-3.38091	
-3.07793	
-3.03149	
-3.40106	
-3.32243	
-3.1024	
-2.61487	
-2.97008	
-3.21086	
-0.867284	
-2.24386	
-2.59761	
-3.207	
-1.73788	
				</DataArray>
				<DataArray type="Float64" Name="Velocity Potential" NumberOfComponents="1" Format="ascii">
-330.641	
-381.594	
-400.302	
-400.108	
-417.348	
-399.34	
-381.412	
-417.266	
-418.111	
-400.448	
-401.442	
-398.836	
-400.279	
-363.314	
-418.293	
-400.219	
-417.248	
-399.638	
-417.514	
-399.861	
-381.601	
-399.369	
-399.947	
-417.269	
-397.316	
-399.697	
-400.662	
-400.387	
-397.317	
-400.263	
-417.572	
-381.54	
-399.88	
-382.607	
-401.609	
-398.881	
-400.308	
-382.006	
-399.435	
-400.494	
-400.267	
-417.514	
-399.603	
-399.906	
-399.952	
-381.727	
-381.807	
-417.738	
-400.371	
-400.014	
-417.63	
-330.691	
-400.744	
-400.387	
-399.777	
-419.106	
				</DataArray>
			</CellData>
			<Points>
				<DataArray type="Float64" Name="Position" NumberOfComponents="3" Format="ascii">
-5.05023	0	-0.52358	
-4.17308	0.0524256	-0.448618	
-6.68489	0	-0.672346	
-5.19628	2	-0.526385	
-5.22751	1.93467	-0.527254	
-6.12263	2	-0.603245	
-5.1232	0	-0.52472	
-5.08779	0.0610502	-0.524102	
-5.23203	0.0745738	-0.527388	
-5.19628	0	-0.526385	
-5.26875	0	-0.52854	
-5.34169	0	-0.531157	
-5.41438	0	-0.534104	
-5.373	0.0639395	-0.532394	
-5.07562	1.39584	-0.472738	
-5.91514	1.3266	-0.549263	
-5.97714	1.35721	-0.522936	
-6.68489	1.92786	-0.672346	
-4.17394	1.94512	-0.448626	
-6.83102	0.0721374	-0.597641	
-5.91317	0.0533506	-0.54946	
-5.12326	0	-0.448231	
-6.83102	0.215036	-0.597641	
-7.59505	0.171582	-0.700627	
-5.12326	0.143615	-0.448231	
-5.12326	0.286611	-0.448231	
-6.83102	0.358269	-0.597641	
-5.92696	0.326064	-0.54782	
-5.92475	0.252841	-0.548127	
-5.97714	0.714404	-0.522936	
-5.97714	0.786116	-0.522936	
-6.77156	0.754574	-0.623696	
-5.41438	2	-0.534104	
-5.34169	2	-0.531157	
-7.08655	1.91204	-0.682039	
-5.42961	1.66657	-0.53475	
-6.21352	1.60722	-0.606565	
-5.24027	0.446925	-0.527636	
-5.18733	0.397747	-0.526153	
-6.96928	0.354616	-0.677714	
-4.97714	2	-0.522936	
-5.97714	1.42879	-0.522936	
-4.26939	2	-0.373526	
-5.06373	2	-0.474294	
-6.83102	1.92786	-0.597641	
-5.1232	2	-0.52472	
-4.19635	2	-0.448875	
-5.08812	1.93956	-0.524107	
-4.60052	1.94176	-0.461106	
-7.23544	1.9167	-0.688356	
-5.48676	2	-0.537206	
-5.97714	1.21388	-0.522936	
-5.0716	1.19029	-0.473323	
-5.97714	1.14216	-0.522936	
-5.97714	1.2856	-0.522936	
-5.91544	1.25405	-0.549232	
-6.83102	1.78496	-0.597641	
-5.97714	1.85639	-0.522936	
-4.2255	1.82617	-0.397423	
-5.0643	0.114671	-0.47423	
-6.75777	1.46922	-0.624958	
-6.71225	1.38862	-0.626607	
-5.17194	0.824164	-0.525772	
-6.00291	0.897364	-0.599953	
-5.09414	0.840188	-0.524204	
-5.81978	1.46561	-0.551572	
-5.83102	1	-0.597641	
-6.74504	0.999321	-0.672841	
-6.68489	1.07055	-0.672346	
-5.43845	1.60348	-0.535127	
-5.06966	0.356544	-0.523833	
-4.2801	0.353408	-0.450227	
-5.11407	0.427857	-0.524549	
-6.26352	1.82506	-0.60861	
-6.26721	1.7382	-0.608765	
-4.61659	1.77788	-0.461799	
-5.49191	1.71777	-0.537427	
-5.5398	1.78088	-0.539449	
-6.42706	1.70728	-0.615491	
-6.46711	1.79378	-0.617161	
-5.39311	1.54291	-0.533215	
-5.33086	1.8351	-0.530744	
-6.58535	1.45384	-0.622933	
-5.69695	1.53294	-0.546524	
-5.64946	1.49429	-0.544157	
-6.5438	1.28284	-0.620876	
-7.30598	1.30815	-0.69121	
-5.62724	1.23305	-0.543096	
-7.49258	1.05577	-0.699944	
-5.82331	0.974397	-0.551645	
-5.00971	1.02275	-0.477146	
-5.55069	0.65903	-0.539894	
-6.39069	0.738857	-0.614031	
-5.48365	0.685529	-0.537072	
-6.36599	1.33866	-0.612995	
-6.37567	1.25226	-0.613404	
-6.68489	1.42879	-0.672346	
-5.91611	1.46516	-0.598437	
-6.68489	1.49933	-0.672346	
-5.06461	0.918262	-0.523764	
-6.95056	0.881052	-0.677124	
-5.32774	0.891355	-0.530626	
-5.31421	0.954992	-0.530124	
-4.72208	0.867158	-0.466188	
-5.62453	0.817822	-0.54297	
-6.49615	0.888323	-0.618514	
-6.00648	0.589259	-0.600032	
-6.0888	0.618435	-0.60218	
-6.02351	0.676586	-0.600422	
-5.77561	0	-0.550183	
-5.8469	0	-0.551923	
-6.69163	0.0790961	-0.626567	
-5.4571	1.27156	-0.535928	
-5.44667	1.20368	-0.53548	
-5.49736	0.496767	-0.53766	
-5.53407	0.442032	-0.539211	
-6.43269	0.502871	-0.615709	
-6.46838	0.698424	-0.617218	
-5.38177	1.23016	-0.53275	
-5.33241	1.27217	-0.530803	
-6.15737	1.19537	-0.604441	
-4.54713	1.2898	-0.458838	
-4.75819	1.02577	-0.467699	
-6.4904	0.967174	-0.618239	
-5.69048	1.0342	-0.546199	
-7.16771	1.00672	-0.685461	
-5.49675	0.93866	-0.537634	
-5.54831	0.987296	-0.539797	
-6.209	0.378981	-0.606386	
-5.41597	0.426844	-0.534171	
-6.21694	0.470462	-0.6067	
-6.74888	1.87857	-0.625538	
-6.73465	1.79633	-0.626171	
-5.81548	1.84585	-0.551475	
-5.6052	0.270573	-0.542101	
-4.73663	0.200611	-0.46677	
-6.51164	0.193571	-0.619269	
-6.44992	0.123897	-0.616412	
-5.53965	0.249496	-0.539442	
-5.53055	0.173576	-0.539065	
-6.70226	1.20923	-0.626632	
-5.81827	1.13932	-0.551539	
-5.90289	1.13751	-0.550327	
-5.65548	0.531427	-0.544451	
-5.65638	0.463982	-0.544495	
-5.59954	0.427199	-0.541856	
-5.66626	0.382421	-0.544985	
-4.99887	0.742778	-0.477222	
-6.71241	0.813881	-0.626606	
-6.4351	0.580015	-0.615804	
-5.66026	1.7199	-0.544687	
-6.52737	0.757182	-0.620051	
-4.83404	0.698895	-0.471365	
-5.74706	0.732194	-0.548959	
-5.72738	0.893597	-0.548031	
-5.69442	0.830458	-0.546397	
-6.63105	0.834567	-0.62495	
-5.84461	1.53139	-0.551914	
-5.79204	1.59044	-0.550789	
-5.76769	1.5207	-0.549862	
-6.17698	1.10613	-0.605158	
-5.25306	1.13654	-0.528033	
-6.67253	0.567577	-0.626253	
-6.73965	0.624293	-0.625985	
-5.81284	0.641057	-0.55141	
-5.74449	0.667946	-0.548841	
-5.74438	0.607392	-0.548836	
-6.59019	0.97644	-0.623164	
-5.9176	0	-0.549	
-5.41015	1.40806	-0.533926	
-5.44283	1.34451	-0.535314	
-5.4764	1.41675	-0.53676	
-5.43732	1.48085	-0.535079	
-6.39643	1.43176	-0.614267	
-5.502	1.49613	-0.537859	
-5.56798	0.925911	-0.540583	
-5.73502	1.74077	-0.548397	
-7.44353	1.66215	-0.697843	
-4.94619	1.70694	-0.476345	
-6.68489	1.71339	-0.672346	
-6.75535	1.77904	-0.672958	
-6.68489	1.78496	-0.672346	
-5.77561	2	-0.550183	
-6.67207	1.92525	-0.626243	
-5.8469	2	-0.551923	
-5.60802	0.350099	-0.542224	
-5.54431	0.315549	-0.539634	
-5.30412	1.02327	-0.529759	
-6.22757	1.02942	-0.607127	
-5.29917	0.0746863	-0.529582	
-5.33388	0.130322	-0.530859	
-6.11356	0.159825	-0.60295	
-6.12595	0.255296	-0.603355	
-4.4613	0.198868	-0.455455	
-5.37725	0.185075	-0.532566	
-6.07872	0.53229	-0.601882	
-8.39265	0.358269	-0.821757	
-5.83102	0.286611	-0.597641	
-5.03933	0.283499	-0.523453	
-6.68489	0.143615	-0.672346	
-5.90879	0.19815	-0.598343	
-6.68489	0.215036	-0.672346	
-6.82966	0.268711	-0.674105	
-6.34064	0	-0.611911	
-4.70567	0	-0.465544	
-5.56637	0.0522709	-0.54052	
-4.1617	0.233077	-0.40235	
-6.7094	0.293965	-0.626624	
-6.42306	1.52249	-0.615335	
-5.56768	1.6164	-0.540571	
-5.50806	1.57352	-0.538117	
-5.5036	1.65009	-0.537927	
-5.86522	1.59898	-0.55183	
-5.70409	0	-0.546882	
-5.64951	0.0589648	-0.544159	
-5.63146	0	-0.543294	
-5.14955	1.47391	-0.525259	
-6.08615	1.46129	-0.6021	
-6.06367	1.53681	-0.601455	
-6.52472	0.286849	-0.619918	
-5.29058	0.724627	-0.52928	
-4.44688	0.784216	-0.454933	
-6.09322	0.788387	-0.602313	
-6.65924	0.223399	-0.625914	
-4.93742	1.34531	-0.476058	
-4.93267	1.40661	-0.475891	
-6.57838	1.36487	-0.622596	
-5.75933	1.29047	-0.549507	
-4.919	0.414541	-0.475369	
-5.72015	0.434011	-0.547678	
-6.58325	0.349215	-0.622832	
-5.83574	0.422964	-0.55184	
-6.64	0.489015	-0.625286	
-5.85805	0.488653	-0.551905	
-3.8699	1.24582	-0.391548	
-5.56361	1.18695	-0.540411	
-4.87888	1.58611	-0.473585	
-4.45042	0.42229	-0.45506	
-4.4726	0.312816	-0.455874	
-6.26081	0.310713	-0.608496	
-5.35634	0.255176	-0.531729	
-5.42218	0.23291	-0.534434	
-7.4609	1.20734	-0.698645	
-5.62264	1.1572	-0.542883	
-5.69189	1.15129	-0.54627	
-4.82675	1.2101	-0.470999	
-6.48578	1.08885	-0.61802	
-5.23529	1.61914	-0.527485	
-5.25413	1.69424	-0.528067	
-6.02941	1.67616	-0.600564	
-5.30301	1.64844	-0.529719	
-5.33142	1.72086	-0.530765	
-5.67645	0.644913	-0.545494	
-4.89094	1.94629	-0.474151	
-6.5267	1.93331	-0.620018	
-5.74624	1.88539	-0.548922	
-6.01175	0.0804625	-0.600149	
-4.24437	0.127785	-0.449566	
-4.25561	1.88257	-0.449761	
-6.01482	1.92762	-0.600219	
-5.19677	0.21589	-0.526398	
-4.88357	0.273142	-0.473807	
-5.73055	0.209198	-0.548184	
-4.8722	0.143339	-0.473263	
-5.79671	0.145092	-0.550944	
-4.81973	0.115792	-0.470646	
-5.67338	1.85807	-0.54534	
-5.60763	1.88373	-0.542207	
-4.74401	1.94611	-0.46708	
-4.70567	2	-0.465544	
-5.63146	2	-0.543294	
-5.07394	0.682902	-0.472991	
-6.83102	0.64279	-0.597641	
-4.60051	1.88295	-0.461106	
-5.33228	1.53147	-0.530798	
-5.30985	1.46174	-0.529966	
-5.37433	1.47178	-0.532447	
-5.87674	1.08229	-0.55159	
-4.33164	0.329519	-0.451402	
-5.89356	0.43708	-0.598162	
-5.83102	0.429861	-0.597641	
-4.51337	1.67699	-0.457457	
-5.28495	1.57544	-0.529086	
-4.82679	1.60691	-0.471	
-5.63894	1.65508	-0.543649	
-5.74002	1.81461	-0.548633	
-4.82535	1.78507	-0.470928	
-4.33046	0.749751	-0.451372	
-5.23418	0.701087	-0.527452	
-5.96802	0.758919	-0.599255	
-5.97714	0.429861	-0.522936	
-6.76489	0.409639	-0.624369	
-5.80817	1.77163	-0.551287	
-6.73166	1.71936	-0.626265	
-6.02476	1.1716	-0.600452	
-5.20368	1.09553	-0.526583	
-6.13031	1.76477	-0.603501	
-4.49975	1.7791	-0.456917	
-5.47714	0.277236	-0.536791	
-6.30623	0.151691	-0.610429	
-4.70498	1.84554	-0.465517	
-5.49265	1.83711	-0.537459	
-5.37317	1.33945	-0.5324	
-5.3442	1.40104	-0.531254	
-4.93254	0.297567	-0.475887	
-5.80582	0.357474	-0.551222	
-4.74874	0.760525	-0.467283	
-5.55293	0.810302	-0.539984	
-5.46096	0.749841	-0.536094	
-5.39594	0.751361	-0.533333	
-5.41822	0.686344	-0.534266	
-5.48761	0.810027	-0.537242	
-5.4223	0.81571	-0.534439	
-7.53877	1.64173	-0.747051	
-5.04279	1.65788	-0.523492	
-6.83102	1	-0.597641	
-6.83102	1.07055	-0.597641	
-5.07463	1.0308	-0.472888	
-4.18803	1.5272	-0.448777	
-6.68489	1.57014	-0.672346	
-4.54368	0.121062	-0.458695	
-5.44417	0.068568	-0.535372	
-5.51166	0.0968802	-0.53827	
-6.68489	1.85639	-0.672346	
-5.89772	1.8723	-0.598209	
-6.68489	0.0721374	-0.672346	
-5.03737	0.116381	-0.523432	
-5.54338	0.378957	-0.539596	
-6.68489	1.2856	-0.672346	
-5.0429	1.33655	-0.523493	
-6.68489	1.35721	-0.672346	
-4.57819	1.07097	-0.460149	
-5.43855	1.13809	-0.535131	
-4.5308	1.10545	-0.458164	
-5.49164	1.08867	-0.537415	
-5.45291	0.876824	-0.535748	
-5.39124	0.882801	-0.533138	
-6.21135	0.819303	-0.606479	
-5.61089	1.38959	-0.542351	
-4.75056	1.45442	-0.467362	
-5.66966	1.41914	-0.545154	
-4.62704	0.213959	-0.462249	
-5.43889	0.621411	-0.535146	
-5.40107	0.549577	-0.533546	
-5.46247	0.556476	-0.536159	
-5.4302	0.491713	-0.534775	
-6.59692	0.0712931	-0.623479	
-5.3709	1.1672	-0.532309	
-5.62635	1.57159	-0.543055	
-5.17072	0.47164	-0.525743	
-5.07058	0.476615	-0.473461	
-6.7535	0.546631	-0.625257	
-5.83102	0.500665	-0.597641	
-5.03712	0.802839	-0.523429	
-4.25849	0.646217	-0.449812	
-4.2363	0.69766	-0.449435	
-5.09028	1.17495	-0.524141	
-5.8965	1.0996	-0.598195	
-5.98092	1.1007	-0.599499	
-6.08908	1.32398	-0.602188	
-4.31276	1.29855	-0.450941	
-5.19645	1.24767	-0.526389	
-5.37907	0.61668	-0.53264	
-5.34193	0.546139	-0.531167	
-4.42938	0.561624	-0.454322	
-5.29513	0.491616	-0.529439	
-4.31912	1.0418	-0.451092	
-5.23364	1.02609	-0.527436	
-6.02847	0.976287	-0.600541	
-5.25073	0.965074	-0.52796	
-5.38322	0.954567	-0.532809	
-5.11073	1.62515	-0.524488	
-4.3182	1.59965	-0.45107	
-5.01641	0.360303	-0.477039	
-5.04732	1.5889	-0.523545	
-5.30487	1.33334	-0.529786	
-5.27853	1.39903	-0.528867	
-5.26612	1.2624	-0.528454	
-6.20749	0.683934	-0.606327	
-5.90892	0.967445	-0.549849	
-7.59845	0.89983	-0.70047	
-5.79544	0.914042	-0.550903	
-5.54529	1.0505	-0.539674	
-4.90146	1.13415	-0.474627	
-4.85786	1.09375	-0.472558	
-4.59949	1.5431	-0.461062	
-5.80336	0.770923	-0.55115	
-4.88361	0.785107	-0.473809	
-4.80628	1.34839	-0.469977	
-6.69794	1.29694	-0.626616	
-5.8269	1.65281	-0.551711	
-5.90259	1.25411	-0.598267	
-5.10693	1.32162	-0.52442	
-4.75948	0.633745	-0.467756	
-5.66747	0.587288	-0.545045	
-5.86816	0.6882	-0.551784	
-5.51406	0.873522	-0.538372	
-3.85652	1.36753	-0.391027	
-5.70409	2	-0.546882	
-4.38179	1.1987	-0.452792	
-5.48047	0.394274	-0.536935	
-5.47981	0.336713	-0.536906	
-5.80186	0.702848	-0.551105	
-5.97714	0.929454	-0.522936	
-5.97714	0.857842	-0.522936	
-5.0386	1.94387	-0.476265	
-5.50177	1.16572	-0.537849	
-5.55851	1.11814	-0.540208	
-6.04895	1.79696	-0.601058	
-4.34944	1.73661	-0.451868	
-4.57059	0.370041	-0.459826	
-4.61888	0.446178	-0.461897	
-4.58306	0.936014	-0.460357	
-3.37102	1.0523	-0.374554	
-5.11675	1.01699	-0.524598	
-5.97714	1.49933	-0.522936	
-5.91421	0.586375	-0.598412	
-5.95073	0.509874	-0.598953	
-5.91557	1.54624	-0.549218	
-4.43701	0.664255	-0.454586	
-4.48815	0.750955	-0.456465	
-4.4402	0.837223	-0.454697	
-6.68489	1.21388	-0.672346	
-4.17455	1.17543	-0.448633	
-6.68489	0.929454	-0.672346	
-4.17541	0.873321	-0.448641	
-7.53877	0.857842	-0.747051	
-5.03368	0.725606	-0.523392	
-6.68489	0.786116	-0.672346	
-6.68489	0.714404	-0.672346	
-5.04969	0.653203	-0.523573	
-6.68489	0.64279	-0.672346	
-7.53877	0.571209	-0.747051	
-6.68489	1.14216	-0.672346	
-4.25454	0.957788	-0.449742	
-3.49618	0.930031	-0.377179	
-5.31795	0.613315	-0.530262	
-5.07927	1.6049	-0.472147	
-4.66892	0.552048	-0.464036	
-5.50237	0.616488	-0.537874	
-5.97308	1.54065	-0.599349	
-5.13619	0.177963	-0.524977	
-5.12289	1.24487	-0.524714	
-5.96281	1.39957	-0.599161	
-4.34407	0.139289	-0.451724	
-5.10014	1.69928	-0.524303	
-5.13316	1.75272	-0.524916	
-5.17163	1.35868	-0.525765	
-4.37052	1.39206	-0.452458	
-4.32403	1.42097	-0.451212	
-5.11068	1.81911	-0.524487	
-5.91051	1.6612	-0.549709	
-5.97714	1.71339	-0.522936	
-4.86313	0.496577	-0.472819	
-5.74079	0.549039	-0.548669	
-4.30634	1.85508	-0.450792	
-4.1771	0.520218	-0.448659	
-3.45248	0.528047	-0.376088	
-5.97714	1.57014	-0.522936	
-6.83102	0.500665	-0.597641	
-3.97702	0.932053	-0.396502	
-4.41556	1.07414	-0.453858	
-4.41901	1.51028	-0.453972	
-6.83102	1.64173	-0.597641	
-4.35528	0.282674	-0.452027	
-5.97714	0.571209	-0.522936	
-4.2248	0.59575	-0.397542	
-3.33491	1.71321	-0.37408	
-6.14485	1.88726	-0.603999	
-5.06706	0.827624	-0.473909	
-4.40575	1.82622	-0.453538	
-4.18625	1.40032	-0.448757	
-5.21516	1.87065	-0.526899	
-4.12223	0.866054	-0.402351	
-4.08941	1.24863	-0.401548	
-4.46442	1.94589	-0.45557	
-4.22234	1.75284	-0.39794	
-3.56873	1.94185	-0.379387	
-5.94087	0.611259	-0.482436	
-6.77467	0.691022	-0.547467	
-5.08398	0.951279	-0.406132	
-6.78084	0.885946	-0.550219	
-5.46565	0	-0.432165	
-5.39731	0	-0.439366	
-6.2904	0.0792566	-0.509698	
-6.75493	0	-0.653861	
-4.23107	0.0639973	-0.420552	
-5.11663	0	-0.48795	
-5.03029	0.0936441	-0.508737	
-5.32616	0	-0.448881	
-5.2556	0	-0.460235	
-5.2987	0.0798839	-0.453078	
-5.09495	0.821071	-0.412297	
-5.93969	1.45488	-0.481803	
-5.94274	1.89867	-0.483465	
-4.61177	2	-0.35746	
-5.53728	2	-0.426831	
-6.36897	1.91895	-0.502933	
-4.23451	1.93754	-0.419741	
-5.03539	1.90585	-0.50743	
-5.04718	2	-0.504451	
-5.11663	2	-0.48795	
-5.39731	2	-0.439366	
-5.36161	1.92228	-0.443891	
-5.32616	2	-0.448881	
-5.57388	1.85759	-0.425058	
-6.35328	1.82278	-0.504061	
-6.14818	0.600657	-0.528482	
-5.23921	0.663037	-0.463137	
-6.16045	0.68441	-0.52655	
-5.03194	0.939959	-0.508312	
-5.04101	1.33496	-0.506003	
-6.33876	1.68417	-0.505207	
-4.66102	1.74973	-0.353536	
-7.28905	1.71007	-0.574197	
-5.29173	1.02684	-0.454188	
-6.15605	0.943151	-0.527236	
-5.23655	0.965528	-0.463618	
-5.06745	0.553448	-0.499449	
-5.02451	0.495631	-0.510227	
-5.7269	1.36962	-0.428863	
-7.36637	1.42353	-0.574039	
-5.73746	1.43872	-0.429923	
-6.69701	1.02505	-0.522426	
-5.777	0.965827	-0.434959	
-6.60403	1.04082	-0.506057	
-6.54289	1.21008	-0.500678	
-7.48554	1.26463	-0.584487	
-5.77178	1.19252	-0.434193	
-5.28055	1.8275	-0.456007	
-6.14673	1.91186	-0.528713	
-6.20185	1.83465	-0.520459	
-6.2655	1.04863	-0.512401	
-5.35108	1.0111	-0.445323	
-6.18842	1.09426	-0.522363	
-4.54964	1.10778	-0.363926	
-6.33829	1.09436	-0.505246	
-5.52034	0.92332	-0.427876	
-5.55854	0.983948	-0.425719	
-7.30923	0.912712	-0.573682	
-4.69146	1.65028	-0.351678	
-4.74526	1.64109	-0.34961	
-6.40531	1.58611	-0.50077	
-5.04736	0.621253	-0.504405	
-4.25996	0.607584	-0.413875	
-6.00745	0.544593	-0.554603	
-6.02812	0.626188	-0.550313	
-6.26338	0.883867	-0.512643	
-5.36845	0.814004	-0.442985	
-5.34412	0.883506	-0.446292	
-4.50883	0.94284	-0.36904	
-4.45574	0.823889	-0.37667	
-5.27498	0.86549	-0.456932	
-5.72039	0.577518	-0.428266	
-6.57176	0.659851	-0.502753	
-5.7821	0.634606	-0.435739	
-6.00286	0.0913029	-0.555576	
-5.07776	0.141129	-0.496965	
-5.50389	1.15841	-0.429022	
-7.29846	1.18235	-0.573917	
-4.70047	1.11752	-0.351215	
-6.71569	0.938839	-0.527228	
-5.0578	0.99711	-0.39427	
-5.53708	0.516229	-0.426842	
-6.41929	0.597248	-0.500113	
-5.61146	0.53029	-0.424138	
-6.24112	1.25683	-0.515296	
-6.22108	1.17353	-0.517854	
-5.31872	1.22905	-0.44999	
-6.7367	1.10599	-0.53343	
-5.92672	1.05145	-0.475403	
-5.88353	1.1866	-0.45895	
-5.93658	1.17077	-0.480178	
-7.01168	1.39834	-0.601668	
-4.45444	1.4857	-0.37687	
-5.36851	1.4682	-0.442977	
-6.55521	0.907417	-0.501466	
-5.64837	0.841878	-0.424361	
-7.60576	0.492781	-0.613239	
-4.9875	0.543817	-0.372595	
-5.89029	0.570722	-0.46116	
-5.66837	1.72433	-0.424969	
-5.62429	1.78876	-0.424086	
-5.53863	0.853718	-0.426754	
-5.45159	0.389993	-0.433484	
-4.60515	0.316743	-0.358071	
-5.3974	0.343184	-0.439355	
-5.57201	0.780432	-0.425132	
-4.7371	0.84375	-0.349795	
-5.64207	0.770799	-0.424241	
-5.48722	0.577671	-0.430311	
-5.90563	1.02428	-0.578015	
-6.10765	0.237428	-0.535259	
-5.26962	0.153222	-0.457832	
-5.20201	0.163431	-0.470089	
-6.19872	0.159631	-0.520896	
-5.69151	1.80219	-0.426121	
-4.86756	1.86234	-0.353654	
-5.7704	1.80354	-0.433996	
-5.59957	0.329138	-0.424307	
-6.52813	0.30982	-0.499921	
-6.47602	0.244444	-0.49879	
-5.63169	0.391669	-0.424118	
-4.37732	1.03303	-0.389887	
-5.59997	0.717798	-0.424299	
-5.51834	0.718603	-0.428008	
-4.70239	0.665477	-0.351122	
-5.63137	0.658642	-0.424116	
-4.60359	1.87015	-0.358217	
-5.42181	1.80864	-0.436559	
-4.70862	1.78424	-0.350832	
-5.44938	1.74797	-0.433699	
-5.69686	0.386445	-0.426458	
-5.72691	0.441074	-0.428863	
-5.76624	0.365688	-0.433415	
-5.53814	1.25637	-0.426782	
-5.61299	1.24657	-0.424125	
-5.56099	1.3122	-0.425605	
-4.77264	1.30199	-0.349386	
-5.6865	1.27096	-0.42583	
-5.41208	0.276367	-0.437644	
-7.03859	0.292881	-0.597606	
-4.51232	0.234809	-0.368577	
-4.4564	0.216682	-0.376569	
-5.78873	0.891352	-0.436799	
-5.58808	1.48059	-0.424578	
-5.51222	1.4429	-0.428426	
-6.3644	1.51083	-0.503249	
-5.44084	1.45569	-0.434551	
-5.60059	1.36546	-0.424288	
-5.67105	1.34038	-0.425078	
-5.33661	1.70558	-0.44736	
-5.35159	1.63351	-0.445252	
-5.27963	1.65739	-0.456159	
-5.20045	0.837679	-0.470392	
-5.24474	0.792044	-0.462148	
-5.25699	1.09876	-0.459994	
-6.14069	1.30603	-0.529688	
-4.38625	1.35315	-0.388267	
-6.50687	0.166399	-0.499175	
-5.57118	0.169498	-0.425166	
-6.05873	1.40455	-0.544245	
-6.22422	0.41495	-0.517442	
-6.27679	0.474418	-0.511144	
-6.51184	1.05334	-0.499314	
-5.69886	0.984567	-0.426591	
-5.6623	1.13834	-0.424747	
-5.29707	0.452043	-0.453336	
-6.1481	0.374434	-0.528494	
-4.38442	0.42015	-0.388596	
-6.07119	0.484457	-0.541873	
-5.81489	0	-0.441532	
-5.83153	0.0667918	-0.445032	
-5.87928	0	-0.457612	
-5.81489	2	-0.441532	
-4.92949	1.94291	-0.361232	
-4.89056	2	-0.355982	
-5.85248	0.853126	-0.450048	
-5.87928	2	-0.457612	
-6.69978	1.92333	-0.523101	
-4.62079	0.506745	-0.356659	
-5.42164	0.56183	-0.436577	
-5.42941	0.636864	-0.435739	
-5.36032	0.546278	-0.444064	
-5.36104	0.617676	-0.443967	
-6.6162	0.078087	-0.507592	
-6.57629	1.56345	-0.503152	
-4.92059	1.62497	-0.359879	
-5.80657	1.57191	-0.439928	
-6.71838	0.153301	-0.527973	
-6.72262	0.252546	-0.529173	
-5.06609	0.211952	-0.397698	
-5.49275	0.650538	-0.429869	
-6.29596	0.718414	-0.50913	
-5.43134	0.798942	-0.435534	
-5.49839	0.786413	-0.429433	
-4.52296	0.678765	-0.367194	
-5.37109	0.741319	-0.442641	
-6.7812	1.80752	-0.550383	
-5.87858	1.74768	-0.457394	
-6.70347	1.83308	-0.524018	
-5.43892	1.20637	-0.434747	
-6.00805	1.92648	-0.554474	
-5.95237	1.86025	-0.566792	
-5.89826	0.344499	-0.463919	
-5.92417	0.410465	-0.474246	
-6.61314	0.282592	-0.50719	
-6.68297	0.338159	-0.519198	
-6.33982	0.251286	-0.50512	
-4.68869	0.217721	-0.351829	
-6.33274	0.164212	-0.505709	
-5.90847	0.230355	-0.577309	
-6.46402	1.93673	-0.498856	
-5.86697	1.26103	-0.453963	
-5.93058	1.24459	-0.477209	
-5.85199	1.32491	-0.449921	
-6.77649	1.31978	-0.548258	
-6.63858	0.804788	-0.510853	
-6.71039	0.759874	-0.525805	
-5.79373	0.714139	-0.437636	
-5.42006	0.206449	-0.436751	
-4.55061	0.138218	-0.363812	
-5.10039	1.72394	-0.491648	
-5.06539	1.78328	-0.49995	
-5.99832	1.79352	-0.556547	
-5.49796	1.03613	-0.429466	
-6.42497	1.05319	-0.499874	
-5.62185	0.992616	-0.424086	
-4.7579	1.10914	-0.34943	
-6.64784	0.204267	-0.51238	
-5.70546	0.22975	-0.427056	
-5.47403	0.863551	-0.43142	
-5.45597	0.938032	-0.433064	
-4.96795	1.76807	-0.368237	
-6.6646	1.69808	-0.515421	
-5.73892	1.73846	-0.430078	
-5.79589	0.425321	-0.438006	
-5.75194	0.500006	-0.431567	
-5.65546	0.456585	-0.424536	
-5.68298	0.51622	-0.425639	
-5.1771	0.232607	-0.475026	
-5.35114	1.33248	-0.445314	
-5.42669	1.52656	-0.436029	
-6.20569	1.55451	-0.519927	
-6.28178	1.60907	-0.510604	
-4.38256	0.903738	-0.388933	
-6.01667	0.902651	-0.552668	
-5.67687	0	-0.425335	
-5.60566	0	-0.424206	
-5.62825	0.051764	-0.424098	
-5.53728	0	-0.426831	
-5.55854	0.0537652	-0.425719	
-5.4553	1.3862	-0.433128	
-5.38458	1.3946	-0.440921	
-5.46116	1.26486	-0.432577	
-4.65575	1.21166	-0.353903	
-5.41828	1.32507	-0.436947	
-5.48926	1.32038	-0.430146	
-5.04639	0.814456	-0.389937	
-5.22487	1.88165	-0.465757	
-5.65269	0.594595	-0.424462	
-5.09474	1.38879	-0.412166	
-5.8989	1.39048	-0.464149	
-6.02008	0.75837	-0.551962	
-5.12279	0.821275	-0.486572	
-5.93146	0.75743	-0.477632	
-6.06785	1.60921	-0.542505	
-5.21372	1.68446	-0.467847	
-4.3532	1.75212	-0.394408	
-6.12305	1.73879	-0.532612	
-5.9839	1.59941	-0.559679	
-5.14508	1.66432	-0.481705	
-6.56509	1.93182	-0.502202	
-5.78604	1.87756	-0.436362	
-5.9397	0.146224	-0.481808	
-5.0923	1.10891	-0.410716	
-5.08646	0.544978	-0.407447	
-6.01991	1.32361	-0.551997	
-5.22417	0.0813768	-0.465888	
-5.18677	0	-0.473084	
-4.97405	1.21454	-0.369534	
-5.82764	1.14931	-0.444177	
-5.65053	1.87232	-0.424409	
-5.12735	1.24379	-0.485562	
-5.0892	1.29411	-0.494255	
-5.19337	1.24385	-0.471776	
-5.29137	1.16415	-0.454247	
-6.87052	0.398041	-0.627381	
-5.90496	1.20048	-0.578182	
-5.04036	1.11243	-0.506169	
-5.22688	0.560548	-0.465385	
-5.29164	0.523541	-0.454202	
-6.5742	1.65544	-0.502965	
-5.58897	0.109422	-0.424553	
-4.54578	1.86761	-0.364381	
-5.43308	1.9304	-0.435351	
-4.88666	0.741046	-0.355548	
-5.8505	0.676971	-0.449543	
-4.32658	0.693471	-0.399643	
-5.23945	0.726744	-0.463094	
-5.30642	0.760134	-0.451869	
-3.52549	0.61385	-0.314807	
-4.16971	0.170423	-0.435761	
-4.86853	1.15632	-0.353742	
-4.85587	1.09603	-0.352676	
-5.76723	1.1197	-0.433551	
-4.31212	1.85832	-0.402596	
-5.21923	1.8111	-0.466808	
-5.8789	1.45652	-0.457494	
-5.83937	1.39372	-0.446825	
-4.36946	1.94352	-0.391337	
-5.2556	2	-0.460235	
-5.70312	0.79232	-0.426886	
-4.87405	0.850283	-0.354256	
-5.67868	0.718066	-0.425422	
-5.12868	0.180772	-0.485269	
-5.65302	1.51591	-0.424471	
-6.49983	1.59438	-0.499016	
-4.8512	1.48768	-0.352323	
-5.77186	1.50665	-0.434205	
-4.17901	1.83632	-0.433365	
-6.11195	1.53312	-0.534512	
-4.33254	1.54488	-0.398448	
-5.03035	1.71558	-0.508721	
-6.75253	1.66217	-0.538765	
-5.22247	0.358669	-0.466204	
-5.16582	0.310734	-0.477336	
-4.92702	1.39867	-0.360846	
-5.8111	1.4537	-0.440789	
-5.79061	1.33896	-0.437109	
-5.58494	0.46147	-0.42467	
-4.71184	0.394907	-0.350689	
-6.36094	0.433969	-0.503496	
-4.72506	1.42238	-0.350163	
-5.52554	1.37641	-0.427541	
-5.83755	0.606335	-0.446399	
-5.07406	0.879786	-0.497852	
-5.08541	0.752034	-0.495146	
-5.04217	0.815753	-0.505709	
-5.96746	1.38066	-0.563343	
-6.77431	1.52165	-0.547309	
-5.84543	1.51493	-0.448279	
-4.95938	1.08423	-0.366505	
-5.04249	1.59815	-0.505629	
-4.75179	2	-0.349501	
-6.0693	1.16076	-0.542231	
-4.30512	1.18618	-0.40405	
-4.58261	1.14984	-0.360291	
-5.25538	1.23168	-0.460273	
-5.10127	1.16237	-0.491447	
-5.40716	1.68406	-0.438207	
-4.01872	0.333428	-0.279412	
-5.043	1.52552	-0.505501	
-5.08944	0.488947	-0.494198	
-4.43315	1.59304	-0.380243	
-5.87783	1.57917	-0.457167	
-5.06753	1.65719	-0.499431	
-5.78239	0.559694	-0.435783	
-5.82025	0.490232	-0.442615	
-5.10639	0.956713	-0.490271	
-5.17704	0.989568	-0.475038	
-5.38125	1.75665	-0.441339	
-4.46754	1.77244	-0.374881	
-4.30639	1.72615	-0.403786	
-4.41443	0.310718	-0.383347	
-4.36188	0.290342	-0.392756	
-4.37292	1.29539	-0.390696	
-5.67687	2	-0.425335	
-4.4998	0.482459	-0.370261	
-4.87796	1.30941	-0.354639	
-5.5152	0.109198	-0.42822	
-5.12998	1.03572	-0.484983	
-5.19101	1.07584	-0.472241	
-5.18677	2	-0.473084	
-5.03863	0.633303	-0.387205	
-5.85947	0.422033	-0.451887	
-4.1069	0.266461	-0.292075	
-5.11339	0.262786	-0.488682	
-4.79688	1.66446	-0.34971	
-4.73418	1.54135	-0.349874	
-5.07123	0.371856	-0.498534	
-4.24965	0.429791	-0.416221	
-4.62834	1.56661	-0.356018	
-4.64275	1.62234	-0.354862	
-3.62729	1.2804	-0.298175	
-5.03949	0.68957	-0.506387	
-4.17031	0.753859	-0.435607	
-5.9369	0.285029	-0.480345	
-4.17439	1.26259	-0.434551	
-6.79226	0	-0.555819	
-4.18235	1.39629	-0.432512	
-5.91627	1.45609	-0.575387	
-5.04754	0.308608	-0.504361	
-5.96691	0.682551	-0.563468	
-5.03655	0.423502	-0.507136	
-5.93838	2	-0.481114	
-4.64463	0.980727	-0.354719	
-5.97817	1.51237	-0.560945	
-5.14759	1.11653	-0.481168	
-4.70219	0.277428	-0.351131	
-6.37478	0.33864	-0.502544	
-4.23913	1.08627	-0.418657	
-4.79908	0.0993244	-0.349764	
-5.70105	0.0548078	-0.426741	
-3.3788	1.55961	-0.345466	
-5.9383	1.72118	-0.481069	
-5.04949	1.94239	-0.391074	
-5.04132	1.87535	-0.388133	
-4.29671	0.473525	-0.405825	
-4.2602	0.331482	-0.41382	
-4.98419	1.63205	-0.371815	
-5.08198	1.59521	-0.405106	
-5.19707	1.47977	-0.471051	
-5.73691	0.160133	-0.429865	
-4.85117	0.114041	-0.352321	
-4.40177	1.45658	-0.385521	
-4.94669	0.130179	-0.364125	
-5.40528	0.972536	-0.438426	
-5.91009	0.0752793	-0.468347	
-4.64169	0.0509452	-0.354944	
-4.59674	1.00206	-0.358874	
-3.63809	0.356044	-0.29664	
-5.36517	0.0762643	-0.443417	
-4.28678	1.44431	-0.407952	
-5.74444	0	-0.430687	
-4.2392	0.460204	-0.336465	
-3.94623	0.946643	-0.275086	
-5.05146	2	-0.51364	
-5.13045	2	-0.505106	
-5.29401	2	-0.491843	
-5.38002	2	-0.487253	
-5.21101	2	-0.49783	
-6.41021	2	-0.557689	
-6.58836	2	-0.56383	
-5.9064	2	-0.510039	
-5.82307	2	-0.498056	
-5.64533	2	-0.484099	
-6.32071	2	-0.558993	
-6.68489	-0.0721374	-0.672346	
-4.17307	-0.0524234	-0.448618	
-4.4402	-1.94219	-0.454697	
-5.22838	-1.93265	-0.52728	
-5.26875	-2	-0.52854	
-5.08779	-0.0610541	-0.524102	
-5.23204	-0.0745946	-0.527388	
-5.37404	-0.063891	-0.532436	
-5.97714	-1.2856	-0.522936	
-5.91541	-1.32684	-0.549234	
-5.97714	-1.35721	-0.522936	
-5.97714	-0.0721374	-0.522936	
-6.83102	-0.215036	-0.597641	
-5.97714	-0.143615	-0.522936	
-5.92591	-0.177622	-0.547968	
-5.12326	-0.286611	-0.448231	
-5.92699	-0.326516	-0.547816	
-6.83102	-0.358269	-0.597641	
-5.92718	-0.255005	-0.547789	
-5.97714	-0.714404	-0.522936	
-6.77159	-0.754353	-0.623693	
-5.97714	-0.786116	-0.522936	
-5.41438	-2	-0.534104	
-6.22308	-1.91632	-0.606946	
-5.34169	-2	-0.531157	
-4.19635	-2	-0.448875	
-4.17418	-1.94543	-0.448629	
-4.97714	-2	-0.522936	
-5.92821	-1.39944	-0.547638	
-5.97714	-1.42879	-0.522936	
-4.26939	-2	-0.373526	
-6.83102	-1.92786	-0.597641	
-5.06373	-2	-0.474294	
-5.1232	-2	-0.52472	
-5.08735	-1.9425	-0.524095	
-6.3818	-1.91894	-0.613661	
-5.48676	-2	-0.537206	
-4.70567	-2	-0.465544	
-5.97714	-1.21388	-0.522936	
-5.91532	-1.25457	-0.549244	
-6.83102	-1.78496	-0.597641	
-4.22554	-1.82622	-0.397416	
-5.97714	-1.85639	-0.522936	
-5.17194	-0.824164	-0.525772	
-5.09414	-0.840188	-0.524204	
-6.00291	-0.897364	-0.599953	
-6.68489	-1.07055	-0.672346	
-5.8965	-1.0996	-0.598195	
-6.74504	-0.999321	-0.672841	
-5.35645	-1.67801	-0.531733	
-5.42753	-1.66711	-0.534661	
-6.21395	-1.60664	-0.606582	
-5.24003	-0.446895	-0.527629	
-6.9687	-0.354649	-0.677696	
-5.18621	-0.398171	-0.526124	
-6.265	-1.83141	-0.608672	
-4.6166	-1.78071	-0.461799	
-6.26656	-1.74009	-0.608738	
-6.42691	-1.7075	-0.615485	
-5.49152	-1.71822	-0.53741	
-5.53863	-1.78279	-0.5394	
-6.46684	-1.79397	-0.617149	
-5.43842	-1.60358	-0.535126	
-5.39318	-1.5428	-0.533219	
-4.48522	-1.84473	-0.456353	
-6.58553	-1.45461	-0.622942	
-5.64942	-1.49442	-0.544155	
-5.6969	-1.53304	-0.546522	
-7.40631	-1.28582	-0.696015	
-5.62856	-1.23395	-0.543158	
-7.30715	-1.30809	-0.69126	
-7.49149	-1.05755	-0.699904	
-5.00481	-1.02435	-0.477195	
-4.95622	-0.98494	-0.476634	
-5.55068	-0.659051	-0.539893	
-5.48365	-0.685531	-0.537072	
-6.39069	-0.738859	-0.61403	
-6.3661	-1.33862	-0.612999	
-6.37578	-1.25231	-0.613408	
-6.68489	-1.42879	-0.672346	
-6.68489	-1.49933	-0.672346	
-5.91558	-1.4654	-0.59843	
-5.06461	-0.918262	-0.523764	
-5.11675	-1.01699	-0.524598	
-4.25454	-0.957788	-0.449742	
-6.95056	-0.881052	-0.677124	
-5.25073	-0.965074	-0.52796	
-5.31421	-0.954992	-0.530124	
-4.72209	-0.86716	-0.466188	
-6.49625	-0.888326	-0.618519	
-5.62454	-0.817828	-0.542971	
-6.00648	-0.589278	-0.600032	
-6.02351	-0.676587	-0.600422	
-6.0888	-0.618429	-0.602179	
-6.68305	-0.0745363	-0.626454	
-5.56376	-1.18703	-0.540417	
-5.50179	-1.16574	-0.53785	
-5.49713	-0.496062	-0.53765	
-6.432	-0.503541	-0.615682	
-5.53277	-0.439924	-0.539158	
-6.46838	-0.698429	-0.617218	
-5.38177	-1.23016	-0.53275	