<VTKFile type="UnstructuredGrid" version="0.1" byte_order="LittleEndian">
	<UnstructuredGrid>
		<Piece NumberOfPoints="1917" NumberOfCells="56">
			<CellData Scalars="scalars">
				<DataArray type="Float64" Name="Doublet Strengths" NumberOfComponents="1" Format="ascii">
-0.782383	
-3.01595	
-2.29556	
-2.6189	
-3.07919	
-3.24194	
-3.26955	
-3.1684	
-2.44745	
-2.19686	
-1.35156	
-3.75489	
-2.31335	
-3.55266	
-2.23989	
-2.3618	
-3.14117	
-2.94544	
-2.92817	
-2.67088	
-3.05634	
-3.21212	
-2.58457	
-3.14723	
-5.29152	
-2.8858	
-2.09905	
-2.23024	
-5.29039	
-2.29056	
-2.8423	
-3.13425	
-2.68334	
-2.11086	
-1.15996	
-3.70748	
-2.25144	
-2.68777	
-3.14282	
-2.11588	
-2.28547	
-2.84243	
-2.86554	
-2.64495	
-2.55621	
-2.85917	
-2.82238	
-2.66578	
-2.22643	
-2.49254	
-2.73593	
-0.720492	
-1.88621	
-2.19112	
-2.74061	
-1.46993	
				</DataArray>
				<DataArray type="Float64" Name="Velocity Potential" NumberOfComponents="1" Format="ascii">
-459.342	
-526.75	
-550.687	
-550.366	
-573.117	
-549.738	
-526.495	
-573.029	
-573.749	
-550.786	
-551.633	
-549.225	
-550.67	
-503	
-573.956	
-550.621	
-573.056	
-550.035	
-573.269	
-550.312	
-526.71	
-549.769	
-550.398	
-573.049	
-547.688	
-550.094	
-550.886	
-550.753	
-547.689	
-550.692	
-573.353	
-526.631	
-550.299	
-527.659	
-551.824	
-549.273	
-550.732	
-527.078	
-549.838	
-550.868	
-550.698	
-573.355	
-550.116	
-550.336	
-550.426	
-526.91	
-526.947	
-573.529	
-550.757	
-550.49	
-573.461	
-459.408	
-551.098	
-550.792	
-550.241	
-574.728	
				</DataArray>
			</CellData>
			<Points>
				<DataArray type="Float64" Name="Position" NumberOfComponents="3" Format="ascii">
-6.54451	0	-0.654314	
-5.45389	0.0524256	-0.560675	
-8.60612	0	-0.840433	
-6.69056	2	-0.657119	
-6.72179	1.93467	-0.657988	
-7.83038	2	-0.752656	
-6.61749	0	-0.655454	
-6.58208	0.0610502	-0.654836	
-6.72631	0.0745738	-0.658122	
-6.69056	0	-0.657119	
-6.76304	0	-0.659274	
-6.83597	0	-0.661891	
-6.90866	0	-0.664838	
-6.86729	0.0639395	-0.663128	
-6.35644	1.39584	-0.584795	
-7.40942	1.3266	-0.679997	
-7.47142	1.35721	-0.65367	
-8.60612	1.92786	-0.840433	
-5.45476	1.94512	-0.560684	
-8.53877	0.0721374	-0.747051	
-7.40745	0.0533506	-0.680194	
-6.40408	0	-0.560289	
-8.53877	0.215036	-0.747051	
-9.51627	0.171582	-0.868713	
-6.40408	0.143615	-0.560289	
-6.40408	0.286611	-0.560289	
-8.53877	0.358269	-0.747051	
-7.42124	0.326064	-0.678554	
-7.41903	0.252841	-0.678861	
-7.47142	0.714404	-0.65367	
-7.47142	0.786116	-0.65367	
-8.47932	0.754574	-0.773106	
-6.90866	2	-0.664838	
-6.83597	2	-0.661891	
-9.00777	1.91204	-0.850125	
-6.9239	1.66657	-0.665484	
-7.92128	1.60722	-0.755975	
-6.73455	0.446925	-0.65837	
-6.68161	0.397747	-0.656887	
-8.8905	0.354616	-0.845801	
-6.47142	2	-0.65367	
-7.47142	1.42879	-0.65367	
-5.33673	2	-0.466907	
-6.34454	2	-0.586352	
-8.53877	1.92786	-0.747051	
-6.61749	2	-0.655454	
-5.47717	2	-0.560932	
-6.58241	1.93956	-0.654841	
-5.88133	1.94176	-0.573164	
-9.15666	1.9167	-0.856443	
-6.98105	2	-0.66794	
-7.47142	1.21388	-0.65367	
-6.35241	1.19029	-0.585381	
-7.47142	1.14216	-0.65367	
-7.47142	1.2856	-0.65367	
-7.40972	1.25405	-0.679966	
-8.53877	1.78496	-0.747051	
-7.47142	1.85639	-0.65367	
-5.29285	1.82617	-0.490804	
-6.34512	0.114671	-0.586288	
-8.46552	1.46922	-0.774369	
-8.42001	1.38862	-0.776018	
-6.66622	0.824164	-0.656506	
-7.71066	0.897364	-0.749364	
-6.58843	0.840188	-0.654938	
-7.31407	1.46561	-0.682306	
-7.53877	1	-0.747051	
-8.66626	0.999321	-0.840928	
-8.60612	1.07055	-0.840433	
-6.93273	1.60348	-0.665861	
-6.56395	0.356544	-0.654567	
-5.56091	0.353408	-0.562285	
-6.60836	0.427857	-0.655283	
-7.97128	1.82506	-0.75802	
-7.97497	1.7382	-0.758175	
-5.89741	1.77788	-0.573856	
-6.98619	1.71777	-0.668161	
-7.03409	1.78088	-0.670183	
-8.13482	1.70728	-0.764901	
-8.17487	1.79378	-0.766572	
-6.88739	1.54291	-0.663949	
-6.82515	1.8351	-0.661478	
-8.29311	1.45384	-0.772343	
-7.19123	1.53294	-0.677258	
-7.14375	1.49429	-0.674891	
-8.25155	1.28284	-0.770286	
-9.2272	1.30815	-0.859297	
-7.12152	1.23305	-0.67383	
-9.4138	1.05577	-0.868031	
-7.31759	0.974397	-0.682379	
-6.29053	1.02275	-0.589204	
-7.04498	0.65903	-0.670628	
-8.09845	0.738857	-0.763441	
-6.97794	0.685529	-0.667806	
-8.07375	1.33866	-0.762405	
-8.08343	1.25226	-0.762814	
-8.60612	1.42879	-0.840433	
-7.62387	1.46516	-0.747847	
-8.60612	1.49933	-0.840433	
-6.55889	0.918262	-0.654498	
-8.87178	0.881052	-0.84521	
-6.82202	0.891355	-0.66136	
-6.80849	0.954992	-0.660858	
-6.0029	0.867158	-0.578246	
-7.11881	0.817822	-0.673704	
-8.2039	0.888323	-0.767924	
-7.71423	0.589259	-0.749442	
-7.79656	0.618435	-0.75159	
-7.73127	0.676586	-0.749832	
-7.26989	0	-0.680917	
-7.34119	0	-0.682657	
-8.39938	0.0790961	-0.775977	
-6.95138	1.27156	-0.666662	
-6.94096	1.20368	-0.666214	
-6.99165	0.496767	-0.668394	
-7.02835	0.442032	-0.669945	
-8.14044	0.502871	-0.765119	
-8.17614	0.698424	-0.766629	
-6.87606	1.23016	-0.663484	
-6.8267	1.27217	-0.661537	
-7.86512	1.19537	-0.753852	
-5.82795	1.2898	-0.570896	
-6.03901	1.02577	-0.579757	
-8.19815	0.967174	-0.767649	
-7.18477	1.0342	-0.676933	
-9.08893	1.00672	-0.853548	
-6.99103	0.93866	-0.668368	
-7.0426	0.987296	-0.670531	
-7.91676	0.378981	-0.755796	
-6.91025	0.426844	-0.664905	
-7.92469	0.470462	-0.756111	
-8.45664	1.87857	-0.774948	
-8.4424	1.79633	-0.775581	
-7.30977	1.84585	-0.682209	
-7.09949	0.270573	-0.672835	
-6.01744	0.200611	-0.578828	
-8.21939	0.193571	-0.768679	
-8.15768	0.123897	-0.765823	
-7.03394	0.249496	-0.670176	
-7.02483	0.173576	-0.669799	
-8.41002	1.20923	-0.776042	
-7.31256	1.13932	-0.682273	
-7.39718	1.13751	-0.681061	
-7.14976	0.531427	-0.675185	
-7.15066	0.463982	-0.675229	
-7.09383	0.427199	-0.67259	
-7.16054	0.382421	-0.675719	
-6.27968	0.742778	-0.58928	
-8.42017	0.813881	-0.776017	
-8.14286	0.580015	-0.765215	
-7.15454	1.7199	-0.675421	
-8.23512	0.757182	-0.769461	
-6.11485	0.698895	-0.583423	
-7.24135	0.732194	-0.679693	
-7.22167	0.893597	-0.678765	
-7.1887	0.830458	-0.677131	
-8.33881	0.834567	-0.77436	
-7.33889	1.53139	-0.682648	
-7.28632	1.59044	-0.681523	
-7.26197	1.5207	-0.680596	
-7.88473	1.10613	-0.754568	
-6.74734	1.13654	-0.658767	
-8.38028	0.567577	-0.775663	
-8.44741	0.624293	-0.775396	
-7.30712	0.641057	-0.682144	
-7.23878	0.667946	-0.679575	
-7.23867	0.607392	-0.67957	
-8.29795	0.97644	-0.772574	
-7.41189	0	-0.679734	
-6.90443	1.40806	-0.66466	
-6.93711	1.34451	-0.666048	
-6.97069	1.41675	-0.667494	
-6.93161	1.48085	-0.665813	
-8.10419	1.43176	-0.763677	
-6.99628	1.49613	-0.668593	
-7.06227	0.925911	-0.671317	
-7.22931	1.74077	-0.679131	
-9.36475	1.66215	-0.86593	
-6.227	1.70694	-0.588403	
-8.60612	1.71339	-0.840433	
-8.67657	1.77904	-0.841045	
-8.60612	1.78496	-0.840433	
-7.26989	2	-0.680917	
-8.37983	1.92525	-0.775653	
-7.34119	2	-0.682657	
-7.10231	0.350099	-0.672958	
-7.03859	0.315549	-0.670368	
-6.7984	1.02327	-0.660493	
-7.93533	1.02942	-0.756537	
-6.79346	0.0746863	-0.660316	
-6.82817	0.130322	-0.661593	
-7.82132	0.159825	-0.75236	
-7.8337	0.255296	-0.752766	
-5.74212	0.198868	-0.567512	
-6.87154	0.185075	-0.6633	
-7.78648	0.53229	-0.751292	
-10.7408	0.358269	-1.0272	
-7.53877	0.286611	-0.747051	
-6.53361	0.283499	-0.654187	
-8.60612	0.143615	-0.840433	
-7.61655	0.19815	-0.747753	
-8.60612	0.215036	-0.840433	
-8.75088	0.268711	-0.842192	
-8.04839	0	-0.761321	
-5.98648	0	-0.577602	
-7.06066	0.0522709	-0.671254	
-5.22905	0.233077	-0.495731	
-8.41715	0.293965	-0.776034	
-8.13082	1.52249	-0.764746	
-7.06197	1.6164	-0.671305	
-7.00235	1.57352	-0.668851	
-6.99788	1.65009	-0.668661	
-7.35951	1.59898	-0.682564	
-7.19838	0	-0.677616	
-7.14379	0.0589648	-0.674893	
-7.12575	0	-0.674028	
-6.64383	1.47391	-0.655993	
-7.7939	1.46129	-0.751511	
-7.77142	1.53681	-0.750865	
-8.23247	0.286849	-0.769329	
-6.78487	0.724627	-0.660014	
-5.7277	0.784216	-0.566991	
-7.80097	0.788387	-0.751723	
-8.367	0.223399	-0.775324	
-6.21824	1.34531	-0.588116	
-6.21349	1.40661	-0.587949	
-8.28614	1.36487	-0.772007	
-7.25362	1.29047	-0.680241	
-6.19981	0.414541	-0.587427	
-7.21443	0.434011	-0.678412	
-8.291	0.349215	-0.772242	
-7.33002	0.422964	-0.682574	
-8.34775	0.489015	-0.774696	
-7.35233	0.488653	-0.682639	
-4.93725	1.24582	-0.48493	
-7.05789	1.18695	-0.671145	
-6.1597	1.58611	-0.585642	
-5.73124	0.42229	-0.567118	
-5.75342	0.312816	-0.567932	
-7.96857	0.310713	-0.757906	
-6.85062	0.255176	-0.662463	
-6.91647	0.23291	-0.665168	
-9.38213	1.20734	-0.866732	
-7.11693	1.1572	-0.673617	
-7.18617	1.15129	-0.677004	
-6.10757	1.2101	-0.583056	
-8.19354	1.08885	-0.76743	
-6.72957	1.61914	-0.658219	
-6.74841	1.69424	-0.658801	
-7.73716	1.67616	-0.749974	
-6.7973	1.64844	-0.660453	
-6.8257	1.72086	-0.661499	
-7.17074	0.644913	-0.676228	
-6.17175	1.94629	-0.586209	
-8.23446	1.93331	-0.769428	
-7.24053	1.88539	-0.679656	
-7.71951	0.0804625	-0.74956	
-5.52518	0.127785	-0.561624	
-5.53642	1.88257	-0.561818	
-7.72258	1.92762	-0.74963	
-6.69106	0.21589	-0.657132	
-6.16439	0.273142	-0.585865	
-7.22484	0.209198	-0.678918	
-6.15302	0.143339	-0.58532	
-7.291	0.145092	-0.681678	
-6.10055	0.115792	-0.582704	
-7.16766	1.85807	-0.676074	
-7.10192	1.88373	-0.672941	
-6.02482	1.94611	-0.579138	
-5.98648	2	-0.577602	
-7.12575	2	-0.674028	
-6.35475	0.682902	-0.585048	
-8.53877	0.64279	-0.747051	
-5.88132	1.88295	-0.573163	
-6.82657	1.53147	-0.661532	
-6.80414	1.46174	-0.6607	
-6.86861	1.47178	-0.663181	
-7.37102	1.08229	-0.682324	
-5.61246	0.329519	-0.56346	
-7.60131	0.43708	-0.747573	
-7.53877	0.429861	-0.747051	
-5.79419	1.67699	-0.569515	
-6.77923	1.57544	-0.65982	
-6.1076	1.60691	-0.583058	
-7.13322	1.65508	-0.674383	
-7.2343	1.81461	-0.679367	
-6.10617	1.78507	-0.582986	
-5.61127	0.749751	-0.56343	
-6.72847	0.701087	-0.658186	
-7.67578	0.758919	-0.748665	
-7.47142	0.429861	-0.65367	
-8.47264	0.409639	-0.773779	
-7.30245	1.77163	-0.682021	
-8.43941	1.71936	-0.775675	
-7.73251	1.1716	-0.749862	
-6.69796	1.09553	-0.657317	
-7.83806	1.76477	-0.752911	
-5.78056	1.7791	-0.568974	
-6.97142	0.277236	-0.667525	
-8.01399	0.151691	-0.759839	
-5.9858	1.84554	-0.577575	
-6.98694	1.83711	-0.668193	
-6.86745	1.33945	-0.663134	
-6.83848	1.40104	-0.661988	
-6.21336	0.297567	-0.587944	
-7.3001	0.357474	-0.681956	
-6.02956	0.760525	-0.579341	
-7.04721	0.810302	-0.670718	
-6.95524	0.749841	-0.666828	
-6.89022	0.751361	-0.664067	
-6.9125	0.686344	-0.665	
-6.9819	0.810027	-0.667976	
-6.91658	0.81571	-0.665173	
-9.67346	1.64173	-0.933814	
-6.53708	1.65788	-0.654226	
-8.53877	1	-0.747051	
-8.53877	1.07055	-0.747051	
-6.35545	1.0308	-0.584946	
-5.46884	1.5272	-0.560835	
-8.60612	1.57014	-0.840433	
-5.82449	0.121062	-0.570752	
-6.93845	0.068568	-0.666106	
-7.00594	0.0968802	-0.669004	
-8.60612	1.85639	-0.840433	
-7.60548	1.8723	-0.74762	
-8.60612	0.0721374	-0.840433	
-6.53166	0.116381	-0.654166	
-7.03767	0.378957	-0.67033	
-8.60612	1.2856	-0.840433	
-6.53719	1.33655	-0.654227	
-8.60612	1.35721	-0.840433	
-5.859	1.07097	-0.572207	
-6.93284	1.13809	-0.665865	
-5.81162	1.10545	-0.570221	
-6.98593	1.08867	-0.668149	
-6.94719	0.876824	-0.666482	
-6.88553	0.882801	-0.663872	
-7.91911	0.819303	-0.755889	
-7.10517	1.38959	-0.673085	
-6.03138	1.45442	-0.57942	
-7.16394	1.41914	-0.675888	
-5.90786	0.213959	-0.574307	
-6.93318	0.621411	-0.66588	
-6.89535	0.549577	-0.66428	
-6.95676	0.556476	-0.666893	
-6.92449	0.491713	-0.665509	
-8.30467	0.0712931	-0.77289	
-6.86518	1.1672	-0.663043	
-7.12063	1.57159	-0.673789	
-6.665	0.47164	-0.656477	
-6.35139	0.476615	-0.585519	
-8.46126	0.546631	-0.774667	
-7.53877	0.500665	-0.747051	
-6.5314	0.802839	-0.654163	
-5.5393	0.646217	-0.56187	
-5.51712	0.69766	-0.561492	
-6.58456	1.17495	-0.654875	
-7.60425	1.0996	-0.747606	
-7.68867	1.1007	-0.748909	
-7.79683	1.32398	-0.751598	
-5.59358	1.29855	-0.562999	
-6.69074	1.24767	-0.657123	
-6.87336	0.61668	-0.663374	
-6.83622	0.546139	-0.661901	
-5.71019	0.561624	-0.56638	
-6.78942	0.491616	-0.660173	
-5.59994	1.0418	-0.56315	
-6.72793	1.02609	-0.65817	
-7.73623	0.976287	-0.749952	
-6.74502	0.965074	-0.658694	
-6.8775	0.954567	-0.663543	
-6.60501	1.62515	-0.655222	
-5.59902	1.59965	-0.563128	
-6.29722	0.360303	-0.589096	
-6.5416	1.5889	-0.654279	
-6.79915	1.33334	-0.66052	
-6.77282	1.39903	-0.659601	
-6.7604	1.2624	-0.659188	
-7.91524	0.683934	-0.755737	
-7.40321	0.967445	-0.680583	
-9.51967	0.89983	-0.868557	
-7.28973	0.914042	-0.681637	
-7.03957	1.0505	-0.670408	
-6.18227	1.13415	-0.586684	
-6.13867	1.09375	-0.584616	
-5.8803	1.5431	-0.57312	
-7.29764	0.770923	-0.681884	
-6.16443	0.785107	-0.585867	
-6.08709	1.34839	-0.582034	
-8.4057	1.29694	-0.776026	
-7.32119	1.65281	-0.682445	
-7.61034	1.25411	-0.747677	
-6.60121	1.32162	-0.655154	
-6.0403	0.633745	-0.579814	
-7.16176	0.587288	-0.675779	
-7.36244	0.6882	-0.682518	
-7.00835	0.873522	-0.669106	
-4.92387	1.36753	-0.484409	
-7.19838	2	-0.677616	
-5.66261	1.1987	-0.564849	
-6.97476	0.394274	-0.667669	
-6.97409	0.336713	-0.66764	
-7.29615	0.702848	-0.681839	
-7.47142	0.929454	-0.65367	
-7.47142	0.857842	-0.65367	
-6.31942	1.94387	-0.588322	
-6.99605	1.16572	-0.668583	
-7.05279	1.11814	-0.670942	
-7.7567	1.79696	-0.750469	
-5.63026	1.73661	-0.563925	
-5.8514	0.370041	-0.571883	
-5.89969	0.446178	-0.573955	
-5.86387	0.936014	-0.572415	
-4.43837	1.0523	-0.467935	
-6.61104	1.01699	-0.655332	
-7.47142	1.49933	-0.65367	
-7.62196	0.586375	-0.747822	
-7.65848	0.509874	-0.748364	
-7.40985	1.54624	-0.679952	
-5.71783	0.664255	-0.566644	
-5.76897	0.750955	-0.568523	
-5.72101	0.837223	-0.566755	
-8.60612	1.21388	-0.840433	
-5.45537	1.17543	-0.56069	
-8.60612	0.929454	-0.840433	
-5.45623	0.873321	-0.560699	
-9.67346	0.857842	-0.933814	
-6.52796	0.725606	-0.654126	
-8.60612	0.786116	-0.840433	
-8.60612	0.714404	-0.840433	
-6.54398	0.653203	-0.654307	
-8.60612	0.64279	-0.840433	
-9.67346	0.571209	-0.933814	
-8.60612	1.14216	-0.840433	
-5.53535	0.957788	-0.561799	
-4.56352	0.930031	-0.470561	
-6.81224	0.613315	-0.660996	
-6.36008	1.6049	-0.584205	
-5.94974	0.552048	-0.576093	
-6.99665	0.616488	-0.668608	
-7.68084	1.54065	-0.748759	
-6.63048	0.177963	-0.655711	
-6.61718	1.24487	-0.655448	
-7.67056	1.39957	-0.748571	
-5.62488	0.139289	-0.563782	
-6.59442	1.69928	-0.655037	
-6.62745	1.75272	-0.65565	
-6.66591	1.35868	-0.656499	
-5.65133	1.39206	-0.564516	
-5.60484	1.42097	-0.563269	
-6.60497	1.81911	-0.655221	
-7.4048	1.6612	-0.680443	
-7.47142	1.71339	-0.65367	
-6.14394	0.496577	-0.584876	
-7.23508	0.549039	-0.679403	
-5.58715	1.85508	-0.56285	
-5.45791	0.520218	-0.560716	
-4.51983	0.528047	-0.469469	
-7.47142	1.57014	-0.65367	
-8.53877	0.500665	-0.747051	
-5.04437	0.932053	-0.489883	
-5.69638	1.07414	-0.565915	
-5.69982	1.51028	-0.56603	
-8.53877	1.64173	-0.747051	
-5.63609	0.282674	-0.564085	
-7.47142	0.571209	-0.65367	
-5.29215	0.59575	-0.490923	
-4.40225	1.71321	-0.467462	
-7.85261	1.88726	-0.753409	
-6.34788	0.827624	-0.585966	
-5.68657	1.82622	-0.565595	
-5.46706	1.40032	-0.560815	
-6.70944	1.87065	-0.657633	
-5.18958	0.866054	-0.495733	
-5.15675	1.24863	-0.49493	
-5.74524	1.94589	-0.567627	
-5.28969	1.75284	-0.491321	
-4.63607	1.94185	-0.472769	
-7.43515	0.611259	-0.61317	
-8.48243	0.691022	-0.696877	
-6.36479	0.951279	-0.51819	
-8.4886	0.885946	-0.699629	
-6.95994	0	-0.562899	
-6.89159	0	-0.5701	
-7.99815	0.0792566	-0.659108	
-8.67616	0	-0.821947	
-5.51188	0.0639973	-0.532609	
-6.61092	0	-0.618684	
-6.52457	0.0936441	-0.639471	
-6.82045	0	-0.579615	
-6.74988	0	-0.590969	
-6.79298	0.0798839	-0.583812	
-6.37577	0.821071	-0.524355	
-7.43397	1.45488	-0.612537	
-7.43703	1.89867	-0.614199	
-5.89259	2	-0.469518	
-7.03156	2	-0.557565	
-8.07673	1.91895	-0.652343	
-5.51532	1.93754	-0.531799	
-6.52967	1.90585	-0.638164	
-6.54146	2	-0.635185	
-6.61092	2	-0.618684	
-6.89159	2	-0.5701	
-6.8559	1.92228	-0.574625	
-6.82045	2	-0.579615	
-7.06816	1.85759	-0.555792	
-8.06104	1.82278	-0.653472	
-7.85593	0.600657	-0.677892	
-6.7335	0.663037	-0.593871	
-7.86821	0.68441	-0.675961	
-6.52623	0.939959	-0.639046	
-6.53529	1.33496	-0.636737	
-8.04651	1.68417	-0.654617	
-5.94183	1.74973	-0.465594	
-9.21028	1.71007	-0.742284	
-6.78602	1.02684	-0.584922	
-7.86381	0.943151	-0.676646	
-6.73083	0.965528	-0.594352	
-6.56174	0.553448	-0.630183	
-6.51879	0.495631	-0.640961	
-7.22119	1.36962	-0.559597	
-9.2876	1.42353	-0.742125	
-7.23175	1.43872	-0.560657	
-8.40476	1.02505	-0.671836	
-7.27128	0.965827	-0.565693	
-8.31178	1.04082	-0.655467	
-8.25065	1.21008	-0.650089	
-9.40676	1.26463	-0.752574	
-7.26606	1.19252	-0.564927	
-6.77484	1.8275	-0.586741	
-7.85449	1.91186	-0.678123	
-7.9096	1.83465	-0.669869	
-7.97325	1.04863	-0.661811	
-6.84536	1.0111	-0.576057	
-7.89617	1.09426	-0.671773	
-5.83046	1.10778	-0.475983	
-8.04604	1.09436	-0.654656	
-7.01463	0.92332	-0.55861	
-7.05283	0.983948	-0.556453	
-9.23045	0.912712	-0.741769	
-5.97227	1.65028	-0.463736	
-6.02608	1.64109	-0.461668	
-8.11307	1.58611	-0.650181	
-6.54165	0.621253	-0.635139	
-5.54077	0.607584	-0.525933	
-7.7152	0.544593	-0.704013	
-7.73587	0.626188	-0.699723	
-7.97113	0.883867	-0.662054	
-6.86273	0.814004	-0.573719	
-6.83841	0.883506	-0.577026	
-5.78964	0.94284	-0.481098	
-5.73655	0.823889	-0.488728	
-6.76926	0.86549	-0.587666	
-7.21467	0.577518	-0.559	
-8.27952	0.659851	-0.652163	
-7.27639	0.634606	-0.566473	
-7.71061	0.0913029	-0.704987	
-6.57205	0.141129	-0.627699	
-6.99818	1.15841	-0.559756	
-9.21968	1.18235	-0.742004	
-5.98129	1.11752	-0.463273	
-8.42344	0.938839	-0.676638	
-6.33861	0.99711	-0.506328	
-7.03137	0.516229	-0.557576	
-8.12704	0.597248	-0.649523	
-7.10575	0.53029	-0.554872	
-7.94887	1.25683	-0.664706	
-7.92883	1.17353	-0.667265	
-6.813	1.22905	-0.580724	
-8.44446	1.10599	-0.68284	
-7.42101	1.05145	-0.606137	
-7.37782	1.1866	-0.589684	
-7.43087	1.17077	-0.610912	
-8.9329	1.39834	-0.769754	
-5.73526	1.4857	-0.488928	
-6.8628	1.4682	-0.573711	
-8.26297	0.907417	-0.650876	
-7.14266	0.841878	-0.555095	
-9.52698	0.492781	-0.781326	
-6.26832	0.543817	-0.484653	
-7.38457	0.570722	-0.591894	
-7.16266	1.72433	-0.555703	
-7.11858	1.78876	-0.55482	
-7.03292	0.853718	-0.557488	
-6.94588	0.389993	-0.564218	
-5.88596	0.316743	-0.470129	
-6.89169	0.343184	-0.570089	
-7.0663	0.780432	-0.555866	
-6.01791	0.84375	-0.461852	
-7.13636	0.770799	-0.554975	
-6.9815	0.577671	-0.561045	
-7.61338	1.02428	-0.727425	
-7.81541	0.237428	-0.684669	
-6.7639	0.153222	-0.588566	
-6.6963	0.163431	-0.600823	
-7.90647	0.159631	-0.670307	
-7.1858	1.80219	-0.556855	
-6.14837	1.86234	-0.465712	
-7.26469	1.80354	-0.56473	
-7.09385	0.329138	-0.555041	
-8.23588	0.30982	-0.649331	
-8.18377	0.244444	-0.648201	
-7.12597	0.391669	-0.554852	
-5.65814	1.03303	-0.501945	
-7.09426	0.717798	-0.555033	
-7.01263	0.718603	-0.558742	
-5.98321	0.665477	-0.463179	
-7.12565	0.658642	-0.55485	
-5.8844	1.87015	-0.470275	
-6.91609	1.80864	-0.567293	
-5.98944	1.78424	-0.462889	
-6.94367	1.74797	-0.564433	
-7.19115	0.386445	-0.557192	
-7.22119	0.441074	-0.559597	
-7.26052	0.365688	-0.564149	
-7.03243	1.25637	-0.557516	
-7.10727	1.24657	-0.554859	
-7.05528	1.3122	-0.556339	
-6.05345	1.30199	-0.461444	
-7.18079	1.27096	-0.556564	
-6.90636	0.276367	-0.568378	
-8.95981	0.292881	-0.765693	
-5.79313	0.234809	-0.480634	
-5.73721	0.216682	-0.488626	
-7.28301	0.891352	-0.567533	
-7.08236	1.48059	-0.555312	
-7.00651	1.4429	-0.55916	
-8.07216	1.51083	-0.65266	
-6.93512	1.45569	-0.565285	
-7.09487	1.36546	-0.555022	
-7.16534	1.34038	-0.555812	
-6.83089	1.70558	-0.578094	
-6.84587	1.63351	-0.575986	
-6.77392	1.65739	-0.586893	
-6.69474	0.837679	-0.601126	
-6.73902	0.792044	-0.592882	
-6.75127	1.09876	-0.590728	
-7.84844	1.30603	-0.679099	
-5.66707	1.35315	-0.500324	
-8.21462	0.166399	-0.648585	
-7.06547	0.169498	-0.5559	
-7.76649	1.40455	-0.693655	
-7.93198	0.41495	-0.666853	
-7.98454	0.474418	-0.660554	
-8.21959	1.05334	-0.648724	
-7.19315	0.984567	-0.557325	
-7.15658	1.13834	-0.555481	
-6.79135	0.452043	-0.58407	
-7.85586	0.374434	-0.677904	
-5.66524	0.42015	-0.500654	
-7.77895	0.484457	-0.691284	
-7.30918	0	-0.572266	
-7.32582	0.0667918	-0.575766	
-7.37357	0	-0.588346	
-7.30918	2	-0.572266	
-6.2103	1.94291	-0.473289	
-6.17138	2	-0.46804	
-7.34676	0.853126	-0.580782	
-7.37357	2	-0.588346	
-8.40754	1.92333	-0.672512	
-5.90161	0.506745	-0.468717	
-6.91593	0.56183	-0.567311	
-6.92369	0.636864	-0.566473	
-6.8546	0.546278	-0.574798	
-6.85533	0.617676	-0.574701	
-8.32396	0.078087	-0.657002	
-8.28404	1.56345	-0.652562	
-6.20141	1.62497	-0.471936	
-7.30085	1.57191	-0.570662	
-8.42614	0.153301	-0.677383	
-8.43037	0.252546	-0.678584	
-6.3469	0.211952	-0.509755	
-6.98704	0.650538	-0.560603	
-8.00371	0.718414	-0.658541	
-6.92562	0.798942	-0.566268	
-6.99267	0.786413	-0.560167	
-5.80377	0.678765	-0.479252	
-6.86537	0.741319	-0.573375	
-8.48895	1.80752	-0.699793	
-7.37286	1.74768	-0.588128	
-8.41122	1.83308	-0.673429	
-6.9332	1.20637	-0.565481	
-7.71581	1.92648	-0.703885	
-7.66013	1.86025	-0.716202	
-7.39254	0.344499	-0.594653	
-7.41846	0.410465	-0.60498	
-8.32089	0.282592	-0.6566	
-8.39072	0.338159	-0.668608	
-8.04757	0.251286	-0.65453	
-5.9695	0.217721	-0.463886	
-8.0405	0.164212	-0.65512	
-7.61622	0.230355	-0.726719	
-8.17177	1.93673	-0.648267	
-7.36126	1.26103	-0.584697	
-7.42486	1.24459	-0.607943	
-7.34627	1.32491	-0.580655	
-8.48424	1.31978	-0.697668	
-8.34633	0.804788	-0.660264	
-8.41815	0.759874	-0.675215	
-7.28802	0.714139	-0.56837	
-6.91435	0.206449	-0.567485	
-5.83143	0.138218	-0.47587	
-6.59468	1.72394	-0.622382	
-6.55968	1.78328	-0.630684	
-7.70607	1.79352	-0.705957	
-6.99225	1.03613	-0.5602	
-8.13273	1.05319	-0.649284	
-7.11613	0.992616	-0.55482	
-6.03872	1.10914	-0.461488	
-8.35559	0.204267	-0.66179	
-7.19974	0.22975	-0.55779	
-6.96831	0.863551	-0.562154	
-6.95026	0.938032	-0.563798	
-6.24877	1.76807	-0.480294	
-8.37235	1.69808	-0.664832	
-7.2332	1.73846	-0.560812	
-7.29017	0.425321	-0.56874	
-7.24622	0.500006	-0.562301	
-7.14975	0.456585	-0.55527	
-7.17726	0.51622	-0.556373	
-6.67139	0.232607	-0.60576	
-6.84543	1.33248	-0.576048	
-6.92097	1.52656	-0.566763	
-7.91344	1.55451	-0.669337	
-7.98953	1.60907	-0.660015	
-5.66338	0.903738	-0.50099	
-7.72443	0.902651	-0.702079	
-7.17116	0	-0.556069	
-7.09995	0	-0.55494	
-7.12254	0.051764	-0.554832	
-7.03156	0	-0.557565	
-7.05282	0.0537652	-0.556453	
-6.94958	1.3862	-0.563862	
-6.87887	1.3946	-0.571655	
-6.95544	1.26486	-0.563311	
-5.93656	1.21166	-0.465961	
-6.91257	1.32507	-0.567681	
-6.98354	1.32038	-0.56088	
-6.32721	0.814456	-0.501994	
-6.71916	1.88165	-0.596491	
-7.14697	0.594595	-0.555196	
-6.37555	1.38879	-0.524224	
-7.39319	1.39048	-0.594883	
-7.72783	0.75837	-0.701373	
-6.61708	0.821275	-0.617306	
-7.42574	0.75743	-0.608366	
-7.7756	1.60921	-0.691915	
-6.708	1.68446	-0.598581	
-5.63401	1.75212	-0.506466	
-7.8308	1.73879	-0.682023	
-7.69165	1.59941	-0.709089	
-6.63936	1.66432	-0.612439	
-8.27284	1.93182	-0.651612	
-7.28032	1.87756	-0.567096	
-7.43398	0.146224	-0.612542	
-6.37312	1.10891	-0.522773	
-6.36728	0.544978	-0.519505	
-7.72767	1.32361	-0.701408	
-6.71845	0.0813768	-0.596622	
-6.68105	0	-0.603818	
-6.25487	1.21454	-0.481592	
-7.32192	1.14931	-0.574911	
-7.14481	1.87232	-0.555143	
-6.62164	1.24379	-0.616296	
-6.58348	1.29411	-0.624989	
-6.68766	1.24385	-0.60251	
-6.78565	1.16415	-0.584981	
-8.79174	0.398041	-0.795468	
-7.61271	1.20048	-0.727592	
-6.53464	1.11243	-0.636903	
-6.72117	0.560548	-0.596119	
-6.78593	0.523541	-0.584936	
-8.28195	1.65544	-0.652375	
-7.08326	0.109422	-0.555287	
-5.8266	1.86761	-0.476438	
-6.92736	1.9304	-0.566085	
-6.16747	0.741046	-0.467606	
-7.34479	0.676971	-0.580277	
-5.6074	0.693471	-0.511701	
-6.73374	0.726744	-0.593828	
-6.80071	0.760134	-0.582603	
-4.59284	0.61385	-0.408189	
-5.45053	0.170423	-0.547819	
-6.14935	1.15632	-0.465799	
-6.13668	1.09603	-0.464734	
-7.26151	1.1197	-0.564285	
-5.59293	1.85832	-0.514653	
-6.71352	1.8111	-0.597542	
-7.37318	1.45652	-0.588228	
-7.33365	1.39372	-0.577559	
-5.65027	1.94352	-0.503395	
-6.74988	2	-0.590969	
-7.1974	0.79232	-0.55762	
-6.15486	0.850283	-0.466313	
-7.17296	0.718066	-0.556156	
-6.62296	0.180772	-0.616003	
-7.14731	1.51591	-0.555205	
-8.20759	1.59438	-0.648426	
-6.13201	1.48768	-0.464381	
-7.26614	1.50665	-0.564939	
-5.45982	1.83632	-0.545423	
-7.8197	1.53312	-0.683922	
-5.61336	1.54488	-0.510506	
-6.52463	1.71558	-0.639455	
-8.46028	1.66217	-0.688175	
-6.71675	0.358669	-0.596938	
-6.66011	0.310734	-0.60807	
-6.20783	1.39867	-0.472904	
-7.30538	1.4537	-0.571523	
-7.28489	1.33896	-0.567843	
-7.07923	0.46147	-0.555404	
-5.99266	0.394907	-0.462747	
-8.06869	0.433969	-0.652907	
-6.00587	1.42238	-0.462221	
-7.01983	1.37641	-0.558275	
-7.33183	0.606335	-0.577133	
-6.56834	0.879786	-0.628586	
-6.5797	0.752034	-0.62588	
-6.53646	0.815753	-0.636443	
-7.67521	1.38066	-0.712753	
-8.48206	1.52165	-0.696719	
-7.33971	1.51493	-0.579013	
-6.2402	1.08423	-0.478563	
-6.53678	1.59815	-0.636363	
-6.0326	2	-0.461559	
-7.77705	1.16076	-0.691641	
-5.58594	1.18618	-0.516108	
-5.86343	1.14984	-0.472349	
-6.74967	1.23168	-0.591007	
-6.59555	1.16237	-0.622181	
-6.90145	1.68406	-0.568941	
-5.08607	0.333428	-0.372794	
-6.53729	1.52552	-0.636235	
-6.58372	0.488947	-0.624932	
-5.71396	1.59304	-0.492301	
-7.37212	1.57917	-0.587901	
-6.56181	1.65719	-0.630165	
-7.27667	0.559694	-0.566517	
-7.31454	0.490232	-0.573349	
-6.60068	0.956713	-0.621005	
-6.67133	0.989568	-0.605772	
-6.87553	1.75665	-0.572073	
-5.74835	1.77244	-0.486939	
-5.5872	1.72615	-0.515844	
-5.69525	0.310718	-0.495405	
-5.6427	0.290342	-0.504814	
-5.65373	1.29539	-0.502754	
-7.17116	2	-0.556069	
-5.78061	0.482459	-0.482318	
-6.15877	1.30941	-0.466697	
-7.00949	0.109198	-0.558954	
-6.62427	1.03572	-0.615717	
-6.6853	1.07584	-0.602975	
-6.68105	2	-0.603818	
-6.31944	0.633303	-0.499263	
-7.35375	0.422033	-0.582621	
-5.17425	0.266461	-0.385456	
-6.60767	0.262786	-0.619416	
-6.0777	1.66446	-0.461767	
-6.01499	1.54135	-0.461931	
-6.56552	0.371856	-0.629268	
-5.53047	0.429791	-0.528279	
-5.90915	1.56661	-0.468075	
-5.92357	1.62234	-0.46692	
-4.69464	1.2804	-0.391556	
-6.53378	0.68957	-0.637121	
-5.45112	0.753859	-0.547664	
-7.43119	0.285029	-0.611079	
-5.45521	1.26259	-0.546609	
-8.50002	0	-0.705229	
-5.46316	1.39629	-0.54457	
-7.62403	1.45609	-0.724798	
-6.54182	0.308608	-0.635095	
-7.67466	0.682551	-0.712878	
-6.53083	0.423502	-0.63787	
-7.43267	2	-0.611848	
-5.92545	0.980727	-0.466776	
-7.68592	1.51237	-0.710356	
-6.64187	1.11653	-0.611902	
-5.98301	0.277428	-0.463189	
-8.08254	0.33864	-0.651954	
-5.51995	1.08627	-0.530715	
-6.07989	0.0993244	-0.461822	
-7.19534	0.0548078	-0.557475	
-4.44615	1.55961	-0.438848	
-7.43258	1.72118	-0.611803	
-6.33031	1.94239	-0.503132	
-6.32213	1.87535	-0.500191	
-5.57752	0.473525	-0.517882	
-5.54102	0.331482	-0.525878	
-6.265	1.63205	-0.483873	
-6.3628	1.59521	-0.517164	
-6.69135	1.47977	-0.601785	
-7.23119	0.160133	-0.560599	
-6.13198	0.114041	-0.464378	
-5.68259	1.45658	-0.497579	
-6.22751	0.130179	-0.476182	
-6.89956	0.972536	-0.56916	
-7.40437	0.0752793	-0.599081	
-5.92251	0.0509452	-0.467002	
-5.87755	1.00206	-0.470932	
-4.70543	0.356044	-0.390022	
-6.85945	0.0762643	-0.574151	
-5.56759	1.44431	-0.520009	
-7.23872	0	-0.561421	
-5.30654	0.460204	-0.429846	
-5.01358	0.946643	-0.368467	
-6.54575	2	-0.644374	
-6.62474	2	-0.63584	
-6.7883	2	-0.622577	
-6.8743	2	-0.617987	
-6.7053	2	-0.628564	
-8.11796	2	-0.7071	
-8.29611	2	-0.713241	
-7.40068	2	-0.640773	
-7.31735	2	-0.62879	
-7.13962	2	-0.614833	
-8.02846	2	-0.708403	
-8.60612	-0.0721374	-0.840433	
-5.45389	-0.0524234	-0.560675	
-5.72101	-1.94219	-0.566755	
-6.72267	-1.93265	-0.658014	
-6.76304	-2	-0.659274	
-6.58207	-0.0610541	-0.654836	
-6.72632	-0.0745946	-0.658122	
-6.86832	-0.063891	-0.66317	
-7.47142	-1.2856	-0.65367	
-7.4097	-1.32684	-0.679968	
-7.47142	-1.35721	-0.65367	
-7.47142	-0.0721374	-0.65367	
-8.53877	-0.215036	-0.747051	
-7.47142	-0.143615	-0.65367	
-7.42019	-0.177622	-0.678702	
-6.40408	-0.286611	-0.560289	
-7.42127	-0.326516	-0.67855	
-8.53877	-0.358269	-0.747051	
-7.42146	-0.255005	-0.678523	
-7.47142	-0.714404	-0.65367	
-8.47934	-0.754353	-0.773103	
-7.47142	-0.786116	-0.65367	
-6.90866	-2	-0.664838	
-7.93083	-1.91632	-0.756356	
-6.83597	-2	-0.661891	
-5.47717	-2	-0.560932	
-5.455	-1.94543	-0.560687	
-6.47142	-2	-0.65367	
-7.42249	-1.39944	-0.678372	
-7.47142	-1.42879	-0.65367	
-5.33673	-2	-0.466907	
-8.53877	-1.92786	-0.747051	
-6.34454	-2	-0.586352	
-6.61749	-2	-0.655454	
-6.58164	-1.9425	-0.654829	
-8.08956	-1.91894	-0.763071	
-6.98105	-2	-0.66794	
-5.98648	-2	-0.577602	
-7.47142	-1.21388	-0.65367	
-7.4096	-1.25457	-0.679978	
-8.53877	-1.78496	-0.747051	
-5.29288	-1.82622	-0.490798	
-7.47142	-1.85639	-0.65367	
-6.66622	-0.824164	-0.656506	
-6.58843	-0.840188	-0.654938	
-7.71066	-0.897364	-0.749364	
-8.60612	-1.07055	-0.840433	
-7.60425	-1.0996	-0.747606	
-8.66626	-0.999321	-0.840928	
-6.85074	-1.67801	-0.662467	
-6.92181	-1.66711	-0.665395	
-7.92171	-1.60664	-0.755992	
-6.73432	-0.446895	-0.658363	
-8.88993	-0.354649	-0.845782	
-6.6805	-0.398171	-0.656858	
-7.97276	-1.83141	-0.758082	
-5.89742	-1.78071	-0.573857	
-7.97432	-1.74009	-0.758148	
-8.13466	-1.7075	-0.764895	
-6.98581	-1.71822	-0.668144	
-7.03291	-1.78279	-0.670134	
-8.1746	-1.79397	-0.766559	
-6.93271	-1.60358	-0.66586	
-6.88747	-1.5428	-0.663953	
-5.76604	-1.84473	-0.56841	
-8.29329	-1.45461	-0.772352	
-7.14371	-1.49442	-0.674889	
-7.19118	-1.53304	-0.677256	
-9.32753	-1.28582	-0.864102	
-7.12285	-1.23395	-0.673892	
-9.22838	-1.30809	-0.859347	
-9.41272	-1.05755	-0.867991	
-6.28562	-1.02435	-0.589253	
-6.23703	-0.98494	-0.588692	
-7.04497	-0.659051	-0.670627	
-6.97794	-0.685531	-0.667806	
-8.09845	-0.738859	-0.763441	
-8.07386	-1.33862	-0.762409	
-8.08354	-1.25231	-0.762819	
-8.60612	-1.42879	-0.840433	
-8.60612	-1.49933	-0.840433	
-7.62334	-1.4654	-0.74784	
-6.55889	-0.918262	-0.654498	
-6.61104	-1.01699	-0.655332	
-5.53535	-0.957788	-0.561799	
-8.87178	-0.881052	-0.84521	
-6.74502	-0.965074	-0.658694	
-6.80849	-0.954992	-0.660858	
-6.00291	-0.86716	-0.578246	
-8.20401	-0.888326	-0.767929	
-7.11883	-0.817828	-0.673705	
-7.71423	-0.589278	-0.749442	
-7.73127	-0.676587	-0.749832	
-7.79655	-0.618429	-0.75159	
-8.39081	-0.0745363	-0.775864	
-7.05804	-1.18703	-0.671151	
-6.99607	-1.16574	-0.668584	
-6.99141	-0.496062	-0.668384	
-8.13975	-0.503541	-0.765092	
-7.02705	-0.439924	-0.669892	
-8.17614	-0.698429	-0.766629	
-6.87606	-1.23016	-0.663484	