<VTKFile type="UnstructuredGrid" version="0.1" byte_order="LittleEndian">
	<UnstructuredGrid>
		<Piece NumberOfPoints="1917" NumberOfCells="56">
			<CellData Scalars="scalars">
				<DataArray type="Float64" Name="Doublet Strengths" NumberOfComponents="1" Format="ascii">
-0.553842	
-2.18466	
-1.66751	
-2.18931	
-2.40584	
-2.58317	
-2.54626	
-2.50376	
-1.97594	
-1.63957	
-1.03044	
-3.10737	
-1.67666	
-2.8939	
-1.72917	
-1.70615	
-2.41299	
-2.29479	
-2.27788	
-1.93895	
-2.2975	
-2.55458	
-1.85098	
-2.46004	
-4.67062	
-2.23388	
-1.72468	
-1.63081	
-4.66825	
-1.5955	
-2.14828	
-2.39868	
-1.99838	
-1.43746	
-0.803517	
-3.05499	
-1.56493	
-1.98121	
-2.47614	
-1.50359	
-1.58833	
-2.05881	
-2.03284	
-1.9416	
-1.7881	
-1.99042	
-2.01732	
-1.95538	
-1.59639	
-1.72084	
-1.96735	
-0.476649	
-1.3002	
-1.53377	
-1.98349	
-1.03172	
				</DataArray>
				<DataArray type="Float64" Name="Velocity Potential" NumberOfComponents="1" Format="ascii">
-1016.71	
-1154.36	
-1201.31	
-1200.79	
-1247	
-1200.39	
-1154	
-1246.9	
-1247.43	
-1201.34	
-1201.95	
-1199.87	
-1201.3	
-1107.23	
-1247.68	
-1201.27	
-1246.99	
-1200.68	
-1247.13	
-1201.04	
-1154.25	
-1200.42	
-1201.13	
-1246.95	
-1198.31	
-1200.74	
-1201.26	
-1201.35	
-1198.31	
-1201.38	
-1247.26	
-1154.15	
-1200.98	
-1155.11	
-1202.18	
-1199.92	
-1201.42	
-1154.57	
-1200.5	
-1201.48	
-1201.39	
-1247.35	
-1200.94	
-1201.03	
-1201.19	
-1154.56	
-1154.53	
-1247.45	
-1201.38	
-1201.26	
-1247.44	
-1016.78	
-1201.68	
-1201.45	
-1200.99	
-1248.38	
				</DataArray>
			</CellData>
			<Points>
				<DataArray type="Float64" Name="Position" NumberOfComponents="3" Format="ascii">
-13.0197	0	-1.22083	
-11.0041	0.0524256	-1.04626	
-16.9314	0	-1.56881	
-13.1658	2	-1.22363	
-13.197	1.93467	-1.2245	
-15.2307	2	-1.4001	
-13.0927	0	-1.22197	
-13.0573	0.0610502	-1.22135	
-13.2015	0.0745738	-1.22464	
-13.1658	0	-1.22363	
-13.2383	0	-1.22579	
-13.3112	0	-1.22841	
-13.3839	0	-1.23135	
-13.3425	0.0639395	-1.22964	
-11.9066	1.39584	-1.07038	
-13.8847	1.3266	-1.24651	
-13.9467	1.35721	-1.22018	
-16.9314	1.92786	-1.56881	
-11.005	1.94512	-1.04627	
-15.939	0.0721374	-1.3945	
-13.8827	0.0533506	-1.24671	
-11.9543	0	-1.04587	
-15.939	0.215036	-1.3945	
-17.8416	0.171582	-1.59709	
-11.9543	0.143615	-1.04587	
-11.9543	0.286611	-1.04587	
-15.939	0.358269	-1.3945	
-13.8965	0.326064	-1.24507	
-13.8943	0.252841	-1.24538	
-13.9467	0.714404	-1.22018	
-13.9467	0.786116	-1.22018	
-15.8796	0.754574	-1.42055	
-13.3839	2	-1.23135	
-13.3112	2	-1.22841	
-17.3331	1.91204	-1.5785	
-13.3991	1.66657	-1.232	
-15.3215	1.60722	-1.40342	
-13.2098	0.446925	-1.22488	
-13.1568	0.397747	-1.2234	
-17.2158	0.354616	-1.57418	
-12.9467	2	-1.22018	
-13.9467	1.42879	-1.22018	
-9.9619	2	-0.87156	
-11.8947	2	-1.07194	
-15.939	1.92786	-1.3945	
-13.0927	2	-1.22197	
-11.0274	2	-1.04652	
-13.0576	1.93956	-1.22136	
-11.4315	1.94176	-1.05875	
-17.482	1.9167	-1.58482	
-13.4563	2	-1.23445	
-13.9467	1.21388	-1.22018	
-11.9026	1.19029	-1.07096	
-13.9467	1.14216	-1.22018	
-13.9467	1.2856	-1.22018	
-13.885	1.25405	-1.24648	
-15.939	1.78496	-1.3945	
-13.9467	1.85639	-1.22018	
-9.91802	1.82617	-0.895457	
-11.8953	0.114671	-1.07187	
-15.8658	1.46922	-1.42181	
-15.8203	1.38862	-1.42346	
-13.1415	0.824164	-1.22302	
-15.1109	0.897364	-1.39681	
-13.0637	0.840188	-1.22145	
-13.7893	1.46561	-1.24882	
-14.939	1	-1.3945	
-16.9916	0.999321	-1.5693	
-16.9314	1.07055	-1.56881	
-13.408	1.60348	-1.23237	
-13.0392	0.356544	-1.22108	
-11.1111	0.353408	-1.04787	
-13.0836	0.427857	-1.2218	
-15.3715	1.82506	-1.40546	
-15.3752	1.7382	-1.40562	
-11.4476	1.77788	-1.05944	
-13.4614	1.71777	-1.23467	
-13.5093	1.78088	-1.2367	
-15.5351	1.70728	-1.41235	
-15.5751	1.79378	-1.41402	
-13.3626	1.54291	-1.23046	
-13.3004	1.8351	-1.22799	
-15.6934	1.45384	-1.41979	
-13.6665	1.53294	-1.24377	
-13.619	1.49429	-1.2414	
-15.6518	1.28284	-1.41773	
-17.5525	1.30815	-1.58767	
-13.5968	1.23305	-1.24034	
-17.7391	1.05577	-1.59641	
-13.7928	0.974397	-1.24889	
-11.8407	1.02275	-1.07479	
-13.5202	0.65903	-1.23714	
-15.4987	0.738857	-1.41089	
-13.4532	0.685529	-1.23432	
-15.474	1.33866	-1.40985	
-15.4837	1.25226	-1.41026	
-16.9314	1.42879	-1.56881	
-15.0241	1.46516	-1.39529	
-16.9314	1.49933	-1.56881	
-13.0341	0.918262	-1.22101	
-17.1971	0.881052	-1.57359	
-13.2973	0.891355	-1.22787	
-13.2837	0.954992	-1.22737	
-11.5531	0.867158	-1.06383	
-13.594	0.817822	-1.24022	
-15.6042	0.888323	-1.41537	
-15.1145	0.589259	-1.39689	
-15.1968	0.618435	-1.39903	
-15.1315	0.676586	-1.39728	
-13.7451	0	-1.24743	
-13.8164	0	-1.24917	
-15.7996	0.0790961	-1.42342	
-13.4266	1.27156	-1.23318	
-13.4162	1.20368	-1.23273	
-13.4669	0.496767	-1.23491	
-13.5036	0.442032	-1.23646	
-15.5407	0.502871	-1.41256	
-15.5764	0.698424	-1.41407	
-13.3513	1.23016	-1.23	
-13.3019	1.27217	-1.22805	
-15.2654	1.19537	-1.4013	
-11.3782	1.2898	-1.05648	
-11.5892	1.02577	-1.06534	
-15.5984	0.967174	-1.41509	
-13.66	1.0342	-1.24345	
-17.4142	1.00672	-1.58192	
-13.4663	0.93866	-1.23488	
-13.5178	0.987296	-1.23705	
-15.317	0.378981	-1.40324	
-13.3855	0.426844	-1.23142	
-15.325	0.470462	-1.40356	
-15.8569	1.87857	-1.42239	
-15.8427	1.79633	-1.42303	
-13.785	1.84585	-1.24872	
-13.5747	0.270573	-1.23935	
-11.5676	0.200611	-1.06441	
-15.6197	0.193571	-1.41612	
-15.5579	0.123897	-1.41327	
-13.5092	0.249496	-1.23669	
-13.5001	0.173576	-1.23631	
-15.8103	1.20923	-1.42349	
-13.7878	1.13932	-1.24879	
-13.8724	1.13751	-1.24757	
-13.625	0.531427	-1.2417	
-13.6259	0.463982	-1.24174	
-13.5691	0.427199	-1.2391	
-13.6358	0.382421	-1.24223	
-11.8299	0.742778	-1.07486	
-15.8204	0.813881	-1.42346	
-15.5431	0.580015	-1.41266	
-13.6298	1.7199	-1.24193	
-15.6354	0.757182	-1.41691	
-11.6651	0.698895	-1.06901	
-13.7166	0.732194	-1.24621	
-13.6969	0.893597	-1.24528	
-13.6639	0.830458	-1.24365	
-15.7391	0.834567	-1.4218	
-13.8141	1.53139	-1.24916	
-13.7616	1.59044	-1.24804	
-13.7372	1.5207	-1.24711	
-15.285	1.10613	-1.40201	
-13.2226	1.13654	-1.22528	
-15.7805	0.567577	-1.42311	
-15.8477	0.624293	-1.42284	
-13.7824	0.641057	-1.24866	
-13.714	0.667946	-1.24609	
-13.7139	0.607392	-1.24608	
-15.6982	0.97644	-1.42002	
-13.8871	0	-1.24625	
-13.3797	1.40806	-1.23117	
-13.4123	1.34451	-1.23256	
-13.4459	1.41675	-1.23401	
-13.4068	1.48085	-1.23233	
-15.5045	1.43176	-1.41112	
-13.4715	1.49613	-1.23511	
-13.5375	0.925911	-1.23783	
-13.7045	1.74077	-1.24565	
-17.6901	1.66215	-1.59431	
-11.7772	1.70694	-1.07399	
-16.9314	1.71339	-1.56881	
-17.0019	1.77904	-1.56942	
-16.9314	1.78496	-1.56881	
-13.7451	2	-1.24743	
-15.7801	1.92525	-1.4231	
-13.8164	2	-1.24917	
-13.5775	0.350099	-1.23947	
-13.5138	0.315549	-1.23688	
-13.2736	1.02327	-1.22701	
-15.3356	1.02942	-1.40398	
-13.2687	0.0746863	-1.22683	
-13.3034	0.130322	-1.22811	
-15.2216	0.159825	-1.3998	
-15.234	0.255296	-1.40021	
-11.2923	0.198868	-1.0531	
-13.3468	0.185075	-1.22981	
-15.1867	0.53229	-1.39874	
-20.9162	0.358269	-1.91743	
-14.939	0.286611	-1.3945	
-13.0088	0.283499	-1.2207	
-16.9314	0.143615	-1.56881	
-15.0168	0.19815	-1.3952	
-16.9314	0.215036	-1.56881	
-17.0762	0.268711	-1.57057	
-15.4487	0	-1.40877	
-11.5367	0	-1.06319	
-13.5359	0.0522709	-1.23777	
-9.85421	0.233077	-0.900384	
-15.8174	0.293965	-1.42348	
-15.5311	1.52249	-1.41219	
-13.5372	1.6164	-1.23782	
-13.4776	1.57352	-1.23537	
-13.4731	1.65009	-1.23517	
-13.8347	1.59898	-1.24908	
-13.6736	0	-1.24413	
-13.619	0.0589648	-1.24141	
-13.601	0	-1.24054	
-13.1191	1.47391	-1.22251	
-15.1942	1.46129	-1.39896	
-15.1717	1.53681	-1.39831	
-15.6327	0.286849	-1.41677	
-13.2601	0.724627	-1.22653	
-11.2779	0.784216	-1.05257	
-15.2012	0.788387	-1.39917	
-15.7673	0.223399	-1.42277	
-11.7684	1.34531	-1.0737	
-11.7637	1.40661	-1.07353	
-15.6864	1.36487	-1.41945	
-13.7289	1.29047	-1.24676	
-11.75	0.414541	-1.07301	
-13.6897	0.434011	-1.24493	
-15.6913	0.349215	-1.41969	
-13.8053	0.422964	-1.24909	
-15.748	0.489015	-1.42214	
-13.8276	0.488653	-1.24915	
-9.56241	1.24582	-0.889582	
-13.5331	1.18695	-1.23766	
-11.7099	1.58611	-1.07123	
-11.2814	0.42229	-1.0527	
-11.3036	0.312816	-1.05352	
-15.3688	0.310713	-1.40535	
-13.3259	0.255176	-1.22898	
-13.3917	0.23291	-1.23168	
-17.7074	1.20734	-1.59511	
-13.5922	1.1572	-1.24013	
-13.6614	1.15129	-1.24352	
-11.6578	1.2101	-1.06864	
-15.5938	1.08885	-1.41487	
-13.2048	1.61914	-1.22473	
-13.2236	1.69424	-1.22532	
-15.1374	1.67616	-1.39742	
-13.2725	1.64844	-1.22697	
-13.3009	1.72086	-1.22801	
-13.646	0.644913	-1.24274	
-11.722	1.94629	-1.07179	
-15.6347	1.93331	-1.41687	
-13.7158	1.88539	-1.24617	
-15.1198	0.0804625	-1.397	
-11.0754	0.127785	-1.04721	
-11.0866	1.88257	-1.0474	
-15.1228	1.92762	-1.39707	
-13.1663	0.21589	-1.22365	
-11.7146	0.273142	-1.07145	
-13.7001	0.209198	-1.24543	
-11.7032	0.143339	-1.0709	
-13.7662	0.145092	-1.24819	
-11.6507	0.115792	-1.06829	
-13.6429	1.85807	-1.24259	
-13.5772	1.88373	-1.23946	
-11.575	1.94611	-1.06472	
-11.5367	2	-1.06319	
-13.601	2	-1.24054	
-11.905	0.682902	-1.07063	
-15.939	0.64279	-1.3945	
-11.4315	1.88295	-1.05875	
-13.3018	1.53147	-1.22805	
-13.2794	1.46174	-1.22721	
-13.3438	1.47178	-1.2297	
-13.8463	1.08229	-1.24884	
-11.1627	0.329519	-1.04904	
-15.0016	0.43708	-1.39502	
-14.939	0.429861	-1.3945	
-11.3444	1.67699	-1.0551	
-13.2545	1.57544	-1.22633	
-11.6578	1.60691	-1.06864	
-13.6085	1.65508	-1.2409	
-13.7095	1.81461	-1.24588	
-11.6564	1.78507	-1.06857	
-11.1615	0.749751	-1.04901	
-13.2037	0.701087	-1.2247	
-15.076	0.758919	-1.39611	
-13.9467	0.429861	-1.22018	
-15.8729	0.409639	-1.42122	
-13.7777	1.77163	-1.24854	
-15.8397	1.71936	-1.42312	
-15.1328	1.1716	-1.39731	
-13.1732	1.09553	-1.22383	
-15.2383	1.76477	-1.40036	
-11.3308	1.7791	-1.05456	
-13.4467	0.277236	-1.23404	
-15.4143	0.151691	-1.40728	
-11.536	1.84554	-1.06316	
-13.4622	1.83711	-1.23471	
-13.3427	1.33945	-1.22965	
-13.3137	1.40104	-1.2285	
-11.7636	0.297567	-1.07353	
-13.7753	0.357474	-1.24847	
-11.5798	0.760525	-1.06492	
-13.5224	0.810302	-1.23723	
-13.4305	0.749841	-1.23334	
-13.3655	0.751361	-1.23058	
-13.3877	0.686344	-1.23151	
-13.4571	0.810027	-1.23449	
-13.3918	0.81571	-1.23169	
-18.9238	1.64173	-1.74312	
-13.0123	1.65788	-1.22074	
-15.939	1	-1.3945	
-15.939	1.07055	-1.3945	
-11.9056	1.0308	-1.07053	
-11.019	1.5272	-1.04642	
-16.9314	1.57014	-1.56881	
-11.3747	0.121062	-1.05634	
-13.4137	0.068568	-1.23262	
-13.4812	0.0968802	-1.23552	
-16.9314	1.85639	-1.56881	
-15.0057	1.8723	-1.39506	
-16.9314	0.0721374	-1.56881	
-13.0069	0.116381	-1.22068	
-13.5129	0.378957	-1.23684	
-16.9314	1.2856	-1.56881	
-13.0124	1.33655	-1.22074	
-16.9314	1.35721	-1.56881	
-11.4092	1.07097	-1.05779	
-13.4081	1.13809	-1.23238	
-11.3618	1.10545	-1.0558	
-13.4612	1.08867	-1.23466	
-13.4224	0.876824	-1.233	
-13.3608	0.882801	-1.23039	
-15.3194	0.819303	-1.40333	
-13.5804	1.38959	-1.2396	
-11.5816	1.45442	-1.065	
-13.6392	1.41914	-1.2424	
-11.4581	0.213959	-1.05989	
-13.4084	0.621411	-1.23239	
-13.3706	0.549577	-1.23079	
-13.432	0.556476	-1.23341	
-13.3997	0.491713	-1.23202	
-15.7049	0.0712931	-1.42033	
-13.3404	1.1672	-1.22956	
-13.5959	1.57159	-1.2403	
-13.1402	0.47164	-1.22299	
-11.9016	0.476615	-1.0711	
-15.8615	0.546631	-1.42211	
-14.939	0.500665	-1.3945	
-13.0066	0.802839	-1.22068	
-11.0895	0.646217	-1.04745	
-11.0673	0.69766	-1.04708	
-13.0598	1.17495	-1.22139	
-15.0045	1.0996	-1.39505	
-15.0889	1.1007	-1.39635	
-15.1971	1.32398	-1.39904	
-11.1438	1.29855	-1.04858	
-13.166	1.24767	-1.22364	
-13.3486	0.61668	-1.22989	
-13.3115	0.546139	-1.22841	
-11.2604	0.561624	-1.05196	
-13.2647	0.491616	-1.22669	
-11.1501	1.0418	-1.04873	
-13.2032	1.02609	-1.22468	
-15.1365	0.976287	-1.3974	
-13.2203	0.965074	-1.22521	
-13.3527	0.954567	-1.23006	
-13.0802	1.62515	-1.22174	
-11.1492	1.59965	-1.04871	
-11.8474	0.360303	-1.07468	
-13.0168	1.5889	-1.22079	
-13.2744	1.33334	-1.22703	
-13.2481	1.39903	-1.22611	
-13.2356	1.2624	-1.2257	
-15.3155	0.683934	-1.40318	
-13.8784	0.967445	-1.2471	
-17.845	0.89983	-1.59693	
-13.765	0.914042	-1.24815	
-13.5148	1.0505	-1.23692	
-11.7325	1.13415	-1.07227	
-11.6889	1.09375	-1.0702	
-11.4305	1.5431	-1.0587	
-13.7729	0.770923	-1.2484	
-11.7146	0.785107	-1.07145	
-11.6373	1.34839	-1.06762	
-15.806	1.29694	-1.42347	
-13.7964	1.65281	-1.24896	
-15.0106	1.25411	-1.39512	
-13.0764	1.32162	-1.22167	
-11.5905	0.633745	-1.0654	
-13.637	0.587288	-1.24229	
-13.8377	0.6882	-1.24903	
-13.4836	0.873522	-1.23562	
-9.54904	1.36753	-0.889061	
-13.6736	2	-1.24413	
-11.2128	1.1987	-1.05043	
-13.45	0.394274	-1.23418	
-13.4493	0.336713	-1.23415	
-13.7714	0.702848	-1.24835	
-13.9467	0.929454	-1.22018	
-13.9467	0.857842	-1.22018	
-11.8696	1.94387	-1.07391	
-13.4713	1.16572	-1.2351	
-13.528	1.11814	-1.23746	
-15.157	1.79696	-1.39791	
-11.1805	1.73661	-1.04951	
-11.4016	0.370041	-1.05747	
-11.4499	0.446178	-1.05954	
-11.4141	0.936014	-1.058	
-9.06354	1.0523	-0.872588	
-13.0863	1.01699	-1.22185	
-13.9467	1.49933	-1.22018	
-15.0222	0.586375	-1.39527	
-15.0587	0.509874	-1.39581	
-13.8851	1.54624	-1.24647	
-11.268	0.664255	-1.05223	
-11.3192	0.750955	-1.05411	
-11.2712	0.837223	-1.05234	
-16.9314	1.21388	-1.56881	
-11.0056	1.17543	-1.04627	
-16.9314	0.929454	-1.56881	
-11.0064	0.873321	-1.04628	
-18.9238	0.857842	-1.74312	
-13.0032	0.725606	-1.22064	
-16.9314	0.786116	-1.56881	
-16.9314	0.714404	-1.56881	
-13.0192	0.653203	-1.22082	
-16.9314	0.64279	-1.56881	
-18.9238	0.571209	-1.74312	
-16.9314	1.14216	-1.56881	
-11.0856	0.957788	-1.04738	
-9.18869	0.930031	-0.875213	
-13.2875	0.613315	-1.22751	
-11.9103	1.6049	-1.06979	
-11.4999	0.552048	-1.06168	
-13.4719	0.616488	-1.23512	
-15.0811	1.54065	-1.3962	
-13.1057	0.177963	-1.22223	
-13.0924	1.24487	-1.22196	
-15.0708	1.39957	-1.39602	
-11.1751	0.139289	-1.04936	
-13.0697	1.69928	-1.22155	
-13.1027	1.75272	-1.22216	
-13.1411	1.35868	-1.22301	
-11.2015	1.39206	-1.0501	
-11.155	1.42097	-1.04885	
-13.0802	1.81911	-1.22174	
-13.88	1.6612	-1.24696	
-13.9467	1.71339	-1.22018	
-11.6941	0.496577	-1.07046	
-13.7103	0.549039	-1.24592	
-11.1374	1.85508	-1.04843	
-11.0081	0.520218	-1.0463	
-9.14499	0.528047	-0.874122	
-13.9467	1.57014	-1.22018	
-15.939	0.500665	-1.3945	
-9.66954	0.932053	-0.894536	
-11.2466	1.07414	-1.0515	
-11.25	1.51028	-1.05161	
-15.939	1.64173	-1.3945	
-11.1863	0.282674	-1.04967	
-13.9467	0.571209	-1.22018	
-9.91731	0.59575	-0.895576	
-9.02742	1.71321	-0.872115	
-15.2529	1.88726	-1.40085	
-11.8981	0.827624	-1.07155	
-11.2368	1.82622	-1.05118	
-11.0173	1.40032	-1.0464	
-13.1847	1.87065	-1.22415	
-9.81475	0.866054	-0.900386	
-9.78192	1.24863	-0.899583	
-11.2954	1.94589	-1.05321	
-9.91486	1.75284	-0.895974	
-9.26124	1.94185	-0.877422	
-13.9104	0.611259	-1.17968	
-15.8827	0.691022	-1.34432	
-11.915	0.951279	-1.00377	
-15.8889	0.885946	-1.34707	
-13.4352	0	-1.12941	
-13.3668	0	-1.13661	
-15.3984	0.0792566	-1.30655	
-17.0015	0	-1.55032	
-11.0621	0.0639973	-1.01819	
-13.0862	0	-1.1852	
-12.9998	0.0936441	-1.20598	
-13.2957	0	-1.14613	
-13.2251	0	-1.15748	
-13.2682	0.0798839	-1.15033	
-11.926	0.821071	-1.00994	
-13.9092	1.45488	-1.17905	
-13.9123	1.89867	-1.18071	
-11.4428	2	-0.955101	
-13.5068	2	-1.12408	
-15.477	1.91895	-1.29979	
-11.0655	1.93754	-1.01738	
-13.0049	1.90585	-1.20468	
-13.0167	2	-1.2017	
-13.0862	2	-1.1852	
-13.3668	2	-1.13661	
-13.3311	1.92228	-1.14114	
-13.2957	2	-1.14613	
-13.5434	1.85759	-1.12231	
-15.4613	1.82278	-1.30092	
-15.2562	0.600657	-1.32534	
-13.2087	0.663037	-1.16039	
-15.2685	0.68441	-1.32341	
-13.0015	0.939959	-1.20556	
-13.0105	1.33496	-1.20325	
-15.4468	1.68417	-1.30206	
-11.492	1.74973	-0.951177	
-17.5356	1.71007	-1.47066	
-13.2613	1.02684	-1.15144	
-15.2641	0.943151	-1.32409	
-13.2061	0.965528	-1.16087	
-13.037	0.553448	-1.1967	
-12.994	0.495631	-1.20748	
-13.6964	1.36962	-1.12611	
-17.6129	1.42353	-1.4705	
-13.707	1.43872	-1.12717	
-15.805	1.02505	-1.31928	
-13.7465	0.965827	-1.13221	
-15.7121	1.04082	-1.30291	
-15.6509	1.21008	-1.29753	
-17.7321	1.26463	-1.48095	
-13.7413	1.19252	-1.13144	
-13.2501	1.8275	-1.15326	
-15.2548	1.91186	-1.32557	
-15.3099	1.83465	-1.31731	
-15.3735	1.04863	-1.30926	
-13.3206	1.0111	-1.14257	
-15.2964	1.09426	-1.31922	
-11.3807	1.10778	-0.961567	
-15.4463	1.09436	-1.3021	
-13.4899	0.92332	-1.12512	
-13.5281	0.983948	-1.12297	
-17.5558	0.912712	-1.47014	
-11.5225	1.65028	-0.949319	
-11.5763	1.64109	-0.947251	
-15.5133	1.58611	-1.29763	
-13.0169	0.621253	-1.20165	
-11.091	0.607584	-1.01152	
-15.1155	0.544593	-1.35146	
-15.1361	0.626188	-1.34717	
-15.3714	0.883867	-1.3095	
-13.338	0.814004	-1.14023	
-13.3136	0.883506	-1.14354	
-11.3398	0.94284	-0.966681	
-11.2868	0.823889	-0.974311	
-13.2445	0.86549	-1.15418	
-13.6899	0.577518	-1.12551	
-15.6798	0.659851	-1.29961	
-13.7516	0.634606	-1.13299	
-15.1109	0.0913029	-1.35243	
-13.0473	0.141129	-1.19421	
-13.4734	1.15841	-1.12627	
-17.545	1.18235	-1.47038	
-11.5315	1.11752	-0.948856	
-15.8237	0.938839	-1.32408	
-11.8888	0.99711	-0.991911	
-13.5066	0.516229	-1.12409	
-15.5273	0.597248	-1.29697	
-13.581	0.53029	-1.12139	
-15.3491	1.25683	-1.31215	
-15.3291	1.17353	-1.31471	
-13.2882	1.22905	-1.14724	
-15.8447	1.10599	-1.33028	
-13.8962	1.05145	-1.17265	
-13.8531	1.1866	-1.1562	
-13.9061	1.17077	-1.17743	
-17.2582	1.39834	-1.49813	
-11.2855	1.4857	-0.974511	
-13.338	1.4682	-1.14022	
-15.6632	0.907417	-1.29832	
-13.6179	0.841878	-1.12161	
-17.8523	0.492781	-1.5097	
-11.8185	0.543817	-0.970236	
-13.8598	0.570722	-1.15841	
-13.6379	1.72433	-1.12222	
-13.5938	1.78876	-1.12133	
-13.5082	0.853718	-1.124	
-13.4211	0.389993	-1.13073	
-11.4362	0.316743	-0.955712	
-13.3669	0.343184	-1.1366	
-13.5415	0.780432	-1.12238	
-11.5681	0.84375	-0.947436	
-13.6116	0.770799	-1.12149	
-13.4567	0.577671	-1.12756	
-15.0136	1.02428	-1.37487	
-15.2157	0.237428	-1.33211	
-13.2391	0.153222	-1.15508	
-13.1715	0.163431	-1.16734	
-15.3067	0.159631	-1.31775	
-13.661	1.80219	-1.12337	
-11.6986	1.86234	-0.951295	
-13.7399	1.80354	-1.13124	
-13.5691	0.329138	-1.12155	
-15.6362	0.30982	-1.29678	
-15.584	0.244444	-1.29565	
-13.6012	0.391669	-1.12137	
-11.2083	1.03303	-0.987528	
-13.5695	0.717798	-1.12155	
-13.4879	0.718603	-1.12526	
-11.5334	0.665477	-0.948763	
-13.6009	0.658642	-1.12136	
-11.4346	1.87015	-0.955859	
-13.3913	1.80864	-1.13381	
-11.5396	1.78424	-0.948473	
-13.4189	1.74797	-1.13095	
-13.6664	0.386445	-1.12371	
-13.6964	0.441074	-1.12611	
-13.7358	0.365688	-1.13066	
-13.5077	1.25637	-1.12403	
-13.5825	1.24657	-1.12137	
-13.5305	1.3122	-1.12285	
-11.6037	1.30199	-0.947027	
-13.656	1.27096	-1.12308	
-13.3816	0.276367	-1.13489	
-17.2851	0.292881	-1.49407	
-11.3433	0.234809	-0.966218	
-11.2874	0.216682	-0.97421	
-13.7582	0.891352	-1.13405	
-13.5576	1.48059	-1.12183	
-13.4817	1.4429	-1.12567	
-15.4724	1.51083	-1.3001	
-13.4104	1.45569	-1.1318	
-13.5701	1.36546	-1.12154	
-13.6406	1.34038	-1.12233	
-13.3061	1.70558	-1.14461	
-13.3211	1.63351	-1.1425	
-13.2492	1.65739	-1.15341	
-13.17	0.837679	-1.16764	
-13.2143	0.792044	-1.1594	
-13.2265	1.09876	-1.15724	
-15.2487	1.30603	-1.32654	
-11.2173	1.35315	-0.985908	
-15.6149	0.166399	-1.29603	
-13.5407	0.169498	-1.12241	
-15.1668	1.40455	-1.3411	
-15.3322	0.41495	-1.3143	
-15.3848	0.474418	-1.308	
-15.6199	1.05334	-1.29617	
-13.6684	0.984567	-1.12384	
-13.6318	1.13834	-1.12199	
-13.2666	0.452043	-1.15058	
-15.2561	0.374434	-1.32535	
-11.2154	0.42015	-0.986237	
-15.1792	0.484457	-1.33873	
-13.7844	0	-1.13878	
-13.8011	0.0667918	-1.14228	
-13.8488	0	-1.15486	
-13.7844	2	-1.13878	
-11.7605	1.94291	-0.958873	
-11.7216	2	-0.953623	
-13.822	0.853126	-1.1473	
-13.8488	2	-1.15486	
-15.8078	1.92333	-1.31996	
-11.4518	0.506745	-0.9543	
-13.3912	0.56183	-1.13382	
-13.3989	0.636864	-1.13299	
-13.3298	0.546278	-1.14131	
-13.3306	0.617676	-1.14122	
-15.7242	0.078087	-1.30445	
-15.6843	1.56345	-1.30001	
-11.7516	1.62497	-0.95752	
-13.7761	1.57191	-1.13718	
-15.8264	0.153301	-1.32483	
-15.8306	0.252546	-1.32603	
-11.8971	0.211952	-0.995339	
-13.4623	0.650538	-1.12712	
-15.404	0.718414	-1.30599	
-13.4009	0.798942	-1.13278	
-13.4679	0.786413	-1.12668	
-11.354	0.678765	-0.964835	
-13.3406	0.741319	-1.13989	
-15.8892	1.80752	-1.34724	
-13.8481	1.74768	-1.15464	
-15.8115	1.83308	-1.32087	
-13.4084	1.20637	-1.13199	
-15.1161	1.92648	-1.35133	
-15.0604	1.86025	-1.36365	
-13.8678	0.344499	-1.16117	
-13.8937	0.410465	-1.17149	
-15.7212	0.282592	-1.30404	
-15.791	0.338159	-1.31605	
-15.4478	0.251286	-1.30197	
-11.5197	0.217721	-0.94947	
-15.4408	0.164212	-1.30256	
-15.0165	0.230355	-1.37416	
-15.572	1.93673	-1.29571	
-13.8365	1.26103	-1.15121	
-13.9001	1.24459	-1.17446	
-13.8215	1.32491	-1.14717	
-15.8845	1.31978	-1.34511	
-15.7466	0.804788	-1.30771	
-15.8184	0.759874	-1.32266	
-13.7633	0.714139	-1.13488	
-13.3896	0.206449	-1.134	
-11.3816	0.138218	-0.961454	
-13.0699	1.72394	-1.1889	
-13.0349	1.78328	-1.1972	
-15.1063	1.79352	-1.3534	
-13.4675	1.03613	-1.12671	
-15.533	1.05319	-1.29673	
-13.5914	0.992616	-1.12133	
-11.5889	1.10914	-0.947071	
-15.7559	0.204267	-1.30923	
-13.675	0.22975	-1.1243	
-13.4435	0.863551	-1.12867	
-13.4255	0.938032	-1.13031	
-11.799	1.76807	-0.965878	
-15.7726	1.69808	-1.31228	
-13.7084	1.73846	-1.12733	
-13.7654	0.425321	-1.13525	
-13.7215	0.500006	-1.12881	
-13.625	0.456585	-1.12178	
-13.6525	0.51622	-1.12289	
-13.1466	0.232607	-1.17227	
-13.3207	1.33248	-1.14256	
-13.3962	1.52656	-1.13328	
-15.3137	1.55451	-1.31678	
-15.3898	1.60907	-1.30746	
-11.2136	0.903738	-0.986574	
-15.1247	0.902651	-1.34952	
-13.6464	0	-1.12258	
-13.5752	0	-1.12145	
-13.5978	0.051764	-1.12135	
-13.5068	0	-1.12408	
-13.5281	0.0537652	-1.12297	
-13.4248	1.3862	-1.13038	
-13.3541	1.3946	-1.13817	
-13.4307	1.26486	-1.12983	
-11.4868	1.21166	-0.951544	
-13.3878	1.32507	-1.1342	
-13.4588	1.32038	-1.12739	
-11.8774	0.814456	-0.987578	
-13.1944	1.88165	-1.163	
-13.6222	0.594595	-1.12171	
-11.9258	1.38879	-1.00981	
-13.8684	1.39048	-1.1614	
-15.1281	0.75837	-1.34882	
-13.0923	0.821275	-1.18382	
-13.901	0.75743	-1.17488	
-15.1759	1.60921	-1.33936	
-13.1832	1.68446	-1.16509	
-11.1842	1.75212	-0.992049	
-15.2311	1.73879	-1.32947	
-15.0919	1.59941	-1.35653	
-13.1146	1.66432	-1.17895	
-15.6731	1.93182	-1.29906	
-13.7556	1.87756	-1.13361	
-13.9092	0.146224	-1.17906	
-11.9233	1.10891	-1.00836	
-11.9175	0.544978	-1.00509	
-15.1279	1.32361	-1.34885	
-13.1937	0.0813768	-1.16314	
-13.1563	0	-1.17033	
-11.8051	1.21454	-0.967175	
-13.7972	1.14931	-1.14143	
-13.62	1.87232	-1.12166	
-13.0969	1.24379	-1.18281	
-13.0587	1.29411	-1.1915	
-13.1629	1.24385	-1.16902	
-13.2609	1.16415	-1.15149	
-17.117	0.398041	-1.52384	
-15.013	1.20048	-1.37504	
-13.0099	1.11243	-1.20342	
-13.1964	0.560548	-1.16263	
-13.2612	0.523541	-1.15145	
-15.6822	1.65544	-1.29982	
-13.5585	0.109422	-1.1218	
-11.3768	1.86761	-0.962022	
-13.4026	1.9304	-1.1326	
-11.7177	0.741046	-0.95319	
-13.82	0.676971	-1.14679	
-11.1576	0.693471	-0.997284	
-13.209	0.726744	-1.16034	
-13.2759	0.760134	-1.14912	
-9.21801	0.61385	-0.812842	
-11.0007	0.170423	-1.0334	
-11.6996	1.15632	-0.951383	
-11.6869	1.09603	-0.950317	
-13.7367	1.1197	-1.1308	
-11.1431	1.85832	-1.00024	
-13.1888	1.8111	-1.16406	
-13.8484	1.45652	-1.15474	
-13.8089	1.39372	-1.14407	
-11.2005	1.94352	-0.988978	
-13.2251	2	-1.15748	
-13.6726	0.79232	-1.12413	
-11.7051	0.850283	-0.951897	
-13.6482	0.718066	-1.12267	
-13.0982	0.180772	-1.18252	
-13.6225	1.51591	-1.12172	
-15.6079	1.59438	-1.29587	
-11.6822	1.48768	-0.949964	
-13.7414	1.50665	-1.13145	
-11.01	1.83632	-1.03101	
-15.22	1.53312	-1.33137	
-11.1636	1.54488	-0.996089	
-12.9999	1.71558	-1.20597	
-15.8606	1.66217	-1.33562	
-13.192	0.358669	-1.16345	
-13.1353	0.310734	-1.17458	
-11.758	1.39867	-0.958488	
-13.7806	1.4537	-1.13804	
-13.7601	1.33896	-1.13436	
-13.5545	0.46147	-1.12192	
-11.5429	0.394907	-0.94833	
-15.469	0.433969	-1.30035	
-11.5561	1.42238	-0.947805	
-13.4951	1.37641	-1.12479	
-13.8071	0.606335	-1.14365	
-13.0436	0.879786	-1.1951	
-13.0549	0.752034	-1.19239	
-13.0117	0.815753	-1.20296	
-15.0755	1.38066	-1.3602	
-15.8823	1.52165	-1.34416	
-13.8149	1.51493	-1.14553	
-11.7904	1.08423	-0.964146	
-13.012	1.59815	-1.20288	
-11.5828	2	-0.947142	
-15.1773	1.16076	-1.33909	
-11.1361	1.18618	-1.00169	
-11.4136	1.14984	-0.957932	
-13.2249	1.23168	-1.15752	
-13.0708	1.16237	-1.18869	
-13.3767	1.68406	-1.13546	
-9.71123	0.333428	-0.777447	
-13.0125	1.52552	-1.20275	
-13.059	0.488947	-1.19145	
-11.2642	1.59304	-0.977884	
-13.8474	1.57917	-1.15441	
-13.037	1.65719	-1.19668	
-13.7519	0.559694	-1.13303	
-13.7898	0.490232	-1.13986	
-13.0759	0.956713	-1.18752	
-13.1466	0.989568	-1.17229	
-13.3508	1.75665	-1.13859	
-11.2986	1.77244	-0.972522	
-11.1374	1.72615	-1.00143	
-11.2455	0.310718	-0.980989	
-11.1929	0.290342	-0.990398	
-11.2039	1.29539	-0.988337	
-13.6464	2	-1.12258	
-11.3308	0.482459	-0.967902	
-11.709	1.30941	-0.95228	
-13.4847	0.109198	-1.12547	
-13.0995	1.03572	-1.18223	
-13.1605	1.07584	-1.16949	
-13.1563	2	-1.17033	
-11.8696	0.633303	-0.984846	
-13.829	0.422033	-1.14913	
-9.79942	0.266461	-0.790109	
-13.0829	0.262786	-1.18593	
-11.6279	1.66446	-0.947351	
-11.5652	1.54135	-0.947515	
-13.0408	0.371856	-1.19578	
-11.0807	0.429791	-1.01386	
-11.4594	1.56661	-0.953659	
-11.4738	1.62234	-0.952504	
-9.31981	1.2804	-0.796209	
-13.009	0.68957	-1.20364	
-11.0013	0.753859	-1.03325	
-13.9064	0.285029	-1.17759	
-11.0054	1.26259	-1.03219	
-15.9003	0	-1.35267	
-11.0134	1.39629	-1.03015	
-15.0243	1.45609	-1.37224	
-13.0171	0.308608	-1.20161	
-15.0749	0.682551	-1.36032	
-13.0061	0.423502	-1.20438	
-13.9079	2	-1.17836	
-11.4757	0.980727	-0.95236	
-15.0862	1.51237	-1.3578	
-13.1171	1.11653	-1.17842	
-11.5332	0.277428	-0.948772	
-15.4828	0.33864	-1.2994	
-11.0701	1.08627	-1.0163	
-11.6301	0.0993244	-0.947405	
-13.6706	0.0548078	-1.12399	
-9.07131	1.55961	-0.8435	
-13.9078	1.72118	-1.17832	
-11.8805	1.94239	-0.988715	
-11.8723	1.87535	-0.985774	
-11.1277	0.473525	-1.00347	
-11.0912	0.331482	-1.01146	
-11.8152	1.63205	-0.969456	
-11.913	1.59521	-1.00275	
-13.1666	1.47977	-1.1683	
-13.7064	0.160133	-1.12711	
-11.6822	0.114041	-0.949962	
-11.2328	1.45658	-0.983162	
-11.7777	0.130179	-0.961766	
-13.3748	0.972536	-1.13567	
-13.8796	0.0752793	-1.1656	
-11.4727	0.0509452	-0.952585	
-11.4278	1.00206	-0.956515	
-9.3306	0.356044	-0.794675	
-13.3347	0.0762643	-1.14067	
-11.1178	1.44431	-1.00559	
-13.714	0	-1.12794	
-9.93171	0.460204	-0.834499	
-9.63875	0.946643	-0.77312	
-13.021	2	-1.21089	
-13.1	2	-1.20235	
-13.2635	2	-1.18909	
-13.3495	2	-1.1845	
-13.1805	2	-1.19508	
-15.5182	2	-1.35454	
-15.6964	2	-1.36069	
-13.8759	2	-1.20729	
-13.7926	2	-1.1953	
-13.6149	2	-1.18135	
-15.4287	2	-1.35585	
-16.9314	-0.0721374	-1.56881	
-11.0041	-0.0524234	-1.04626	
-11.2712	-1.94219	-1.05234	
-13.1979	-1.93265	-1.22453	
-13.2383	-2	-1.22579	
-13.0573	-0.0610541	-1.22135	
-13.2016	-0.0745946	-1.22464	
-13.3436	-0.063891	-1.22968	
-13.9467	-1.2856	-1.22018	
-13.8849	-1.32684	-1.24648	
-13.9467	-1.35721	-1.22018	
-13.9467	-0.0721374	-1.22018	
-15.939	-0.215036	-1.3945	
-13.9467	-0.143615	-1.22018	
-13.8954	-0.177622	-1.24522	
-11.9543	-0.286611	-1.04587	
-13.8965	-0.326516	-1.24506	
-15.939	-0.358269	-1.3945	
-13.8967	-0.255005	-1.24504	
-13.9467	-0.714404	-1.22018	
-15.8796	-0.754353	-1.42055	
-13.9467	-0.786116	-1.22018	
-13.3839	-2	-1.23135	
-15.3311	-1.91632	-1.4038	
-13.3112	-2	-1.22841	
-11.0274	-2	-1.04652	
-11.0052	-1.94543	-1.04627	
-12.9467	-2	-1.22018	
-13.8977	-1.39944	-1.24489	
-13.9467	-1.42879	-1.22018	
-9.9619	-2	-0.87156	
-15.939	-1.92786	-1.3945	
-11.8947	-2	-1.07194	
-13.0927	-2	-1.22197	
-13.0569	-1.9425	-1.22134	
-15.4898	-1.91894	-1.41052	
-13.4563	-2	-1.23445	
-11.5367	-2	-1.06319	
-13.9467	-1.21388	-1.22018	
-13.8848	-1.25457	-1.24649	
-15.939	-1.78496	-1.3945	
-9.91805	-1.82622	-0.895451	
-13.9467	-1.85639	-1.22018	
-13.1415	-0.824164	-1.22302	
-13.0637	-0.840188	-1.22145	
-15.1109	-0.897364	-1.39681	
-16.9314	-1.07055	-1.56881	
-15.0045	-1.0996	-1.39505	
-16.9916	-0.999321	-1.5693	
-13.326	-1.67801	-1.22898	
-13.397	-1.66711	-1.23191	
-15.322	-1.60664	-1.40344	
-13.2096	-0.446895	-1.22488	
-17.2152	-0.354649	-1.57416	
-13.1557	-0.398171	-1.22337	
-15.373	-1.83141	-1.40553	
-11.4476	-1.78071	-1.05944	
-15.3746	-1.74009	-1.40559	
-15.5349	-1.7075	-1.41234	
-13.461	-1.71822	-1.23466	
-13.5081	-1.78279	-1.23665	
-15.5749	-1.79397	-1.414	
-13.4079	-1.60358	-1.23237	
-13.3627	-1.5428	-1.23047	
-11.3162	-1.84473	-1.05399	
-15.6936	-1.45461	-1.4198	
-13.6189	-1.49442	-1.2414	
-13.6664	-1.53304	-1.24377	
-17.6528	-1.28582	-1.59248	
-13.5981	-1.23395	-1.24041	
-17.5537	-1.30809	-1.58772	
-17.738	-1.05755	-1.59637	
-11.8358	-1.02435	-1.07484	
-11.7872	-0.98494	-1.07428	
-13.5202	-0.659051	-1.23714	
-13.4532	-0.685531	-1.23432	
-15.4987	-0.738859	-1.41089	
-15.4741	-1.33862	-1.40985	
-15.4838	-1.25231	-1.41026	
-16.9314	-1.42879	-1.56881	
-16.9314	-1.49933	-1.56881	
-15.0236	-1.4654	-1.39528	
-13.0341	-0.918262	-1.22101	
-13.0863	-1.01699	-1.22185	
-11.0856	-0.957788	-1.04738	
-17.1971	-0.881052	-1.57359	
-13.2203	-0.965074	-1.22521	
-13.2837	-0.954992	-1.22737	
-11.5531	-0.86716	-1.06383	
-15.6043	-0.888326	-1.41537	
-13.5941	-0.817828	-1.24022	
-15.1145	-0.589278	-1.39689	
-15.1315	-0.676587	-1.39728	
-15.1968	-0.618429	-1.39903	
-15.7911	-0.0745363	-1.42331	
-13.5333	-1.18703	-1.23766	
-13.4713	-1.16574	-1.2351	
-13.4666	-0.496062	-1.2349	
-15.54	-0.503541	-1.41254	
-13.5023	-0.439924	-1.23641	
-15.5764	-0.698429	-1.41407	
-13.3513	-1.23016	-1.23	
-15.2654	-1.19538	-1.4013	
-13.3019	-1.27217	-1.22805	
-13.3427	-1.33945	-1.22965	
-11.3782	-1.2898	-1.05648	
-15.6967	-0.976561	-1.41995	
-15.5983	-0.96716	-1.41509	
-13.6598	-1.03431	-1.24344	
-17.4142	-1.00672	-1.58192	
-13.5178	-0.987297	-1.23704	
-13.4663	-0.93866	-1.23488	
-15.316	-0.379548	-1.4032	
-15.3251	-0.470375	-1.40356	
-13.3866	-0.425581	-1.23146	
-15.8569	-1.87861	-1.42239	
-13.8506	-1.79701	-1.2487	
-13.785	-1.84585	-1.24872	
-13.5012	-0.176311	-1.23636	
-13.5096	-0.252878	-1.23671	
-11.5686	-0.202898	-1.06445	
-15.5617	-0.126149	-1.41343	
-15.5706	-0.277581	-1.41381	
-15.6201	-0.192415	-1.41615	
-15.8055	-1.21378	-1.42347	
-13.8626	-1.14736	-1.24819	
-13.7865	-1.14008	-1.24876	
-13.6247	-0.532687	-1.24168	
-13.6258	-0.470109	-1.24174	
-13.5756	-0.361936	-1.23939	
-13.5708	-0.431933	-1.23918	
-15.6395	-0.402116	-1.41711	
-11.8299	-0.742677	-1.07486	
-15.8206	-0.813272	-1.42346	
-15.543	-0.580202	-1.41265	
-13.6298	-1.71994	-1.24193	