<VTKFile type="UnstructuredGrid" version="0.1" byte_order="LittleEndian">
	<UnstructuredGrid>
		<Piece NumberOfPoints="1917" NumberOfCells="56">
			<CellData Scalars="scalars">
				<DataArray type="Float64" Name="Doublet Strengths" NumberOfComponents="1" Format="ascii">
-0.638243	
-2.4861	
-1.89623	
-2.34692	
-2.65118	
-2.82374	
-2.80964	
-2.74609	
-2.14877	
-1.84314	
-1.14839	
-3.34454	
-1.90854	
-3.13377	
-1.91606	
-1.94489	
-2.67725	
-2.5313	
-2.51465	
-2.20534	
-2.573	
-2.7938	
-2.11808	
-2.7096	
-4.89869	
-2.47116	
-1.86214	
-1.84935	
-4.89673	
-1.84718	
-2.40103	
-2.6664	
-2.24783	
-1.6826	
-0.933489	
-3.29383	
-1.81385	
-2.23862	
-2.71947	
-1.72624	
-1.84121	
-2.34309	
-2.33513	
-2.19744	
-2.06705	
-2.30508	
-2.3094	
-2.21402	
-1.82504	
-2.00101	
-2.24648	
-0.566148	
-1.51408	
-1.77215	
-2.25867	
-1.19149	
				</DataArray>
				<DataArray type="Float64" Name="Velocity Potential" NumberOfComponents="1" Format="ascii">
-716.628	
-816.565	
-851.085	
-850.636	
-884.257	
-850.155	
-816.24	
-884.164	
-884.761	
-851.138	
-851.834	
-849.635	
-851.071	
-781.99	
-884.993	
-851.034	
-884.232	
-850.448	
-884.395	
-850.773	
-816.478	
-850.186	
-850.861	
-884.2	
-848.08	
-850.508	
-851.12	
-851.132	
-848.082	
-851.134	
-884.507	
-816.384	
-850.732	
-817.371	
-852.049	
-849.686	
-851.168	
-816.812	
-850.26	
-851.255	
-851.14	
-884.567	
-850.645	
-850.78	
-850.914	
-816.745	
-816.741	
-884.694	
-851.156	
-850.98	
-884.663	
-716.699	
-851.468	
-851.209	
-850.721	
-885.718	
				</DataArray>
			</CellData>
			<Points>
				<DataArray type="Float64" Name="Position" NumberOfComponents="3" Format="ascii">
-9.53308	0	-0.915782	
-8.01552	0.0524256	-0.784791	
-12.4486	0	-1.17661	
-9.67913	2	-0.918587	
-9.71036	1.93467	-0.919456	
-11.2459	2	-1.05148	
-9.60606	0	-0.916922	
-9.57065	0.0610502	-0.916304	
-9.71488	0.0745738	-0.91959	
-9.67913	0	-0.918587	
-9.75161	0	-0.920742	
-9.82454	0	-0.923359	
-9.89723	0	-0.926306	
-9.85586	0.0639395	-0.924596	
-8.91807	1.39584	-0.808911	
-10.398	1.3266	-0.941465	
-10.46	1.35721	-0.915138	
-12.4486	1.92786	-1.17661	
-8.01639	1.94512	-0.7848	
-11.9543	0.0721374	-1.04587	
-10.396	0.0533506	-0.941662	
-8.96571	0	-0.784404	
-11.9543	0.215036	-1.04587	
-13.3587	0.171582	-1.20489	
-8.96571	0.143615	-0.784404	
-8.96571	0.286611	-0.784404	
-11.9543	0.358269	-1.04587	
-10.4098	0.326064	-0.940022	
-10.4076	0.252841	-0.940329	
-10.46	0.714404	-0.915138	
-10.46	0.786116	-0.915138	
-11.8948	0.754574	-1.07193	
-9.89723	2	-0.926306	
-9.82454	2	-0.923359	
-12.8502	1.91204	-1.1863	
-9.91247	1.66657	-0.926952	
-11.3368	1.60722	-1.0548	
-9.72312	0.446925	-0.919838	
-9.67018	0.397747	-0.918355	
-12.7329	0.354616	-1.18197	
-9.45999	2	-0.915138	
-10.46	1.42879	-0.915138	
-7.47142	2	-0.65367	
-8.90617	2	-0.810468	
-11.9543	1.92786	-1.04587	
-9.60606	2	-0.916922	
-8.0388	2	-0.785048	
-9.57098	1.93956	-0.916309	
-8.44296	1.94176	-0.797279	
-12.9991	1.9167	-1.19262	
-9.96962	2	-0.929408	
-10.46	1.21388	-0.915138	
-8.91405	1.19029	-0.809496	
-10.46	1.14216	-0.915138	
-10.46	1.2856	-0.915138	
-10.3983	1.25405	-0.941434	
-11.9543	1.78496	-1.04587	
-10.46	1.85639	-0.915138	
-7.42754	1.82617	-0.677567	
-8.90675	0.114671	-0.810403	
-11.881	1.46922	-1.07319	
-11.8355	1.38862	-1.07484	
-9.65479	0.824164	-0.917974	
-11.1262	0.897364	-1.04818	
-9.577	0.840188	-0.916406	
-10.3026	1.46561	-0.943774	
-10.9543	1	-1.04587	
-12.5087	0.999321	-1.1771	
-12.4486	1.07055	-1.17661	
-9.9213	1.60348	-0.927329	
-9.55252	0.356544	-0.916035	
-8.12255	0.353408	-0.7864	
-9.59693	0.427857	-0.916751	
-11.3868	1.82506	-1.05684	
-11.3905	1.7382	-1.057	
-8.45904	1.77788	-0.797972	
-9.97476	1.71777	-0.929629	
-10.0227	1.78088	-0.931651	
-11.5503	1.70728	-1.06372	
-11.5904	1.79378	-1.06539	
-9.87596	1.54291	-0.925417	
-9.81372	1.8351	-0.922946	
-11.7086	1.45384	-1.07116	
-10.1798	1.53294	-0.938726	
-10.1323	1.49429	-0.936359	
-11.6671	1.28284	-1.06911	
-13.0697	1.30815	-1.19547	
-10.1101	1.23305	-0.935298	
-13.2562	1.05577	-1.2042	
-10.3062	0.974397	-0.943847	
-8.85216	1.02275	-0.81332	
-10.0335	0.65903	-0.932096	
-11.514	0.738857	-1.06226	
-9.96651	0.685529	-0.929274	
-11.4893	1.33866	-1.06123	
-11.4989	1.25226	-1.06163	
-12.4486	1.42879	-1.17661	
-11.0394	1.46516	-1.04667	
-12.4486	1.49933	-1.17661	
-9.54746	0.918262	-0.915966	
-12.7142	0.881052	-1.18138	
-9.81059	0.891355	-0.922828	
-9.79706	0.954992	-0.922326	
-8.56453	0.867158	-0.802361	
-10.1074	0.817822	-0.935172	
-11.6194	0.888323	-1.06674	
-11.1297	0.589259	-1.04826	
-11.2121	0.618435	-1.05041	
-11.1468	0.676586	-1.04865	
-10.2585	0	-0.942385	
-10.3298	0	-0.944125	
-11.8149	0.0790961	-1.0748	
-9.93995	1.27156	-0.92813	
-9.92953	1.20368	-0.927682	
-9.98022	0.496767	-0.929862	
-10.0169	0.442032	-0.931413	
-11.5559	0.502871	-1.06394	
-11.5916	0.698424	-1.06545	
-9.86463	1.23016	-0.924952	
-9.81527	1.27217	-0.923005	
-11.2806	1.19537	-1.05267	
-8.38958	1.2898	-0.795012	
-8.60064	1.02577	-0.803872	
-11.6137	0.967174	-1.06647	
-10.1733	1.0342	-0.938401	
-12.9314	1.00672	-1.18972	
-9.9796	0.93866	-0.929836	
-10.0312	0.987296	-0.931999	
-11.3323	0.378981	-1.05462	
-9.89882	0.426844	-0.926373	
-11.3402	0.470462	-1.05493	
-11.8721	1.87857	-1.07377	
-11.8579	1.79633	-1.0744	
-10.2983	1.84585	-0.943677	
-10.0881	0.270573	-0.934303	
-8.57907	0.200611	-0.802944	
-11.6349	0.193571	-1.0675	
-11.5732	0.123897	-1.06464	
-10.0225	0.249496	-0.931644	
-10.0134	0.173576	-0.931267	
-11.8255	1.20923	-1.07486	
-10.3011	1.13932	-0.943741	
-10.3857	1.13751	-0.942529	
-10.1383	0.531427	-0.936653	
-10.1392	0.463982	-0.936697	
-10.0824	0.427199	-0.934058	
-10.1491	0.382421	-0.937187	
-8.84131	0.742778	-0.813395	
-11.8357	0.813881	-1.07484	
-11.5584	0.580015	-1.06404	
-10.1431	1.7199	-0.936889	
-11.6506	0.757182	-1.06828	
-8.67649	0.698895	-0.807538	
-10.2299	0.732194	-0.941161	
-10.2102	0.893597	-0.940233	
-10.1773	0.830458	-0.938599	
-11.7543	0.834567	-1.07318	
-10.3275	1.53139	-0.944116	
-10.2749	1.59044	-0.942991	
-10.2505	1.5207	-0.942064	
-11.3002	1.10613	-1.05339	
-9.73591	1.13654	-0.920235	
-11.7958	0.567577	-1.07448	
-11.8629	0.624293	-1.07422	
-10.2957	0.641057	-0.943612	
-10.2273	0.667946	-0.941043	
-10.2272	0.607392	-0.941038	
-11.7135	0.97644	-1.07139	
-10.4005	0	-0.941202	
-9.893	1.40806	-0.926128	
-9.92568	1.34451	-0.927516	
-9.95926	1.41675	-0.928962	
-9.92018	1.48085	-0.927281	
-11.5197	1.43176	-1.0625	
-9.98485	1.49613	-0.930061	
-10.0508	0.925911	-0.932785	
-10.2179	1.74077	-0.940599	
-13.2072	1.66215	-1.2021	
-8.78863	1.70694	-0.812518	
-12.4486	1.71339	-1.17661	
-12.519	1.77904	-1.17722	
-12.4486	1.78496	-1.17661	
-10.2585	2	-0.942385	
-11.7953	1.92525	-1.07447	
-10.3298	2	-0.944125	
-10.0909	0.350099	-0.934426	
-10.0272	0.315549	-0.931836	
-9.78697	1.02327	-0.921961	
-11.3508	1.02942	-1.05536	
-9.78203	0.0746863	-0.921784	
-9.81674	0.130322	-0.923061	
-11.2368	0.159825	-1.05118	
-11.2492	0.255296	-1.05159	
-8.30375	0.198868	-0.791628	
-9.86011	0.185075	-0.924768	
-11.202	0.53229	-1.05011	
-15.4371	0.358269	-1.43807	
-10.9543	0.286611	-1.04587	
-9.52218	0.283499	-0.915655	
-12.4486	0.143615	-1.17661	
-11.0321	0.19815	-1.04657	
-12.4486	0.215036	-1.17661	
-12.5933	0.268711	-1.17836	
-11.4639	0	-1.06014	
-8.54811	0	-0.801718	
-10.0492	0.0522709	-0.932722	
-7.36374	0.233077	-0.682494	
-11.8327	0.293965	-1.07485	
-11.5463	1.52249	-1.06357	
-10.0505	1.6164	-0.932773	
-9.99092	1.57352	-0.930319	
-9.98645	1.65009	-0.930129	
-10.3481	1.59898	-0.944032	
-10.1869	0	-0.939084	
-10.1324	0.0589648	-0.936361	
-10.1143	0	-0.935496	
-9.6324	1.47391	-0.917461	
-11.2094	1.46129	-1.05033	
-11.1869	1.53681	-1.04969	
-11.648	0.286849	-1.06815	
-9.77344	0.724627	-0.921482	
-8.28933	0.784216	-0.791107	
-11.2165	0.788387	-1.05054	
-11.7825	0.223399	-1.07414	
-8.77987	1.34531	-0.812232	
-8.77512	1.40661	-0.812064	
-11.7016	1.36487	-1.07083	
-10.2422	1.29047	-0.941709	
-8.76145	0.414541	-0.811542	
-10.203	0.434011	-0.93988	
-11.7065	0.349215	-1.07106	
-10.3186	0.422964	-0.944042	
-11.7633	0.489015	-1.07352	
-10.3409	0.488653	-0.944107	
-7.07194	1.24582	-0.671692	
-10.0465	1.18695	-0.932613	
-8.72133	1.58611	-0.809758	
-8.29287	0.42229	-0.791233	
-8.31505	0.312816	-0.792047	
-11.3841	0.310713	-1.05673	
-9.83919	0.255176	-0.923931	
-9.90504	0.23291	-0.926636	
-13.2246	1.20734	-1.2029	
-10.1055	1.1572	-0.935085	
-10.1747	1.15129	-0.938472	
-8.6692	1.2101	-0.807172	
-11.609	1.08885	-1.06625	
-9.71814	1.61914	-0.919687	
-9.73698	1.69424	-0.920269	
-11.1527	1.67616	-1.04879	
-9.78587	1.64844	-0.921921	
-9.81427	1.72086	-0.922967	
-10.1593	0.644913	-0.937696	
-8.73339	1.94629	-0.810324	
-11.65	1.93331	-1.06825	
-10.2291	1.88539	-0.941124	
-11.135	0.0804625	-1.04838	
-8.08681	0.127785	-0.785739	
-8.09805	1.88257	-0.785934	
-11.1381	1.92762	-1.04845	
-9.67963	0.21589	-0.9186	
-8.72602	0.273142	-0.80998	
-10.2134	0.209198	-0.940386	
-8.71465	0.143339	-0.809436	
-10.2796	0.145092	-0.943146	
-8.66218	0.115792	-0.80682	
-10.1562	1.85807	-0.937542	
-10.0905	1.88373	-0.934409	
-8.58645	1.94611	-0.803253	
-8.54811	2	-0.801718	
-10.1143	2	-0.935496	
-8.91639	0.682902	-0.809164	
-11.9543	0.64279	-1.04587	
-8.44295	1.88295	-0.797279	
-9.81514	1.53147	-0.923	
-9.79271	1.46174	-0.922168	
-9.85718	1.47178	-0.924649	
-10.3596	1.08229	-0.943792	
-8.17409	0.329519	-0.787575	
-11.0168	0.43708	-1.04639	
-10.9543	0.429861	-1.04587	
-8.35582	1.67699	-0.79363	
-9.7678	1.57544	-0.921288	
-8.66923	1.60691	-0.807173	
-10.1218	1.65508	-0.935851	
-10.2229	1.81461	-0.940835	
-8.6678	1.78507	-0.807102	
-8.1729	0.749751	-0.787545	
-9.71704	0.701087	-0.919654	
-11.0913	0.758919	-1.04749	
-10.46	0.429861	-0.915138	
-11.8882	0.409639	-1.0726	
-10.291	1.77163	-0.943489	
-11.8549	1.71936	-1.0745	
-11.148	1.1716	-1.04868	
-9.68653	1.09553	-0.918785	
-11.2536	1.76477	-1.05173	
-8.34219	1.7791	-0.79309	
-9.95999	0.277236	-0.928993	
-11.4295	0.151691	-1.05866	
-8.54743	1.84554	-0.80169	
-9.97551	1.83711	-0.929661	
-9.85602	1.33945	-0.924602	
-9.82705	1.40104	-0.923456	
-8.77499	0.297567	-0.81206	
-10.2887	0.357474	-0.943424	
-8.59119	0.760525	-0.803456	
-10.0358	0.810302	-0.932186	
-9.94381	0.749841	-0.928296	
-9.87879	0.751361	-0.925535	
-9.90107	0.686344	-0.926468	
-9.97047	0.810027	-0.929444	
-9.90515	0.81571	-0.926641	
-13.9429	1.64173	-1.30734	
-9.52565	1.65788	-0.915694	
-11.9543	1	-1.04587	
-11.9543	1.07055	-1.04587	
-8.91708	1.0308	-0.809061	
-8.03047	1.5272	-0.78495	
-12.4486	1.57014	-1.17661	
-8.38612	0.121062	-0.794868	
-9.92702	0.068568	-0.927574	
-9.99451	0.0968802	-0.930472	
-12.4486	1.85639	-1.17661	
-11.021	1.8723	-1.04644	
-12.4486	0.0721374	-1.17661	
-9.52023	0.116381	-0.915634	
-10.0262	0.378957	-0.931798	
-12.4486	1.2856	-1.17661	
-9.52576	1.33655	-0.915695	
-12.4486	1.35721	-1.17661	
-8.42063	1.07097	-0.796322	
-9.92141	1.13809	-0.927333	
-8.37325	1.10545	-0.794337	
-9.9745	1.08867	-0.929617	
-9.93576	0.876824	-0.92795	
-9.8741	0.882801	-0.92534	
-11.3346	0.819303	-1.05471	
-10.0937	1.38959	-0.934553	
-8.59301	1.45442	-0.803536	
-10.1525	1.41914	-0.937356	
-8.46949	0.213959	-0.798422	
-9.92175	0.621411	-0.927348	
-9.88392	0.549577	-0.925748	
-9.94533	0.556476	-0.928361	
-9.91306	0.491713	-0.926977	
-11.7202	0.0712931	-1.07171	
-9.85375	1.1672	-0.924511	
-10.1092	1.57159	-0.935257	
-9.65357	0.47164	-0.917945	
-8.91303	0.476615	-0.809634	
-11.8768	0.546631	-1.07349	
-10.9543	0.500665	-1.04587	
-9.51997	0.802839	-0.915631	
-8.10093	0.646217	-0.785985	
-8.07875	0.69766	-0.785608	
-9.57313	1.17495	-0.916343	
-11.0198	1.0996	-1.04643	
-11.1042	1.1007	-1.04773	
-11.2123	1.32398	-1.05042	
-8.15521	1.29855	-0.787114	
-9.67931	1.24767	-0.918591	
-9.86193	0.61668	-0.924842	
-9.82479	0.546139	-0.923369	
-8.27182	0.561624	-0.790496	
-9.77799	0.491616	-0.921641	
-8.16157	1.0418	-0.787266	
-9.7165	1.02609	-0.919638	
-11.1517	0.976287	-1.04877	
-9.73359	0.965074	-0.920162	
-9.86607	0.954567	-0.925011	
-9.59358	1.62515	-0.91669	
-8.16065	1.59965	-0.787243	
-8.85886	0.360303	-0.813212	
-9.53017	1.5889	-0.915747	
-9.78772	1.33334	-0.921988	
-9.76139	1.39903	-0.921069	
-9.74897	1.2624	-0.920656	
-11.3308	0.683934	-1.05456	
-10.3918	0.967445	-0.942051	
-13.3621	0.89983	-1.20473	
-10.2783	0.914042	-0.943105	
-10.0281	1.0505	-0.931876	
-8.7439	1.13415	-0.8108	
-8.7003	1.09375	-0.808731	
-8.44193	1.5431	-0.797235	
-10.2862	0.770923	-0.943352	
-8.72606	0.785107	-0.809982	
-8.64872	1.34839	-0.80615	
-11.8212	1.29694	-1.07485	
-10.3098	1.65281	-0.943913	
-11.0258	1.25411	-1.0465	
-9.58978	1.32162	-0.916622	
-8.60193	0.633745	-0.80393	
-10.1503	0.587288	-0.937247	
-10.351	0.6882	-0.943986	
-9.99692	0.873522	-0.930574	
-7.05856	1.36753	-0.671171	
-10.1869	2	-0.939084	
-8.22424	1.1987	-0.788965	
-9.96333	0.394274	-0.929137	
-9.96266	0.336713	-0.929108	
-10.2847	0.702848	-0.943307	
-10.46	0.929454	-0.915138	
-10.46	0.857842	-0.915138	
-8.88105	1.94387	-0.812438	
-9.98462	1.16572	-0.930051	
-10.0414	1.11814	-0.93241	
-11.1722	1.79696	-1.04929	
-8.19189	1.73661	-0.788041	
-8.41303	0.370041	-0.795999	
-8.46133	0.446178	-0.79807	
-8.4255	0.936014	-0.79653	
-6.57306	1.0523	-0.654698	
-9.59961	1.01699	-0.9168	
-10.46	1.49933	-0.915138	
-11.0375	0.586375	-1.04664	
-11.074	0.509874	-1.04718	
-10.3984	1.54624	-0.94142	
-8.27946	0.664255	-0.790759	
-8.3306	0.750955	-0.792639	
-8.28264	0.837223	-0.79087	
-12.4486	1.21388	-1.17661	
-8.017	1.17543	-0.784806	
-12.4486	0.929454	-1.17661	
-8.01786	0.873321	-0.784814	
-13.9429	0.857842	-1.30734	
-9.51653	0.725606	-0.915594	
-12.4486	0.786116	-1.17661	
-12.4486	0.714404	-1.17661	
-9.53255	0.653203	-0.915775	
-12.4486	0.64279	-1.17661	
-13.9429	0.571209	-1.30734	
-12.4486	1.14216	-1.17661	
-8.09698	0.957788	-0.785915	
-6.69822	0.930031	-0.657323	
-9.80081	0.613315	-0.922464	
-8.92171	1.6049	-0.80832	
-8.51137	0.552048	-0.800209	
-9.98522	0.616488	-0.930076	
-11.0963	1.54065	-1.04758	
-9.61905	0.177963	-0.917179	
-9.60575	1.24487	-0.916916	
-11.0861	1.39957	-1.04739	
-8.18652	0.139289	-0.787897	
-9.58299	1.69928	-0.916505	
-9.61602	1.75272	-0.917118	
-9.65448	1.35868	-0.917967	
-8.21296	1.39206	-0.788632	
-8.16647	1.42097	-0.787385	
-9.59354	1.81911	-0.916689	
-10.3934	1.6612	-0.941911	
-10.46	1.71339	-0.915138	
-8.70558	0.496577	-0.808992	
-10.2236	0.549039	-0.940871	
-8.14879	1.85508	-0.786965	
-8.01954	0.520218	-0.784832	
-6.65452	0.528047	-0.656232	
-10.46	1.57014	-0.915138	
-11.9543	0.500665	-1.04587	
-7.17906	0.932053	-0.676646	
-8.25801	1.07414	-0.790031	
-8.26145	1.51028	-0.790145	
-11.9543	1.64173	-1.04587	
-8.19772	0.282674	-0.7882	
-10.46	0.571209	-0.915138	
-7.42684	0.59575	-0.677686	
-6.53694	1.71321	-0.654225	
-11.2681	1.88726	-1.05223	
-8.90951	0.827624	-0.810082	
-8.2482	1.82622	-0.789711	
-8.0287	1.40032	-0.78493	
-9.69801	1.87065	-0.919101	
-7.32427	0.866054	-0.682496	
-7.29145	1.24863	-0.681693	
-8.30687	1.94589	-0.791743	
-7.42438	1.75284	-0.678084	
-6.77077	1.94185	-0.659532	
-10.4237	0.611259	-0.874638	
-11.8979	0.691022	-0.995697	
-8.92643	0.951279	-0.742306	
-11.9041	0.885946	-0.99845	
-9.94851	0	-0.824367	
-9.88016	0	-0.831568	
-11.4137	0.0792566	-0.957929	
-12.5186	0	-1.15812	
-8.07351	0.0639973	-0.756725	
-9.59949	0	-0.880152	
-9.51314	0.0936441	-0.900939	
-9.80902	0	-0.841083	
-9.73845	0	-0.852437	
-9.78155	0.0798839	-0.84528	
-8.9374	0.821071	-0.74847	
-10.4225	1.45488	-0.874005	
-10.4256	1.89867	-0.875667	
-8.45422	2	-0.693633	
-10.0201	2	-0.819033	
-11.4922	1.91895	-0.951164	
-8.07695	1.93754	-0.755914	
-9.51824	1.90585	-0.899632	
-9.53003	2	-0.896653	
-9.59949	2	-0.880152	
-9.88016	2	-0.831568	
-9.84447	1.92228	-0.836093	
-9.80902	2	-0.841083	
-10.0567	1.85759	-0.81726	
-11.4765	1.82278	-0.952292	
-11.2714	0.600657	-0.976713	
-9.72207	0.663037	-0.855339	
-11.2837	0.68441	-0.974781	
-9.5148	0.939959	-0.900514	
-9.52386	1.33496	-0.898205	
-11.462	1.68417	-0.953438	
-8.50347	1.74973	-0.689709	
-13.0527	1.71007	-1.07846	
-9.77459	1.02684	-0.84639	
-11.2793	0.943151	-0.975467	
-9.7194	0.965528	-0.85582	
-9.55031	0.553448	-0.891651	
-9.50736	0.495631	-0.902429	
-10.2098	1.36962	-0.821065	
-13.13	1.42353	-1.0783	
-10.2203	1.43872	-0.822125	
-11.8203	1.02505	-0.970656	
-10.2599	0.965827	-0.827161	
-11.7273	1.04082	-0.954288	
-11.6662	1.21008	-0.948909	
-13.2492	1.26463	-1.08875	
-10.2546	1.19252	-0.826395	
-9.76341	1.8275	-0.848209	
-11.27	1.91186	-0.976943	
-11.3251	1.83465	-0.96869	
-11.3888	1.04863	-0.960632	
-9.83393	1.0111	-0.837525	
-11.3117	1.09426	-0.970594	
-8.39209	1.10778	-0.700099	
-11.4616	1.09436	-0.953476	
-10.0032	0.92332	-0.820078	
-10.0414	0.983948	-0.817921	
-13.0729	0.912712	-1.07794	
-8.5339	1.65028	-0.687851	
-8.58771	1.64109	-0.685783	
-11.5286	1.58611	-0.949001	
-9.53022	0.621253	-0.896607	
-8.10241	0.607584	-0.750048	
-11.1307	0.544593	-1.00283	
-11.1514	0.626188	-0.998544	
-11.3866	0.883867	-0.960874	
-9.8513	0.814004	-0.835187	
-9.82698	0.883506	-0.838494	
-8.35127	0.94284	-0.705213	
-8.29819	0.823889	-0.712843	
-9.75783	0.86549	-0.849134	
-10.2032	0.577518	-0.820468	
-11.695	0.659851	-0.950984	
-10.265	0.634606	-0.827941	
-11.1261	0.0913029	-1.00381	
-9.56062	0.141129	-0.889167	
-9.98675	1.15841	-0.821224	
-13.0621	1.18235	-1.07818	
-8.54292	1.11752	-0.687388	
-11.8389	0.938839	-0.975459	
-8.90025	0.99711	-0.730443	
-10.0199	0.516229	-0.819044	
-11.5426	0.597248	-0.948344	
-10.0943	0.53029	-0.81634	
-11.3644	1.25683	-0.963527	
-11.3443	1.17353	-0.966085	
-9.80157	1.22905	-0.842192	
-11.86	1.10599	-0.981661	
-10.4096	1.05145	-0.867605	
-10.3664	1.1866	-0.851152	
-10.4194	1.17077	-0.87238	
-12.7753	1.39834	-1.10593	
-8.29689	1.4857	-0.713043	
-9.85137	1.4682	-0.835179	
-11.6785	0.907417	-0.949697	
-10.1312	0.841878	-0.816563	
-13.3694	0.492781	-1.1175	
-8.82995	0.543817	-0.708768	
-10.3731	0.570722	-0.853362	
-10.1512	1.72433	-0.817171	
-10.1071	1.78876	-0.816288	
-10.0215	0.853718	-0.818956	
-9.93445	0.389993	-0.825686	
-8.44759	0.316743	-0.694244	
-9.88026	0.343184	-0.831557	
-10.0549	0.780432	-0.817334	
-8.57954	0.84375	-0.685968	
-10.1249	0.770799	-0.816443	
-9.97007	0.577671	-0.822513	
-11.0289	1.02428	-1.02625	
-11.2309	0.237428	-0.983489	
-9.75247	0.153222	-0.850034	
-9.68487	0.163431	-0.862291	
-11.322	0.159631	-0.969127	
-10.1744	1.80219	-0.818323	
-8.71001	1.86234	-0.689827	
-10.2533	1.80354	-0.826198	
-10.0824	0.329138	-0.816509	
-11.6514	0.30982	-0.948152	
-11.5993	0.244444	-0.947021	
-10.1145	0.391669	-0.81632	
-8.21977	1.03303	-0.72606	
-10.0828	0.717798	-0.816501	
-10.0012	0.718603	-0.82021	
-8.54484	0.665477	-0.687295	
-10.1142	0.658642	-0.816318	
-8.44603	1.87015	-0.694391	
-9.90466	1.80864	-0.828761	
-8.55107	1.78424	-0.687005	
-9.93224	1.74797	-0.825901	
-10.1797	0.386445	-0.81866	
-10.2098	0.441074	-0.821065	
-10.2491	0.365688	-0.825617	
-10.021	1.25637	-0.818984	
-10.0958	1.24657	-0.816327	
-10.0438	1.3122	-0.817807	
-8.61509	1.30199	-0.685559	
-10.1694	1.27096	-0.818032	
-9.89493	0.276367	-0.829846	
-12.8023	0.292881	-1.10187	
-8.35477	0.234809	-0.70475	
-8.29885	0.216682	-0.712742	
-10.2716	0.891352	-0.829001	
-10.0709	1.48059	-0.81678	
-9.99508	1.4429	-0.820628	
-11.4877	1.51083	-0.95148	
-9.92369	1.45569	-0.826753	
-10.0834	1.36546	-0.81649	
-10.1539	1.34038	-0.81728	
-9.81946	1.70558	-0.839562	
-9.83444	1.63351	-0.837454	
-9.76249	1.65739	-0.848361	
-9.68331	0.837679	-0.862594	
-9.72759	0.792044	-0.85435	
-9.73984	1.09876	-0.852196	
-11.2639	1.30603	-0.977919	
-8.2287	1.35315	-0.72444	
-11.6301	0.166399	-0.947406	
-10.054	0.169498	-0.817368	
-11.182	1.40455	-0.992476	
-11.3475	0.41495	-0.965673	
-11.4	0.474418	-0.959375	
-11.6351	1.05334	-0.947544	
-10.1817	0.984567	-0.818793	
-10.1452	1.13834	-0.816949	
-9.77992	0.452043	-0.845538	
-11.2714	0.374434	-0.976725	
-8.22687	0.42015	-0.724769	
-11.1945	0.484457	-0.990104	
-10.2977	0	-0.833734	
-10.3144	0.0667918	-0.837234	
-10.3621	0	-0.849814	
-10.2977	2	-0.833734	
-8.77193	1.94291	-0.697405	
-8.73301	2	-0.692155	
-10.3353	0.853126	-0.84225	
-10.3621	2	-0.849814	
-11.823	1.92333	-0.971332	
-8.46324	0.506745	-0.692832	
-9.9045	0.56183	-0.828779	
-9.91226	0.636864	-0.827941	
-9.84317	0.546278	-0.836266	
-9.8439	0.617676	-0.836169	
-11.7395	0.078087	-0.955823	
-11.6996	1.56345	-0.951383	
-8.76304	1.62497	-0.696052	
-10.2894	1.57191	-0.83213	
-11.8416	0.153301	-0.976204	
-11.8459	0.252546	-0.977404	
-8.90854	0.211952	-0.733871	
-9.97561	0.650538	-0.822071	
-11.4192	0.718414	-0.957361	
-9.91419	0.798942	-0.827736	
-9.98124	0.786413	-0.821635	
-8.36541	0.678765	-0.703367	
-9.85394	0.741319	-0.834843	
-11.9045	1.80752	-0.998614	
-10.3614	1.74768	-0.849596	
-11.8267	1.83308	-0.972249	
-9.92177	1.20637	-0.826949	
-11.1313	1.92648	-1.00271	
-11.0756	1.86025	-1.01502	
-10.3811	0.344499	-0.856121	
-10.407	0.410465	-0.866448	
-11.7364	0.282592	-0.955421	
-11.8062	0.338159	-0.967429	
-11.4631	0.251286	-0.953351	
-8.53113	0.217721	-0.688002	
-11.456	0.164212	-0.95394	
-11.0317	0.230355	-1.02554	
-11.5873	1.93673	-0.947087	
-10.3498	1.26103	-0.846165	
-10.4134	1.24459	-0.869411	
-10.3348	1.32491	-0.842123	
-11.8997	1.31978	-0.996489	
-11.7618	0.804788	-0.959084	
-11.8337	0.759874	-0.974035	
-10.2766	0.714139	-0.829838	
-9.90292	0.206449	-0.828953	
-8.39306	0.138218	-0.699986	
-9.58325	1.72394	-0.88385	
-9.54825	1.78328	-0.892152	
-11.1216	1.79352	-1.00478	
-9.98082	1.03613	-0.821668	
-11.5482	1.05319	-0.948105	
-10.1047	0.992616	-0.816288	
-8.60035	1.10914	-0.685603	
-11.7711	0.204267	-0.960611	
-10.1883	0.22975	-0.819258	
-9.95688	0.863551	-0.823622	
-9.93883	0.938032	-0.825266	
-8.8104	1.76807	-0.70441	
-11.7879	1.69808	-0.963652	
-10.2218	1.73846	-0.82228	
-10.2787	0.425321	-0.830208	
-10.2348	0.500006	-0.823769	
-10.1383	0.456585	-0.816738	
-10.1658	0.51622	-0.817841	
-9.65996	0.232607	-0.867228	
-9.834	1.33248	-0.837516	
-9.90954	1.52656	-0.828231	
-11.329	1.55451	-0.968158	
-11.405	1.60907	-0.958835	
-8.22501	0.903738	-0.725106	
-11.1399	0.902651	-1.0009	
-10.1597	0	-0.817537	
-10.0885	0	-0.816408	
-10.1111	0.051764	-0.8163	
-10.0201	0	-0.819033	
-10.0414	0.0537652	-0.817921	
-9.93815	1.3862	-0.82533	
-9.86744	1.3946	-0.833123	
-9.94401	1.26486	-0.824779	
-8.49819	1.21166	-0.690076	
-9.90114	1.32507	-0.829149	
-9.97211	1.32038	-0.822348	
-8.88884	0.814456	-0.72611	
-9.70773	1.88165	-0.857959	
-10.1355	0.594595	-0.816664	
-8.93719	1.38879	-0.748339	
-10.3818	1.39048	-0.856351	
-11.1433	0.75837	-1.00019	
-9.60565	0.821275	-0.878774	
-10.4143	0.75743	-0.869834	
-11.1911	1.60921	-0.990736	
-9.69657	1.68446	-0.860049	
-8.19564	1.75212	-0.730581	
-11.2463	1.73879	-0.980843	
-11.1072	1.59941	-1.00791	
-9.62793	1.66432	-0.873907	
-11.6884	1.93182	-0.950433	
-10.2689	1.87756	-0.828564	
-10.4226	0.146224	-0.87401	
-8.93475	1.10891	-0.746889	
-8.92891	0.544978	-0.74362	
-11.1432	1.32361	-1.00023	
-9.70702	0.0813768	-0.85809	
-9.66962	0	-0.865286	
-8.8165	1.21454	-0.705707	
-10.3105	1.14931	-0.836379	
-10.1334	1.87232	-0.816611	
-9.61021	1.24379	-0.877764	
-9.57205	1.29411	-0.886457	
-9.67623	1.24385	-0.863978	
-9.77422	1.16415	-0.846449	
-12.6342	0.398041	-1.13164	
-11.0282	1.20048	-1.02641	
-9.52321	1.11243	-0.898371	
-9.70974	0.560548	-0.857587	
-9.7745	0.523541	-0.846404	
-11.6975	1.65544	-0.951196	
-10.0718	0.109422	-0.816755	
-8.38823	1.86761	-0.700554	
-9.91593	1.9304	-0.827553	
-8.72911	0.741046	-0.691722	
-10.3334	0.676971	-0.841745	
-8.16903	0.693471	-0.735816	
-9.72231	0.726744	-0.855296	
-9.78928	0.760134	-0.844071	
-6.72753	0.61385	-0.594952	
-8.01216	0.170423	-0.771934	
-8.71098	1.15632	-0.689915	
-8.69831	1.09603	-0.688849	
-10.2501	1.1197	-0.825753	
-8.15456	1.85832	-0.738769	
-9.70209	1.8111	-0.85901	
-10.3618	1.45652	-0.849696	
-10.3222	1.39372	-0.839027	
-8.21191	1.94352	-0.72751	
-9.73845	2	-0.852437	
-10.186	0.79232	-0.819088	
-8.71649	0.850283	-0.690429	
-10.1615	0.718066	-0.817624	
-9.61153	0.180772	-0.877471	
-10.1359	1.51591	-0.816673	
-11.6231	1.59438	-0.947247	
-8.69365	1.48768	-0.688496	
-10.2547	1.50665	-0.826407	
-8.02145	1.83632	-0.769538	
-11.2352	1.53312	-0.982743	
-8.17499	1.54488	-0.734621	
-9.5132	1.71558	-0.900923	
-11.8758	1.66217	-0.986996	
-9.70532	0.358669	-0.858406	
-9.64868	0.310734	-0.869538	
-8.76946	1.39867	-0.69702	
-10.294	1.4537	-0.832991	
-10.2735	1.33896	-0.829311	
-10.0678	0.46147	-0.816872	
-8.55429	0.394907	-0.686862	
-11.4842	0.433969	-0.951727	
-8.5675	1.42238	-0.686337	
-10.0084	1.37641	-0.819743	
-10.3204	0.606335	-0.838601	
-9.55691	0.879786	-0.890054	
-9.56827	0.752034	-0.887348	
-9.52503	0.815753	-0.897911	
-11.0907	1.38066	-1.01157	
-11.8976	1.52165	-0.99554	
-10.3283	1.51493	-0.840481	
-8.80183	1.08423	-0.702678	
-9.52535	1.59815	-0.897831	
-8.59423	2	-0.685674	
-11.1926	1.16076	-0.990462	
-8.14757	1.18618	-0.740224	
-8.42506	1.14984	-0.696464	
-9.73824	1.23168	-0.852475	
-9.58412	1.16237	-0.883649	
-9.89002	1.68406	-0.830409	
-7.22076	0.333428	-0.559557	
-9.52586	1.52552	-0.897703	
-9.57229	0.488947	-0.8864	
-8.2756	1.59304	-0.716416	
-10.3607	1.57917	-0.849369	
-9.55038	1.65719	-0.891633	
-10.2652	0.559694	-0.827985	
-10.3031	0.490232	-0.834817	
-9.58925	0.956713	-0.882473	
-9.6599	0.989568	-0.86724	
-9.8641	1.75665	-0.833541	
-8.30998	1.77244	-0.711054	
-8.14883	1.72615	-0.739959	
-8.25688	0.310718	-0.719521	
-8.20433	0.290342	-0.72893	
-8.21537	1.29539	-0.726869	
-10.1597	2	-0.817537	
-8.34225	0.482459	-0.706434	
-8.72041	1.30941	-0.690812	
-9.99806	0.109198	-0.820422	
-9.61284	1.03572	-0.877185	
-9.67387	1.07584	-0.864443	
-9.66962	2	-0.865286	
-8.88107	0.633303	-0.723378	
-10.3423	0.422033	-0.844089	
-7.30894	0.266461	-0.572219	
-9.59624	0.262786	-0.880884	
-8.63933	1.66446	-0.685883	
-8.57662	1.54135	-0.686047	
-9.55409	0.371856	-0.890736	
-8.0921	0.429791	-0.752394	
-8.47078	1.56661	-0.692191	
-8.4852	1.62234	-0.691036	
-6.82933	1.2804	-0.578319	
-9.52235	0.68957	-0.898589	
-8.01275	0.753859	-0.77178	
-10.4198	0.285029	-0.872547	
-8.01684	1.26259	-0.770724	
-11.9155	0	-1.00405	
-8.0248	1.39629	-0.768685	
-11.0395	1.45609	-1.02362	
-9.53039	0.308608	-0.896563	
-11.0902	0.682551	-1.0117	
-9.5194	0.423502	-0.899338	
-10.4212	2	-0.873316	
-8.48708	0.980727	-0.690892	
-11.1014	1.51237	-1.00918	
-9.63044	1.11653	-0.87337	
-8.54464	0.277428	-0.687304	
-11.498	0.33864	-0.950775	
-8.08158	1.08627	-0.75483	
-8.64153	0.0993244	-0.685937	
-10.1839	0.0548078	-0.818943	
-6.58084	1.55961	-0.62561	
-10.4212	1.72118	-0.873271	
-8.89194	1.94239	-0.727247	
-8.88376	1.87535	-0.724306	
-8.13915	0.473525	-0.741998	
-8.10265	0.331482	-0.749994	
-8.82664	1.63205	-0.707988	
-8.92443	1.59521	-0.741279	
-9.67992	1.47977	-0.863253	
-10.2198	0.160133	-0.822067	
-8.69361	0.114041	-0.688494	
-8.24422	1.45658	-0.721694	
-8.78914	0.130179	-0.700298	
-9.88813	0.972536	-0.830628	
-10.3929	0.0752793	-0.860549	
-8.48414	0.0509452	-0.691117	
-8.43919	1.00206	-0.695047	
-6.84013	0.356044	-0.576785	
-9.84802	0.0762643	-0.835619	
-8.12922	1.44431	-0.744125	
-10.2273	0	-0.822889	
-7.44124	0.460204	-0.616609	
-7.14827	0.946643	-0.55523	
-9.53432	2	-0.905842	
-9.61331	2	-0.897308	
-9.77687	2	-0.884045	
-9.86287	2	-0.879455	
-9.69387	2	-0.890032	
-11.5335	2	-1.00592	
-11.7116	2	-1.01206	
-10.3893	2	-0.902241	
-10.3059	2	-0.890258	
-10.1282	2	-0.876301	
-11.444	2	-1.00722	
-12.4486	-0.0721374	-1.17661	
-8.01552	-0.0524234	-0.784791	
-8.28265	-1.94219	-0.79087	
-9.71124	-1.93265	-0.919482	
-9.75161	-2	-0.920742	
-9.57064	-0.0610541	-0.916304	
-9.71489	-0.0745946	-0.91959	
-9.85689	-0.063891	-0.924638	
-10.46	-1.2856	-0.915138	
-10.3983	-1.32684	-0.941436	
-10.46	-1.35721	-0.915138	
-10.46	-0.0721374	-0.915138	
-11.9543	-0.215036	-1.04587	
-10.46	-0.143615	-0.915138	
-10.4088	-0.177622	-0.94017	
-8.96571	-0.286611	-0.784404	
-10.4098	-0.326516	-0.940018	
-11.9543	-0.358269	-1.04587	
-10.41	-0.255005	-0.939991	
-10.46	-0.714404	-0.915138	
-11.8949	-0.754353	-1.07192	
-10.46	-0.786116	-0.915138	
-9.89723	-2	-0.926306	
-11.3463	-1.91632	-1.05518	
-9.82454	-2	-0.923359	
-8.0388	-2	-0.785048	
-8.01663	-1.94543	-0.784802	
-9.45999	-2	-0.915138	
-10.4111	-1.39944	-0.93984	
-10.46	-1.42879	-0.915138	
-7.47142	-2	-0.65367	
-11.9543	-1.92786	-1.04587	
-8.90617	-2	-0.810468	
-9.60606	-2	-0.916922	
-9.57021	-1.9425	-0.916297	
-11.5051	-1.91894	-1.06189	
-9.96962	-2	-0.929408	
-8.54811	-2	-0.801718	
-10.46	-1.21388	-0.915138	
-10.3982	-1.25457	-0.941446	
-11.9543	-1.78496	-1.04587	
-7.42758	-1.82622	-0.677561	
-10.46	-1.85639	-0.915138	
-9.65479	-0.824164	-0.917974	
-9.577	-0.840188	-0.916406	
-11.1262	-0.897364	-1.04818	
-12.4486	-1.07055	-1.17661	
-11.0198	-1.0996	-1.04643	
-12.5087	-0.999321	-1.1771	
-9.83931	-1.67801	-0.923935	
-9.91038	-1.66711	-0.926863	
-11.3372	-1.60664	-1.05481	
-9.72289	-0.446895	-0.919831	
-12.7324	-0.354649	-1.18196	
-9.66907	-0.398171	-0.918326	
-11.3883	-1.83141	-1.0569	
-8.45905	-1.78071	-0.797972	
-11.3898	-1.74009	-1.05697	
-11.5502	-1.7075	-1.06372	
-9.97438	-1.71822	-0.929612	
-10.0215	-1.78279	-0.931602	
-11.5901	-1.79397	-1.06538	
-9.92128	-1.60358	-0.927328	
-9.87604	-1.5428	-0.925421	
-8.32767	-1.84473	-0.792526	
-11.7088	-1.45461	-1.07117	
-10.1323	-1.49442	-0.936357	
-10.1798	-1.53304	-0.938724	
-13.17	-1.28582	-1.20027	
-10.1114	-1.23395	-0.93536	
-13.0708	-1.30809	-1.19552	
-13.2552	-1.05755	-1.20416	
-8.84726	-1.02435	-0.813368	
-8.79866	-0.98494	-0.812807	
-10.0335	-0.659051	-0.932095	
-9.96651	-0.685531	-0.929274	
-11.514	-0.738859	-1.06226	
-11.4894	-1.33862	-1.06123	
-11.499	-1.25231	-1.06164	
-12.4486	-1.42879	-1.17661	
-12.4486	-1.49933	-1.17661	
-11.0388	-1.4654	-1.04666	
-9.54746	-0.918262	-0.915966	
-9.59961	-1.01699	-0.9168	
-8.09698	-0.957788	-0.785915	
-12.7142	-0.881052	-1.18138	
-9.73359	-0.965074	-0.920162	
-9.79706	-0.954992	-0.922326	
-8.56454	-0.86716	-0.802361	
-11.6195	-0.888326	-1.06675	
-10.1074	-0.817828	-0.935173	
-11.1297	-0.589278	-1.04826	
-11.1468	-0.676587	-1.04865	
-11.2121	-0.618429	-1.05041	
-11.8063	-0.0745363	-1.07468	
-10.0466	-1.18703	-0.932619	
-9.98464	-1.16574	-0.930052	
-9.97998	-0.496062	-0.929852	
-11.5553	-0.503541	-1.06391	
-10.0156	-0.439924	-0.93136	
-11.5916	-0.698429	-1.06545	
-9.86463	-1.23016	-0.924952	
-11.2806	-1.19538	-1.05267	
-9.81526	-1.27217	-0.923005	
-9.85602	-1.33945	-0.924602	
-8.38958	-1.2898	-0.795012	
-11.7119	-0.976561	-1.07132	
-11.6135	-0.96716	-1.06646	
-10.1732	-1.03431	-0.938392	
-12.9314	-1.00672	-1.18972	
-10.0312	-0.987297	-0.931999	