<VTKFile type="UnstructuredGrid" version="0.1" byte_order="LittleEndian">
	<UnstructuredGrid>
		<Piece NumberOfPoints="1917" NumberOfCells="56">
			<CellData Scalars="scalars">
				<DataArray type="Float64" Name="Doublet Strengths" NumberOfComponents="1" Format="ascii">
-1.32121	
-5.14018	
-3.8835	
-3.66815	
-4.76485	
-4.88423	
-5.09223	
-4.82781	
-3.59757	
-3.58115	
-2.13043	
-5.35249	
-3.93901	
-5.20745	
-3.49641	
-4.0407	
-4.99134	
-4.58327	
-4.554	
-4.52385	
-4.98417	
-4.86575	
-4.4445	
-4.88683	
-6.81507	
-4.51721	
-3.01177	
-3.74414	
-6.81731	
-4.0662	
-4.57829	
-4.98719	
-4.39542	
-3.75812	
-2.02685	
-5.31777	
-4.01362	
-4.44907	
-4.80301	
-3.63321	
-4.07707	
-4.82306	
-4.96491	
-4.40513	
-4.50288	
-5.07672	
-4.86039	
-4.43628	
-3.80912	
-4.45495	
-4.66904	
-1.29841	
-3.31002	
-3.86551	
-4.63666	
-2.53816	
				</DataArray>
				<DataArray type="Float64" Name="Velocity Potential" NumberOfComponents="1" Format="ascii">
-158.824	
-187.141	
-199.113	
-199.328	
-208.948	
-198.116	
-187.194	
-208.886	
-210.112	
-199.413	
-200.866	
-197.648	
-199.058	
-176.367	
-210.212	
-198.955	
-208.719	
-198.414	
-209.156	
-198.471	
-187.298	
-198.136	
-198.551	
-208.823	
-196.185	
-198.479	
-199.985	
-199.253	
-196.183	
-198.93	
-209.135	
-187.299	
-198.605	
-188.525	
-200.97	
-197.683	
-198.984	
-187.837	
-198.198	
-199.363	
-198.92	
-208.887	
-198.03	
-198.59	
-198.493	
-187.206	
-187.423	
-209.272	
-199.187	
-198.541	
-209.04	
-158.849	
-199.687	
-199.131	
-198.358	
-211.172	
				</DataArray>
			</CellData>
			<Points>
				<DataArray type="Float64" Name="Position" NumberOfComponents="3" Format="ascii">
-3.05785	0	-0.349268	
-2.46532	0.0524256	-0.299207	
-4.12326	0	-0.448231	
-3.2039	2	-0.352073	
-3.23513	1.93467	-0.352942	
-3.84562	2	-0.404032	
-3.13082	0	-0.350408	
-3.09541	0.0610502	-0.34979	
-3.23965	0.0745738	-0.353076	
-3.2039	0	-0.352073	
-3.27637	0	-0.354228	
-3.34931	0	-0.356845	
-3.422	0	-0.359792	
-3.38062	0.0639395	-0.358082	
-3.36787	1.39584	-0.323327	
-3.92276	1.3266	-0.374951	
-3.98476	1.35721	-0.348624	
-4.12326	1.92786	-0.448231	
-2.46619	1.94512	-0.299216	
-4.55401	0.0721374	-0.398427	
-3.92079	0.0533506	-0.375148	
-3.41551	0	-0.298821	
-4.55401	0.215036	-0.398427	
-5.03342	0.171582	-0.476511	
-3.41551	0.143615	-0.298821	
-3.41551	0.286611	-0.298821	
-4.55401	0.358269	-0.398427	
-3.93458	0.326064	-0.373508	
-3.93237	0.252841	-0.373815	
-3.98476	0.714404	-0.348624	
-3.98476	0.786116	-0.348624	
-4.49456	0.754574	-0.424482	
-3.422	2	-0.359792	
-3.34931	2	-0.356845	
-4.52492	1.91204	-0.457923	
-3.43723	1.66657	-0.360438	
-3.93652	1.60722	-0.407351	
-3.24789	0.446925	-0.353324	
-3.19495	0.397747	-0.351841	
-4.40764	0.354616	-0.453599	
-2.98476	2	-0.348624	
-3.98476	1.42879	-0.348624	
-2.84626	2	-0.249017	
-3.35597	2	-0.324884	
-4.55401	1.92786	-0.398427	
-3.13082	2	-0.350408	
-2.4886	2	-0.299464	
-3.09574	1.93956	-0.349795	
-2.89276	1.94176	-0.311696	
-4.67381	1.9167	-0.464241	
-3.49438	2	-0.362894	
-3.98476	1.21388	-0.348624	
-3.36384	1.19029	-0.323913	
-3.98476	1.14216	-0.348624	
-3.98476	1.2856	-0.348624	
-3.92306	1.25405	-0.37492	
-4.55401	1.78496	-0.398427	
-3.98476	1.85639	-0.348624	
-2.80237	1.82617	-0.272914	
-3.35655	0.114671	-0.32482	
-4.48076	1.46922	-0.425745	
-4.43525	1.38862	-0.427394	
-3.17956	0.824164	-0.35146	
-3.7259	0.897364	-0.40074	
-3.10176	0.840188	-0.349892	
-3.8274	1.46561	-0.37726	
-3.55401	1	-0.398427	
-4.1834	0.999321	-0.448726	
-4.12326	1.07055	-0.448231	
-3.44607	1.60348	-0.360815	
-3.07728	0.356544	-0.349521	
-2.57234	0.353408	-0.300817	
-3.12169	0.427857	-0.350237	
-3.98652	1.82506	-0.409396	
-3.99021	1.7382	-0.409551	
-2.90884	1.77788	-0.312388	
-3.49953	1.71777	-0.363115	
-3.54742	1.78088	-0.365137	
-4.15006	1.70728	-0.416277	
-4.19011	1.79378	-0.417948	
-3.40073	1.54291	-0.358903	
-3.33848	1.8351	-0.356432	
-4.30835	1.45384	-0.423719	
-3.70457	1.53294	-0.372212	
-3.65708	1.49429	-0.369845	
-4.26679	1.28284	-0.421662	
-4.74435	1.30815	-0.467095	
-3.63486	1.23305	-0.368784	
-4.93095	1.05577	-0.475829	
-3.83093	0.974397	-0.377333	
-3.30196	1.02275	-0.327736	
-3.55831	0.65903	-0.365582	
-4.11369	0.738857	-0.414817	
-3.49127	0.685529	-0.36276	
-4.08899	1.33866	-0.413781	
-4.09867	1.25226	-0.41419	
-4.12326	1.42879	-0.448231	
-3.63911	1.46516	-0.399223	
-4.12326	1.49933	-0.448231	
-3.07223	0.918262	-0.349452	
-4.38893	0.881052	-0.453008	
-3.33536	0.891355	-0.356314	
-3.32183	0.954992	-0.355812	
-3.01433	0.867158	-0.316778	
-3.63215	0.817822	-0.368658	
-4.21914	0.888323	-0.4193	
-3.72947	0.589259	-0.400818	
-3.8118	0.618435	-0.402966	
-3.74651	0.676586	-0.401208	
-3.78323	0	-0.375871	
-3.85452	0	-0.377611	
-4.41462	0.0790961	-0.427353	
-3.46472	1.27156	-0.361616	
-3.45429	1.20368	-0.361168	
-3.50498	0.496767	-0.363348	
-3.54169	0.442032	-0.364899	
-4.15568	0.502871	-0.416495	
-4.19138	0.698424	-0.418005	
-3.38939	1.23016	-0.358438	
-3.34003	1.27217	-0.356491	
-3.88036	1.19537	-0.405228	
-2.83938	1.2898	-0.309428	
-3.05044	1.02577	-0.318289	
-4.21339	0.967174	-0.419025	
-3.6981	1.0342	-0.371887	
-4.60608	1.00672	-0.461346	
-3.50437	0.93866	-0.363322	
-3.55593	0.987296	-0.365485	
-3.932	0.378981	-0.407172	
-3.42359	0.426844	-0.359859	
-3.93993	0.470462	-0.407487	
-4.47188	1.87857	-0.426324	
-4.45764	1.79633	-0.426957	
-3.8231	1.84585	-0.377163	
-3.61282	0.270573	-0.367789	
-3.02887	0.200611	-0.31736	
-4.23463	0.193571	-0.420055	
-4.17292	0.123897	-0.417199	
-3.54727	0.249496	-0.36513	
-3.53817	0.173576	-0.364753	
-4.42526	1.20923	-0.427418	
-3.82589	1.13932	-0.377227	
-3.91051	1.13751	-0.376015	
-3.6631	0.531427	-0.370139	
-3.664	0.463982	-0.370183	
-3.60716	0.427199	-0.367544	
-3.67388	0.382421	-0.370673	
-3.29111	0.742778	-0.327812	
-4.43541	0.813881	-0.427393	
-4.1581	0.580015	-0.416591	
-3.66788	1.7199	-0.370375	
-4.25036	0.757182	-0.420837	
-3.12628	0.698895	-0.321955	
-3.75468	0.732194	-0.374647	
-3.735	0.893597	-0.373719	
-3.70204	0.830458	-0.372085	
-4.35405	0.834567	-0.425736	
-3.85223	1.53139	-0.377602	
-3.79966	1.59044	-0.376477	
-3.77531	1.5207	-0.37555	
-3.89997	1.10613	-0.405944	
-3.26068	1.13654	-0.353721	
-4.39552	0.567577	-0.427039	
-4.46265	0.624293	-0.426772	
-3.82046	0.641057	-0.377098	
-3.75211	0.667946	-0.374529	
-3.752	0.607392	-0.374524	
-4.31319	0.97644	-0.42395	
-3.92522	0	-0.374688	
-3.41777	1.40806	-0.359614	
-3.45045	1.34451	-0.361002	
-3.48402	1.41675	-0.362448	
-3.44494	1.48085	-0.360767	
-4.11943	1.43176	-0.415053	
-3.50962	1.49613	-0.363547	
-3.5756	0.925911	-0.366271	
-3.74264	1.74077	-0.374085	
-4.8819	1.66215	-0.473728	
-3.23843	1.70694	-0.326935	
-4.12326	1.71339	-0.448231	
-4.19372	1.77904	-0.448843	
-4.12326	1.78496	-0.448231	
-3.78323	2	-0.375871	
-4.39507	1.92525	-0.427029	
-3.85452	2	-0.377611	
-3.61564	0.350099	-0.367912	
-3.55193	0.315549	-0.365322	
-3.31174	1.02327	-0.355447	
-3.95057	1.02942	-0.407913	
-3.30679	0.0746863	-0.35527	
-3.3415	0.130322	-0.356547	
-3.83656	0.159825	-0.403736	
-3.84894	0.255296	-0.404142	
-2.75355	0.198868	-0.306044	
-3.38487	0.185075	-0.358254	
-3.80172	0.53229	-0.402668	
-5.26177	0.358269	-0.547838	
-3.55401	0.286611	-0.398427	
-3.04695	0.283499	-0.349141	
-4.12326	0.143615	-0.448231	
-3.63179	0.19815	-0.399129	
-4.12326	0.215036	-0.448231	
-4.26803	0.268711	-0.44999	
-4.06363	0	-0.412697	
-2.99791	0	-0.316134	
-3.57399	0.0522709	-0.366208	
-2.73857	0.233077	-0.277841	
-4.43239	0.293965	-0.42741	
-4.14606	1.52249	-0.416122	
-3.5753	1.6164	-0.366259	
-3.51568	1.57352	-0.363805	
-3.51122	1.65009	-0.363615	
-3.87284	1.59898	-0.377518	
-3.71171	0	-0.37257	
-3.65713	0.0589648	-0.369847	
-3.63908	0	-0.368982	
-3.15717	1.47391	-0.350947	
-3.80914	1.46129	-0.402887	
-3.78666	1.53681	-0.402241	
-4.24771	0.286849	-0.420705	
-3.2982	0.724627	-0.354968	
-2.73913	0.784216	-0.305523	
-3.81621	0.788387	-0.403099	
-4.38224	0.223399	-0.4267	
-3.22967	1.34531	-0.326648	
-3.22492	1.40661	-0.326481	
-4.30138	1.36487	-0.423383	
-3.76695	1.29047	-0.375195	
-3.21124	0.414541	-0.325959	
-3.72777	0.434011	-0.373366	
-4.30624	0.349215	-0.423618	
-3.84336	0.422964	-0.377528	
-4.36299	0.489015	-0.426072	
-3.86567	0.488653	-0.377593	
-2.44677	1.24582	-0.26704	
-3.57123	1.18695	-0.366099	
-3.17113	1.58611	-0.324174	
-2.74267	0.42229	-0.30565	
-2.76485	0.312816	-0.306464	
-3.98381	0.310713	-0.409282	
-3.36396	0.255176	-0.357417	
-3.4298	0.23291	-0.360122	
-4.89927	1.20734	-0.47453	
-3.63026	1.1572	-0.368571	
-3.69951	1.15129	-0.371958	
-3.119	1.2101	-0.321588	
-4.20878	1.08885	-0.418806	
-3.24291	1.61914	-0.353173	
-3.26175	1.69424	-0.353755	
-3.7524	1.67616	-0.40135	
-3.31063	1.64844	-0.355407	
-3.33904	1.72086	-0.356453	
-3.68407	0.644913	-0.371182	
-3.18318	1.94629	-0.324741	
-4.2497	1.93331	-0.420804	
-3.75386	1.88539	-0.37461	
-3.73475	0.0804625	-0.400936	
-2.53661	0.127785	-0.300156	
-2.54785	1.88257	-0.30035	
-3.73782	1.92762	-0.401006	
-3.20439	0.21589	-0.352086	
-3.17582	0.273142	-0.324397	
-3.73817	0.209198	-0.373872	
-3.16445	0.143339	-0.323852	
-3.80433	0.145092	-0.376632	
-3.11198	0.115792	-0.321236	
-3.681	1.85807	-0.371028	
-3.61525	1.88373	-0.367895	
-3.03625	1.94611	-0.31767	
-2.99791	2	-0.316134	
-3.63908	2	-0.368982	
-3.36618	0.682902	-0.32358	
-4.55401	0.64279	-0.398427	
-2.89275	1.88295	-0.311695	
-3.3399	1.53147	-0.356486	
-3.31747	1.46174	-0.355654	
-3.38195	1.47178	-0.358135	
-3.88436	1.08229	-0.377278	
-2.62389	0.329519	-0.301992	
-3.61655	0.43708	-0.398949	
-3.55401	0.429861	-0.398427	
-2.80562	1.67699	-0.308047	
-3.29257	1.57544	-0.354774	
-3.11903	1.60691	-0.32159	
-3.64656	1.65508	-0.369337	
-3.74764	1.81461	-0.374321	
-3.1176	1.78507	-0.321518	
-2.6227	0.749751	-0.301962	
-3.2418	0.701087	-0.35314	
-3.69102	0.758919	-0.400041	
-3.98476	0.429861	-0.348624	
-4.48788	0.409639	-0.425155	
-3.81579	1.77163	-0.376975	
-4.45465	1.71936	-0.427051	
-3.74775	1.1716	-0.401238	
-3.2113	1.09553	-0.352271	
-3.8533	1.76477	-0.404287	
-2.79199	1.7791	-0.307506	
-3.48476	0.277236	-0.362479	
-4.02923	0.151691	-0.411215	
-2.99723	1.84554	-0.316107	
-3.50027	1.83711	-0.363147	
-3.38079	1.33945	-0.358088	
-3.35182	1.40104	-0.356942	
-3.22479	0.297567	-0.326476	
-3.81344	0.357474	-0.37691	
-3.04099	0.760525	-0.317873	
-3.56055	0.810302	-0.365672	
-3.46858	0.749841	-0.361782	
-3.40356	0.751361	-0.359021	
-3.42584	0.686344	-0.359954	
-3.49523	0.810027	-0.36293	
-3.42992	0.81571	-0.360127	
-4.69251	1.64173	-0.498034	
-3.05041	1.65788	-0.34918	
-4.55401	1	-0.398427	
-4.55401	1.07055	-0.398427	
-3.36688	1.0308	-0.323478	
-2.48027	1.5272	-0.299367	
-4.12326	1.57014	-0.448231	
-2.83592	0.121062	-0.309284	
-3.45179	0.068568	-0.36106	
-3.51928	0.0968802	-0.363958	
-4.12326	1.85639	-0.448231	
-3.62072	1.8723	-0.398996	
-4.12326	0.0721374	-0.448231	
-3.04499	0.116381	-0.34912	
-3.551	0.378957	-0.365284	
-4.12326	1.2856	-0.448231	
-3.05052	1.33655	-0.349181	
-4.12326	1.35721	-0.448231	
-2.87043	1.07097	-0.310739	
-3.44617	1.13809	-0.360819	
-2.82305	1.10545	-0.308753	
-3.49926	1.08867	-0.363103	
-3.46053	0.876824	-0.361436	
-3.39886	0.882801	-0.358826	
-3.93435	0.819303	-0.407265	
-3.61851	1.38959	-0.368039	
-3.04281	1.45442	-0.317952	
-3.67728	1.41914	-0.370842	
-2.91929	0.213959	-0.312839	
-3.44651	0.621411	-0.360834	
-3.40869	0.549577	-0.359234	
-3.47009	0.556476	-0.361847	
-3.43782	0.491713	-0.360463	
-4.31991	0.0712931	-0.424266	
-3.37852	1.1672	-0.357997	
-3.63397	1.57159	-0.368743	
-3.17834	0.47164	-0.351431	
-3.36282	0.476615	-0.324051	
-4.4765	0.546631	-0.426043	
-3.55401	0.500665	-0.398427	
-3.04474	0.802839	-0.349117	
-2.55073	0.646217	-0.300402	
-2.52855	0.69766	-0.300024	
-3.0979	1.17495	-0.349829	
-3.61949	1.0996	-0.398982	
-3.70391	1.1007	-0.400285	
-3.81207	1.32398	-0.402974	
-2.60501	1.29855	-0.301531	
-3.20407	1.24767	-0.352077	
-3.38669	0.61668	-0.358328	
-3.34955	0.546139	-0.356855	
-2.72162	0.561624	-0.304912	
-3.30275	0.491616	-0.355127	
-2.61137	1.0418	-0.301682	
-3.24126	1.02609	-0.353124	
-3.75147	0.976287	-0.401328	
-3.25835	0.965074	-0.353648	
-3.39084	0.954567	-0.358497	
-3.11835	1.62515	-0.350176	
-2.61045	1.59965	-0.30166	
-3.30865	0.360303	-0.327628	
-3.05494	1.5889	-0.349233	
-3.31249	1.33334	-0.355474	
-3.28615	1.39903	-0.354555	
-3.27374	1.2624	-0.354142	
-3.93048	0.683934	-0.407113	
-3.91654	0.967445	-0.375537	
-5.03682	0.89983	-0.476355	
-3.80306	0.914042	-0.376591	
-3.55291	1.0505	-0.365362	
-3.1937	1.13415	-0.325216	
-3.1501	1.09375	-0.323148	
-2.89173	1.5431	-0.311652	
-3.81098	0.770923	-0.376838	
-3.17586	0.785107	-0.324399	
-3.09852	1.34839	-0.320566	
-4.42094	1.29694	-0.427402	
-3.83452	1.65281	-0.377399	
-3.62558	1.25411	-0.399053	
-3.11455	1.32162	-0.350108	
-3.05173	0.633745	-0.318346	
-3.67509	0.587288	-0.370733	
-3.87578	0.6882	-0.377472	
-3.52168	0.873522	-0.36406	
-2.43339	1.36753	-0.266519	
-3.71171	2	-0.37257	
-2.67404	1.1987	-0.303381	
-3.48809	0.394274	-0.362623	
-3.48743	0.336713	-0.362594	
-3.80948	0.702848	-0.376793	
-3.98476	0.929454	-0.348624	
-3.98476	0.857842	-0.348624	
-3.33085	1.94387	-0.326854	
-3.50939	1.16572	-0.363537	
-3.56613	1.11814	-0.365896	
-3.77194	1.79696	-0.401845	
-2.64169	1.73661	-0.302457	
-2.86283	0.370041	-0.310415	
-2.91112	0.446178	-0.312487	
-2.8753	0.936014	-0.310947	
-1.94789	1.0523	-0.250045	
-3.12437	1.01699	-0.350286	
-3.98476	1.49933	-0.348624	
-3.6372	0.586375	-0.399198	
-3.67372	0.509874	-0.39974	
-3.92319	1.54624	-0.374906	
-2.72926	0.664255	-0.305176	
-2.7804	0.750955	-0.307055	
-2.73244	0.837223	-0.305287	
-4.12326	1.21388	-0.448231	
-2.4668	1.17543	-0.299222	
-4.12326	0.929454	-0.448231	
-2.46766	0.873321	-0.299231	
-4.69251	0.857842	-0.498034	
-3.0413	0.725606	-0.34908	
-4.12326	0.786116	-0.448231	
-4.12326	0.714404	-0.448231	
-3.05731	0.653203	-0.349261	
-4.12326	0.64279	-0.448231	
-4.69251	0.571209	-0.498034	
-4.12326	1.14216	-0.448231	
-2.54678	0.957788	-0.300331	
-2.07305	0.930031	-0.252671	
-3.32557	0.613315	-0.35595	
-3.37151	1.6049	-0.322737	
-2.96117	0.552048	-0.314625	
-3.50999	0.616488	-0.363562	
-3.69608	1.54065	-0.400135	
-3.14381	0.177963	-0.350665	
-3.13051	1.24487	-0.350402	
-3.6858	1.39957	-0.399947	
-2.63631	0.139289	-0.302314	
-3.10776	1.69928	-0.349991	
-3.14078	1.75272	-0.350604	
-3.17925	1.35868	-0.351453	
-2.66276	1.39206	-0.303048	
-2.61627	1.42097	-0.301801	
-3.1183	1.81911	-0.350175	
-3.91813	1.6612	-0.375397	
-3.98476	1.71339	-0.348624	
-3.15537	0.496577	-0.323408	
-3.74841	0.549039	-0.374357	
-2.59858	1.85508	-0.301382	
-2.46934	0.520218	-0.299248	
-2.02935	0.528047	-0.251579	
-3.98476	1.57014	-0.348624	
-4.55401	0.500665	-0.398427	
-2.55389	0.932053	-0.271993	
-2.70781	1.07414	-0.304447	
-2.71125	1.51028	-0.304562	
-4.55401	1.64173	-0.398427	
-2.64752	0.282674	-0.302617	
-3.98476	0.571209	-0.348624	
-2.80167	0.59575	-0.273033	
-1.91178	1.71321	-0.249572	
-3.86785	1.88726	-0.404785	
-3.35931	0.827624	-0.324498	
-2.698	1.82622	-0.304127	
-2.47849	1.40032	-0.299347	
-3.22278	1.87065	-0.352587	
-2.69911	0.866054	-0.277843	
-2.66628	1.24863	-0.27704	
-2.75667	1.94589	-0.306159	
-2.79921	1.75284	-0.273431	
-2.1456	1.94185	-0.254879	
-3.94849	0.611259	-0.308124	
-4.49767	0.691022	-0.348253	
-3.37622	0.951279	-0.256722	
-4.50384	0.885946	-0.351005	
-3.47327	0	-0.257853	
-3.40493	0	-0.265054	
-4.01339	0.0792566	-0.310484	
-4.1933	0	-0.429745	
-2.52331	0.0639973	-0.271141	
-3.12425	0	-0.313638	
-3.03791	0.0936441	-0.334425	
-3.33378	0	-0.274569	
-3.26322	0	-0.285923	
-3.30632	0.0798839	-0.278766	
-3.3872	0.821071	-0.262887	
-3.94731	1.45488	-0.307491	
-3.95036	1.89867	-0.309153	
-2.90402	2	-0.20805	
-3.5449	2	-0.252519	
-4.09197	1.91895	-0.303719	
-2.52675	1.93754	-0.270331	
-3.04301	1.90585	-0.333118	
-3.0548	2	-0.330139	
-3.12425	2	-0.313638	
-3.40493	2	-0.265054	
-3.36923	1.92228	-0.269579	
-3.33378	2	-0.274569	
-3.5815	1.85759	-0.250746	
-4.07628	1.82278	-0.304848	
-3.87117	0.600657	-0.329268	
-3.24683	0.663037	-0.288825	
-3.88345	0.68441	-0.327337	
-3.03956	0.939959	-0.334	
-3.04863	1.33496	-0.331691	
-4.06175	1.68417	-0.305993	
-2.95326	1.74973	-0.204126	
-4.72742	1.71007	-0.350082	
-3.29935	1.02684	-0.279876	
-3.87905	0.943151	-0.328022	
-3.24417	0.965528	-0.289306	
-3.07507	0.553448	-0.325137	
-3.03213	0.495631	-0.335915	
-3.73452	1.36962	-0.254551	
-4.80474	1.42353	-0.349923	
-3.74508	1.43872	-0.255611	
-4.42	1.02505	-0.323212	
-3.78462	0.965827	-0.260647	
-4.32702	1.04082	-0.306843	
-4.26589	1.21008	-0.301465	
-4.92391	1.26463	-0.360372	
-3.7794	1.19252	-0.259881	
-3.28817	1.8275	-0.281695	
-3.86973	1.91186	-0.329499	
-3.92484	1.83465	-0.321245	
-3.98849	1.04863	-0.313187	
-3.3587	1.0111	-0.271011	
-3.91141	1.09426	-0.323149	
-2.84189	1.10778	-0.214515	
-4.06128	1.09436	-0.306032	
-3.52796	0.92332	-0.253564	
-3.56616	0.983948	-0.251407	
-4.7476	0.912712	-0.349567	
-2.9837	1.65028	-0.202268	
-3.03751	1.64109	-0.2002	
-4.12831	1.58611	-0.301557	
-3.05498	0.621253	-0.330093	
-2.5522	0.607584	-0.264465	
-3.73044	0.544593	-0.355389	
-3.75111	0.626188	-0.351099	
-3.98637	0.883867	-0.31343	
-3.37607	0.814004	-0.268673	
-3.35174	0.883506	-0.27198	
-2.80107	0.94284	-0.21963	
-2.74798	0.823889	-0.22726	
-3.2826	0.86549	-0.28262	
-3.72801	0.577518	-0.253954	
-4.29476	0.659851	-0.303539	
-3.78972	0.634606	-0.261427	
-3.72585	0.0913029	-0.356363	
-3.08538	0.141129	-0.322653	
-3.51151	1.15841	-0.25471	
-4.73682	1.18235	-0.349802	
-2.99272	1.11752	-0.201805	
-4.43868	0.938839	-0.328014	
-3.35004	0.99711	-0.24486	
-3.5447	0.516229	-0.25253	
-4.14228	0.597248	-0.300899	
-3.61908	0.53029	-0.249826	
-3.96411	1.25683	-0.316082	
-3.94407	1.17353	-0.318641	
-3.32634	1.22905	-0.275678	
-4.4597	1.10599	-0.334216	
-3.93434	1.05145	-0.301091	
-3.89115	1.1866	-0.284638	
-3.9442	1.17077	-0.305866	
-4.45005	1.39834	-0.377552	
-2.74669	1.4857	-0.22746	
-3.37613	1.4682	-0.268665	
-4.27821	0.907417	-0.302252	
-3.65599	0.841878	-0.250049	
-5.04413	0.492781	-0.389124	
-3.27975	0.543817	-0.223185	
-3.89791	0.570722	-0.286848	
-3.67599	1.72433	-0.250657	
-3.63191	1.78876	-0.249774	
-3.54625	0.853718	-0.252442	
-3.45921	0.389993	-0.259172	
-2.89739	0.316743	-0.208661	
-3.40502	0.343184	-0.265043	
-3.57963	0.780432	-0.25082	
-3.02934	0.84375	-0.200384	
-3.64969	0.770799	-0.249929	
-3.49484	0.577671	-0.255999	
-3.62862	1.02428	-0.378801	
-3.83065	0.237428	-0.336045	
-3.27724	0.153222	-0.28352	
-3.20963	0.163431	-0.295777	
-3.92171	0.159631	-0.321683	
-3.69913	1.80219	-0.251809	
-3.1598	1.86234	-0.204244	
-3.77802	1.80354	-0.259684	
-3.60719	0.329138	-0.249995	
-4.25112	0.30982	-0.300707	
-4.19901	0.244444	-0.299577	
-3.63931	0.391669	-0.249806	
-2.66957	1.03303	-0.240477	
-3.60759	0.717798	-0.249987	
-3.52596	0.718603	-0.253696	
-2.99464	0.665477	-0.201711	
-3.63899	0.658642	-0.249804	
-2.89583	1.87015	-0.208807	
-3.42943	1.80864	-0.262247	
-3.00087	1.78424	-0.201421	
-3.457	1.74797	-0.259387	
-3.70448	0.386445	-0.252146	
-3.73453	0.441074	-0.254551	
-3.77386	0.365688	-0.259103	
-3.54576	1.25637	-0.25247	
-3.62061	1.24657	-0.249813	
-3.56861	1.3122	-0.251293	
-3.06488	1.30199	-0.199976	
-3.69412	1.27096	-0.251518	
-3.4197	0.276367	-0.263332	
-4.47696	0.292881	-0.373491	
-2.80456	0.234809	-0.219166	
-2.74864	0.216682	-0.227158	
-3.79635	0.891352	-0.262487	
-3.5957	1.48059	-0.250266	
-3.51984	1.4429	-0.254114	
-4.0874	1.51083	-0.304036	
-3.44846	1.45569	-0.260239	
-3.60821	1.36546	-0.249976	
-3.67867	1.34038	-0.250766	
-3.34423	1.70558	-0.273048	
-3.35921	1.63351	-0.27094	
-3.28725	1.65739	-0.281847	
-3.20807	0.837679	-0.29608	
-3.25236	0.792044	-0.287836	
-3.26461	1.09876	-0.285682	
-3.86368	1.30603	-0.330475	
-2.6785	1.35315	-0.238856	
-4.22986	0.166399	-0.299961	
-3.5788	0.169498	-0.250854	
-3.78173	1.40455	-0.345031	
-3.94722	0.41495	-0.318229	
-3.99978	0.474418	-0.31193	
-4.23483	1.05334	-0.3001	
-3.70648	0.984567	-0.252279	
-3.66992	1.13834	-0.250435	
-3.30469	0.452043	-0.279024	
-3.8711	0.374434	-0.32928	
-2.67667	0.42015	-0.239186	
-3.79419	0.484457	-0.34266	
-3.82251	0	-0.26722	
-3.83915	0.0667918	-0.27072	
-3.8869	0	-0.2833	
-3.82251	2	-0.26722	
-3.22173	1.94291	-0.211821	
-3.18281	2	-0.206572	
-3.8601	0.853126	-0.275736	
-3.8869	2	-0.2833	
-4.42278	1.92333	-0.323888	
-2.91304	0.506745	-0.207249	
-3.42926	0.56183	-0.262265	
-3.43703	0.636864	-0.261427	
-3.36794	0.546278	-0.269752	
-3.36866	0.617676	-0.269655	
-4.3392	0.078087	-0.308378	
-4.29928	1.56345	-0.303938	
-3.21284	1.62497	-0.210468	
-3.81419	1.57191	-0.265616	
-4.44138	0.153301	-0.328759	
-4.44561	0.252546	-0.32996	
-3.35833	0.211952	-0.248287	
-3.50037	0.650538	-0.255557	
-4.01895	0.718414	-0.309917	
-3.43896	0.798942	-0.261222	
-3.50601	0.786413	-0.255121	
-2.8152	0.678765	-0.217784	
-3.37871	0.741319	-0.268329	
-4.50419	1.80752	-0.351169	
-3.8862	1.74768	-0.283082	
-4.42646	1.83308	-0.324805	
-3.44654	1.20637	-0.260435	
-3.73105	1.92648	-0.355261	
-3.67537	1.86025	-0.367578	
-3.90588	0.344499	-0.289607	
-3.93179	0.410465	-0.299934	
-4.33613	0.282592	-0.307976	
-4.40596	0.338159	-0.319984	
-4.06281	0.251286	-0.305906	
-2.98093	0.217721	-0.202418	
-4.05574	0.164212	-0.306496	
-3.63146	0.230355	-0.378095	
-4.18701	1.93673	-0.299643	
-3.87459	1.26103	-0.279651	
-3.9382	1.24459	-0.302897	
-3.85961	1.32491	-0.275609	
-4.49948	1.31978	-0.349044	
-4.36157	0.804788	-0.31164	
-4.43339	0.759874	-0.326591	
-3.80135	0.714139	-0.263324	
-3.42768	0.206449	-0.262439	
-2.84286	0.138218	-0.214402	
-3.10801	1.72394	-0.317336	
-3.07301	1.78328	-0.325638	
-3.72131	1.79352	-0.357333	
-3.50558	1.03613	-0.255154	
-4.14797	1.05319	-0.30066	
-3.62947	0.992616	-0.249774	
-3.05015	1.10914	-0.20002	
-4.37083	0.204267	-0.313166	
-3.71308	0.22975	-0.252744	
-3.48165	0.863551	-0.257108	
-3.46359	0.938032	-0.258752	
-3.2602	1.76807	-0.218826	
-4.38759	1.69808	-0.316208	
-3.74654	1.73846	-0.255766	
-3.80351	0.425321	-0.263694	
-3.75956	0.500006	-0.257255	
-3.66308	0.456585	-0.250224	
-3.6906	0.51622	-0.251327	
-3.18472	0.232607	-0.300714	
-3.35876	1.33248	-0.271002	
-3.43431	1.52656	-0.261717	
-3.92868	1.55451	-0.320713	
-4.00477	1.60907	-0.311391	
-2.67481	0.903738	-0.239522	
-3.73967	0.902651	-0.353455	
-3.68449	0	-0.251023	
-3.61328	0	-0.249894	
-3.63587	0.051764	-0.249786	
-3.5449	0	-0.252519	
-3.56616	0.0537652	-0.251407	
-3.46292	1.3862	-0.258816	
-3.3922	1.3946	-0.266609	
-3.46878	1.26486	-0.258265	
-2.94799	1.21166	-0.204493	
-3.4259	1.32507	-0.262635	
-3.49688	1.32038	-0.255834	
-3.33864	0.814456	-0.240526	
-3.23249	1.88165	-0.291445	
-3.66031	0.594595	-0.25015	
-3.38698	1.38879	-0.262756	
-3.90652	1.39048	-0.289837	
-3.74307	0.75837	-0.352749	
-3.13041	0.821275	-0.31226	
-3.93908	0.75743	-0.30332	
-3.79084	1.60921	-0.343291	
-3.22134	1.68446	-0.293535	
-2.64544	1.75212	-0.244998	
-3.84604	1.73879	-0.333399	
-3.70689	1.59941	-0.360465	
-3.1527	1.66432	-0.307393	
-4.28808	1.93182	-0.302988	
-3.79366	1.87756	-0.26205	
-3.94732	0.146224	-0.307496	
-3.38455	1.10891	-0.261305	
-3.37871	0.544978	-0.258037	
-3.74291	1.32361	-0.352784	
-3.23179	0.0813768	-0.291576	
-3.19439	0	-0.298772	
-3.2663	1.21454	-0.220124	
-3.83526	1.14931	-0.269865	
-3.65815	1.87232	-0.250097	
-3.13497	1.24379	-0.31125	
-3.09682	1.29411	-0.319943	
-3.20099	1.24385	-0.297464	
-3.29899	1.16415	-0.279935	
-4.30888	0.398041	-0.403266	
-3.62795	1.20048	-0.378968	
-3.04798	1.11243	-0.331857	
-3.2345	0.560548	-0.291073	
-3.29926	0.523541	-0.27989	
-4.29719	1.65544	-0.303751	
-3.59659	0.109422	-0.250241	
-2.83803	1.86761	-0.21497	
-3.4407	1.9304	-0.261039	
-3.1789	0.741046	-0.206138	
-3.85812	0.676971	-0.275231	
-2.61883	0.693471	-0.250233	
-3.24707	0.726744	-0.288782	
-3.31404	0.760134	-0.277557	
-2.10236	0.61385	-0.190299	
-2.46196	0.170423	-0.286351	
-3.16078	1.15632	-0.204331	
-3.14811	1.09603	-0.203266	
-3.77485	1.1197	-0.259239	
-2.60436	1.85832	-0.253185	
-3.22685	1.8111	-0.292496	
-3.88652	1.45652	-0.283182	
-3.84699	1.39372	-0.272513	
-2.6617	1.94352	-0.241927	
-3.26322	2	-0.285923	
-3.71074	0.79232	-0.252574	
-3.16629	0.850283	-0.204845	
-3.6863	0.718066	-0.25111	
-3.1363	0.180772	-0.310957	
-3.66064	1.51591	-0.250159	
-4.22283	1.59438	-0.299802	
-3.14344	1.48768	-0.202913	
-3.77948	1.50665	-0.259893	
-2.47125	1.83632	-0.283955	
-3.83494	1.53312	-0.335298	
-2.62479	1.54488	-0.249038	
-3.03797	1.71558	-0.334409	
-4.47552	1.66217	-0.339551	
-3.23009	0.358669	-0.291892	
-3.17344	0.310734	-0.303024	
-3.21926	1.39867	-0.211436	
-3.81872	1.4537	-0.266477	
-3.79823	1.33896	-0.262797	
-3.59256	0.46147	-0.250358	
-3.00409	0.394907	-0.201279	
-4.08393	0.433969	-0.304283	
-3.0173	1.42238	-0.200753	
-3.53316	1.37641	-0.253229	
-3.84517	0.606335	-0.272087	
-3.08168	0.879786	-0.32354	
-3.09303	0.752034	-0.320834	
-3.04979	0.815753	-0.331397	
-3.69045	1.38066	-0.364129	
-4.4973	1.52165	-0.348095	
-3.85305	1.51493	-0.273967	
-3.25163	1.08423	-0.217095	
-3.05011	1.59815	-0.331317	
-3.04403	2	-0.200091	
-3.79229	1.16076	-0.343017	
-2.59737	1.18618	-0.25464	
-2.87486	1.14984	-0.210881	
-3.263	1.23168	-0.285961	
-3.10889	1.16237	-0.317135	
-3.41478	1.68406	-0.263895	
-2.59559	0.333428	-0.154904	
-3.05062	1.52552	-0.331189	
-3.09706	0.488947	-0.319886	
-2.72539	1.59304	-0.230833	
-3.88545	1.57917	-0.282855	
-3.07515	1.65719	-0.325119	
-3.79001	0.559694	-0.261471	
-3.82787	0.490232	-0.268303	
-3.11401	0.956713	-0.315959	
-3.18466	0.989568	-0.300726	
-3.38887	1.75665	-0.267027	
-2.75978	1.77244	-0.225471	
-2.59863	1.72615	-0.254376	
-2.70668	0.310718	-0.233937	
-2.65413	0.290342	-0.243346	
-2.66516	1.29539	-0.241286	
-3.68449	2	-0.251023	
-2.79204	0.482459	-0.22085	
-3.1702	1.30941	-0.205229	
-3.52282	0.109198	-0.253908	
-3.1376	1.03572	-0.310671	
-3.19863	1.07584	-0.297929	
-3.19439	2	-0.298772	
-3.33087	0.633303	-0.237795	
-3.86709	0.422033	-0.277575	
-2.68377	0.266461	-0.167566	
-3.12101	0.262786	-0.31437	
-3.08913	1.66446	-0.200299	
-3.02642	1.54135	-0.200463	
-3.07885	0.371856	-0.324222	
-2.5419	0.429791	-0.266811	
-2.92058	1.56661	-0.206607	
-2.935	1.62234	-0.205452	
-2.20416	1.2804	-0.173666	
-3.04711	0.68957	-0.332075	
-2.46255	0.753859	-0.286196	
-3.94452	0.285029	-0.306033	
-2.46664	1.26259	-0.285141	
-4.51526	0	-0.356605	
-2.47459	1.39629	-0.283102	
-3.63927	1.45609	-0.376174	
-3.05516	0.308608	-0.330049	
-3.6899	0.682551	-0.364254	
-3.04417	0.423502	-0.332824	
-3.946	2	-0.306802	
-2.93688	0.980727	-0.205308	
-3.70116	1.51237	-0.361732	
-3.15521	1.11653	-0.306856	
-2.99444	0.277428	-0.201721	
-4.09778	0.33864	-0.30333	
-2.53138	1.08627	-0.269247	
-3.09132	0.0993244	-0.200354	
-3.70867	0.0548078	-0.252429	
-1.95567	1.55961	-0.220958	
-3.94592	1.72118	-0.306757	
-3.34174	1.94239	-0.241664	
-3.33356	1.87535	-0.238723	
-2.58895	0.473525	-0.256414	
-2.55245	0.331482	-0.26441	
-3.27643	1.63205	-0.222405	
-3.37423	1.59521	-0.255696	
-3.20469	1.47977	-0.296739	
-3.74453	0.160133	-0.255553	
-3.14341	0.114041	-0.20291	
-2.69402	1.45658	-0.236111	
-3.23894	0.130179	-0.214714	
-3.4129	0.972536	-0.264114	
-3.91771	0.0752793	-0.294035	
-2.93394	0.0509452	-0.205534	
-2.88898	1.00206	-0.209464	
-2.21496	0.356044	-0.172132	
-3.37279	0.0762643	-0.269105	
-2.57902	1.44431	-0.258541	
-3.75206	0	-0.256375	
-2.81607	0.460204	-0.211956	
-2.5231	0.946643	-0.150577	
-3.05908	2	-0.339328	
-3.13807	2	-0.330794	
-3.30163	2	-0.317531	
-3.38764	2	-0.312941	
-3.21863	2	-0.323518	
-4.1332	2	-0.358476	
-4.31135	2	-0.364617	
-3.91402	2	-0.335727	
-3.83069	2	-0.323744	
-3.65295	2	-0.309787	
-4.0437	2	-0.359779	
-4.12326	-0.0721374	-0.448231	
-2.46532	-0.0524234	-0.299207	
-2.73244	-1.94219	-0.305287	
-3.236	-1.93265	-0.352968	
-3.27637	-2	-0.354228	
-3.09541	-0.0610541	-0.34979	
-3.23966	-0.0745946	-0.353076	
-3.38166	-0.063891	-0.358124	
-3.98476	-1.2856	-0.348624	
-3.92303	-1.32684	-0.374922	
-3.98476	-1.35721	-0.348624	
-3.98476	-0.0721374	-0.348624	
-4.55401	-0.215036	-0.398427	
-3.98476	-0.143615	-0.348624	
-3.93353	-0.177622	-0.373656	
-3.41551	-0.286611	-0.298821	
-3.93461	-0.326516	-0.373504	
-4.55401	-0.358269	-0.398427	
-3.9348	-0.255005	-0.373477	
-3.98476	-0.714404	-0.348624	
-4.49458	-0.754353	-0.424479	
-3.98476	-0.786116	-0.348624	
-3.422	-2	-0.359792	
-3.94607	-1.91632	-0.407732	
-3.34931	-2	-0.356845	
-2.4886	-2	-0.299464	
-2.46643	-1.94543	-0.299219	
-2.98476	-2	-0.348624	
-3.93583	-1.39944	-0.373326	
-3.98476	-1.42879	-0.348624	
-2.84626	-2	-0.249017	
-4.55401	-1.92786	-0.398427	
-3.35597	-2	-0.324884	
-3.13082	-2	-0.350408	
-3.09497	-1.9425	-0.349783	
-4.1048	-1.91894	-0.414447	
-3.49438	-2	-0.362894	
-2.99791	-2	-0.316134	
-3.98476	-1.21388	-0.348624	
-3.92294	-1.25457	-0.374932	
-4.55401	-1.78496	-0.398427	
-2.80241	-1.82622	-0.272908	
-3.98476	-1.85639	-0.348624	
-3.17956	-0.824164	-0.35146	
-3.10176	-0.840188	-0.349892	
-3.7259	-0.897364	-0.40074	
-4.12326	-1.07055	-0.448231	
-3.61949	-1.0996	-0.398982	
-4.1834	-0.999321	-0.448726	
-3.36407	-1.67801	-0.357421	
-3.43515	-1.66711	-0.360349	
-3.93695	-1.60664	-0.407368	
-3.24765	-0.446895	-0.353317	
-4.40707	-0.354649	-0.45358	
-3.19383	-0.398171	-0.351812	
-3.988	-1.83141	-0.409458	
-2.90885	-1.78071	-0.312389	
-3.98956	-1.74009	-0.409524	
-4.1499	-1.7075	-0.416271	
-3.49914	-1.71822	-0.363098	
-3.54625	-1.78279	-0.365088	
-4.18984	-1.79397	-0.417935	
-3.44604	-1.60358	-0.360814	
-3.4008	-1.5428	-0.358907	
-2.77747	-1.84473	-0.306942	
-4.30853	-1.45461	-0.423728	
-3.65704	-1.49442	-0.369843	
-3.70452	-1.53304	-0.37221	
-4.84468	-1.28582	-0.4719	
-3.63618	-1.23395	-0.368846	
-4.74552	-1.30809	-0.467145	
-4.92986	-1.05755	-0.475789	
-3.29705	-1.02435	-0.327785	
-3.24846	-0.98494	-0.327224	
-3.5583	-0.659051	-0.365581	
-3.49127	-0.685531	-0.36276	
-4.11369	-0.738859	-0.414817	
-4.0891	-1.33862	-0.413785	
-4.09878	-1.25231	-0.414195	
-4.12326	-1.42879	-0.448231	
-4.12326	-1.49933	-0.448231	
-3.63858	-1.4654	-0.399216	
-3.07223	-0.918262	-0.349452	
-3.12437	-1.01699	-0.350286	
-2.54678	-0.957788	-0.300331	
-4.38893	-0.881052	-0.453008	
-3.25835	-0.965074	-0.353648	
-3.32183	-0.954992	-0.355812	
-3.01434	-0.86716	-0.316778	
-4.21925	-0.888326	-0.419305	
-3.63216	-0.817828	-0.368659	
-3.72947	-0.589278	-0.400818	
-3.74651	-0.676587	-0.401208	
-3.81179	-0.618429	-0.402966	
-4.40605	-0.0745363	-0.42724	
-3.57138	-1.18703	-0.366105	
-3.50941	-1.16574	-0.363538	
-3.50475	-0.496062	-0.363338	
-4.15499	-0.503541	-0.416468	
-3.54039	-0.439924	-0.364846	
-4.19138	-0.698429	-0.418005	
-3.38939	-1.23016	-0.358438	
-3.88036	-1.19538	-0.405227	