<VTKFile type="UnstructuredGrid" version="0.1" byte_order="LittleEndian">
	<UnstructuredGrid>
		<Piece NumberOfPoints="1917" NumberOfCells="56">
			<CellData Scalars="scalars">
				<DataArray type="Float64" Name="Doublet Strengths" NumberOfComponents="1" Format="ascii">
-0.820148	
-3.15844	
-2.40252	
-2.69126	
-3.19314	
-3.35314	
-3.39224	
-3.28092	
-2.52685	
-2.29117	
-1.40559	
-3.86369	
-2.42151	
-3.66455	
-2.32608	
-2.47328	
-3.26577	
-3.05632	
-3.03856	
-2.79543	
-3.18615	
-3.32379	
-2.7093	
-3.26465	
-5.39569	
-2.99658	
-2.16191	
-2.33199	
-5.3948	
-2.41002	
-2.95989	
-3.2591	
-2.79964	
-2.22556	
-1.2204	
-3.81722	
-2.3688	
-2.80774	
-3.25544	
-2.22029	
-2.4046	
-2.97622	
-3.00771	
-2.76455	
-2.6872	
-3.00821	
-2.96009	
-2.78641	
-2.33422	
-2.62419	
-2.86697	
-0.76103	
-1.98556	
-2.3036	
-2.86955	
-1.54419	
				</DataArray>
				<DataArray type="Float64" Name="Velocity Potential" NumberOfComponents="1" Format="ascii">
-416.449	
-478.395	
-500.581	
-500.294	
-521.216	
-499.628	
-478.16	
-521.129	
-521.887	
-500.693	
-501.58	
-499.118	
-500.563	
-456.461	
-522.087	
-500.511	
-521.147	
-499.925	
-521.372	
-500.188	
-478.368	
-499.659	
-500.274	
-521.147	
-497.585	
-499.985	
-500.824	
-500.652	
-497.587	
-500.574	
-521.451	
-478.293	
-500.182	
-479.331	
-501.765	
-499.165	
-500.616	
-478.745	
-499.727	
-500.764	
-500.58	
-521.436	
-499.972	
-500.216	
-500.296	
-478.544	
-478.593	
-521.624	
-500.65	
-500.36	
-521.545	
-416.511	
-501	
-500.681	
-500.111	
-522.869	
				</DataArray>
			</CellData>
			<Points>
				<DataArray type="Float64" Name="Position" NumberOfComponents="3" Format="ascii">
-6.04642	0	-0.610736	
-5.02695	0.0524256	-0.523323	
-7.96571	0	-0.784404	
-6.19247	2	-0.613541	
-6.2237	1.93467	-0.61441	
-7.26113	2	-0.702852	
-6.11939	0	-0.611876	
-6.08398	0.0610502	-0.611258	
-6.22822	0.0745738	-0.614544	
-6.19247	0	-0.613541	
-6.26494	0	-0.615696	
-6.33788	0	-0.618313	
-6.41057	0	-0.62126	
-6.36919	0.0639395	-0.61955	
-5.9295	1.39584	-0.547443	
-6.91133	1.3266	-0.636419	
-6.97333	1.35721	-0.610092	
-7.96571	1.92786	-0.784404	
-5.02782	1.94512	-0.523332	
-7.96952	0.0721374	-0.697248	
-6.90936	0.0533506	-0.636616	
-5.97714	0	-0.522936	
-7.96952	0.215036	-0.697248	
-8.87586	0.171582	-0.812684	
-5.97714	0.143615	-0.522936	
-5.97714	0.286611	-0.522936	
-7.96952	0.358269	-0.697248	
-6.92315	0.326064	-0.634976	
-6.92094	0.252841	-0.635283	
-6.97333	0.714404	-0.610092	
-6.97333	0.786116	-0.610092	
-7.91007	0.754574	-0.723303	
-6.41057	2	-0.62126	
-6.33788	2	-0.618313	
-8.36737	1.91204	-0.794097	
-6.4258	1.66657	-0.621906	
-7.35203	1.60722	-0.706171	
-6.23646	0.446925	-0.614792	
-6.18352	0.397747	-0.613309	
-8.25009	0.354616	-0.789772	
-5.97333	2	-0.610092	
-6.97333	1.42879	-0.610092	
-4.98095	2	-0.43578	
-5.9176	2	-0.549	
-7.96952	1.92786	-0.697248	
-6.11939	2	-0.611876	
-5.05023	2	-0.52358	
-6.08431	1.93956	-0.611263	
-5.45439	1.94176	-0.535811	
-8.51626	1.9167	-0.800414	
-6.48295	2	-0.624362	
-6.97333	1.21388	-0.610092	
-5.92548	1.19029	-0.548028	
-6.97333	1.14216	-0.610092	
-6.97333	1.2856	-0.610092	
-6.91163	1.25405	-0.636388	
-7.96952	1.78496	-0.697248	
-6.97333	1.85639	-0.610092	
-4.93707	1.82617	-0.459677	
-5.91818	0.114671	-0.548935	
-7.89627	1.46922	-0.724565	
-7.85076	1.38862	-0.726214	
-6.16813	0.824164	-0.612928	
-7.14141	0.897364	-0.69956	
-6.09033	0.840188	-0.61136	
-6.81597	1.46561	-0.638728	
-6.96952	1	-0.697248	
-8.02585	0.999321	-0.784899	
-7.96571	1.07055	-0.784404	
-6.43464	1.60348	-0.622283	
-6.06585	0.356544	-0.610989	
-5.13398	0.353408	-0.524932	
-6.11026	0.427857	-0.611705	
-7.40203	1.82506	-0.708217	
-7.40572	1.7382	-0.708372	
-5.47047	1.77788	-0.536504	
-6.4881	1.71777	-0.624583	
-6.53599	1.78088	-0.626605	
-7.56557	1.70728	-0.715098	
-7.60562	1.79378	-0.716768	
-6.3893	1.54291	-0.620371	
-6.32705	1.8351	-0.6179	
-7.72385	1.45384	-0.72254	
-6.69314	1.53294	-0.63368	
-6.64565	1.49429	-0.631313	
-7.6823	1.28284	-0.720483	
-8.5868	1.30815	-0.803268	
-6.62343	1.23305	-0.630252	
-8.77339	1.05577	-0.812002	
-6.8195	0.974397	-0.638801	
-5.86359	1.02275	-0.551852	
-6.54688	0.65903	-0.62705	
-7.5292	0.738857	-0.713637	
-6.47984	0.685529	-0.624228	
-7.5045	1.33866	-0.712602	
-7.51417	1.25226	-0.71301	
-7.96571	1.42879	-0.784404	
-7.05462	1.46516	-0.698044	
-7.96571	1.49933	-0.784404	
-6.0608	0.918262	-0.61092	
-8.23137	0.881052	-0.789181	
-6.32393	0.891355	-0.617782	
-6.3104	0.954992	-0.61728	
-5.57596	0.867158	-0.540893	
-6.62072	0.817822	-0.630126	
-7.63465	0.888323	-0.71812	
-7.14498	0.589259	-0.699638	
-7.22731	0.618435	-0.701786	
-7.16202	0.676586	-0.700029	
-6.7718	0	-0.637339	
-6.84309	0	-0.639079	
-7.83013	0.0790961	-0.726173	
-6.45329	1.27156	-0.623084	
-6.44286	1.20368	-0.622636	
-6.49355	0.496767	-0.624816	
-6.53026	0.442032	-0.626367	
-7.57119	0.502871	-0.715316	
-7.60689	0.698424	-0.716825	
-6.37796	1.23016	-0.619906	
-6.3286	1.27217	-0.617959	
-7.29587	1.19537	-0.704048	
-5.40101	1.2898	-0.533544	
-5.61207	1.02577	-0.542404	
-7.6289	0.967174	-0.717845	
-6.68667	1.0342	-0.633355	
-8.44852	1.00672	-0.797519	
-6.49294	0.93866	-0.62479	
-6.5445	0.987296	-0.626953	
-7.3475	0.378981	-0.705993	
-6.41216	0.426844	-0.621327	
-7.35544	0.470462	-0.706307	
-7.88738	1.87857	-0.725145	
-7.87315	1.79633	-0.725778	
-6.81167	1.84585	-0.638631	
-6.60139	0.270573	-0.629257	
-5.5905	0.200611	-0.541476	
-7.65014	0.193571	-0.718875	
-7.58842	0.123897	-0.716019	
-6.53584	0.249496	-0.626598	
-6.52674	0.173576	-0.626221	
-7.84076	1.20923	-0.726239	
-6.81446	1.13932	-0.638695	
-6.89908	1.13751	-0.637483	
-6.65167	0.531427	-0.631607	
-6.65257	0.463982	-0.631651	
-6.59573	0.427199	-0.629012	
-6.66245	0.382421	-0.632141	
-5.85274	0.742778	-0.551927	
-7.85092	0.813881	-0.726213	
-7.57361	0.580015	-0.715411	
-6.65645	1.7199	-0.631843	
-7.66587	0.757182	-0.719658	
-5.68792	0.698895	-0.54607	
-6.74325	0.732194	-0.636115	
-6.72357	0.893597	-0.635187	
-6.69061	0.830458	-0.633553	
-7.76955	0.834567	-0.724556	
-6.8408	1.53139	-0.63907	
-6.78823	1.59044	-0.637945	
-6.76388	1.5207	-0.637018	
-7.31548	1.10613	-0.704765	
-6.24925	1.13654	-0.615189	
-7.81103	0.567577	-0.72586	
-7.87815	0.624293	-0.725592	
-6.80903	0.641057	-0.638566	
-6.74068	0.667946	-0.635997	
-6.74057	0.607392	-0.635992	
-7.7287	0.97644	-0.722771	
-6.91379	0	-0.636156	
-6.40634	1.40806	-0.621082	
-6.43902	1.34451	-0.62247	
-6.47259	1.41675	-0.623916	
-6.43351	1.48085	-0.622235	
-7.53494	1.43176	-0.713874	
-6.49819	1.49613	-0.625015	
-6.56417	0.925911	-0.627739	
-6.73121	1.74077	-0.635553	
-8.72434	1.66215	-0.809901	
-5.80006	1.70694	-0.55105	
-7.96571	1.71339	-0.784404	
-8.03616	1.77904	-0.785016	
-7.96571	1.78496	-0.784404	
-6.7718	2	-0.637339	
-7.81058	1.92525	-0.725849	
-6.84309	2	-0.639079	
-6.60421	0.350099	-0.62938	
-6.5405	0.315549	-0.62679	
-6.30031	1.02327	-0.616915	
-7.36608	1.02942	-0.706734	
-6.29536	0.0746863	-0.616738	
-6.33007	0.130322	-0.618015	
-7.25207	0.159825	-0.702557	
-7.26445	0.255296	-0.702962	
-5.31518	0.198868	-0.53016	
-6.37344	0.185075	-0.619722	
-7.21722	0.53229	-0.701489	
-9.95809	0.358269	-0.958716	
-6.96952	0.286611	-0.697248	
-6.03552	0.283499	-0.610609	
-7.96571	0.143615	-0.784404	
-7.0473	0.19815	-0.69795	
-7.96571	0.215036	-0.784404	
-8.11048	0.268711	-0.786163	
-7.47914	0	-0.711518	
-5.55954	0	-0.54025	
-6.56256	0.0522709	-0.627676	
-4.87326	0.233077	-0.464604	
-7.8479	0.293965	-0.726231	
-7.56157	1.52249	-0.714942	
-6.56387	1.6164	-0.627727	
-6.50425	1.57352	-0.625273	
-6.49979	1.65009	-0.625083	
-6.86141	1.59898	-0.638986	
-6.70028	0	-0.634038	
-6.6457	0.0589648	-0.631315	
-6.62765	0	-0.63045	
-6.14574	1.47391	-0.612415	
-7.22465	1.46129	-0.701707	
-7.20217	1.53681	-0.701062	
-7.66322	0.286849	-0.719525	
-6.28677	0.724627	-0.616436	
-5.30076	0.784216	-0.529639	
-7.23172	0.788387	-0.70192	
-7.79775	0.223399	-0.725521	
-5.7913	1.34531	-0.550764	
-5.78655	1.40661	-0.550596	
-7.71688	1.36487	-0.722203	
-6.75552	1.29047	-0.636663	
-5.77288	0.414541	-0.550074	
-6.71634	0.434011	-0.634834	
-7.72175	0.349215	-0.722439	
-6.83193	0.422964	-0.638996	
-7.7785	0.489015	-0.724893	
-6.85424	0.488653	-0.639061	
-4.58146	1.24582	-0.453802	
-6.5598	1.18695	-0.627567	
-5.73276	1.58611	-0.54829	
-5.3043	0.42229	-0.529765	
-5.32648	0.312816	-0.530579	
-7.39931	0.310713	-0.708103	
-6.35253	0.255176	-0.618885	
-6.41837	0.23291	-0.62159	
-8.74172	1.20734	-0.810703	
-6.61883	1.1572	-0.630039	
-6.68808	1.15129	-0.633426	
-5.68063	1.2101	-0.545704	
-7.62428	1.08885	-0.717627	
-6.23148	1.61914	-0.614641	
-6.25032	1.69424	-0.615223	
-7.16791	1.67616	-0.700171	
-6.2992	1.64844	-0.616875	
-6.32761	1.72086	-0.617921	
-6.67264	0.644913	-0.63265	
-5.74482	1.94629	-0.548856	
-7.66521	1.93331	-0.719624	
-6.74243	1.88539	-0.636078	
-7.15026	0.0804625	-0.699756	
-5.09824	0.127785	-0.524271	
-5.10948	1.88257	-0.524466	
-7.15333	1.92762	-0.699826	
-6.19296	0.21589	-0.613554	
-5.73745	0.273142	-0.548512	
-6.72674	0.209198	-0.63534	
-5.72608	0.143339	-0.547968	
-6.7929	0.145092	-0.6381	
-5.67361	0.115792	-0.545352	
-6.66957	1.85807	-0.632496	
-6.60382	1.88373	-0.629363	
-5.59788	1.94611	-0.541785	
-5.55954	2	-0.54025	
-6.62765	2	-0.63045	
-5.92782	0.682902	-0.547696	
-7.96952	0.64279	-0.697248	
-5.45438	1.88295	-0.535811	
-6.32847	1.53147	-0.617954	
-6.30604	1.46174	-0.617122	
-6.37052	1.47178	-0.619603	
-6.87293	1.08229	-0.638746	
-5.18552	0.329519	-0.526107	
-7.03206	0.43708	-0.697769	
-6.96952	0.429861	-0.697248	
-5.36725	1.67699	-0.532162	
-6.28114	1.57544	-0.616242	
-5.68066	1.60691	-0.545705	
-6.63513	1.65508	-0.630805	
-6.73621	1.81461	-0.635789	
-5.67923	1.78507	-0.545634	
-5.18433	0.749751	-0.526077	
-6.23037	0.701087	-0.614608	
-7.10653	0.758919	-0.698862	
-6.97333	0.429861	-0.610092	
-7.90339	0.409639	-0.723976	
-6.80436	1.77163	-0.638443	
-7.87016	1.71936	-0.725872	
-7.16326	1.1716	-0.700059	
-6.19987	1.09553	-0.613739	
-7.26881	1.76477	-0.703108	
-5.35362	1.7791	-0.531622	
-6.47333	0.277236	-0.623947	
-7.44474	0.151691	-0.710036	
-5.55886	1.84554	-0.540222	
-6.48884	1.83711	-0.624615	
-6.36936	1.33945	-0.619556	
-6.34039	1.40104	-0.61841	
-5.78642	0.297567	-0.550592	
-6.80201	0.357474	-0.638378	
-5.60262	0.760525	-0.541988	
-6.54912	0.810302	-0.62714	
-6.45715	0.749841	-0.62325	
-6.39213	0.751361	-0.620489	
-6.41441	0.686344	-0.621422	
-6.4838	0.810027	-0.624398	
-6.41849	0.81571	-0.621595	
-8.9619	1.64173	-0.87156	
-6.03898	1.65788	-0.610648	
-7.96952	1	-0.697248	
-7.96952	1.07055	-0.697248	
-5.92851	1.0308	-0.547593	
-5.0419	1.5272	-0.523482	
-7.96571	1.57014	-0.784404	
-5.39755	0.121062	-0.5334	
-6.44036	0.068568	-0.622528	
-6.50785	0.0968802	-0.625426	
-7.96571	1.85639	-0.784404	
-7.03623	1.8723	-0.697816	
-7.96571	0.0721374	-0.784404	
-6.03356	0.116381	-0.610588	
-6.53957	0.378957	-0.626752	
-7.96571	1.2856	-0.784404	
-6.03909	1.33655	-0.610649	
-7.96571	1.35721	-0.784404	
-5.43206	1.07097	-0.534854	
-6.43474	1.13809	-0.622287	
-5.38468	1.10545	-0.532869	
-6.48783	1.08867	-0.624571	
-6.4491	0.876824	-0.622904	
-6.38743	0.882801	-0.620294	
-7.34986	0.819303	-0.706086	
-6.60708	1.38959	-0.629507	
-5.60444	1.45442	-0.542068	
-6.66585	1.41914	-0.63231	
-5.48092	0.213959	-0.536954	
-6.43508	0.621411	-0.622302	
-6.39726	0.549577	-0.620702	
-6.45866	0.556476	-0.623315	
-6.42639	0.491713	-0.621931	
-7.73542	0.0712931	-0.723086	
-6.36709	1.1672	-0.619465	
-6.62254	1.57159	-0.630211	
-6.16691	0.47164	-0.612899	
-5.92446	0.476615	-0.548166	
-7.892	0.546631	-0.724864	
-6.96952	0.500665	-0.697248	
-6.03331	0.802839	-0.610585	
-5.11236	0.646217	-0.524517	
-5.09018	0.69766	-0.52414	
-6.08647	1.17495	-0.611297	
-7.035	1.0996	-0.697802	
-7.11942	1.1007	-0.699106	
-7.22758	1.32398	-0.701795	
-5.16664	1.29855	-0.525646	
-6.19264	1.24767	-0.613545	
-6.37526	0.61668	-0.619796	
-6.33812	0.546139	-0.618323	
-5.28325	0.561624	-0.529028	
-6.29132	0.491616	-0.616595	
-5.173	1.0418	-0.525798	
-6.22983	1.02609	-0.614592	
-7.16697	0.976287	-0.700148	
-6.24692	0.965074	-0.615116	
-6.37941	0.954567	-0.619965	
-6.10692	1.62515	-0.611644	
-5.17208	1.59965	-0.525775	
-5.87029	0.360303	-0.551744	
-6.04351	1.5889	-0.610701	
-6.30106	1.33334	-0.616942	
-6.27472	1.39903	-0.616023	
-6.26231	1.2624	-0.61561	
-7.34599	0.683934	-0.705933	
-6.90511	0.967445	-0.637005	
-8.87926	0.89983	-0.812528	
-6.79163	0.914042	-0.638059	
-6.54148	1.0505	-0.62683	
-5.75533	1.13415	-0.549332	
-5.71173	1.09375	-0.547263	
-5.45336	1.5431	-0.535767	
-6.79955	0.770923	-0.638306	
-5.73749	0.785107	-0.548514	
-5.66015	1.34839	-0.544682	
-7.83645	1.29694	-0.726223	
-6.82309	1.65281	-0.638867	
-7.04109	1.25411	-0.697873	
-6.10312	1.32162	-0.611576	
-5.61336	0.633745	-0.542462	
-6.66366	0.587288	-0.632201	
-6.86435	0.6882	-0.63894	
-6.51025	0.873522	-0.625528	
-4.56809	1.36753	-0.453281	
-6.70028	2	-0.634038	
-5.23567	1.1987	-0.527497	
-6.47666	0.394274	-0.624091	
-6.476	0.336713	-0.624062	
-6.79805	0.702848	-0.638261	
-6.97333	0.929454	-0.610092	
-6.97333	0.857842	-0.610092	
-5.89248	1.94387	-0.55097	
-6.49796	1.16572	-0.625005	
-6.5547	1.11814	-0.627364	
-7.18745	1.79696	-0.700665	
-5.20332	1.73661	-0.526573	
-5.42446	0.370041	-0.534531	
-5.47276	0.446178	-0.536602	
-5.43693	0.936014	-0.535062	
-4.08259	1.0523	-0.436808	
-6.11294	1.01699	-0.611754	
-6.97333	1.49933	-0.610092	
-7.05271	0.586375	-0.698019	
-7.08923	0.509874	-0.69856	
-6.91176	1.54624	-0.636374	
-5.29089	0.664255	-0.529291	
-5.34203	0.750955	-0.531171	
-5.29407	0.837223	-0.529402	
-7.96571	1.21388	-0.784404	
-5.02843	1.17543	-0.523338	
-7.96571	0.929454	-0.784404	
-5.02929	0.873321	-0.523346	
-8.9619	0.857842	-0.87156	
-6.02987	0.725606	-0.610548	
-7.96571	0.786116	-0.784404	
-7.96571	0.714404	-0.784404	
-6.04588	0.653203	-0.610729	
-7.96571	0.64279	-0.784404	
-8.9619	0.571209	-0.87156	
-7.96571	1.14216	-0.784404	
-5.10841	0.957788	-0.524447	
-4.20774	0.930031	-0.439433	
-6.31414	0.613315	-0.617418	
-5.93314	1.6049	-0.546852	
-5.5228	0.552048	-0.538741	
-6.49856	0.616488	-0.62503	
-7.11159	1.54065	-0.698956	
-6.13238	0.177963	-0.612133	
-6.11908	1.24487	-0.61187	
-7.10131	1.39957	-0.698768	
-5.19795	0.139289	-0.526429	
-6.09633	1.69928	-0.611459	
-6.12935	1.75272	-0.612072	
-6.16782	1.35868	-0.612921	
-5.22439	1.39206	-0.527164	
-5.1779	1.42097	-0.525917	
-6.10687	1.81911	-0.611643	
-6.9067	1.6612	-0.636865	
-6.97333	1.71339	-0.610092	
-5.71701	0.496577	-0.547524	
-6.73698	0.549039	-0.635825	
-5.16022	1.85508	-0.525497	
-5.03097	0.520218	-0.523364	
-4.16404	0.528047	-0.438342	
-6.97333	1.57014	-0.610092	
-7.96952	0.500665	-0.697248	
-4.68859	0.932053	-0.458756	
-5.26944	1.07414	-0.528563	
-5.27288	1.51028	-0.528677	
-7.96952	1.64173	-0.697248	
-5.20915	0.282674	-0.526732	
-6.97333	0.571209	-0.610092	
-4.93636	0.59575	-0.459796	
-4.04647	1.71321	-0.436335	
-7.28336	1.88726	-0.703606	
-5.92094	0.827624	-0.548614	
-5.25963	1.82622	-0.528243	
-5.04013	1.40032	-0.523462	
-6.21135	1.87065	-0.614055	
-4.8338	0.866054	-0.464606	
-4.80097	1.24863	-0.463803	
-5.3183	1.94589	-0.530275	
-4.93391	1.75284	-0.460194	
-4.28029	1.94185	-0.441642	
-6.93706	0.611259	-0.569592	
-7.91318	0.691022	-0.647073	
-5.93786	0.951279	-0.480838	
-7.91935	0.885946	-0.649826	
-6.46184	0	-0.519321	
-6.3935	0	-0.526522	
-7.4289	0.0792566	-0.609305	
-8.03575	0	-0.765919	
-5.08494	0.0639973	-0.495257	
-6.11282	0	-0.575106	
-6.02648	0.0936441	-0.595893	
-6.32235	0	-0.536037	
-6.25179	0	-0.547391	
-6.29489	0.0798839	-0.540234	
-5.94883	0.821071	-0.487002	
-6.93588	1.45488	-0.568959	
-6.93893	1.89867	-0.570621	
-5.46565	2	-0.432165	
-6.53347	2	-0.513987	
-7.50747	1.91895	-0.60254	
-5.08838	1.93754	-0.494446	
-6.03158	1.90585	-0.594586	
-6.04337	2	-0.591607	
-6.11282	2	-0.575106	
-6.3935	2	-0.526522	
-6.3578	1.92228	-0.531047	
-6.32235	2	-0.536037	
-6.57007	1.85759	-0.512214	
-7.49178	1.82278	-0.603668	
-7.28668	0.600657	-0.628089	
-6.2354	0.663037	-0.550293	
-7.29895	0.68441	-0.626157	
-6.02813	0.939959	-0.595468	
-6.0372	1.33496	-0.593159	
-7.47726	1.68417	-0.604814	
-5.5149	1.74973	-0.428241	
-8.56987	1.71007	-0.686255	
-6.28792	1.02684	-0.541344	
-7.29456	0.943151	-0.626843	
-6.23274	0.965528	-0.550774	
-6.06364	0.553448	-0.586605	
-6.0207	0.495631	-0.597383	
-6.72309	1.36962	-0.516019	
-8.64719	1.42353	-0.686096	
-6.73365	1.43872	-0.517079	
-7.83551	1.02505	-0.622032	
-6.77319	0.965827	-0.522115	
-7.74253	1.04082	-0.605664	
-7.68139	1.21008	-0.600285	
-8.76635	1.26463	-0.696545	
-6.76797	1.19252	-0.521349	
-6.27674	1.8275	-0.543163	
-7.28524	1.91186	-0.628319	
-7.34035	1.83465	-0.620066	
-7.404	1.04863	-0.612008	
-6.34727	1.0111	-0.532479	
-7.32692	1.09426	-0.62197	
-5.40352	1.10778	-0.438631	
-7.47679	1.09436	-0.604852	
-6.51653	0.92332	-0.515032	
-6.55473	0.983948	-0.512875	
-8.59005	0.912712	-0.68574	
-5.54533	1.65028	-0.426383	
-5.59914	1.64109	-0.424315	
-7.54382	1.58611	-0.600377	
-6.04355	0.621253	-0.591561	
-5.11384	0.607584	-0.48858	
-7.14595	0.544593	-0.65421	
-7.16662	0.626188	-0.64992	
-7.40188	0.883867	-0.61225	
-6.36464	0.814004	-0.530141	
-6.34031	0.883506	-0.533448	
-5.3627	0.94284	-0.443745	
-5.30962	0.823889	-0.451375	
-6.27117	0.86549	-0.544088	
-6.71658	0.577518	-0.515422	
-7.71026	0.659851	-0.60236	
-6.77829	0.634606	-0.522895	
-7.14136	0.0913029	-0.655183	
-6.07395	0.141129	-0.584121	
-6.50008	1.15841	-0.516178	
-8.57927	1.18235	-0.685975	
-5.55435	1.11752	-0.42592	
-7.85419	0.938839	-0.626835	
-5.91168	0.99711	-0.468975	
-6.53327	0.516229	-0.513998	
-7.55779	0.597248	-0.59972	
-6.60765	0.53029	-0.511294	
-7.37962	1.25683	-0.614903	
-7.35958	1.17353	-0.617461	
-6.31491	1.22905	-0.537146	
-7.87521	1.10599	-0.633037	
-6.92291	1.05145	-0.562559	
-6.87972	1.1866	-0.546106	
-6.93277	1.17077	-0.567334	
-8.29249	1.39834	-0.713725	
-5.30832	1.4857	-0.451575	
-6.3647	1.4682	-0.530133	
-7.69372	0.907417	-0.601073	
-6.64456	0.841878	-0.511517	
-8.88658	0.492781	-0.725297	
-5.84138	0.543817	-0.4473	
-6.88648	0.570722	-0.548316	
-6.66456	1.72433	-0.512125	
-6.62048	1.78876	-0.511242	
-6.53482	0.853718	-0.51391	
-6.44778	0.389993	-0.52064	
-5.45902	0.316743	-0.432776	
-6.39359	0.343184	-0.526511	
-6.5682	0.780432	-0.512288	
-5.59097	0.84375	-0.4245	
-6.63826	0.770799	-0.511397	
-6.48341	0.577671	-0.517467	
-7.04413	1.02428	-0.677622	
-7.24616	0.237428	-0.634865	
-6.26581	0.153222	-0.544988	
-6.1982	0.163431	-0.557245	
-7.33722	0.159631	-0.620503	
-6.6877	1.80219	-0.513277	
-5.72144	1.86234	-0.428359	
-6.76659	1.80354	-0.521152	
-6.59576	0.329138	-0.511463	
-7.66663	0.30982	-0.599528	
-7.61452	0.244444	-0.598397	
-6.62788	0.391669	-0.511274	
-5.2312	1.03303	-0.464592	
-6.59616	0.717798	-0.511455	
-6.51453	0.718603	-0.515164	
-5.55627	0.665477	-0.425827	
-6.62756	0.658642	-0.511272	
-5.45746	1.87015	-0.432923	
-6.418	1.80864	-0.523715	
-5.5625	1.78424	-0.425537	
-6.44557	1.74797	-0.520855	
-6.69305	0.386445	-0.513614	
-6.7231	0.441074	-0.516019	
-6.76243	0.365688	-0.520571	
-6.53433	1.25637	-0.513938	
-6.60918	1.24657	-0.511281	
-6.55718	1.3122	-0.512761	
-5.62652	1.30199	-0.424091	
-6.68269	1.27096	-0.512986	
-6.40827	0.276367	-0.5248	
-8.3194	0.292881	-0.709664	
-5.3662	0.234809	-0.443282	
-5.31028	0.216682	-0.451274	
-6.78492	0.891352	-0.523955	
-6.58427	1.48059	-0.511734	
-6.50841	1.4429	-0.515582	
-7.50291	1.51083	-0.602856	
-6.43703	1.45569	-0.521707	
-6.59678	1.36546	-0.511444	
-6.66724	1.34038	-0.512234	
-6.3328	1.70558	-0.534516	
-6.34778	1.63351	-0.532408	
-6.27582	1.65739	-0.543315	
-6.19664	0.837679	-0.557548	
-6.24093	0.792044	-0.549304	
-6.25318	1.09876	-0.54715	
-7.27919	1.30603	-0.629295	
-5.24013	1.35315	-0.462972	
-7.64537	0.166399	-0.598782	
-6.56737	0.169498	-0.512322	
-7.19724	1.40455	-0.643852	
-7.36272	0.41495	-0.617049	
-7.41529	0.474418	-0.610751	
-7.65034	1.05334	-0.59892	
-6.69505	0.984567	-0.513747	
-6.65849	1.13834	-0.511903	
-6.29326	0.452043	-0.540492	
-7.28661	0.374434	-0.628101	
-5.2383	0.42015	-0.463301	
-7.20969	0.484457	-0.64148	
-6.81108	0	-0.528688	
-6.82772	0.0667918	-0.532188	
-6.87547	0	-0.544768	
-6.81108	2	-0.528688	
-5.78336	1.94291	-0.435937	
-5.74444	2	-0.430687	
-6.84867	0.853126	-0.537204	
-6.87547	2	-0.544768	
-7.83829	1.92333	-0.622708	
-5.47467	0.506745	-0.431364	
-6.41783	0.56183	-0.523733	
-6.4256	0.636864	-0.522895	
-6.35651	0.546278	-0.53122	
-6.35723	0.617676	-0.531123	
-7.75471	0.078087	-0.607199	
-7.71479	1.56345	-0.602759	
-5.77447	1.62497	-0.434584	
-6.80276	1.57191	-0.527084	
-7.85688	0.153301	-0.62758	
-7.86112	0.252546	-0.62878	
-5.91997	0.211952	-0.472403	
-6.48894	0.650538	-0.517025	
-7.43446	0.718414	-0.608737	
-6.42753	0.798942	-0.52269	
-6.49458	0.786413	-0.516589	
-5.37684	0.678765	-0.441899	
-6.36728	0.741319	-0.529797	
-7.9197	1.80752	-0.64999	
-6.87477	1.74768	-0.54455	
-7.84197	1.83308	-0.623625	
-6.43511	1.20637	-0.521903	
-7.14656	1.92648	-0.654081	
-7.09087	1.86025	-0.666399	
-6.89445	0.344499	-0.551075	
-6.92036	0.410465	-0.561402	
-7.75164	0.282592	-0.606797	
-7.82147	0.338159	-0.618805	
-7.47832	0.251286	-0.604727	
-5.54256	0.217721	-0.426534	
-7.47125	0.164212	-0.605316	
-7.04697	0.230355	-0.676916	
-7.60252	1.93673	-0.598463	
-6.86316	1.26103	-0.541119	
-6.92677	1.24459	-0.564365	
-6.84818	1.32491	-0.537077	
-7.91499	1.31978	-0.647865	
-7.77708	0.804788	-0.61046	
-7.8489	0.759874	-0.625411	
-6.78992	0.714139	-0.524792	
-6.41625	0.206449	-0.523907	
-5.40449	0.138218	-0.438518	
-6.09658	1.72394	-0.578804	
-6.06158	1.78328	-0.587106	
-7.13682	1.79352	-0.656153	
-6.49415	1.03613	-0.516622	
-7.56348	1.05319	-0.599481	
-6.61804	0.992616	-0.511242	
-5.61178	1.10914	-0.424135	
-7.78634	0.204267	-0.611987	
-6.70165	0.22975	-0.514212	
-6.47022	0.863551	-0.518576	
-6.45216	0.938032	-0.52022	
-5.82183	1.76807	-0.442942	
-7.8031	1.69808	-0.615028	
-6.73511	1.73846	-0.517234	
-6.79208	0.425321	-0.525162	
-6.74813	0.500006	-0.518723	
-6.65165	0.456585	-0.511692	
-6.67917	0.51622	-0.512795	
-6.17329	0.232607	-0.562182	
-6.34733	1.33248	-0.53247	
-6.42288	1.52656	-0.523185	
-7.34419	1.55451	-0.619534	
-7.42028	1.60907	-0.610211	
-5.23644	0.903738	-0.463638	
-7.15518	0.902651	-0.652275	
-6.67306	0	-0.512491	
-6.60185	0	-0.511362	
-6.62444	0.051764	-0.511254	
-6.53347	0	-0.513987	
-6.55473	0.0537652	-0.512875	
-6.45149	1.3862	-0.520284	
-6.38077	1.3946	-0.528077	
-6.45735	1.26486	-0.519733	
-5.50962	1.21166	-0.428608	
-6.41447	1.32507	-0.524103	
-6.48545	1.32038	-0.517302	
-5.90027	0.814456	-0.464642	
-6.22106	1.88165	-0.552913	
-6.64888	0.594595	-0.511618	
-5.94862	1.38879	-0.486871	
-6.89509	1.39048	-0.551305	
-7.15858	0.75837	-0.651569	
-6.11898	0.821275	-0.573728	
-6.92765	0.75743	-0.564788	
-7.20635	1.60921	-0.642112	
-6.20991	1.68446	-0.555003	
-5.20707	1.75212	-0.469113	
-7.26155	1.73879	-0.632219	
-7.1224	1.59941	-0.659285	
-6.14127	1.66432	-0.568861	
-7.70359	1.93182	-0.601809	
-6.78223	1.87756	-0.523518	
-6.93589	0.146224	-0.568964	
-5.94618	1.10891	-0.485421	
-5.94034	0.544978	-0.482152	
-7.15841	1.32361	-0.651604	
-6.22036	0.0813768	-0.553044	
-6.18296	0	-0.56024	
-5.82793	1.21454	-0.444239	
-6.82383	1.14931	-0.531333	
-6.64672	1.87232	-0.511565	
-6.12354	1.24379	-0.572718	
-6.08539	1.29411	-0.581411	
-6.18956	1.24385	-0.558932	
-6.28756	1.16415	-0.541403	
-8.15133	0.398041	-0.739439	
-7.04346	1.20048	-0.677789	
-6.03655	1.11243	-0.593325	
-6.22307	0.560548	-0.552541	
-6.28783	0.523541	-0.541358	
-7.7127	1.65544	-0.602572	
-6.58516	0.109422	-0.511709	
-5.39966	1.86761	-0.439086	
-6.42927	1.9304	-0.522507	
-5.74054	0.741046	-0.430254	
-6.84669	0.676971	-0.536699	
-5.18046	0.693471	-0.474348	
-6.23564	0.726744	-0.55025	
-6.30261	0.760134	-0.539025	
-4.23706	0.61385	-0.377062	
-5.02359	0.170423	-0.510466	
-5.72241	1.15632	-0.428447	
-5.70974	1.09603	-0.427381	
-6.76342	1.1197	-0.520707	
-5.16599	1.85832	-0.477301	
-6.21542	1.8111	-0.553964	
-6.87509	1.45652	-0.54465	
-6.83556	1.39372	-0.533981	
-5.22334	1.94352	-0.466042	
-6.25179	2	-0.547391	
-6.69931	0.79232	-0.514042	
-5.72792	0.850283	-0.428961	
-6.67487	0.718066	-0.512578	
-6.12487	0.180772	-0.572425	
-6.64921	1.51591	-0.511627	
-7.63834	1.59438	-0.598623	
-5.70508	1.48768	-0.427028	
-6.76805	1.50665	-0.521361	
-5.03288	1.83632	-0.50807	
-7.25045	1.53312	-0.634119	
-5.18642	1.54488	-0.473153	
-6.02654	1.71558	-0.595877	
-7.89103	1.66217	-0.638372	
-6.21866	0.358669	-0.55336	
-6.16201	0.310734	-0.564492	
-5.78089	1.39867	-0.435552	
-6.80729	1.4537	-0.527945	
-6.7868	1.33896	-0.524265	
-6.58113	0.46147	-0.511826	
-5.56572	0.394907	-0.425394	
-7.49944	0.433969	-0.603103	
-5.57893	1.42238	-0.424869	
-6.52173	1.37641	-0.514697	
-6.83374	0.606335	-0.533555	
-6.07025	0.879786	-0.585008	
-6.0816	0.752034	-0.582302	
-6.03836	0.815753	-0.592865	
-7.10596	1.38066	-0.66295	
-7.91281	1.52165	-0.646916	
-6.84162	1.51493	-0.535435	
-5.81326	1.08423	-0.44121	
-6.03868	1.59815	-0.592785	
-5.60566	2	-0.424206	
-7.2078	1.16076	-0.641838	
-5.159	1.18618	-0.478756	
-5.43649	1.14984	-0.434996	
-6.25157	1.23168	-0.547429	
-6.09746	1.16237	-0.578603	
-6.40335	1.68406	-0.525363	
-4.73028	0.333428	-0.341667	
-6.03919	1.52552	-0.592657	
-6.08563	0.488947	-0.581354	
-5.28703	1.59304	-0.454948	
-6.87402	1.57917	-0.544323	
-6.06372	1.65719	-0.586587	
-6.77858	0.559694	-0.522939	
-6.81644	0.490232	-0.529771	
-6.10258	0.956713	-0.577427	
-6.17323	0.989568	-0.562194	
-6.37744	1.75665	-0.528495	
-5.32141	1.77244	-0.449586	
-5.16026	1.72615	-0.478491	
-5.26831	0.310718	-0.458053	
-5.21576	0.290342	-0.467462	
-5.2268	1.29539	-0.465401	
-6.67306	2	-0.512491	
-5.35368	0.482459	-0.444966	
-5.73184	1.30941	-0.429344	
-6.51139	0.109198	-0.515376	
-6.12617	1.03572	-0.572139	
-6.1872	1.07584	-0.559397	
-6.18296	2	-0.56024	
-5.8925	0.633303	-0.46191	
-6.85566	0.422033	-0.539043	
-4.81847	0.266461	-0.354329	
-6.10958	0.262786	-0.575838	
-5.65076	1.66446	-0.424415	
-5.58805	1.54135	-0.424579	
-6.06742	0.371856	-0.58569	
-5.10353	0.429791	-0.490926	
-5.48221	1.56661	-0.430723	
-5.49663	1.62234	-0.429568	
-4.33886	1.2804	-0.360429	
-6.03568	0.68957	-0.593543	
-5.02418	0.753859	-0.510312	
-6.93309	0.285029	-0.567501	
-5.02827	1.26259	-0.509256	
-7.93076	0	-0.655426	
-5.03623	1.39629	-0.507217	
-7.05478	1.45609	-0.674994	
-6.04373	0.308608	-0.591517	
-7.10541	0.682551	-0.663075	
-6.03274	0.423502	-0.594292	
-6.93457	2	-0.56827	
-5.49851	0.980727	-0.429424	
-7.11667	1.51237	-0.660552	
-6.14378	1.11653	-0.568324	
-5.55607	0.277428	-0.425836	
-7.51329	0.33864	-0.602151	
-5.09301	1.08627	-0.493362	
-5.65296	0.0993244	-0.424469	
-6.69724	0.0548078	-0.513897	
-4.09036	1.55961	-0.40772	
-6.93449	1.72118	-0.568225	
-5.90337	1.94239	-0.465779	
-5.89519	1.87535	-0.462838	
-5.15058	0.473525	-0.48053	
-5.11408	0.331482	-0.488526	
-5.83807	1.63205	-0.44652	
-5.93586	1.59521	-0.479811	
-6.19326	1.47977	-0.558207	
-6.7331	0.160133	-0.517021	
-5.70504	0.114041	-0.427026	
-5.25565	1.45658	-0.460226	
-5.80057	0.130179	-0.43883	
-6.40147	0.972536	-0.525582	
-6.90628	0.0752793	-0.555503	
-5.49557	0.0509452	-0.429649	
-5.45062	1.00206	-0.433579	
-4.34965	0.356044	-0.358895	
-6.36136	0.0762643	-0.530573	
-5.14065	1.44431	-0.482657	
-6.74063	0	-0.517843	
-4.95076	0.460204	-0.398719	
-4.6578	0.946643	-0.33734	
-6.04765	2	-0.600796	
-6.12664	2	-0.592262	
-6.2902	2	-0.578999	
-6.37621	2	-0.574409	
-6.2072	2	-0.584986	
-7.54871	2	-0.657296	
-7.72686	2	-0.663437	
-6.90259	2	-0.597195	
-6.81926	2	-0.585212	
-6.64152	2	-0.571255	
-7.45921	2	-0.6586	
-7.96571	-0.0721374	-0.784404	
-5.02695	-0.0524234	-0.523323	
-5.29408	-1.94219	-0.529402	
-6.22457	-1.93265	-0.614436	
-6.26494	-2	-0.615696	
-6.08398	-0.0610541	-0.611258	
-6.22823	-0.0745946	-0.614544	
-6.37023	-0.063891	-0.619592	
-6.97333	-1.2856	-0.610092	
-6.9116	-1.32684	-0.63639	
-6.97333	-1.35721	-0.610092	
-6.97333	-0.0721374	-0.610092	
-7.96952	-0.215036	-0.697248	
-6.97333	-0.143615	-0.610092	
-6.9221	-0.177622	-0.635124	
-5.97714	-0.286611	-0.522936	
-6.92318	-0.326516	-0.634972	
-7.96952	-0.358269	-0.697248	
-6.92337	-0.255005	-0.634945	
-6.97333	-0.714404	-0.610092	
-7.91009	-0.754353	-0.7233	
-6.97333	-0.786116	-0.610092	
-6.41057	-2	-0.62126	
-7.36158	-1.91632	-0.706553	
-6.33788	-2	-0.618313	
-5.05023	-2	-0.52358	
-5.02806	-1.94543	-0.523334	
-5.97333	-2	-0.610092	
-6.9244	-1.39944	-0.634794	
-6.97333	-1.42879	-0.610092	
-4.98095	-2	-0.43578	
-7.96952	-1.92786	-0.697248	
-5.9176	-2	-0.549	
-6.11939	-2	-0.611876	
-6.08354	-1.9425	-0.611251	
-7.52031	-1.91894	-0.713268	
-6.48295	-2	-0.624362	
-5.55954	-2	-0.54025	
-6.97333	-1.21388	-0.610092	
-6.91151	-1.25457	-0.6364	
-7.96952	-1.78496	-0.697248	
-4.9371	-1.82622	-0.459671	
-6.97333	-1.85639	-0.610092	
-6.16813	-0.824164	-0.612928	
-6.09033	-0.840188	-0.61136	
-7.14141	-0.897364	-0.69956	
-7.96571	-1.07055	-0.784404	
-7.035	-1.0996	-0.697802	
-8.02585	-0.999321	-0.784899	
-6.35264	-1.67801	-0.618889	
-6.42372	-1.66711	-0.621817	
-7.35246	-1.60664	-0.706188	
-6.23622	-0.446895	-0.614785	
-8.24952	-0.354649	-0.789753	
-6.1824	-0.398171	-0.61328	
-7.40351	-1.83141	-0.708279	
-5.47048	-1.78071	-0.536504	
-7.40506	-1.74009	-0.708345	
-7.56541	-1.7075	-0.715092	
-6.48771	-1.71822	-0.624566	
-6.53482	-1.78279	-0.626556	
-7.60534	-1.79397	-0.716756	
-6.43461	-1.60358	-0.622282	
-6.38937	-1.5428	-0.620375	
-5.3391	-1.84473	-0.531058	
-7.72403	-1.45461	-0.722549	
-6.64561	-1.49442	-0.631311	
-6.69309	-1.53304	-0.633678	
-8.68713	-1.28582	-0.808073	
-6.62475	-1.23395	-0.630314	
-8.58797	-1.30809	-0.803318	
-8.77231	-1.05755	-0.811962	
-5.85869	-1.02435	-0.5519	
-5.81009	-0.98494	-0.551339	
-6.54687	-0.659051	-0.627049	
-6.47984	-0.685531	-0.624228	
-7.52919	-0.738859	-0.713637	
-7.5046	-1.33862	-0.712606	
-7.51429	-1.25231	-0.713015	
-7.96571	-1.42879	-0.784404	
-7.96571	-1.49933	-0.784404	
-7.05409	-1.4654	-0.698037	
-6.0608	-0.918262	-0.61092	
-6.11294	-1.01699	-0.611754	
-5.10841	-0.957788	-0.524447	
-8.23137	-0.881052	-0.789181	
-6.24692	-0.965074	-0.615116	
-6.3104	-0.954992	-0.61728	
-5.57597	-0.86716	-0.540893	
-7.63476	-0.888326	-0.718126	
-6.62073	-0.817828	-0.630127	
-7.14498	-0.589278	-0.699638	
-7.16202	-0.676587	-0.700029	
-7.2273	-0.618429	-0.701786	
-7.82155	-0.0745363	-0.726061	
-6.55995	-1.18703	-0.627573	
-6.49798	-1.16574	-0.625006	
-6.49332	-0.496062	-0.624806	
-7.5705	-0.503541	-0.715289	
-6.52896	-0.439924	-0.626314	
-7.60689	-0.698429	-0.716825	
-6.37796	-1.23016	-0.619906	
-7.29587	-1.19538	-0.704048	