<VTKFile type="UnstructuredGrid" version="0.1" byte_order="LittleEndian">
	<UnstructuredGrid>
		<Piece NumberOfPoints="1917" NumberOfCells="56">
			<CellData Scalars="scalars">
				<DataArray type="Float64" Name="Doublet Strengths" NumberOfComponents="1" Format="ascii">
-0.622577	
-2.42978	
-1.8536	
-2.31759	
-2.60544	
-2.77893	
-2.76051	
-2.70092	
-2.11662	
-1.80524	
-1.12646	
-3.30044	
-1.86533	
-3.08903	
-1.88128	
-1.9004	
-2.628	
-2.48724	
-2.47049	
-2.15567	
-2.52162	
-2.74915	
-2.06829	
-2.66313	
-4.85637	
-2.42693	
-1.83656	
-1.80864	
-4.85434	
-1.80008	
-2.35386	
-2.61644	
-2.20127	
-1.63685	
-0.909253	
-3.24941	
-1.76732	
-2.19058	
-2.67414	
-1.68466	
-1.79395	
-2.28995	
-2.27863	
-2.14966	
-2.01492	
-2.24619	
-2.25479	
-2.16574	
-1.7823	
-1.94864	
-2.19433	
-0.5495	
-1.47423	
-1.72758	
-2.20726	
-1.16171	
				</DataArray>
				<DataArray type="Float64" Name="Velocity Potential" NumberOfComponents="1" Format="ascii">
-759.5	
-864.835	
-901.127	
-900.665	
-936.089	
-900.2	
-864.503	
-935.994	
-936.578	
-901.176	
-901.856	
-899.679	
-901.116	
-828.463	
-936.813	
-901.081	
-936.067	
-900.492	
-936.224	
-900.823	
-864.744	
-900.231	
-900.91	
-936.032	
-898.122	
-900.552	
-901.146	
-901.173	
-898.124	
-901.181	
-936.34	
-864.648	
-900.778	
-865.631	
-902.073	
-899.73	
-901.214	
-865.074	
-900.305	
-901.297	
-901.187	
-936.405	
-900.701	
-900.828	
-900.965	
-865.018	
-865.01	
-936.528	
-901.199	
-901.032	
-936.5	
-759.572	
-901.508	
-901.254	
-900.772	
-937.533	
				</DataArray>
			</CellData>
			<Points>
				<DataArray type="Float64" Name="Position" NumberOfComponents="3" Format="ascii">
-10.0312	0	-0.95936	
-8.44246	0.0524256	-0.822143	
-13.089	0	-1.23263	
-10.1772	2	-0.962165	
-10.2085	1.93467	-0.963034	
-11.8151	2	-1.10128	
-10.1042	0	-0.9605	
-10.0687	0.0610502	-0.959882	
-10.213	0.0745738	-0.963168	
-10.1772	0	-0.962165	
-10.2497	0	-0.96432	
-10.3226	0	-0.966937	
-10.3953	0	-0.969884	
-10.354	0.0639395	-0.968174	
-9.34501	1.39584	-0.846263	
-10.8961	1.3266	-0.985043	
-10.9581	1.35721	-0.958716	
-13.089	1.92786	-1.23263	
-8.44333	1.94512	-0.822152	
-12.5235	0.0721374	-1.09568	
-10.8941	0.0533506	-0.98524	
-9.39265	0	-0.821757	
-12.5235	0.215036	-1.09568	
-13.9991	0.171582	-1.26092	
-9.39265	0.143615	-0.821757	
-9.39265	0.286611	-0.821757	
-12.5235	0.358269	-1.09568	
-10.9079	0.326064	-0.9836	
-10.9057	0.252841	-0.983907	
-10.9581	0.714404	-0.958716	
-10.9581	0.786116	-0.958716	
-12.4641	0.754574	-1.12173	
-10.3953	2	-0.969884	
-10.3226	2	-0.966937	
-13.4906	1.91204	-1.24233	
-10.4106	1.66657	-0.97053	
-11.906	1.60722	-1.1046	
-10.2212	0.446925	-0.963416	
-10.1683	0.397747	-0.961933	
-13.3734	0.354616	-1.238	
-9.95809	2	-0.958716	
-10.9581	1.42879	-0.958716	
-7.82721	2	-0.684797	
-9.33311	2	-0.84782	
-12.5235	1.92786	-1.09568	
-10.1042	2	-0.9605	
-8.46574	2	-0.8224	
-10.0691	1.93956	-0.959887	
-8.8699	1.94176	-0.834632	
-13.6395	1.9167	-1.24864	
-10.4677	2	-0.972986	
-10.9581	1.21388	-0.958716	
-9.34098	1.19029	-0.846849	
-10.9581	1.14216	-0.958716	
-10.9581	1.2856	-0.958716	
-10.8964	1.25405	-0.985012	
-12.5235	1.78496	-1.09568	
-10.9581	1.85639	-0.958716	
-7.78332	1.82617	-0.708694	
-9.33369	0.114671	-0.847756	
-12.4503	1.46922	-1.12299	
-12.4048	1.38862	-1.12464	
-10.1529	0.824164	-0.961552	
-11.6954	0.897364	-1.09799	
-10.0751	0.840188	-0.959984	
-10.8007	1.46561	-0.987352	
-11.5235	1	-1.09568	
-13.1491	0.999321	-1.23313	
-13.089	1.07055	-1.23263	
-10.4194	1.60348	-0.970907	
-10.0506	0.356544	-0.959613	
-8.54948	0.353408	-0.823753	
-10.095	0.427857	-0.960329	
-11.956	1.82506	-1.10664	
-11.9597	1.7382	-1.1068	
-8.88598	1.77788	-0.835324	
-10.4729	1.71777	-0.973207	
-10.5208	1.78088	-0.975229	
-12.1196	1.70728	-1.11353	
-12.1596	1.79378	-1.1152	
-10.3741	1.54291	-0.968995	
-10.3118	1.8351	-0.966524	
-12.2779	1.45384	-1.12097	
-10.6779	1.53294	-0.982304	
-10.6304	1.49429	-0.979937	
-12.2363	1.28284	-1.11891	
-13.7101	1.30815	-1.2515	
-10.6082	1.23305	-0.978876	
-13.8967	1.05577	-1.26023	
-10.8043	0.974397	-0.987425	
-9.2791	1.02275	-0.850672	
-10.5316	0.65903	-0.975674	
-12.0832	0.738857	-1.11206	
-10.4646	0.685529	-0.972852	
-12.0585	1.33866	-1.11103	
-12.0682	1.25226	-1.11144	
-13.089	1.42879	-1.23263	
-11.6086	1.46516	-1.09647	
-13.089	1.49933	-1.23263	
-10.0456	0.918262	-0.959544	
-13.3546	0.881052	-1.23741	
-10.3087	0.891355	-0.966406	
-10.2952	0.954992	-0.965904	
-8.99147	0.867158	-0.839714	
-10.6055	0.817822	-0.97875	
-12.1887	0.888323	-1.11655	
-11.699	0.589259	-1.09807	
-11.7813	0.618435	-1.10021	
-11.716	0.676586	-1.09846	
-10.7566	0	-0.985963	
-10.8279	0	-0.987703	
-12.3841	0.0790961	-1.1246	
-10.438	1.27156	-0.971708	
-10.4276	1.20368	-0.97126	
-10.4783	0.496767	-0.97344	
-10.515	0.442032	-0.974991	
-12.1252	0.502871	-1.11374	
-12.1609	0.698424	-1.11525	
-10.3627	1.23016	-0.96853	
-10.3134	1.27217	-0.966583	
-11.8499	1.19537	-1.10248	
-8.81652	1.2898	-0.832364	
-9.02758	1.02577	-0.841225	
-12.1829	0.967174	-1.11627	
-10.6714	1.0342	-0.981979	
-13.5718	1.00672	-1.24575	
-10.4777	0.93866	-0.973414	
-10.5293	0.987296	-0.975577	
-11.9015	0.378981	-1.10442	
-10.3969	0.426844	-0.969951	
-11.9095	0.470462	-1.10473	
-12.4414	1.87857	-1.12357	
-12.4272	1.79633	-1.12421	
-10.7964	1.84585	-0.987255	
-10.5862	0.270573	-0.977881	
-9.00601	0.200611	-0.840296	
-12.2042	0.193571	-1.1173	
-12.1424	0.123897	-1.11445	
-10.5206	0.249496	-0.975222	
-10.5115	0.173576	-0.974845	
-12.3948	1.20923	-1.12467	
-10.7992	1.13932	-0.987319	
-10.8838	1.13751	-0.986107	
-10.6364	0.531427	-0.980231	
-10.6373	0.463982	-0.980275	
-10.5805	0.427199	-0.977636	
-10.6472	0.382421	-0.980765	
-9.26825	0.742778	-0.850748	
-12.4049	0.813881	-1.12464	
-12.1276	0.580015	-1.11384	
-10.6412	1.7199	-0.980467	
-12.2199	0.757182	-1.11809	
-9.10342	0.698895	-0.844891	
-10.728	0.732194	-0.984739	
-10.7083	0.893597	-0.983811	
-10.6754	0.830458	-0.982177	
-12.3236	0.834567	-1.12298	
-10.8256	1.53139	-0.987694	
-10.773	1.59044	-0.986569	
-10.7486	1.5207	-0.985642	
-11.8695	1.10613	-1.10319	
-10.234	1.13654	-0.963813	
-12.365	0.567577	-1.12429	
-12.4322	0.624293	-1.12402	
-10.7938	0.641057	-0.98719	
-10.7254	0.667946	-0.984621	
-10.7253	0.607392	-0.984616	
-12.2827	0.97644	-1.1212	
-10.8986	0	-0.98478	
-10.3911	1.40806	-0.969706	
-10.4238	1.34451	-0.971094	
-10.4574	1.41675	-0.97254	
-10.4183	1.48085	-0.970859	
-12.0889	1.43176	-1.1123	
-10.4829	1.49613	-0.973639	
-10.5489	0.925911	-0.976363	
-10.716	1.74077	-0.984177	
-13.8476	1.66215	-1.25813	
-9.21557	1.70694	-0.849871	
-13.089	1.71339	-1.23263	
-13.1594	1.77904	-1.23325	
-13.089	1.78496	-1.23263	
-10.7566	2	-0.985963	
-12.3646	1.92525	-1.12428	
-10.8279	2	-0.987703	
-10.589	0.350099	-0.978004	
-10.5253	0.315549	-0.975414	
-10.2851	1.02327	-0.965539	
-11.9201	1.02942	-1.10516	
-10.2801	0.0746863	-0.965362	
-10.3148	0.130322	-0.966639	
-11.8061	0.159825	-1.10098	
-11.8185	0.255296	-1.10139	
-8.73069	0.198868	-0.82898	
-10.3582	0.185075	-0.968346	
-11.7712	0.53229	-1.09992	
-16.2199	0.358269	-1.50655	
-11.5235	0.286611	-1.09568	
-10.0203	0.283499	-0.959233	
-13.089	0.143615	-1.23263	
-11.6013	0.19815	-1.09638	
-13.089	0.215036	-1.23263	
-13.2337	0.268711	-1.23439	
-12.0332	0	-1.10994	
-8.97505	0	-0.83907	
-10.5473	0.0522709	-0.9763	
-7.71952	0.233077	-0.713621	
-12.4019	0.293965	-1.12466	
-12.1156	1.52249	-1.11337	
-10.5486	1.6164	-0.976351	
-10.489	1.57352	-0.973897	
-10.4845	1.65009	-0.973707	
-10.8462	1.59898	-0.98761	
-10.685	0	-0.982662	
-10.6305	0.0589648	-0.979939	
-10.6124	0	-0.979074	
-10.1305	1.47391	-0.961039	
-11.7787	1.46129	-1.10013	
-11.7562	1.53681	-1.09949	
-12.2172	0.286849	-1.11795	
-10.2715	0.724627	-0.96506	
-8.71627	0.784216	-0.828459	
-11.7857	0.788387	-1.10035	
-12.3518	0.223399	-1.12395	
-9.20681	1.34531	-0.849584	
-9.20206	1.40661	-0.849417	
-12.2709	1.36487	-1.12063	
-10.7403	1.29047	-0.985287	
-9.18838	0.414541	-0.848895	
-10.7011	0.434011	-0.983458	
-12.2758	0.349215	-1.12087	
-10.8167	0.422964	-0.98762	
-12.3325	0.489015	-1.12332	
-10.839	0.488653	-0.987685	
-7.42772	1.24582	-0.70282	
-10.5446	1.18695	-0.976191	
-9.14827	1.58611	-0.84711	
-8.71981	0.42229	-0.828586	
-8.74199	0.312816	-0.8294	
-11.9533	0.310713	-1.10653	
-10.3373	0.255176	-0.967509	
-10.4031	0.23291	-0.970214	
-13.865	1.20734	-1.25893	
-10.6036	1.1572	-0.978663	
-10.6728	1.15129	-0.98205	
-9.09614	1.2101	-0.844524	
-12.1783	1.08885	-1.11605	
-10.2162	1.61914	-0.963265	
-10.2351	1.69424	-0.963847	
-11.7219	1.67616	-1.0986	
-10.284	1.64844	-0.965499	
-10.3124	1.72086	-0.966545	
-10.6574	0.644913	-0.981274	
-9.16032	1.94629	-0.847677	
-12.2192	1.93331	-1.11805	
-10.7272	1.88539	-0.984702	
-11.7043	0.0804625	-1.09818	
-8.51375	0.127785	-0.823092	
-8.52499	1.88257	-0.823286	
-11.7073	1.92762	-1.09825	
-10.1777	0.21589	-0.962178	
-9.15296	0.273142	-0.847333	
-10.7115	0.209198	-0.983964	
-9.14159	0.143339	-0.846788	
-10.7777	0.145092	-0.986724	
-9.08912	0.115792	-0.844172	
-10.6543	1.85807	-0.98112	
-10.5886	1.88373	-0.977987	
-9.01339	1.94611	-0.840606	
-8.97505	2	-0.83907	
-10.6124	2	-0.979074	
-9.34332	0.682902	-0.846516	
-12.5235	0.64279	-1.09568	
-8.86989	1.88295	-0.834631	
-10.3132	1.53147	-0.966578	
-10.2908	1.46174	-0.965746	
-10.3553	1.47178	-0.968227	
-10.8577	1.08229	-0.98737	
-8.60103	0.329519	-0.824928	
-11.5861	0.43708	-1.0962	
-11.5235	0.429861	-1.09568	
-8.78276	1.67699	-0.830983	
-10.2659	1.57544	-0.964866	
-9.09617	1.60691	-0.844526	
-10.6199	1.65508	-0.979429	
-10.721	1.81461	-0.984413	
-9.09474	1.78507	-0.844454	
-8.59984	0.749751	-0.824898	
-10.2151	0.701087	-0.963232	
-11.6605	0.758919	-1.09729	
-10.9581	0.429861	-0.958716	
-12.4574	0.409639	-1.1224	
-10.7891	1.77163	-0.987067	
-12.4242	1.71936	-1.1243	
-11.7173	1.1716	-1.09849	
-10.1846	1.09553	-0.962363	
-11.8228	1.76477	-1.10154	
-8.76913	1.7791	-0.830442	
-10.4581	0.277236	-0.972571	
-11.9987	0.151691	-1.10846	
-8.97437	1.84554	-0.839043	
-10.4736	1.83711	-0.973239	
-10.3541	1.33945	-0.96818	
-10.3251	1.40104	-0.967034	
-9.20193	0.297567	-0.849412	
-10.7868	0.357474	-0.987002	
-9.01813	0.760525	-0.840809	
-10.5339	0.810302	-0.975764	
-10.4419	0.749841	-0.971874	
-10.3769	0.751361	-0.969113	
-10.3992	0.686344	-0.970046	
-10.4686	0.810027	-0.973022	
-10.4032	0.81571	-0.970219	
-14.6544	1.64173	-1.36959	
-10.0237	1.65788	-0.959272	
-12.5235	1	-1.09568	
-12.5235	1.07055	-1.09568	
-9.34402	1.0308	-0.846414	
-8.45741	1.5272	-0.822303	
-13.089	1.57014	-1.23263	
-8.81306	0.121062	-0.83222	
-10.4251	0.068568	-0.971152	
-10.4926	0.0968802	-0.97405	
-13.089	1.85639	-1.23263	
-11.5902	1.8723	-1.09624	
-13.089	0.0721374	-1.23263	
-10.0183	0.116381	-0.959212	
-10.5243	0.378957	-0.975376	
-13.089	1.2856	-1.23263	
-10.0239	1.33655	-0.959273	
-13.089	1.35721	-1.23263	
-8.84757	1.07097	-0.833675	
-10.4195	1.13809	-0.970911	
-8.80019	1.10545	-0.831689	
-10.4726	1.08867	-0.973195	
-10.4339	0.876824	-0.971528	
-10.3722	0.882801	-0.968918	
-11.9039	0.819303	-1.10451	
-10.5918	1.38959	-0.978131	
-9.01995	1.45442	-0.840888	
-10.6506	1.41914	-0.980934	
-8.89643	0.213959	-0.835775	
-10.4198	0.621411	-0.970926	
-10.382	0.549577	-0.969326	
-10.4434	0.556476	-0.971939	
-10.4112	0.491713	-0.970555	
-12.2894	0.0712931	-1.12151	
-10.3518	1.1672	-0.968089	
-10.6073	1.57159	-0.978835	
-10.1517	0.47164	-0.961523	
-9.33996	0.476615	-0.846987	
-12.446	0.546631	-1.12329	
-11.5235	0.500665	-1.09568	
-10.0181	0.802839	-0.959209	
-8.52787	0.646217	-0.823338	
-8.50569	0.69766	-0.82296	
-10.0712	1.17495	-0.959921	
-11.589	1.0996	-1.09623	
-11.6734	1.1007	-1.09753	
-11.7816	1.32398	-1.10022	
-8.58215	1.29855	-0.824467	
-10.1774	1.24767	-0.962169	
-10.36	0.61668	-0.96842	
-10.3229	0.546139	-0.966947	
-8.69876	0.561624	-0.827848	
-10.2761	0.491616	-0.965219	
-8.58851	1.0418	-0.824618	
-10.2146	1.02609	-0.963216	
-11.721	0.976287	-1.09858	
-10.2317	0.965074	-0.96374	
-10.3642	0.954567	-0.968589	
-10.0917	1.62515	-0.960268	
-8.58759	1.59965	-0.824596	
-9.28579	0.360303	-0.850564	
-10.0283	1.5889	-0.959325	
-10.2858	1.33334	-0.965566	
-10.2595	1.39903	-0.964647	
-10.2471	1.2624	-0.964234	
-11.9	0.683934	-1.10436	
-10.8899	0.967445	-0.985629	
-14.0025	0.89983	-1.26076	
-10.7764	0.914042	-0.986683	
-10.5262	1.0505	-0.975454	
-9.17084	1.13415	-0.848152	
-9.12724	1.09375	-0.846084	
-8.86887	1.5431	-0.834588	
-10.7843	0.770923	-0.98693	
-9.153	0.785107	-0.847335	
-9.07566	1.34839	-0.843502	
-12.3905	1.29694	-1.12465	
-10.8079	1.65281	-0.987491	
-11.5951	1.25411	-1.0963	
-10.0879	1.32162	-0.9602	
-9.02887	0.633745	-0.841282	
-10.6484	0.587288	-0.980825	
-10.8491	0.6882	-0.987564	
-10.495	0.873522	-0.974152	
-7.41434	1.36753	-0.702299	
-10.685	2	-0.982662	
-8.65118	1.1987	-0.826317	
-10.4614	0.394274	-0.972715	
-10.4608	0.336713	-0.972686	
-10.7828	0.702848	-0.986885	
-10.9581	0.929454	-0.958716	
-10.9581	0.857842	-0.958716	
-9.30799	1.94387	-0.84979	
-10.4827	1.16572	-0.973629	
-10.5395	1.11814	-0.975988	
-11.7415	1.79696	-1.09909	
-8.61883	1.73661	-0.825393	
-8.83997	0.370041	-0.833351	
-8.88826	0.446178	-0.835423	
-8.85244	0.936014	-0.833883	
-6.92884	1.0523	-0.685825	
-10.0977	1.01699	-0.960378	
-10.9581	1.49933	-0.958716	
-11.6067	0.586375	-1.09645	
-11.6432	0.509874	-1.09699	
-10.8965	1.54624	-0.984998	
-8.7064	0.664255	-0.828112	
-8.75754	0.750955	-0.829991	
-8.70958	0.837223	-0.828223	
-13.089	1.21388	-1.23263	
-8.44394	1.17543	-0.822158	
-13.089	0.929454	-1.23263	
-8.4448	0.873321	-0.822167	
-14.6544	0.857842	-1.36959	
-10.0146	0.725606	-0.959172	
-13.089	0.786116	-1.23263	
-13.089	0.714404	-1.23263	
-10.0306	0.653203	-0.959353	
-13.089	0.64279	-1.23263	
-14.6544	0.571209	-1.36959	
-13.089	1.14216	-1.23263	
-8.52392	0.957788	-0.823267	
-7.054	0.930031	-0.688451	
-10.2989	0.613315	-0.966042	
-9.34865	1.6049	-0.845673	
-8.93831	0.552048	-0.837561	
-10.4833	0.616488	-0.973654	
-11.6656	1.54065	-1.09738	
-10.1171	0.177963	-0.960757	
-10.1038	1.24487	-0.960494	
-11.6553	1.39957	-1.0972	
-8.61345	0.139289	-0.82525	
-10.0811	1.69928	-0.960083	
-10.1141	1.75272	-0.960696	
-10.1526	1.35868	-0.961545	
-8.6399	1.39206	-0.825984	
-8.59341	1.42097	-0.824737	
-10.0916	1.81911	-0.960267	
-10.8915	1.6612	-0.985489	
-10.9581	1.71339	-0.958716	
-9.13251	0.496577	-0.846344	
-10.7217	0.549039	-0.984449	
-8.57572	1.85508	-0.824318	
-8.44648	0.520218	-0.822184	
-7.0103	0.528047	-0.687359	
-10.9581	1.57014	-0.958716	
-12.5235	0.500665	-1.09568	
-7.53484	0.932053	-0.707773	
-8.68495	1.07414	-0.827383	
-8.68839	1.51028	-0.827498	
-12.5235	1.64173	-1.09568	
-8.62466	0.282674	-0.825553	
-10.9581	0.571209	-0.958716	
-7.78262	0.59575	-0.708813	
-6.89273	1.71321	-0.685352	
-11.8374	1.88726	-1.10203	
-9.33645	0.827624	-0.847434	
-8.67514	1.82622	-0.827063	
-8.45563	1.40032	-0.822283	
-10.1961	1.87065	-0.962679	
-7.68006	0.866054	-0.713623	
-7.64723	1.24863	-0.71282	
-8.73381	1.94589	-0.829095	
-7.78016	1.75284	-0.709211	
-7.12655	1.94185	-0.690659	
-10.9218	0.611259	-0.918216	
-12.4672	0.691022	-1.0455	
-9.35336	0.951279	-0.779658	
-12.4734	0.885946	-1.04825	
-10.4466	0	-0.867945	
-10.3783	0	-0.875146	
-11.9829	0.0792566	-1.00773	
-13.159	0	-1.21415	
-8.50045	0.0639973	-0.794077	
-10.0976	0	-0.92373	
-10.0112	0.0936441	-0.944517	
-10.3071	0	-0.884661	
-10.2365	0	-0.896015	
-10.2796	0.0798839	-0.888858	
-9.36434	0.821071	-0.785823	
-10.9206	1.45488	-0.917583	
-10.9237	1.89867	-0.919245	
-8.88116	2	-0.730986	
-10.5182	2	-0.862611	
-12.0615	1.91895	-1.00097	
-8.50389	1.93754	-0.793267	
-10.0163	1.90585	-0.94321	
-10.0281	2	-0.940231	
-10.0976	2	-0.92373	
-10.3783	2	-0.875146	
-10.3426	1.92228	-0.879671	
-10.3071	2	-0.884661	
-10.5548	1.85759	-0.860838	
-12.0458	1.82278	-1.0021	
-11.8407	0.600657	-1.02652	
-10.2202	0.663037	-0.898917	
-11.853	0.68441	-1.02458	
-10.0129	0.939959	-0.944092	
-10.022	1.33496	-0.941783	
-12.0313	1.68417	-1.00324	
-8.9304	1.74973	-0.727062	
-13.6931	1.71007	-1.13449	
-10.2727	1.02684	-0.889968	
-11.8486	0.943151	-1.02527	
-10.2175	0.965528	-0.899398	
-10.0484	0.553448	-0.935229	
-10.0055	0.495631	-0.946007	
-10.7079	1.36962	-0.864643	
-13.7705	1.42353	-1.13433	
-10.7184	1.43872	-0.865703	
-12.3895	1.02505	-1.02046	
-10.7579	0.965827	-0.870739	
-12.2965	1.04082	-1.00409	
-12.2354	1.21008	-0.998713	
-13.8896	1.26463	-1.14478	
-10.7527	1.19252	-0.869973	
-10.2615	1.8275	-0.891787	
-11.8392	1.91186	-1.02675	
-11.8944	1.83465	-1.01849	
-11.958	1.04863	-1.01044	
-10.332	1.0111	-0.881103	
-11.8809	1.09426	-1.0204	
-8.81903	1.10778	-0.737451	
-12.0308	1.09436	-1.00328	
-10.5013	0.92332	-0.863656	
-10.5395	0.983948	-0.861499	
-13.7133	0.912712	-1.13397	
-8.96084	1.65028	-0.725204	
-9.01465	1.64109	-0.723136	
-12.0978	1.58611	-0.998805	
-10.0283	0.621253	-0.940185	
-8.52934	0.607584	-0.787401	
-11.7	0.544593	-1.05264	
-11.7206	0.626188	-1.04835	
-11.9559	0.883867	-1.01068	
-10.3494	0.814004	-0.878765	
-10.3251	0.883506	-0.882072	
-8.77821	0.94284	-0.742566	
-8.72512	0.823889	-0.750196	
-10.2559	0.86549	-0.892712	
-10.7013	0.577518	-0.864046	
-12.2643	0.659851	-1.00079	
-10.7631	0.634606	-0.871519	
-11.6954	0.0913029	-1.05361	
-10.0587	0.141129	-0.932745	
-10.4848	1.15841	-0.864802	
-13.7025	1.18235	-1.13421	
-8.96986	1.11752	-0.724741	
-12.4082	0.938839	-1.02526	
-9.32718	0.99711	-0.767796	
-10.518	0.516229	-0.862622	
-12.1118	0.597248	-0.998147	
-10.5924	0.53029	-0.859918	
-11.9336	1.25683	-1.01333	
-11.9136	1.17353	-1.01589	
-10.2997	1.22905	-0.88577	
-12.4292	1.10599	-1.03146	
-10.9077	1.05145	-0.911183	
-10.8645	1.1866	-0.89473	
-10.9175	1.17077	-0.915958	
-13.4158	1.39834	-1.16196	
-8.72383	1.4857	-0.750396	
-10.3495	1.4682	-0.878757	
-12.2477	0.907417	-0.9995	
-10.6293	0.841878	-0.860141	
-14.0098	0.492781	-1.17353	
-9.25689	0.543817	-0.746121	
-10.8712	0.570722	-0.89694	
-10.6493	1.72433	-0.860749	
-10.6052	1.78876	-0.859866	
-10.5196	0.853718	-0.862534	
-10.4325	0.389993	-0.869264	
-8.87453	0.316743	-0.731597	
-10.3784	0.343184	-0.875135	
-10.553	0.780432	-0.860912	
-9.00648	0.84375	-0.72332	
-10.623	0.770799	-0.860021	
-10.4682	0.577671	-0.866091	
-11.5981	1.02428	-1.07605	
-11.8002	0.237428	-1.03329	
-10.2506	0.153222	-0.893612	
-10.183	0.163431	-0.905869	
-11.8912	0.159631	-1.01893	
-10.6725	1.80219	-0.861901	
-9.13694	1.86234	-0.72718	
-10.7514	1.80354	-0.869776	
-10.5805	0.329138	-0.860087	
-12.2206	0.30982	-0.997955	
-12.1685	0.244444	-0.996825	
-10.6126	0.391669	-0.859898	
-8.64671	1.03303	-0.763413	
-10.5809	0.717798	-0.860079	
-10.4993	0.718603	-0.863788	
-8.97178	0.665477	-0.724647	
-10.6123	0.658642	-0.859896	
-8.87297	1.87015	-0.731743	
-10.4028	1.80864	-0.872339	
-8.97801	1.78424	-0.724357	
-10.4303	1.74797	-0.869479	
-10.6778	0.386445	-0.862238	
-10.7079	0.441074	-0.864643	
-10.7472	0.365688	-0.869195	
-10.5191	1.25637	-0.862562	
-10.5939	1.24657	-0.859905	
-10.5419	1.3122	-0.861385	
-9.04202	1.30199	-0.722912	
-10.6675	1.27096	-0.86161	
-10.393	0.276367	-0.873424	
-13.4427	0.292881	-1.15789	
-8.7817	0.234809	-0.742102	
-8.72578	0.216682	-0.750094	
-10.7697	0.891352	-0.872579	
-10.569	1.48059	-0.860358	
-10.4932	1.4429	-0.864206	
-12.0569	1.51083	-1.00128	
-10.4218	1.45569	-0.870331	
-10.5815	1.36546	-0.860068	
-10.652	1.34038	-0.860858	
-10.3176	1.70558	-0.88314	
-10.3325	1.63351	-0.881032	
-10.2606	1.65739	-0.891939	
-10.1814	0.837679	-0.906172	
-10.2257	0.792044	-0.897928	
-10.2379	1.09876	-0.895774	
-11.8332	1.30603	-1.02772	
-8.65564	1.35315	-0.761792	
-12.1994	0.166399	-0.997209	
-10.5521	0.169498	-0.860946	
-11.7512	1.40455	-1.04228	
-11.9167	0.41495	-1.01548	
-11.9693	0.474418	-1.00918	
-12.2044	1.05334	-0.997348	
-10.6798	0.984567	-0.862371	
-10.6432	1.13834	-0.860527	
-10.278	0.452043	-0.889116	
-11.8406	0.374434	-1.02653	
-8.65381	0.42015	-0.762122	
-11.7637	0.484457	-1.03991	
-10.7958	0	-0.877312	
-10.8125	0.0667918	-0.880812	
-10.8602	0	-0.893392	
-10.7958	2	-0.877312	
-9.19887	1.94291	-0.734757	
-9.15995	2	-0.729508	
-10.8334	0.853126	-0.885828	
-10.8602	2	-0.893392	
-12.3923	1.92333	-1.02114	
-8.89018	0.506745	-0.730185	
-10.4026	0.56183	-0.872357	
-10.4104	0.636864	-0.871519	
-10.3413	0.546278	-0.879844	
-10.342	0.617676	-0.879747	
-12.3087	0.078087	-1.00563	
-12.2688	1.56345	-1.00119	
-9.18998	1.62497	-0.733404	
-10.7875	1.57191	-0.875708	
-12.4109	0.153301	-1.02601	
-12.4151	0.252546	-1.02721	
-9.33547	0.211952	-0.771223	
-10.4737	0.650538	-0.865649	
-11.9885	0.718414	-1.00716	
-10.4123	0.798942	-0.871314	
-10.4793	0.786413	-0.865213	
-8.79234	0.678765	-0.74072	
-10.352	0.741319	-0.878421	
-12.4737	1.80752	-1.04842	
-10.8595	1.74768	-0.893174	
-12.396	1.83308	-1.02205	
-10.4199	1.20637	-0.870527	
-11.7006	1.92648	-1.05251	
-11.6449	1.86025	-1.06483	
-10.8792	0.344499	-0.899699	
-10.9051	0.410465	-0.910026	
-12.3057	0.282592	-1.00522	
-12.3755	0.338159	-1.01723	
-12.0323	0.251286	-1.00315	
-8.95807	0.217721	-0.725354	
-12.0253	0.164212	-1.00374	
-11.601	0.230355	-1.07534	
-12.1565	1.93673	-0.996891	
-10.8479	1.26103	-0.889743	
-10.9115	1.24459	-0.912989	
-10.8329	1.32491	-0.885701	
-12.469	1.31978	-1.04629	
-12.3311	0.804788	-1.00889	
-12.4029	0.759874	-1.02384	
-10.7747	0.714139	-0.873416	
-10.401	0.206449	-0.872531	
-8.82	0.138218	-0.737338	
-10.0813	1.72394	-0.927428	
-10.0463	1.78328	-0.93573	
-11.6908	1.79352	-1.05458	
-10.4789	1.03613	-0.865246	
-12.1175	1.05319	-0.997908	
-10.6028	0.992616	-0.859866	
-9.02729	1.10914	-0.722956	
-12.3404	0.204267	-1.01041	
-10.6864	0.22975	-0.862836	
-10.455	0.863551	-0.8672	
-10.4369	0.938032	-0.868844	
-9.23734	1.76807	-0.741762	
-12.3571	1.69808	-1.01346	
-10.7199	1.73846	-0.865858	
-10.7768	0.425321	-0.873786	
-10.7329	0.500006	-0.867347	
-10.6364	0.456585	-0.860316	
-10.6639	0.51622	-0.861419	
-10.1581	0.232607	-0.910806	
-10.3321	1.33248	-0.881094	
-10.4076	1.52656	-0.871809	
-11.8982	1.55451	-1.01796	
-11.9743	1.60907	-1.00864	
-8.65195	0.903738	-0.762458	
-11.7092	0.902651	-1.0507	
-10.6578	0	-0.861115	
-10.5866	0	-0.859986	
-10.6092	0.051764	-0.859878	
-10.5182	0	-0.862611	
-10.5395	0.0537652	-0.861499	
-10.4362	1.3862	-0.868908	
-10.3655	1.3946	-0.876701	
-10.4421	1.26486	-0.868357	
-8.92513	1.21166	-0.727429	
-10.3992	1.32507	-0.872727	
-10.4702	1.32038	-0.865926	
-9.31578	0.814456	-0.763462	
-10.2058	1.88165	-0.901537	
-10.6336	0.594595	-0.860242	
-9.36412	1.38879	-0.785692	
-10.8799	1.39048	-0.899929	
-11.7126	0.75837	-1.05	
-10.1037	0.821275	-0.922352	
-10.9124	0.75743	-0.913412	
-11.7604	1.60921	-1.04054	
-10.1947	1.68446	-0.903627	
-8.62258	1.75212	-0.767934	
-11.8156	1.73879	-1.03065	
-11.6764	1.59941	-1.05771	
-10.126	1.66432	-0.917485	
-12.2576	1.93182	-1.00024	
-10.767	1.87756	-0.872142	
-10.9206	0.146224	-0.917588	
-9.36169	1.10891	-0.784241	
-9.35585	0.544978	-0.780973	
-11.7124	1.32361	-1.05003	
-10.2051	0.0813768	-0.901668	
-10.1677	0	-0.908864	
-9.24344	1.21454	-0.74306	
-10.8086	1.14931	-0.879957	
-10.6315	1.87232	-0.860189	
-10.1083	1.24379	-0.921342	
-10.0701	1.29411	-0.930035	
-10.1743	1.24385	-0.907556	
-10.2723	1.16415	-0.890027	
-13.2746	0.398041	-1.18767	
-11.5975	1.20048	-1.07622	
-10.0213	1.11243	-0.941949	
-10.2078	0.560548	-0.901165	
-10.2726	0.523541	-0.889982	
-12.2667	1.65544	-1.001	
-10.5699	0.109422	-0.860333	
-8.81517	1.86761	-0.737906	
-10.414	1.9304	-0.871131	
-9.15604	0.741046	-0.729074	
-10.8315	0.676971	-0.885323	
-8.59597	0.693471	-0.773169	
-10.2204	0.726744	-0.898874	
-10.2874	0.760134	-0.887649	
-7.08331	0.61385	-0.626079	
-8.4391	0.170423	-0.809287	
-9.13792	1.15632	-0.727267	
-9.12525	1.09603	-0.726202	
-10.7482	1.1197	-0.869331	
-8.5815	1.85832	-0.776121	
-10.2002	1.8111	-0.902588	
-10.8598	1.45652	-0.893274	
-10.8203	1.39372	-0.882605	
-8.63884	1.94352	-0.764863	
-10.2365	2	-0.896015	
-10.6841	0.79232	-0.862666	
-9.14343	0.850283	-0.727781	
-10.6596	0.718066	-0.861202	
-10.1096	0.180772	-0.921049	
-10.634	1.51591	-0.860251	
-12.1923	1.59438	-0.99705	
-9.12058	1.48768	-0.725849	
-10.7528	1.50665	-0.869985	
-8.44839	1.83632	-0.806891	
-11.8045	1.53312	-1.03255	
-8.60193	1.54488	-0.771974	
-10.0113	1.71558	-0.944501	
-12.445	1.66217	-1.0368	
-10.2034	0.358669	-0.901984	
-10.1468	0.310734	-0.913116	
-9.1964	1.39867	-0.734372	
-10.792	1.4537	-0.876569	
-10.7716	1.33896	-0.872889	
-10.5659	0.46147	-0.86045	
-8.98123	0.394907	-0.724215	
-12.0535	0.433969	-1.00153	
-8.99444	1.42238	-0.723689	
-10.5065	1.37641	-0.863321	
-10.8185	0.606335	-0.882179	
-10.055	0.879786	-0.933632	
-10.0664	0.752034	-0.930926	
-10.0231	0.815753	-0.941489	
-11.66	1.38066	-1.06138	
-12.4668	1.52165	-1.04534	
-10.8264	1.51493	-0.884059	
-9.22877	1.08423	-0.740031	
-10.0234	1.59815	-0.941409	
-9.02117	2	-0.723027	
-11.7618	1.16076	-1.04026	
-8.57451	1.18618	-0.777576	
-8.852	1.14984	-0.733817	
-10.2363	1.23168	-0.896053	
-10.0822	1.16237	-0.927227	
-10.3881	1.68406	-0.873987	
-7.57654	0.333428	-0.590684	
-10.024	1.52552	-0.941281	
-10.0704	0.488947	-0.929978	
-8.70253	1.59304	-0.753769	
-10.8588	1.57917	-0.892947	
-10.0485	1.65719	-0.935211	
-10.7633	0.559694	-0.871563	
-10.8012	0.490232	-0.878395	
-10.0873	0.956713	-0.926051	
-10.158	0.989568	-0.910818	
-10.3622	1.75665	-0.877119	
-8.73692	1.77244	-0.748407	
-8.57577	1.72615	-0.777312	
-8.68382	0.310718	-0.756873	
-8.63127	0.290342	-0.766282	
-8.6423	1.29539	-0.764222	
-10.6578	2	-0.861115	
-8.76918	0.482459	-0.743786	
-9.14734	1.30941	-0.728165	
-10.4962	0.109198	-0.864	
-10.1109	1.03572	-0.920763	
-10.172	1.07584	-0.908021	
-10.1677	2	-0.908864	
-9.30801	0.633303	-0.760731	
-10.8404	0.422033	-0.887667	
-7.66472	0.266461	-0.603346	
-10.0943	0.262786	-0.924462	
-9.06627	1.66446	-0.723235	
-9.00356	1.54135	-0.723399	
-10.0522	0.371856	-0.934314	
-8.51904	0.429791	-0.789747	
-8.89772	1.56661	-0.729543	
-8.91214	1.62234	-0.728388	
-7.18511	1.2804	-0.609446	
-10.0204	0.68957	-0.942167	
-8.43969	0.753859	-0.809132	
-10.9179	0.285029	-0.916125	
-8.44378	1.26259	-0.808077	
-12.4848	0	-1.05385	
-8.45173	1.39629	-0.806038	
-11.6088	1.45609	-1.07342	
-10.0285	0.308608	-0.940141	
-11.6594	0.682551	-1.0615	
-10.0175	0.423502	-0.942916	
-10.9193	2	-0.916894	
-8.91402	0.980727	-0.728244	
-11.6707	1.51237	-1.05898	
-10.1285	1.11653	-0.916948	
-8.97158	0.277428	-0.724657	
-12.0673	0.33864	-1.00058	
-8.50852	1.08627	-0.792183	
-9.06846	0.0993244	-0.72329	
-10.682	0.0548078	-0.862521	
-6.93662	1.55961	-0.656738	
-10.9192	1.72118	-0.916849	
-9.31888	1.94239	-0.7646	
-9.3107	1.87535	-0.761659	
-8.56609	0.473525	-0.77935	
-8.52959	0.331482	-0.787346	
-9.25357	1.63205	-0.745341	
-9.35137	1.59521	-0.778632	
-10.178	1.47977	-0.906831	
-10.7179	0.160133	-0.865645	
-9.12055	0.114041	-0.725846	
-8.67116	1.45658	-0.759047	
-9.21608	0.130179	-0.73765	
-10.3862	0.972536	-0.874206	
-10.891	0.0752793	-0.904127	
-8.91108	0.0509452	-0.72847	
-8.86612	1.00206	-0.7324	
-7.19591	0.356044	-0.607912	
-10.3461	0.0762643	-0.879197	
-8.55616	1.44431	-0.781477	
-10.7254	0	-0.866467	
-7.79702	0.460204	-0.647736	
-7.50405	0.946643	-0.586357	
-10.0324	2	-0.94942	
-10.1114	2	-0.940886	
-10.275	2	-0.927623	
-10.361	2	-0.923033	
-10.192	2	-0.93361	
-12.1027	2	-1.05572	
-12.2809	2	-1.06186	
-10.8873	2	-0.945819	
-10.804	2	-0.933836	
-10.6263	2	-0.919879	
-12.0132	2	-1.05703	
-13.089	-0.0721374	-1.23263	
-8.44246	-0.0524234	-0.822143	
-8.70958	-1.94219	-0.828223	
-10.2093	-1.93265	-0.96306	
-10.2497	-2	-0.96432	
-10.0687	-0.0610541	-0.959882	
-10.213	-0.0745946	-0.963168	
-10.355	-0.063891	-0.968216	
-10.9581	-1.2856	-0.958716	
-10.8964	-1.32684	-0.985014	
-10.9581	-1.35721	-0.958716	
-10.9581	-0.0721374	-0.958716	
-12.5235	-0.215036	-1.09568	
-10.9581	-0.143615	-0.958716	
-10.9069	-0.177622	-0.983748	
-9.39265	-0.286611	-0.821757	
-10.9079	-0.326516	-0.983596	
-12.5235	-0.358269	-1.09568	
-10.9081	-0.255005	-0.983569	
-10.9581	-0.714404	-0.958716	
-12.4641	-0.754353	-1.12173	
-10.9581	-0.786116	-0.958716	
-10.3953	-2	-0.969884	
-11.9156	-1.91632	-1.10498	
-10.3226	-2	-0.966937	
-8.46574	-2	-0.8224	
-8.44357	-1.94543	-0.822155	
-9.95809	-2	-0.958716	
-10.9092	-1.39944	-0.983418	
-10.9581	-1.42879	-0.958716	
-7.82721	-2	-0.684797	
-12.5235	-1.92786	-1.09568	
-9.33311	-2	-0.84782	
-10.1042	-2	-0.9605	
-10.0683	-1.9425	-0.959875	
-12.0743	-1.91894	-1.1117	
-10.4677	-2	-0.972986	
-8.97505	-2	-0.83907	
-10.9581	-1.21388	-0.958716	
-10.8963	-1.25457	-0.985024	
-12.5235	-1.78496	-1.09568	
-7.78336	-1.82622	-0.708688	
-10.9581	-1.85639	-0.958716	
-10.1529	-0.824164	-0.961552	
-10.0751	-0.840188	-0.959984	
-11.6954	-0.897364	-1.09799	
-13.089	-1.07055	-1.23263	
-11.589	-1.0996	-1.09623	
-13.1491	-0.999321	-1.23313	
-10.3374	-1.67801	-0.967513	
-10.4085	-1.66711	-0.970441	
-11.9065	-1.60664	-1.10462	
-10.221	-0.446895	-0.963409	
-13.3728	-0.354649	-1.23798	
-10.1672	-0.398171	-0.961904	
-11.9575	-1.83141	-1.10671	
-8.88599	-1.78071	-0.835325	
-11.9591	-1.74009	-1.10677	
-12.1194	-1.7075	-1.11352	
-10.4725	-1.71822	-0.97319	
-10.5196	-1.78279	-0.97518	
-12.1594	-1.79397	-1.11518	
-10.4194	-1.60358	-0.970906	
-10.3741	-1.5428	-0.968999	
-8.75461	-1.84473	-0.829878	
-12.278	-1.45461	-1.12098	
-10.6304	-1.49442	-0.979935	
-10.6778	-1.53304	-0.982302	
-13.8104	-1.28582	-1.2563	
-10.6095	-1.23395	-0.978938	
-13.7112	-1.30809	-1.25155	
-13.8956	-1.05755	-1.26019	
-9.27419	-1.02435	-0.850721	
-9.2256	-0.98494	-0.85016	
-10.5316	-0.659051	-0.975673	
-10.4646	-0.685531	-0.972852	
-12.0832	-0.738859	-1.11206	
-12.0586	-1.33862	-1.11103	
-12.0683	-1.25231	-1.11144	
-13.089	-1.42879	-1.23263	
-13.089	-1.49933	-1.23263	
-11.6081	-1.4654	-1.09646	
-10.0456	-0.918262	-0.959544	
-10.0977	-1.01699	-0.960378	
-8.52392	-0.957788	-0.823267	
-13.3546	-0.881052	-1.23741	
-10.2317	-0.965074	-0.96374	
-10.2952	-0.954992	-0.965904	
-8.99148	-0.86716	-0.839714	
-12.1888	-0.888326	-1.11655	
-10.6055	-0.817828	-0.978751	
-11.699	-0.589278	-1.09807	
-11.716	-0.676587	-1.09846	
-11.7813	-0.618429	-1.10021	
-12.3756	-0.0745363	-1.12449	
-10.5447	-1.18703	-0.976197	
-10.4827	-1.16574	-0.97363	
-10.4781	-0.496062	-0.97343	
-12.1245	-0.503541	-1.11372	
-10.5137	-0.439924	-0.974938	
-12.1609	-0.698429	-1.11525	
-10.3627	-1.23016	-0.96853	
-11.8499	-1.19538	-1.10248	
-10.3134	-1.27217	-0.966583	
-10.3541	-1.33945	-0.96818	
-8.81652	-1.2898	-0.832364	
-12.2812	-0.976561	-1.12113	
-12.1828	-0.96716	-1.11627	
-10.6713	-1.03431	-0.98197	
-13.5718	-1.00672	-1.24575	
-10.5293	-0.987297	-0.975577	
-10.4777	-0.93866	-0.973414	
-11.9004	-0.379548	-1.10438	