<VTKFile type="UnstructuredGrid" version="0.1" byte_order="LittleEndian">
	<UnstructuredGrid>
		<Piece NumberOfPoints="1917" NumberOfCells="56">
			<CellData Scalars="scalars">
				<DataArray type="Float64" Name="Doublet Strengths" NumberOfComponents="1" Format="ascii">
-0.721542	
-2.79012	
-2.1256	
-2.50325	
-2.8974	
-3.06447	
-3.07412	
-2.9891	
-2.32044	
-2.04651	
-1.2653	
-3.58101	
-2.14101	
-3.37465	
-2.10227	
-2.18429	
-2.94361	
-2.76929	
-2.75242	
-2.47278	
-2.8505	
-3.03426	
-2.38606	
-2.96099	
-5.1253	
-2.70955	
-1.99835	
-2.06821	
-5.12384	
-2.10142	
-2.65488	
-2.93543	
-2.4984	
-1.92874	
-1.0637	
-3.53223	
-2.0649	
-2.49709	
-2.96319	
-1.95007	
-2.0961	
-2.62989	
-2.63988	
-2.45479	
-2.34791	
-2.62294	
-2.60393	
-2.4739	
-2.05544	
-2.28317	
-2.52777	
-0.655087	
-1.72817	
-2.01253	
-2.53576	
-1.35159	
				</DataArray>
				<DataArray type="Float64" Name="Velocity Potential" NumberOfComponents="1" Format="ascii">
-545.117	
-623.404	
-650.857	
-650.481	
-676.869	
-649.915	
-623.119	
-676.779	
-677.447	
-650.936	
-651.719	
-649.399	
-650.842	
-596.035	
-677.665	
-650.798	
-676.824	
-650.211	
-677.015	
-650.509	
-623.344	
-649.947	
-650.596	
-676.807	
-647.854	
-650.27	
-650.986	
-650.914	
-647.856	
-650.881	
-677.112	
-623.258	
-650.484	
-624.269	
-651.92	
-649.448	
-650.918	
-623.697	
-650.019	
-651.033	
-650.887	
-677.138	
-650.341	
-650.526	
-650.634	
-623.574	
-623.594	
-677.292	
-650.927	
-650.699	
-677.24	
-545.182	
-651.256	
-650.97	
-650.445	
-678.416	
				</DataArray>
			</CellData>
			<Points>
				<DataArray type="Float64" Name="Position" NumberOfComponents="3" Format="ascii">
-7.5407	0	-0.74147	
-6.30777	0.0524256	-0.635381	
-9.88693	0	-0.952491	
-7.68675	2	-0.744275	
-7.71798	1.93467	-0.745144	
-8.96888	2	-0.852262	
-7.61368	0	-0.74261	
-7.57827	0.0610502	-0.741992	
-7.7225	0.0745738	-0.745278	
-7.68675	0	-0.744275	
-7.75923	0	-0.74643	
-7.83216	0	-0.749047	
-7.90485	0	-0.751994	
-7.86348	0.0639395	-0.750284	
-7.21032	1.39584	-0.6595	
-8.40561	1.3266	-0.767153	
-8.46761	1.35721	-0.740826	
-9.88693	1.92786	-0.952491	
-6.30863	1.94512	-0.635389	
-9.67727	0.0721374	-0.846658	
-8.40364	0.0533506	-0.76735	
-7.25796	0	-0.634994	
-9.67727	0.215036	-0.846658	
-10.7971	0.171582	-0.980771	
-7.25796	0.143615	-0.634994	
-7.25796	0.286611	-0.634994	
-9.67727	0.358269	-0.846658	
-8.41743	0.326064	-0.76571	
-8.41522	0.252841	-0.766017	
-8.46761	0.714404	-0.740826	
-8.46761	0.786116	-0.740826	
-9.61782	0.754574	-0.872713	
-7.90485	2	-0.751994	
-7.83216	2	-0.749047	
-10.2886	1.91204	-0.962183	
-7.92009	1.66657	-0.75264	
-9.05978	1.60722	-0.855582	
-7.73074	0.446925	-0.745526	
-7.6778	0.397747	-0.744043	
-10.1713	0.354616	-0.957859	
-7.46761	2	-0.740826	
-8.46761	1.42879	-0.740826	
-6.0483	2	-0.529161	
-7.19842	2	-0.661057	
-9.67727	1.92786	-0.846658	
-7.61368	2	-0.74261	
-6.33105	2	-0.635637	
-7.5786	1.93956	-0.741997	
-6.73521	1.94176	-0.647869	
-10.4375	1.9167	-0.9685	
-7.97724	2	-0.755096	
-8.46761	1.21388	-0.740826	
-7.20629	1.19029	-0.660086	
-8.46761	1.14216	-0.740826	
-8.46761	1.2856	-0.740826	
-8.40591	1.25405	-0.767122	
-9.67727	1.78496	-0.846658	
-8.46761	1.85639	-0.740826	
-6.00441	1.82617	-0.553058	
-7.199	0.114671	-0.660993	
-9.60403	1.46922	-0.873976	
-9.55851	1.38862	-0.875625	
-7.66241	0.824164	-0.743662	
-8.84917	0.897364	-0.84897	
-7.58462	0.840188	-0.742094	
-8.31026	1.46561	-0.769462	
-8.67727	1	-0.846658	
-9.94708	0.999321	-0.952985	
-9.88693	1.07055	-0.952491	
-7.92892	1.60348	-0.753017	
-7.56014	0.356544	-0.741723	
-6.41479	0.353408	-0.63699	
-7.60455	0.427857	-0.742439	
-9.10978	1.82506	-0.857627	
-9.11347	1.7382	-0.857782	
-6.75128	1.77788	-0.648562	
-7.98238	1.71777	-0.755317	
-8.03028	1.78088	-0.757339	
-9.27332	1.70728	-0.864508	
-9.31337	1.79378	-0.866178	
-7.88358	1.54291	-0.751105	
-7.82134	1.8351	-0.748634	
-9.43161	1.45384	-0.87195	
-8.18742	1.53294	-0.764414	
-8.13994	1.49429	-0.762047	
-9.39005	1.28284	-0.869893	
-10.508	1.30815	-0.971354	
-8.11771	1.23305	-0.760986	
-10.6946	1.05577	-0.980088	
-8.31378	0.974397	-0.769535	
-7.1444	1.02275	-0.663909	
-8.04117	0.65903	-0.757784	
-9.23695	0.738857	-0.863048	
-7.97413	0.685529	-0.754962	
-9.21225	1.33866	-0.862012	
-9.22193	1.25226	-0.862421	
-9.88693	1.42879	-0.952491	
-8.76237	1.46516	-0.847454	
-9.88693	1.49933	-0.952491	
-7.55508	0.918262	-0.741654	
-10.1526	0.881052	-0.957268	
-7.81821	0.891355	-0.748516	
-7.80468	0.954992	-0.748014	
-6.85678	0.867158	-0.652951	
-8.115	0.817822	-0.76086	
-9.3424	0.888323	-0.867531	
-8.85274	0.589259	-0.849049	
-8.93506	0.618435	-0.851197	
-8.86977	0.676586	-0.849439	
-8.26608	0	-0.768073	
-8.33738	0	-0.769813	
-9.53788	0.0790961	-0.875584	
-7.94757	1.27156	-0.753818	
-7.93715	1.20368	-0.75337	
-7.98784	0.496767	-0.75555	
-8.02454	0.442032	-0.757101	
-9.27894	0.502871	-0.864726	
-9.31464	0.698424	-0.866236	
-7.87225	1.23016	-0.75064	
-7.82289	1.27217	-0.748693	
-9.00362	1.19537	-0.853458	
-6.68183	1.2898	-0.645601	
-6.89289	1.02577	-0.654462	
-9.33666	0.967174	-0.867256	
-8.18096	1.0342	-0.764089	
-10.3697	1.00672	-0.965605	
-7.98722	0.93866	-0.755524	
-8.03879	0.987296	-0.757687	
-9.05526	0.378981	-0.855403	
-7.90644	0.426844	-0.752061	
-9.0632	0.470462	-0.855717	
-9.59514	1.87857	-0.874555	
-9.58091	1.79633	-0.875188	
-8.30596	1.84585	-0.769365	
-8.09568	0.270573	-0.759991	
-6.87132	0.200611	-0.653533	
-9.35789	0.193571	-0.868286	
-9.29618	0.123897	-0.865429	
-8.03013	0.249496	-0.757332	
-8.02102	0.173576	-0.756955	
-9.54852	1.20923	-0.875649	
-8.30875	1.13932	-0.769429	
-8.39337	1.13751	-0.768217	
-8.14595	0.531427	-0.762341	
-8.14685	0.463982	-0.762385	
-8.09002	0.427199	-0.759746	
-8.15673	0.382421	-0.762875	
-7.13356	0.742778	-0.663985	
-9.55867	0.813881	-0.875623	
-9.28136	0.580015	-0.864822	
-8.15073	1.7199	-0.762577	
-9.37363	0.757182	-0.869068	
-6.96873	0.698895	-0.658128	
-8.23754	0.732194	-0.766849	
-8.21786	0.893597	-0.765921	
-8.18489	0.830458	-0.764287	
-9.47731	0.834567	-0.873967	
-8.33508	1.53139	-0.769804	
-8.28251	1.59044	-0.768679	
-8.25816	1.5207	-0.767752	
-9.02323	1.10613	-0.854175	
-7.74353	1.13654	-0.745923	
-9.51878	0.567577	-0.87527	
-9.58591	0.624293	-0.875002	
-8.30331	0.641057	-0.7693	
-8.23497	0.667946	-0.766731	
-8.23486	0.607392	-0.766726	
-9.43645	0.97644	-0.872181	
-8.40808	0	-0.76689	
-7.90062	1.40806	-0.751816	
-7.9333	1.34451	-0.753204	
-7.96688	1.41675	-0.75465	
-7.9278	1.48085	-0.752969	
-9.24269	1.43176	-0.863284	
-7.99247	1.49613	-0.755749	
-8.05846	0.925911	-0.758473	
-8.2255	1.74077	-0.766287	
-10.6456	1.66215	-0.977988	
-7.08088	1.70694	-0.663108	
-9.88693	1.71339	-0.952491	
-9.95739	1.77904	-0.953103	
-9.88693	1.78496	-0.952491	
-8.26608	2	-0.768073	
-9.51833	1.92525	-0.87526	
-8.33738	2	-0.769813	
-8.0985	0.350099	-0.760114	
-8.03478	0.315549	-0.757524	
-7.79459	1.02327	-0.747649	
-9.07383	1.02942	-0.856144	
-7.78965	0.0746863	-0.747472	
-7.82436	0.130322	-0.748749	
-8.95982	0.159825	-0.851967	
-8.9722	0.255296	-0.852372	
-6.59599	0.198868	-0.642218	
-7.86773	0.185075	-0.750456	
-8.92498	0.53229	-0.850899	
-12.3063	0.358269	-1.16416	
-8.67727	0.286611	-0.846658	
-7.5298	0.283499	-0.741343	
-9.88693	0.143615	-0.952491	
-8.75505	0.19815	-0.84736	
-9.88693	0.215036	-0.952491	
-10.0317	0.268711	-0.954249	
-9.1869	0	-0.860928	
-6.84036	0	-0.652307	
-8.05685	0.0522709	-0.75841	
-5.94061	0.233077	-0.557985	
-9.55566	0.293965	-0.875641	
-9.26932	1.52249	-0.864353	
-8.05816	1.6164	-0.758461	
-7.99854	1.57352	-0.756007	
-7.99407	1.65009	-0.755817	
-8.3557	1.59898	-0.76972	
-8.19457	0	-0.764772	
-8.13998	0.0589648	-0.762049	
-8.12194	0	-0.761184	
-7.64002	1.47391	-0.743149	
-8.93241	1.46129	-0.851117	
-8.90993	1.53681	-0.850472	
-9.37097	0.286849	-0.868935	
-7.78106	0.724627	-0.74717	
-6.58157	0.784216	-0.641696	
-8.93947	0.788387	-0.85133	
-9.5055	0.223399	-0.874931	
-7.07211	1.34531	-0.662821	
-7.06737	1.40661	-0.662654	
-9.42464	1.36487	-0.871614	
-8.24981	1.29047	-0.767397	
-7.05369	0.414541	-0.662132	
-8.21062	0.434011	-0.765568	
-9.42951	0.349215	-0.871849	
-8.32621	0.422964	-0.76973	
-9.48626	0.489015	-0.874303	
-8.34852	0.488653	-0.769795	
-5.64881	1.24582	-0.547184	
-8.05408	1.18695	-0.758301	
-7.01358	1.58611	-0.660347	
-6.58511	0.42229	-0.641823	
-6.60729	0.312816	-0.642637	
-9.10707	0.310713	-0.857513	
-7.84681	0.255176	-0.749619	
-7.91266	0.23291	-0.752324	
-10.6629	1.20734	-0.978789	
-8.11312	1.1572	-0.760773	
-8.18236	1.15129	-0.76416	
-6.96145	1.2101	-0.657762	
-9.33204	1.08885	-0.867037	
-7.72576	1.61914	-0.745375	
-7.7446	1.69424	-0.745957	
-8.87566	1.67616	-0.849581	
-7.79349	1.64844	-0.747609	
-7.82189	1.72086	-0.748655	
-8.16693	0.644913	-0.763384	
-7.02563	1.94629	-0.660914	
-9.37296	1.93331	-0.869035	
-8.23672	1.88539	-0.766812	
-8.85801	0.0804625	-0.849167	
-6.37906	0.127785	-0.636329	
-6.3903	1.88257	-0.636523	
-8.86108	1.92762	-0.849236	
-7.68725	0.21589	-0.744288	
-7.01826	0.273142	-0.66057	
-8.22103	0.209198	-0.766074	
-7.00689	0.143339	-0.660025	
-8.28719	0.145092	-0.768834	
-6.95442	0.115792	-0.657409	
-8.16385	1.85807	-0.76323	
-8.09811	1.88373	-0.760097	
-6.8787	1.94611	-0.653843	
-6.84036	2	-0.652307	
-8.12194	2	-0.761184	
-7.20863	0.682902	-0.659754	
-9.67727	0.64279	-0.846658	
-6.7352	1.88295	-0.647869	
-7.82276	1.53147	-0.748688	
-7.80033	1.46174	-0.747856	
-7.8648	1.47178	-0.750337	
-8.36721	1.08229	-0.76948	
-6.46634	0.329519	-0.638165	
-8.73981	0.43708	-0.847179	
-8.67727	0.429861	-0.846658	
-6.64807	1.67699	-0.64422	
-7.77542	1.57544	-0.746976	
-6.96148	1.60691	-0.657763	
-8.12941	1.65508	-0.761539	
-8.23049	1.81461	-0.766523	
-6.96005	1.78507	-0.657691	
-6.46515	0.749751	-0.638135	
-7.72466	0.701087	-0.745342	
-8.81428	0.758919	-0.848272	
-8.46761	0.429861	-0.740826	
-9.61114	0.409639	-0.873386	
-8.29864	1.77163	-0.769177	
-9.57791	1.71936	-0.875282	
-8.87102	1.1716	-0.849469	
-7.69415	1.09553	-0.744473	
-8.97656	1.76477	-0.852518	
-6.63444	1.7791	-0.64368	
-7.96761	0.277236	-0.754681	
-9.15249	0.151691	-0.859446	
-6.83968	1.84554	-0.65228	
-7.98313	1.83711	-0.755349	
-7.86364	1.33945	-0.75029	
-7.83467	1.40104	-0.749144	
-7.06724	0.297567	-0.66265	
-8.29629	0.357474	-0.769112	
-6.88343	0.760525	-0.654046	
-8.0434	0.810302	-0.757874	
-7.95143	0.749841	-0.753984	
-7.88641	0.751361	-0.751223	
-7.90869	0.686344	-0.752156	
-7.97809	0.810027	-0.755132	
-7.91277	0.81571	-0.752329	
-11.0966	1.64173	-1.05832	
-7.53327	1.65788	-0.741382	
-9.67727	1	-0.846658	
-9.67727	1.07055	-0.846658	
-7.20932	1.0308	-0.659651	
-6.32272	1.5272	-0.63554	
-9.88693	1.57014	-0.952491	
-6.67837	0.121062	-0.645457	
-7.93464	0.068568	-0.753262	
-8.00213	0.0968802	-0.75616	
-9.88693	1.85639	-0.952491	
-8.74398	1.8723	-0.847227	
-9.88693	0.0721374	-0.952491	
-7.52785	0.116381	-0.741322	
-8.03386	0.378957	-0.757486	
-9.88693	1.2856	-0.952491	
-7.53338	1.33655	-0.741383	
-9.88693	1.35721	-0.952491	
-6.71288	1.07097	-0.646912	
-7.92903	1.13809	-0.753021	
-6.6655	1.10545	-0.644926	
-7.98212	1.08867	-0.755305	
-7.94338	0.876824	-0.753638	
-7.88172	0.882801	-0.751028	
-9.05761	0.819303	-0.855496	
-8.10136	1.38959	-0.760241	
-6.88526	1.45442	-0.654125	
-8.16013	1.41914	-0.763044	
-6.76174	0.213959	-0.649012	
-7.92937	0.621411	-0.753036	
-7.89154	0.549577	-0.751436	
-7.95295	0.556476	-0.754049	
-7.92068	0.491713	-0.752665	
-9.44318	0.0712931	-0.872496	
-7.86137	1.1672	-0.750199	
-8.11682	1.57159	-0.760945	
-7.66119	0.47164	-0.743633	
-7.20527	0.476615	-0.660224	
-9.59976	0.546631	-0.874274	
-8.67727	0.500665	-0.846658	
-7.52759	0.802839	-0.741319	
-6.39318	0.646217	-0.636575	
-6.371	0.69766	-0.636197	
-7.58075	1.17495	-0.742031	
-8.74275	1.0996	-0.847213	
-8.82717	1.1007	-0.848516	
-8.93534	1.32398	-0.851205	
-6.44746	1.29855	-0.637704	
-7.68693	1.24767	-0.744279	
-7.86955	0.61668	-0.75053	
-7.83241	0.546139	-0.749057	
-6.56407	0.561624	-0.641085	
-7.78561	0.491616	-0.747329	
-6.45382	1.0418	-0.637855	
-7.72412	1.02609	-0.745326	
-8.87473	0.976287	-0.849558	
-7.74121	0.965074	-0.74585	
-7.87369	0.954567	-0.750699	
-7.6012	1.62515	-0.742378	
-6.45289	1.59965	-0.637833	
-7.1511	0.360303	-0.663802	
-7.53779	1.5889	-0.741435	
-7.79534	1.33334	-0.747676	
-7.76901	1.39903	-0.746757	
-7.75659	1.2624	-0.746344	
-9.05375	0.683934	-0.855344	
-8.3994	0.967445	-0.767739	
-10.8005	0.89983	-0.980614	
-8.28592	0.914042	-0.768793	
-8.03576	1.0505	-0.757564	
-7.03615	1.13415	-0.66139	
-6.99255	1.09375	-0.659321	
-6.73418	1.5431	-0.647825	
-8.29383	0.770923	-0.76904	
-7.01831	0.785107	-0.660572	
-6.94097	1.34839	-0.656739	
-9.5442	1.29694	-0.875633	
-8.31738	1.65281	-0.769601	
-8.74884	1.25411	-0.847284	
-7.5974	1.32162	-0.74231	
-6.89417	0.633745	-0.654519	
-8.15795	0.587288	-0.762935	
-8.35863	0.6882	-0.769674	
-8.00454	0.873522	-0.756262	
-5.63543	1.36753	-0.546663	
-8.19457	2	-0.764772	
-6.51649	1.1987	-0.639554	
-7.97095	0.394274	-0.754825	
-7.97028	0.336713	-0.754796	
-8.29234	0.702848	-0.768995	
-8.46761	0.929454	-0.740826	
-8.46761	0.857842	-0.740826	
-7.17329	1.94387	-0.663028	
-7.99224	1.16572	-0.755739	
-8.04898	1.11814	-0.758098	
-8.8952	1.79696	-0.850075	
-6.48413	1.73661	-0.638631	
-6.70528	0.370041	-0.646588	
-6.75357	0.446178	-0.64866	
-6.71775	0.936014	-0.64712	
-5.14993	1.0523	-0.53019	
-7.60723	1.01699	-0.742488	
-8.46761	1.49933	-0.740826	
-8.76047	0.586375	-0.847429	
-8.79698	0.509874	-0.847971	
-8.40604	1.54624	-0.767108	
-6.5717	0.664255	-0.641349	
-6.62285	0.750955	-0.643228	
-6.57489	0.837223	-0.64146	
-9.88693	1.21388	-0.952491	
-6.30925	1.17543	-0.635395	
-9.88693	0.929454	-0.952491	
-6.3101	0.873321	-0.635404	
-11.0966	0.857842	-1.05832	
-7.52415	0.725606	-0.741282	
-9.88693	0.786116	-0.952491	
-9.88693	0.714404	-0.952491	
-7.54017	0.653203	-0.741463	
-9.88693	0.64279	-0.952491	
-11.0966	0.571209	-1.05832	
-9.88693	1.14216	-0.952491	
-6.38923	0.957788	-0.636504	
-5.27509	0.930031	-0.532815	
-7.80843	0.613315	-0.748152	
-7.21396	1.6049	-0.65891	
-6.80361	0.552048	-0.650798	
-7.99284	0.616488	-0.755764	
-8.81934	1.54065	-0.848366	
-7.62667	0.177963	-0.742867	
-7.61337	1.24487	-0.742604	
-8.80906	1.39957	-0.848178	
-6.47876	0.139289	-0.638487	
-7.59061	1.69928	-0.742193	
-7.62364	1.75272	-0.742806	
-7.6621	1.35868	-0.743655	
-6.50521	1.39206	-0.639221	
-6.45872	1.42097	-0.637975	
-7.60116	1.81911	-0.742377	
-8.40099	1.6612	-0.767599	
-8.46761	1.71339	-0.740826	
-6.99782	0.496577	-0.659582	
-8.23127	0.549039	-0.766559	
-6.44103	1.85508	-0.637555	
-6.31179	0.520218	-0.635421	
-5.23139	0.528047	-0.531723	
-8.46761	1.57014	-0.740826	
-9.67727	0.500665	-0.846658	
-5.75593	0.932053	-0.552138	
-6.55025	1.07414	-0.640621	
-6.5537	1.51028	-0.640735	
-9.67727	1.64173	-0.846658	
-6.48997	0.282674	-0.63879	
-8.46761	0.571209	-0.740826	
-6.00371	0.59575	-0.553177	
-5.11382	1.71321	-0.529716	
-8.99111	1.88726	-0.853016	
-7.20175	0.827624	-0.660672	
-6.54044	1.82622	-0.640301	
-6.32094	1.40032	-0.63552	
-7.70563	1.87065	-0.744789	
-5.90115	0.866054	-0.557987	
-5.86832	1.24863	-0.557184	
-6.59911	1.94589	-0.642332	
-6.00125	1.75284	-0.553575	
-5.34764	1.94185	-0.535023	
-8.43134	0.611259	-0.700326	
-9.62093	0.691022	-0.796484	
-7.21867	0.951279	-0.592895	
-9.6271	0.885946	-0.799236	
-7.95613	0	-0.650055	
-7.88778	0	-0.657256	
-9.13666	0.0792566	-0.758715	
-9.95697	0	-0.934005	
-6.36576	0.0639973	-0.607315	
-7.60711	0	-0.70584	
-7.52076	0.0936441	-0.726627	
-7.81664	0	-0.666771	
-7.74607	0	-0.678125	
-7.78917	0.0798839	-0.670968	
-7.22965	0.821071	-0.59906	
-8.43016	1.45488	-0.699693	
-8.43322	1.89867	-0.701355	
-6.74647	2	-0.544223	
-8.02775	2	-0.644721	
-9.21523	1.91895	-0.75195	
-6.3692	1.93754	-0.606504	
-7.52586	1.90585	-0.72532	
-7.53765	2	-0.722341	
-7.60711	2	-0.70584	
-7.88778	2	-0.657256	
-7.85209	1.92228	-0.661781	
-7.81664	2	-0.666771	
-8.06435	1.85759	-0.642948	
-9.19954	1.82278	-0.753078	
-8.99443	0.600657	-0.777499	
-7.72969	0.663037	-0.681027	
-9.00671	0.68441	-0.775568	
-7.52242	0.939959	-0.726202	
-7.53148	1.33496	-0.723893	
-9.18502	1.68417	-0.754224	
-6.79571	1.74973	-0.540299	
-10.4911	1.71007	-0.854342	
-7.78221	1.02684	-0.672078	
-9.00231	0.943151	-0.776253	
-7.72702	0.965528	-0.681508	
-7.55793	0.553448	-0.717339	
-7.51498	0.495631	-0.728117	
-8.21738	1.36962	-0.646753	
-10.5684	1.42353	-0.854183	
-8.22794	1.43872	-0.647813	
-9.54326	1.02505	-0.771443	
-8.26747	0.965827	-0.652849	
-9.45029	1.04082	-0.755074	
-9.38915	1.21008	-0.749695	
-10.6876	1.26463	-0.864632	
-8.26225	1.19252	-0.652083	
-7.77103	1.8275	-0.673897	
-8.99299	1.91186	-0.77773	
-9.0481	1.83465	-0.769476	
-9.11176	1.04863	-0.761418	
-7.84155	1.0111	-0.663213	
-9.03467	1.09426	-0.77138	
-6.68434	1.10778	-0.550689	
-9.18455	1.09436	-0.754263	
-8.01082	0.92332	-0.645766	
-8.04902	0.983948	-0.643609	
-10.5113	0.912712	-0.853827	
-6.82615	1.65028	-0.538441	
-6.87995	1.64109	-0.536373	
-9.25157	1.58611	-0.749788	
-7.53784	0.621253	-0.722295	
-6.39465	0.607584	-0.600638	
-8.8537	0.544593	-0.80362	
-8.87437	0.626188	-0.79933	
-9.10964	0.883867	-0.76166	
-7.85892	0.814004	-0.660875	
-7.8346	0.883506	-0.664182	
-6.64352	0.94284	-0.555803	
-6.59043	0.823889	-0.563433	
-7.76545	0.86549	-0.674822	
-8.21086	0.577518	-0.646156	
-9.41802	0.659851	-0.75177	
-8.27258	0.634606	-0.653629	
-8.84911	0.0913029	-0.804594	
-7.56824	0.141129	-0.714855	
-7.99437	1.15841	-0.646912	
-10.5005	1.18235	-0.854061	
-6.83517	1.11752	-0.537978	
-9.56194	0.938839	-0.776245	
-7.19249	0.99711	-0.581033	
-8.02756	0.516229	-0.644732	
-9.26555	0.597248	-0.74913	
-8.10194	0.53029	-0.642028	
-9.08737	1.25683	-0.764313	
-9.06733	1.17353	-0.766872	
-7.80919	1.22905	-0.66788	
-9.58296	1.10599	-0.782447	
-8.4172	1.05145	-0.693293	
-8.37401	1.1866	-0.67684	
-8.42706	1.17077	-0.698068	
-10.2137	1.39834	-0.881812	
-6.58913	1.4857	-0.563633	
-7.85899	1.4682	-0.660867	
-9.40147	0.907417	-0.750483	
-8.13885	0.841878	-0.642251	
-10.8078	0.492781	-0.893383	
-7.12219	0.543817	-0.559358	
-8.38076	0.570722	-0.67905	
-8.15885	1.72433	-0.642859	
-8.11477	1.78876	-0.641976	
-8.02911	0.853718	-0.644644	
-7.94207	0.389993	-0.651374	
-6.73984	0.316743	-0.544834	
-7.88788	0.343184	-0.657245	
-8.06249	0.780432	-0.643022	
-6.87179	0.84375	-0.536557	
-8.13255	0.770799	-0.642131	
-7.97769	0.577671	-0.648201	
-8.75188	1.02428	-0.827032	
-8.95391	0.237428	-0.784276	
-7.76009	0.153222	-0.675722	
-7.69249	0.163431	-0.687979	
-9.04497	0.159631	-0.769914	
-8.18199	1.80219	-0.644011	
-7.00225	1.86234	-0.540417	
-8.26088	1.80354	-0.651886	
-8.09004	0.329138	-0.642197	
-9.37438	0.30982	-0.748938	
-9.32227	0.244444	-0.747808	
-8.12216	0.391669	-0.642008	
-6.51201	1.03303	-0.57665	
-8.09045	0.717798	-0.642189	
-8.00882	0.718603	-0.645898	
-6.83708	0.665477	-0.537885	
-8.12184	0.658642	-0.642006	
-6.73828	1.87015	-0.54498	
-7.91228	1.80864	-0.654449	
-6.84331	1.78424	-0.537594	
-7.93986	1.74797	-0.651589	
-8.18734	0.386445	-0.644348	
-8.21738	0.441074	-0.646753	
-8.25671	0.365688	-0.651305	
-8.02862	1.25637	-0.644672	
-8.10346	1.24657	-0.642015	
-8.05147	1.3122	-0.643495	
-6.90733	1.30199	-0.536149	
-8.17698	1.27096	-0.64372	
-7.90255	0.276367	-0.655534	
-10.2406	0.292881	-0.87775	
-6.64701	0.234809	-0.555339	
-6.59109	0.216682	-0.563332	
-8.2792	0.891352	-0.654689	
-8.07855	1.48059	-0.642468	
-8.0027	1.4429	-0.646316	
-9.21066	1.51083	-0.752267	
-7.93131	1.45569	-0.652441	
-8.09106	1.36546	-0.642178	
-8.16153	1.34038	-0.642968	
-7.82708	1.70558	-0.66525	
-7.84206	1.63351	-0.663142	
-7.77011	1.65739	-0.674049	
-7.69093	0.837679	-0.688282	
-7.73521	0.792044	-0.680038	
-7.74746	1.09876	-0.677884	
-8.98694	1.30603	-0.778706	
-6.52095	1.35315	-0.575029	
-9.35312	0.166399	-0.748192	
-8.06166	0.169498	-0.643056	
-8.90499	1.40455	-0.793262	
-9.07048	0.41495	-0.76646	
-9.12304	0.474418	-0.760161	
-9.35809	1.05334	-0.748331	
-8.18934	0.984567	-0.644481	
-8.15277	1.13834	-0.642637	
-7.78754	0.452043	-0.671226	
-8.99436	0.374434	-0.777511	
-6.51912	0.42015	-0.575359	
-8.91745	0.484457	-0.790891	
-8.30537	0	-0.659422	
-8.32201	0.0667918	-0.662922	
-8.36976	0	-0.675502	
-8.30537	2	-0.659422	
-7.06418	1.94291	-0.547995	
-7.02525	2	-0.542745	
-8.34295	0.853126	-0.667938	
-8.36976	2	-0.675502	
-9.54604	1.92333	-0.772118	
-6.75549	0.506745	-0.543422	
-7.91212	0.56183	-0.654467	
-7.91988	0.636864	-0.653629	
-7.85079	0.546278	-0.661954	
-7.85152	0.617676	-0.661857	
-9.46246	0.078087	-0.756609	
-9.42255	1.56345	-0.752169	
-7.05528	1.62497	-0.546641	
-8.29704	1.57191	-0.657818	
-9.56464	0.153301	-0.77699	
-9.56888	0.252546	-0.778191	
-7.20078	0.211952	-0.584461	
-7.98323	0.650538	-0.647759	
-9.14221	0.718414	-0.758147	
-7.92181	0.798942	-0.653424	
-7.98886	0.786413	-0.647323	
-6.65765	0.678765	-0.553957	
-7.86156	0.741319	-0.660531	
-9.62746	1.80752	-0.7994	
-8.36905	1.74768	-0.675284	
-9.54973	1.83308	-0.773035	
-7.92939	1.20637	-0.652637	
-8.85431	1.92648	-0.803491	
-8.79863	1.86025	-0.815809	
-8.38873	0.344499	-0.681809	
-8.41465	0.410465	-0.692136	
-9.4594	0.282592	-0.756207	
-9.52922	0.338159	-0.768215	
-9.18608	0.251286	-0.754137	
-6.82338	0.217721	-0.538591	
-9.179	0.164212	-0.754727	
-8.75473	0.230355	-0.826326	
-9.31028	1.93673	-0.747874	
-8.35745	1.26103	-0.671853	
-8.42105	1.24459	-0.695099	
-8.34246	1.32491	-0.667811	
-9.62274	1.31978	-0.797275	
-9.48483	0.804788	-0.75987	
-9.55665	0.759874	-0.774822	
-8.28421	0.714139	-0.655526	
-7.91054	0.206449	-0.654641	
-6.68531	0.138218	-0.550575	
-7.59087	1.72394	-0.709538	
-7.55587	1.78328	-0.71784	
-8.84457	1.79352	-0.805564	
-7.98844	1.03613	-0.647356	
-9.27123	1.05319	-0.748891	
-8.11232	0.992616	-0.641976	
-6.89259	1.10914	-0.536193	
-9.49409	0.204267	-0.761397	
-8.19593	0.22975	-0.644946	
-7.9645	0.863551	-0.64931	
-7.94645	0.938032	-0.650954	
-7.10264	1.76807	-0.555	
-9.51085	1.69808	-0.764439	
-8.22939	1.73846	-0.647968	
-8.28636	0.425321	-0.655896	
-8.24241	0.500006	-0.649457	
-8.14594	0.456585	-0.642426	
-8.17345	0.51622	-0.643529	
-7.66758	0.232607	-0.692916	
-7.84162	1.33248	-0.663204	
-7.91716	1.52656	-0.653919	
-9.05195	1.55451	-0.768944	
-9.12804	1.60907	-0.759621	
-6.51725	0.903738	-0.575696	
-8.86293	0.902651	-0.801686	
-8.16735	0	-0.643225	
-8.09614	0	-0.642096	
-8.11873	0.051764	-0.641988	
-8.02775	0	-0.644721	
-8.04901	0.0537652	-0.643609	
-7.94577	1.3862	-0.651018	
-7.87506	1.3946	-0.658811	
-7.95163	1.26486	-0.650467	
-6.79044	1.21166	-0.540666	
-7.90876	1.32507	-0.654837	
-7.97973	1.32038	-0.648036	
-7.18108	0.814456	-0.5767	
-7.71535	1.88165	-0.683647	
-8.14316	0.594595	-0.642352	
-7.22943	1.38879	-0.598929	
-8.38938	1.39048	-0.682039	
-8.86634	0.75837	-0.800979	
-7.61327	0.821275	-0.704462	
-8.42193	0.75743	-0.695522	
-8.9141	1.60921	-0.791522	
-7.70419	1.68446	-0.685737	
-6.48789	1.75212	-0.581171	
-8.96931	1.73879	-0.781629	
-8.83016	1.59941	-0.808696	
-7.63555	1.66432	-0.699595	
-9.41135	1.93182	-0.751219	
-8.27651	1.87756	-0.654252	
-8.43017	0.146224	-0.699698	
-7.22699	1.10891	-0.597479	
-7.22116	0.544978	-0.59421	
-8.86617	1.32361	-0.801014	
-7.71464	0.0813768	-0.683778	
-7.67724	0	-0.690974	
-7.10874	1.21454	-0.556297	
-8.31811	1.14931	-0.662067	
-8.141	1.87232	-0.642299	
-7.61783	1.24379	-0.703452	
-7.57967	1.29411	-0.712145	
-7.68385	1.24385	-0.689666	
-7.78184	1.16415	-0.672137	
-10.0726	0.398041	-0.907525	
-8.75121	1.20048	-0.827199	
-7.53083	1.11243	-0.724059	
-7.71736	0.560548	-0.683275	
-7.78212	0.523541	-0.672092	
-9.42045	1.65544	-0.751982	
-8.07945	0.109422	-0.642443	
-6.68048	1.86761	-0.551143	
-7.92355	1.9304	-0.653241	
-7.02135	0.741046	-0.542311	
-8.34098	0.676971	-0.667433	
-6.46127	0.693471	-0.586406	
-7.72993	0.726744	-0.680984	
-7.7969	0.760134	-0.669759	
-5.3044	0.61385	-0.470443	
-6.3044	0.170423	-0.622524	
-7.00323	1.15632	-0.540505	
-6.99056	1.09603	-0.539439	
-8.2577	1.1197	-0.651441	
-6.44681	1.85832	-0.589358	
-7.70971	1.8111	-0.684698	
-8.36937	1.45652	-0.675384	
-8.32984	1.39372	-0.664715	
-6.50415	1.94352	-0.5781	
-7.74607	2	-0.678125	
-8.19359	0.79232	-0.644776	
-7.00874	0.850283	-0.541019	
-8.16915	0.718066	-0.643312	
-7.61915	0.180772	-0.703159	
-8.1435	1.51591	-0.642361	
-9.34609	1.59438	-0.748033	
-6.98589	1.48768	-0.539086	
-8.26233	1.50665	-0.652095	
-6.3137	1.83632	-0.620128	
-8.9582	1.53312	-0.783529	
-6.46724	1.54488	-0.585211	
-7.52082	1.71558	-0.726611	
-9.59879	1.66217	-0.787782	
-7.71294	0.358669	-0.684094	
-7.6563	0.310734	-0.695226	
-7.06171	1.39867	-0.547609	
-8.30157	1.4537	-0.658679	
-8.28108	1.33896	-0.654999	
-8.07542	0.46147	-0.64256	
-6.84654	0.394907	-0.537452	
-9.20719	0.433969	-0.752514	
-6.85975	1.42238	-0.536926	
-8.01602	1.37641	-0.645431	
-8.32802	0.606335	-0.664289	
-7.56453	0.879786	-0.715742	
-7.57589	0.752034	-0.713036	
-7.53265	0.815753	-0.723599	
-8.81372	1.38066	-0.81236	
-9.62057	1.52165	-0.796326	
-8.3359	1.51493	-0.666169	
-7.09408	1.08423	-0.553268	
-7.53297	1.59815	-0.723519	
-6.88648	2	-0.536264	
-8.91555	1.16076	-0.791248	
-6.43982	1.18618	-0.590813	
-6.71731	1.14984	-0.547054	
-7.74586	1.23168	-0.678163	
-7.59174	1.16237	-0.709337	
-7.89764	1.68406	-0.656097	
-5.79763	0.333428	-0.435048	
-7.53348	1.52552	-0.723391	
-7.57991	0.488947	-0.712088	
-6.56784	1.59304	-0.567006	
-8.36831	1.57917	-0.675057	
-7.558	1.65719	-0.717321	
-8.27286	0.559694	-0.653673	
-8.31073	0.490232	-0.660505	
-7.59687	0.956713	-0.708161	
-7.66752	0.989568	-0.692928	
-7.87172	1.75665	-0.659229	
-6.60223	1.77244	-0.561644	
-6.44108	1.72615	-0.590549	
-6.54913	0.310718	-0.57011	
-6.49657	0.290342	-0.579519	
-6.50761	1.29539	-0.577459	
-8.16735	2	-0.643225	
-6.63449	0.482459	-0.557023	
-7.01265	1.30941	-0.541402	
-8.00568	0.109198	-0.64611	
-7.62046	1.03572	-0.702873	
-7.68149	1.07584	-0.690131	
-7.67724	2	-0.690974	
-7.17332	0.633303	-0.573968	
-8.34994	0.422033	-0.669777	
-5.88581	0.266461	-0.44771	
-7.60386	0.262786	-0.706572	
-6.93158	1.66446	-0.536473	
-6.86887	1.54135	-0.536636	
-7.56171	0.371856	-0.716424	
-6.38435	0.429791	-0.602984	
-6.76303	1.56661	-0.54278	
-6.77745	1.62234	-0.541625	
-5.4062	1.2804	-0.45381	
-7.52997	0.68957	-0.724277	
-6.305	0.753859	-0.62237	
-8.42738	0.285029	-0.698235	
-6.30908	1.26259	-0.621314	
-9.63852	0	-0.804836	
-6.31704	1.39629	-0.619275	
-8.76253	1.45609	-0.824404	
-7.53801	0.308608	-0.722251	
-8.81316	0.682551	-0.812485	
-7.52702	0.423502	-0.725026	
-8.42886	2	-0.699004	
-6.77933	0.980727	-0.541481	
-8.82442	1.51237	-0.809962	
-7.63806	1.11653	-0.699058	
-6.83689	0.277428	-0.537894	
-9.22104	0.33864	-0.751561	
-6.37382	1.08627	-0.60542	
-6.93377	0.0993244	-0.536527	
-8.19153	0.0548078	-0.644631	
-5.15771	1.55961	-0.501102	
-8.42877	1.72118	-0.698959	
-7.18418	1.94239	-0.577837	
-7.17601	1.87535	-0.574896	
-6.4314	0.473525	-0.592588	
-6.39489	0.331482	-0.600583	
-7.11888	1.63205	-0.558578	
-7.21668	1.59521	-0.591869	
-7.68754	1.47977	-0.688941	
-8.22738	0.160133	-0.647755	
-6.98586	0.114041	-0.539084	
-6.53647	1.45658	-0.572284	
-7.08138	0.130179	-0.550888	
-7.89575	0.972536	-0.656316	
-8.40056	0.0752793	-0.686237	
-6.77638	0.0509452	-0.541707	
-6.73143	1.00206	-0.545637	
-5.417	0.356044	-0.452276	
-7.85564	0.0762643	-0.661307	
-6.42147	1.44431	-0.594714	
-8.23491	0	-0.648577	
-6.01811	0.460204	-0.4921	
-5.72514	0.946643	-0.430721	
-7.54194	2	-0.73153	
-7.62093	2	-0.722996	
-7.78449	2	-0.709733	
-7.87049	2	-0.705143	
-7.70149	2	-0.71572	
-9.25646	2	-0.806706	
-9.43462	2	-0.812847	
-8.39687	2	-0.727929	
-8.31354	2	-0.715946	
-8.13581	2	-0.701989	
-9.16697	2	-0.80801	
-9.88693	-0.0721374	-0.952491	
-6.30777	-0.0524234	-0.635381	
-6.57489	-1.94219	-0.64146	
-7.71886	-1.93265	-0.74517	
-7.75923	-2	-0.74643	
-7.57826	-0.0610541	-0.741992	
-7.72251	-0.0745946	-0.745278	
-7.86451	-0.063891	-0.750326	
-8.46761	-1.2856	-0.740826	
-8.40589	-1.32684	-0.767124	
-8.46761	-1.35721	-0.740826	
-8.46761	-0.0721374	-0.740826	
-9.67727	-0.215036	-0.846658	
-8.46761	-0.143615	-0.740826	
-8.41638	-0.177622	-0.765858	
-7.25796	-0.286611	-0.634994	
-8.41746	-0.326516	-0.765706	
-9.67727	-0.358269	-0.846658	
-8.41765	-0.255005	-0.765679	
-8.46761	-0.714404	-0.740826	
-9.61785	-0.754353	-0.87271	
-8.46761	-0.786116	-0.740826	
-7.90485	-2	-0.751994	
-9.06933	-1.91632	-0.855963	
-7.83216	-2	-0.749047	
-6.33105	-2	-0.635637	
-6.30887	-1.94543	-0.635392	
-7.46761	-2	-0.740826	
-8.41868	-1.39944	-0.765528	
-8.46761	-1.42879	-0.740826	
-6.0483	-2	-0.529161	
-9.67727	-1.92786	-0.846658	
-7.19842	-2	-0.661057	
-7.61368	-2	-0.74261	
-7.57783	-1.9425	-0.741985	
-9.22806	-1.91894	-0.862678	
-7.97724	-2	-0.755096	
-6.84036	-2	-0.652307	
-8.46761	-1.21388	-0.740826	
-8.40579	-1.25457	-0.767134	
-9.67727	-1.78496	-0.846658	
-6.00445	-1.82622	-0.553052	
-8.46761	-1.85639	-0.740826	
-7.66241	-0.824164	-0.743662	
-7.58462	-0.840188	-0.742094	
-8.84917	-0.897364	-0.84897	
-9.88693	-1.07055	-0.952491	
-8.74275	-1.0996	-0.847213	
-9.94708	-0.999321	-0.952985	
-7.84693	-1.67801	-0.749623	
-7.918	-1.66711	-0.752551	
-9.06021	-1.60664	-0.855599	
-7.73051	-0.446895	-0.745519	
-10.1707	-0.354649	-0.95784	
-7.67669	-0.398171	-0.744014	
-9.11126	-1.83141	-0.857689	
-6.75129	-1.78071	-0.648562	
-9.11282	-1.74009	-0.857755	
-9.27316	-1.7075	-0.864502	
-7.982	-1.71822	-0.7553	
-8.0291	-1.78279	-0.75729	
-9.3131	-1.79397	-0.866166	
-7.9289	-1.60358	-0.753016	
-7.88366	-1.5428	-0.751109	
-6.61991	-1.84473	-0.643116	
-9.43179	-1.45461	-0.871959	
-8.1399	-1.49442	-0.762045	
-8.18737	-1.53304	-0.764412	
-10.6084	-1.28582	-0.97616	
-8.11904	-1.23395	-0.761048	
-10.5092	-1.30809	-0.971404	
-10.6935	-1.05755	-0.980048	
-7.1395	-1.02435	-0.663958	
-7.09091	-0.98494	-0.663397	
-8.04116	-0.659051	-0.757783	
-7.97413	-0.685531	-0.754962	
-9.23695	-0.738859	-0.863048	
-9.21236	-1.33862	-0.862016	
-9.22204	-1.25231	-0.862425	
-9.88693	-1.42879	-0.952491	
-9.88693	-1.49933	-0.952491	
-8.76184	-1.4654	-0.847447	
-7.55508	-0.918262	-0.741654	
-7.60723	-1.01699	-0.742488	
-6.38923	-0.957788	-0.636504	
-10.1526	-0.881052	-0.957268	
-7.74121	-0.965074	-0.74585	
-7.80468	-0.954992	-0.748014	
-6.85679	-0.86716	-0.652951	
-9.34251	-0.888326	-0.867536	
-8.11502	-0.817828	-0.760861	
-8.85273	-0.589278	-0.849049	
-8.86977	-0.676587	-0.849439	
-8.93506	-0.618429	-0.851197	
-9.52931	-0.0745363	-0.875471	
-8.05423	-1.18703	-0.758307	
-7.99226	-1.16574	-0.75574	
-7.9876	-0.496062	-0.75554	
-9.27825	-0.503541	-0.864699	
-8.02324	-0.439924	-0.757048	
-9.31464	-0.698429	-0.866236	
-7.87225	-1.23016	-0.75064	