<VTKFile type="UnstructuredGrid" version="0.1" byte_order="LittleEndian">
	<UnstructuredGrid>
		<Piece NumberOfPoints="1917" NumberOfCells="56">
			<CellData Scalars="scalars">
				<DataArray type="Float64" Name="Doublet Strengths" NumberOfComponents="1" Format="ascii">
-0.696691	
-2.69927	
-2.05709	
-2.45662	
-2.82404	
-2.99276	
-2.99526	
-2.91676	
-2.2692	
-1.9858	
-1.23043	
-3.51064	
-2.0716	
-3.30299	
-2.04668	
-2.11281	
-2.86408	
-2.69828	
-2.68154	
-2.39295	
-2.76764	
-2.96267	
-2.30607	
-2.88598	
-5.05792	
-2.63845	
-1.95772	
-2.00288	
-5.05631	
-2.02537	
-2.57914	
-2.85515	
-2.42362	
-1.85531	
-1.02493	
-3.46125	
-1.98984	
-2.41996	
-2.89054	
-1.88325	
-2.01989	
-2.54396	
-2.5487	
-2.3779	
-2.26396	
-2.52782	
-2.51581	
-2.39631	
-1.98659	
-2.19884	
-2.44355	
-0.628636	
-1.66439	
-1.94066	
-2.45293	
-1.30389	
				</DataArray>
				<DataArray type="Float64" Name="Velocity Potential" NumberOfComponents="1" Format="ascii">
-587.998	
-671.709	
-700.925	
-700.527	
-728.728	
-699.987	
-671.412	
-728.637	
-729.284	
-700.996	
-701.753	
-699.469	
-700.911	
-642.535	
-729.506	
-700.87	
-728.689	
-700.282	
-728.871	
-700.589	
-671.641	
-700.018	
-700.676	
-728.667	
-697.921	
-700.341	
-701.026	
-700.98	
-697.923	
-700.957	
-728.973	
-671.553	
-700.558	
-672.557	
-701.958	
-699.519	
-700.993	
-671.988	
-700.091	
-701.099	
-700.963	
-729.009	
-700.432	
-700.603	
-700.718	
-671.883	
-671.893	
-729.155	
-700.996	
-700.783	
-729.109	
-588.065	
-701.319	
-701.042	
-700.528	
-730.249	
				</DataArray>
			</CellData>
			<Points>
				<DataArray type="Float64" Name="Position" NumberOfComponents="3" Format="ascii">
-8.0388	0	-0.785048	
-6.73471	0.0524256	-0.672733	
-10.5273	0	-1.00852	
-8.18485	2	-0.787853	
-8.21608	1.93467	-0.788722	
-9.53814	2	-0.902066	
-8.11177	0	-0.786188	
-8.07636	0.0610502	-0.78557	
-8.2206	0.0745738	-0.788856	
-8.18485	0	-0.787853	
-8.25732	0	-0.790008	
-8.33026	0	-0.792625	
-8.40295	0	-0.795572	
-8.36157	0.0639395	-0.793862	
-7.63725	1.39584	-0.696853	
-8.90371	1.3266	-0.810731	
-8.96571	1.35721	-0.784404	
-10.5273	1.92786	-1.00852	
-6.73557	1.94512	-0.672742	
-10.2465	0.0721374	-0.896462	
-8.90174	0.0533506	-0.810928	
-7.68489	0	-0.672346	
-10.2465	0.215036	-0.896462	
-11.4375	0.171582	-1.0368	
-7.68489	0.143615	-0.672346	
-7.68489	0.286611	-0.672346	
-10.2465	0.358269	-0.896462	
-8.91553	0.326064	-0.809288	
-8.91332	0.252841	-0.809595	
-8.96571	0.714404	-0.784404	
-8.96571	0.786116	-0.784404	
-10.1871	0.754574	-0.922516	
-8.40295	2	-0.795572	
-8.33026	2	-0.792625	
-10.929	1.91204	-1.01821	
-8.41818	1.66657	-0.796218	
-9.62903	1.60722	-0.905385	
-8.22884	0.446925	-0.789104	
-8.1759	0.397747	-0.787621	
-10.8117	0.354616	-1.01389	
-7.96571	2	-0.784404	
-8.96571	1.42879	-0.784404	
-6.40408	2	-0.560289	
-7.62536	2	-0.69841	
-10.2465	1.92786	-0.896462	
-8.11177	2	-0.786188	
-6.75798	2	-0.67299	
-8.07669	1.93956	-0.785575	
-7.16215	1.94176	-0.685222	
-11.0779	1.9167	-1.02453	
-8.47533	2	-0.798674	
-8.96571	1.21388	-0.784404	
-7.63323	1.19029	-0.697438	
-8.96571	1.14216	-0.784404	
-8.96571	1.2856	-0.784404	
-8.90401	1.25405	-0.8107	
-10.2465	1.78496	-0.896462	
-8.96571	1.85639	-0.784404	
-6.36019	1.82617	-0.584185	
-7.62593	0.114671	-0.698346	
-10.1733	1.46922	-0.923779	
-10.1278	1.38862	-0.925428	
-8.16051	0.824164	-0.78724	
-9.41842	0.897364	-0.898774	
-8.08271	0.840188	-0.785672	
-8.80835	1.46561	-0.81304	
-9.24653	1	-0.896462	
-10.5875	0.999321	-1.00901	
-10.5273	1.07055	-1.00852	
-8.42702	1.60348	-0.796595	
-8.05823	0.356544	-0.785301	
-6.84173	0.353408	-0.674342	
-8.10264	0.427857	-0.786017	
-9.67903	1.82506	-0.907431	
-9.68272	1.7382	-0.907586	
-7.17822	1.77788	-0.685914	
-8.48048	1.71777	-0.798895	
-8.52837	1.78088	-0.800917	
-9.84257	1.70728	-0.914312	
-9.88262	1.79378	-0.915982	
-8.38168	1.54291	-0.794683	
-8.31943	1.8351	-0.792212	
-10.0009	1.45384	-0.921754	
-8.68552	1.53294	-0.807992	
-8.63803	1.49429	-0.805625	
-9.95931	1.28284	-0.919697	
-11.1484	1.30815	-1.02738	
-8.61581	1.23305	-0.804564	
-11.335	1.05577	-1.03612	
-8.81188	0.974397	-0.813113	
-7.57134	1.02275	-0.701262	
-8.53926	0.65903	-0.801362	
-9.8062	0.738857	-0.912851	
-8.47222	0.685529	-0.79854	
-9.7815	1.33866	-0.911815	
-9.79118	1.25226	-0.912224	
-10.5273	1.42879	-1.00852	
-9.33162	1.46516	-0.897258	
-10.5273	1.49933	-1.00852	
-8.05318	0.918262	-0.785232	
-10.793	0.881052	-1.0133	
-8.31631	0.891355	-0.792094	
-8.30278	0.954992	-0.791592	
-7.28372	0.867158	-0.690303	
-8.6131	0.817822	-0.804438	
-9.91166	0.888323	-0.917334	
-9.42199	0.589259	-0.898852	
-9.50431	0.618435	-0.901	
-9.43902	0.676586	-0.899243	
-8.76418	0	-0.811651	
-8.83547	0	-0.813391	
-10.1071	0.0790961	-0.925387	
-8.44567	1.27156	-0.797396	
-8.43524	1.20368	-0.796948	
-8.48593	0.496767	-0.799128	
-8.52264	0.442032	-0.800679	
-9.8482	0.502871	-0.91453	
-9.88389	0.698424	-0.916039	
-8.37034	1.23016	-0.794218	
-8.32098	1.27217	-0.792271	
-9.57287	1.19537	-0.903262	
-7.10877	1.2898	-0.682954	
-7.31982	1.02577	-0.691814	
-9.90591	0.967174	-0.917059	
-8.67905	1.0342	-0.807667	
-11.0102	1.00672	-1.02163	
-8.48532	0.93866	-0.799102	
-8.53688	0.987296	-0.801265	
-9.62451	0.378981	-0.905207	
-8.40454	0.426844	-0.795639	
-9.63245	0.470462	-0.905521	
-10.1644	1.87857	-0.924359	
-10.1502	1.79633	-0.924992	
-8.80405	1.84585	-0.812943	
-8.59377	0.270573	-0.803569	
-7.29826	0.200611	-0.690886	
-9.92714	0.193571	-0.918089	
-9.86543	0.123897	-0.915233	
-8.52822	0.249496	-0.80091	
-8.51912	0.173576	-0.800533	
-10.1178	1.20923	-0.925453	
-8.80684	1.13932	-0.813007	
-8.89146	1.13751	-0.811795	
-8.64405	0.531427	-0.805919	
-8.64495	0.463982	-0.805963	
-8.58811	0.427199	-0.803324	
-8.65483	0.382421	-0.806453	
-7.5605	0.742778	-0.701338	
-10.1279	0.813881	-0.925427	
-9.85061	0.580015	-0.914625	
-8.64883	1.7199	-0.806155	
-9.94288	0.757182	-0.918872	
-7.39567	0.698895	-0.69548	
-8.73563	0.732194	-0.810427	
-8.71595	0.893597	-0.809499	
-8.68299	0.830458	-0.807865	
-10.0466	0.834567	-0.92377	
-8.83318	1.53139	-0.813382	
-8.78061	1.59044	-0.812257	
-8.75626	1.5207	-0.81133	
-9.59248	1.10613	-0.903979	
-8.24163	1.13654	-0.789501	
-10.088	0.567577	-0.925073	
-10.1552	0.624293	-0.924806	
-8.80141	0.641057	-0.812878	
-8.73306	0.667946	-0.810309	
-8.73295	0.607392	-0.810304	
-10.0057	0.97644	-0.921985	
-8.90617	0	-0.810468	
-8.39872	1.40806	-0.795394	
-8.4314	1.34451	-0.796782	
-8.46497	1.41675	-0.798228	
-8.42589	1.48085	-0.796547	
-9.81194	1.43176	-0.913088	
-8.49057	1.49613	-0.799327	
-8.55655	0.925911	-0.802051	
-8.72359	1.74077	-0.809865	
-11.286	1.66215	-1.03402	
-7.50782	1.70694	-0.700461	
-10.5273	1.71339	-1.00852	
-10.5978	1.77904	-1.00913	
-10.5273	1.78496	-1.00852	
-8.76418	2	-0.811651	
-10.0876	1.92525	-0.925063	
-8.83547	2	-0.813391	
-8.59659	0.350099	-0.803692	
-8.53288	0.315549	-0.801102	
-8.29269	1.02327	-0.791227	
-9.64308	1.02942	-0.905948	
-8.28774	0.0746863	-0.79105	
-8.32245	0.130322	-0.792327	
-9.52907	0.159825	-0.90177	
-9.54145	0.255296	-0.902176	
-7.02293	0.198868	-0.67957	
-8.36582	0.185075	-0.794034	
-9.49423	0.53229	-0.900702	
-13.089	0.358269	-1.23263	
-9.24653	0.286611	-0.896462	
-8.0279	0.283499	-0.784921	
-10.5273	0.143615	-1.00852	
-9.3243	0.19815	-0.897163	
-10.5273	0.215036	-1.00852	
-10.6721	0.268711	-1.01028	
-9.75615	0	-0.910731	
-7.2673	0	-0.68966	
-8.55494	0.0522709	-0.801988	
-6.29639	0.233077	-0.589113	
-10.1249	0.293965	-0.925444	
-9.83857	1.52249	-0.914156	
-8.55625	1.6164	-0.802039	
-8.49663	1.57352	-0.799585	
-8.49217	1.65009	-0.799395	
-8.85379	1.59898	-0.813298	
-8.69266	0	-0.80835	
-8.63808	0.0589648	-0.805627	
-8.62003	0	-0.804762	
-8.13812	1.47391	-0.786727	
-9.50166	1.46129	-0.900921	
-9.47918	1.53681	-0.900276	
-9.94022	0.286849	-0.918739	
-8.27915	0.724627	-0.790748	
-7.00851	0.784216	-0.679049	
-9.50873	0.788387	-0.901133	
-10.0748	0.223399	-0.924734	
-7.49905	1.34531	-0.700174	
-7.4943	1.40661	-0.700007	
-9.99389	1.36487	-0.921417	
-8.7479	1.29047	-0.810975	
-7.48063	0.414541	-0.699485	
-8.70872	0.434011	-0.809146	
-9.99876	0.349215	-0.921653	
-8.82431	0.422964	-0.813308	
-10.0555	0.489015	-0.924107	
-8.84662	0.488653	-0.813373	
-6.00459	1.24582	-0.578311	
-8.55218	1.18695	-0.801879	
-7.44052	1.58611	-0.6977	
-7.01205	0.42229	-0.679175	
-7.03423	0.312816	-0.679989	
-9.67632	0.310713	-0.907317	
-8.34491	0.255176	-0.793197	
-8.41075	0.23291	-0.795902	
-11.3034	1.20734	-1.03482	
-8.61121	1.1572	-0.804351	
-8.68046	1.15129	-0.807738	
-7.38839	1.2101	-0.695114	
-9.90129	1.08885	-0.91684	
-8.22386	1.61914	-0.788953	
-8.2427	1.69424	-0.789535	
-9.44491	1.67616	-0.899384	
-8.29158	1.64844	-0.791187	
-8.31999	1.72086	-0.792233	
-8.66502	0.644913	-0.806962	
-7.45257	1.94629	-0.698267	
-9.94221	1.93331	-0.918838	
-8.73481	1.88539	-0.81039	
-9.42726	0.0804625	-0.89897	
-6.806	0.127785	-0.673682	
-6.81724	1.88257	-0.673876	
-9.43033	1.92762	-0.89904	
-8.18534	0.21589	-0.787866	
-7.4452	0.273142	-0.697923	
-8.71912	0.209198	-0.809652	
-7.43383	0.143339	-0.697378	
-8.78528	0.145092	-0.812412	
-7.38136	0.115792	-0.694762	
-8.66195	1.85807	-0.806808	
-8.5962	1.88373	-0.803675	
-7.30564	1.94611	-0.691195	
-7.2673	2	-0.68966	
-8.62003	2	-0.804762	
-7.63557	0.682902	-0.697106	
-10.2465	0.64279	-0.896462	
-7.16214	1.88295	-0.685221	
-8.32085	1.53147	-0.792266	
-8.29842	1.46174	-0.791434	
-8.3629	1.47178	-0.793915	
-8.86531	1.08229	-0.813058	
-6.89328	0.329519	-0.675517	
-9.30906	0.43708	-0.896983	
-9.24653	0.429861	-0.896462	
-7.07501	1.67699	-0.681573	
-8.27352	1.57544	-0.790554	
-7.38842	1.60691	-0.695116	
-8.62751	1.65508	-0.805117	
-8.72859	1.81461	-0.810101	
-7.38698	1.78507	-0.695044	
-6.89209	0.749751	-0.675487	
-8.22275	0.701087	-0.78892	
-9.38353	0.758919	-0.898076	
-8.96571	0.429861	-0.784404	
-10.1804	0.409639	-0.92319	
-8.79674	1.77163	-0.812755	
-10.1472	1.71936	-0.925086	
-9.44027	1.1716	-0.899272	
-8.19225	1.09553	-0.788051	
-9.54581	1.76477	-0.902322	
-7.06138	1.7791	-0.681032	
-8.46571	0.277236	-0.798259	
-9.72174	0.151691	-0.909249	
-7.26661	1.84554	-0.689633	
-8.48122	1.83711	-0.798927	
-8.36174	1.33945	-0.793868	
-8.33277	1.40104	-0.792722	
-7.49418	0.297567	-0.700002	
-8.79439	0.357474	-0.81269	
-7.31037	0.760525	-0.691399	
-8.5415	0.810302	-0.801452	
-8.44953	0.749841	-0.797562	
-8.38451	0.751361	-0.794801	
-8.40679	0.686344	-0.795734	
-8.47618	0.810027	-0.79871	
-8.41087	0.81571	-0.795907	
-11.8082	1.64173	-1.12058	
-8.03136	1.65788	-0.78496	
-10.2465	1	-0.896462	
-10.2465	1.07055	-0.896462	
-7.63626	1.0308	-0.697004	
-6.74966	1.5272	-0.672892	
-10.5273	1.57014	-1.00852	
-7.10531	0.121062	-0.68281	
-8.43274	0.068568	-0.79684	
-8.50023	0.0968802	-0.799738	
-10.5273	1.85639	-1.00852	
-9.31323	1.8723	-0.89703	
-10.5273	0.0721374	-1.00852	
-8.02594	0.116381	-0.7849	
-8.53195	0.378957	-0.801064	
-10.5273	1.2856	-1.00852	
-8.03147	1.33655	-0.784961	
-10.5273	1.35721	-1.00852	
-7.13982	1.07097	-0.684264	
-8.42712	1.13809	-0.796599	
-7.09244	1.10545	-0.682279	
-8.48021	1.08867	-0.798883	
-8.44148	0.876824	-0.797216	
-8.37981	0.882801	-0.794606	
-9.62686	0.819303	-0.905299	
-8.59946	1.38959	-0.803819	
-7.3122	1.45442	-0.691478	
-8.65823	1.41914	-0.806622	
-7.18867	0.213959	-0.686364	
-8.42746	0.621411	-0.796614	
-8.38964	0.549577	-0.795014	
-8.45104	0.556476	-0.797627	
-8.41877	0.491713	-0.796243	
-10.0124	0.0712931	-0.9223	
-8.35947	1.1672	-0.793777	
-8.61492	1.57159	-0.804523	
-8.15929	0.47164	-0.787211	
-7.63221	0.476615	-0.697577	
-10.169	0.546631	-0.924077	
-9.24653	0.500665	-0.896462	
-8.02569	0.802839	-0.784897	
-6.82012	0.646217	-0.673928	
-6.79793	0.69766	-0.67355	
-8.07885	1.17495	-0.785609	
-9.312	1.0996	-0.897016	
-9.39643	1.1007	-0.89832	
-9.50459	1.32398	-0.901008	
-6.87439	1.29855	-0.675057	
-8.18502	1.24767	-0.787857	
-8.36764	0.61668	-0.794108	
-8.3305	0.546139	-0.792635	
-6.99101	0.561624	-0.678438	
-8.2837	0.491616	-0.790907	
-6.88076	1.0418	-0.675208	
-8.22221	1.02609	-0.788904	
-9.44398	0.976287	-0.899362	
-8.2393	0.965074	-0.789428	
-8.37179	0.954567	-0.794277	
-8.0993	1.62515	-0.785956	
-6.87983	1.59965	-0.675186	
-7.57804	0.360303	-0.701154	
-8.03589	1.5889	-0.785013	
-8.29344	1.33334	-0.791254	
-8.2671	1.39903	-0.790335	
-8.25469	1.2624	-0.789922	
-9.623	0.683934	-0.905147	
-8.89749	0.967445	-0.811317	
-11.4409	0.89983	-1.03664	
-8.78401	0.914042	-0.812371	
-8.53386	1.0505	-0.801142	
-7.46309	1.13415	-0.698742	
-7.41949	1.09375	-0.696673	
-7.16112	1.5431	-0.685177	
-8.79193	0.770923	-0.812618	
-7.44524	0.785107	-0.697925	
-7.36791	1.34839	-0.694092	
-10.1135	1.29694	-0.925437	
-8.81547	1.65281	-0.813179	
-9.31809	1.25411	-0.897087	
-8.0955	1.32162	-0.785888	
-7.32111	0.633745	-0.691872	
-8.65604	0.587288	-0.806513	
-8.85673	0.6882	-0.813252	
-8.50263	0.873522	-0.79984	
-5.99121	1.36753	-0.57779	
-8.69266	2	-0.80835	
-6.94342	1.1987	-0.676907	
-8.46904	0.394274	-0.798403	
-8.46838	0.336713	-0.798374	
-8.79043	0.702848	-0.812573	
-8.96571	0.929454	-0.784404	
-8.96571	0.857842	-0.784404	
-7.60023	1.94387	-0.70038	
-8.49034	1.16572	-0.799317	
-8.54708	1.11814	-0.801676	
-9.46446	1.79696	-0.899879	
-6.91107	1.73661	-0.675983	
-7.13222	0.370041	-0.683941	
-7.18051	0.446178	-0.686013	
-7.14469	0.936014	-0.684472	
-5.50571	1.0523	-0.561317	
-8.10532	1.01699	-0.786066	
-8.96571	1.49933	-0.784404	
-9.32972	0.586375	-0.897233	
-9.36623	0.509874	-0.897774	
-8.90414	1.54624	-0.810686	
-6.99864	0.664255	-0.678701	
-7.04978	0.750955	-0.680581	
-7.00183	0.837223	-0.678813	
-10.5273	1.21388	-1.00852	
-6.73618	1.17543	-0.672748	
-10.5273	0.929454	-1.00852	
-6.73704	0.873321	-0.672757	
-11.8082	0.857842	-1.12058	
-8.02225	0.725606	-0.78486	
-10.5273	0.786116	-1.00852	
-10.5273	0.714404	-1.00852	
-8.03826	0.653203	-0.785041	
-10.5273	0.64279	-1.00852	
-11.8082	0.571209	-1.12058	
-10.5273	1.14216	-1.00852	
-6.81617	0.957788	-0.673857	
-5.63087	0.930031	-0.563942	
-8.30652	0.613315	-0.79173	
-7.6409	1.6049	-0.696262	
-7.23055	0.552048	-0.688151	
-8.49094	0.616488	-0.799342	
-9.38859	1.54065	-0.898169	
-8.12476	0.177963	-0.786445	
-8.11146	1.24487	-0.786182	
-9.37831	1.39957	-0.897982	
-6.9057	0.139289	-0.675839	
-8.08871	1.69928	-0.785771	
-8.12173	1.75272	-0.786384	
-8.1602	1.35868	-0.787233	
-6.93215	1.39206	-0.676574	
-6.88566	1.42097	-0.675327	
-8.09925	1.81911	-0.785955	
-8.89908	1.6612	-0.811177	
-8.96571	1.71339	-0.784404	
-7.42476	0.496577	-0.696934	
-8.72936	0.549039	-0.810137	
-6.86797	1.85508	-0.674908	
-6.73873	0.520218	-0.672774	
-5.58717	0.528047	-0.56285	
-8.96571	1.57014	-0.784404	
-10.2465	0.500665	-0.896462	
-6.11172	0.932053	-0.583265	
-6.97719	1.07414	-0.677973	
-6.98064	1.51028	-0.678088	
-10.2465	1.64173	-0.896462	
-6.91691	0.282674	-0.676142	
-8.96571	0.571209	-0.784404	
-6.35949	0.59575	-0.584304	
-5.4696	1.71321	-0.560843	
-9.56036	1.88726	-0.90282	
-7.62869	0.827624	-0.698024	
-6.96738	1.82622	-0.677653	
-6.74788	1.40032	-0.672872	
-8.20373	1.87065	-0.788367	
-6.25693	0.866054	-0.589114	
-6.2241	1.24863	-0.588311	
-7.02605	1.94589	-0.679685	
-6.35704	1.75284	-0.584703	
-5.70342	1.94185	-0.56615	
-8.92944	0.611259	-0.743904	
-10.1902	0.691022	-0.846287	
-7.64561	0.951279	-0.630248	
-10.1964	0.885946	-0.84904	
-8.45422	0	-0.693633	
-8.38588	0	-0.700834	
-9.70591	0.0792566	-0.808519	
-10.5974	0	-0.990034	
-6.7927	0.0639973	-0.644667	
-8.1052	0	-0.749418	
-8.01886	0.0936441	-0.770205	
-8.31473	0	-0.710349	
-8.24417	0	-0.721703	
-8.28727	0.0798839	-0.714546	
-7.65659	0.821071	-0.636413	
-8.92826	1.45488	-0.743271	
-8.93131	1.89867	-0.744933	
-7.17341	2	-0.581575	
-8.52585	2	-0.688299	
-9.78448	1.91895	-0.801753	
-6.79614	1.93754	-0.643856	
-8.02396	1.90585	-0.768898	
-8.03575	2	-0.765919	
-8.1052	2	-0.749418	
-8.38588	2	-0.700834	
-8.35018	1.92228	-0.705359	
-8.31473	2	-0.710349	
-8.56245	1.85759	-0.686526	
-9.76879	1.82278	-0.802882	
-9.56368	0.600657	-0.827303	
-8.22778	0.663037	-0.724605	
-9.57596	0.68441	-0.825371	
-8.02051	0.939959	-0.76978	
-8.02958	1.33496	-0.767471	
-9.75427	1.68417	-0.804028	
-7.22265	1.74973	-0.577651	
-11.1315	1.71007	-0.910371	
-8.2803	1.02684	-0.715656	
-9.57156	0.943151	-0.826056	
-8.22512	0.965528	-0.725086	
-8.05602	0.553448	-0.760917	
-8.01308	0.495631	-0.771695	
-8.71547	1.36962	-0.690331	
-11.2088	1.42353	-0.910212	
-8.72603	1.43872	-0.691391	
-10.1125	1.02505	-0.821246	
-8.76557	0.965827	-0.696427	
-10.0195	1.04082	-0.804877	
-9.9584	1.21008	-0.799499	
-11.328	1.26463	-0.920661	
-8.76035	1.19252	-0.695661	
-8.26912	1.8275	-0.717475	
-9.56224	1.91186	-0.827533	
-9.61736	1.83465	-0.819279	
-9.68101	1.04863	-0.811222	
-8.33965	1.0111	-0.706791	
-9.60393	1.09426	-0.821184	
-7.11127	1.10778	-0.588041	
-9.7538	1.09436	-0.804066	
-8.50891	0.92332	-0.689344	
-8.54711	0.983948	-0.687187	
-11.1517	0.912712	-0.909856	
-7.25309	1.65028	-0.575794	
-7.30689	1.64109	-0.573725	
-9.82082	1.58611	-0.799591	
-8.03593	0.621253	-0.765873	
-6.82159	0.607584	-0.63799	
-9.42295	0.544593	-0.853423	
-9.44363	0.626188	-0.849134	
-9.67889	0.883867	-0.811464	
-8.35702	0.814004	-0.704453	
-8.33269	0.883506	-0.70776	
-7.07046	0.94284	-0.593155	
-7.01737	0.823889	-0.600786	
-8.26355	0.86549	-0.7184	
-8.70896	0.577518	-0.689734	
-9.98727	0.659851	-0.801574	
-8.77067	0.634606	-0.697207	
-9.41836	0.0913029	-0.854397	
-8.06633	0.141129	-0.758433	
-8.49246	1.15841	-0.69049	
-11.1409	1.18235	-0.91009	
-7.2621	1.11752	-0.57533	
-10.1312	0.938839	-0.826049	
-7.61943	0.99711	-0.618386	
-8.52565	0.516229	-0.68831	
-9.8348	0.597248	-0.798934	
-8.60003	0.53029	-0.685606	
-9.65662	1.25683	-0.814117	
-9.63659	1.17353	-0.816675	
-8.30729	1.22905	-0.711458	
-10.1522	1.10599	-0.83225	
-8.91529	1.05145	-0.736871	
-8.8721	1.1866	-0.720418	
-8.92515	1.17077	-0.741646	
-10.8541	1.39834	-0.937841	
-7.01607	1.4857	-0.600986	
-8.35708	1.4682	-0.704445	
-9.97072	0.907417	-0.800286	
-8.63694	0.841878	-0.685829	
-11.4482	0.492781	-0.949412	
-7.54913	0.543817	-0.596711	
-8.87886	0.570722	-0.722628	
-8.65694	1.72433	-0.686437	
-8.61286	1.78876	-0.685554	
-8.5272	0.853718	-0.688222	
-8.44016	0.389993	-0.694952	
-7.16678	0.316743	-0.582186	
-8.38597	0.343184	-0.700823	
-8.56058	0.780432	-0.6866	
-7.29873	0.84375	-0.57391	
-8.63064	0.770799	-0.685709	
-8.47579	0.577671	-0.691779	
-9.32113	1.02428	-0.876836	
-9.52316	0.237428	-0.834079	
-8.25819	0.153222	-0.7193	
-8.19058	0.163431	-0.731557	
-9.61422	0.159631	-0.819717	
-8.68008	1.80219	-0.687589	
-7.42919	1.86234	-0.577769	
-8.75897	1.80354	-0.695464	
-8.58814	0.329138	-0.685775	
-9.94364	0.30982	-0.798741	
-9.89152	0.244444	-0.797611	
-8.62026	0.391669	-0.685586	
-6.93895	1.03303	-0.614002	
-8.58854	0.717798	-0.685767	
-8.50691	0.718603	-0.689476	
-7.26402	0.665477	-0.575237	
-8.61994	0.658642	-0.685584	
-7.16522	1.87015	-0.582333	
-8.41038	1.80864	-0.698027	
-7.27025	1.78424	-0.574947	
-8.43795	1.74797	-0.695167	
-8.68543	0.386445	-0.687926	
-8.71548	0.441074	-0.690331	
-8.75481	0.365688	-0.694883	
-8.52671	1.25637	-0.68825	
-8.60156	1.24657	-0.685593	
-8.54956	1.3122	-0.687073	
-7.33427	1.30199	-0.573501	
-8.67507	1.27096	-0.687298	
-8.40065	0.276367	-0.699112	
-10.881	0.292881	-0.933779	
-7.07395	0.234809	-0.592692	
-7.01803	0.216682	-0.600684	
-8.7773	0.891352	-0.698267	
-8.57665	1.48059	-0.686046	
-8.50079	1.4429	-0.689894	
-9.77991	1.51083	-0.80207	
-8.42941	1.45569	-0.696019	
-8.58916	1.36546	-0.685756	
-8.65962	1.34038	-0.686546	
-8.32518	1.70558	-0.708828	
-8.34016	1.63351	-0.70672	
-8.2682	1.65739	-0.717627	
-8.18902	0.837679	-0.73186	
-8.23331	0.792044	-0.723616	
-8.24556	1.09876	-0.721462	
-9.55619	1.30603	-0.828509	
-6.94789	1.35315	-0.612382	
-9.92238	0.166399	-0.797996	
-8.55975	0.169498	-0.686634	
-9.47424	1.40455	-0.843065	
-9.63973	0.41495	-0.816263	
-9.69229	0.474418	-0.809964	
-9.92735	1.05334	-0.798134	
-8.68743	0.984567	-0.688059	
-8.65087	1.13834	-0.686215	
-8.28564	0.452043	-0.714804	
-9.56361	0.374434	-0.827314	
-6.94605	0.42015	-0.612712	
-9.4867	0.484457	-0.840694	
-8.80346	0	-0.703	
-8.8201	0.0667918	-0.7065	
-8.86785	0	-0.71908	
-8.80346	2	-0.703	
-7.49112	1.94291	-0.585347	
-7.45219	2	-0.580098	
-8.84105	0.853126	-0.711516	
-8.86785	2	-0.71908	
-10.1153	1.92333	-0.821922	
-7.18243	0.506745	-0.580775	
-8.41021	0.56183	-0.698045	
-8.41798	0.636864	-0.697207	
-8.34889	0.546278	-0.705532	
-8.34961	0.617676	-0.705435	
-10.0317	0.078087	-0.806413	
-9.9918	1.56345	-0.801973	
-7.48222	1.62497	-0.583994	
-8.79514	1.57191	-0.701396	
-10.1339	0.153301	-0.826794	
-10.1381	0.252546	-0.827994	
-7.62772	0.211952	-0.621813	
-8.48132	0.650538	-0.691337	
-9.71147	0.718414	-0.807951	
-8.41991	0.798942	-0.697002	
-8.48696	0.786413	-0.690901	
-7.08459	0.678765	-0.591309	
-8.35966	0.741319	-0.704109	
-10.1967	1.80752	-0.849204	
-8.86715	1.74768	-0.718862	
-10.119	1.83308	-0.822839	
-8.42749	1.20637	-0.696215	
-9.42356	1.92648	-0.853295	
-9.36788	1.86025	-0.865613	
-8.88683	0.344499	-0.725387	
-8.91274	0.410465	-0.735714	
-10.0286	0.282592	-0.806011	
-10.0985	0.338159	-0.818019	
-9.75533	0.251286	-0.803941	
-7.25032	0.217721	-0.575944	
-9.74825	0.164212	-0.80453	
-9.32398	0.230355	-0.876129	
-9.87953	1.93673	-0.797677	
-8.85554	1.26103	-0.715431	
-8.91915	1.24459	-0.738677	
-8.84056	1.32491	-0.711389	
-10.192	1.31978	-0.847078	
-10.0541	0.804788	-0.809674	
-10.1259	0.759874	-0.824625	
-8.7823	0.714139	-0.699104	
-8.40863	0.206449	-0.698219	
-7.11224	0.138218	-0.587928	
-8.08896	1.72394	-0.753116	
-8.05396	1.78328	-0.761418	
-9.41383	1.79352	-0.855367	
-8.48653	1.03613	-0.690934	
-9.84048	1.05319	-0.798695	
-8.61042	0.992616	-0.685554	
-7.31953	1.10914	-0.573546	
-10.0633	0.204267	-0.8112	
-8.69403	0.22975	-0.688524	
-8.4626	0.863551	-0.692888	
-8.44454	0.938032	-0.694532	
-7.52958	1.76807	-0.592352	
-10.0801	1.69808	-0.814242	
-8.72749	1.73846	-0.691546	
-8.78446	0.425321	-0.699474	
-8.74051	0.500006	-0.693035	
-8.64403	0.456585	-0.686004	
-8.67155	0.51622	-0.687107	
-8.16567	0.232607	-0.736494	
-8.33971	1.33248	-0.706782	
-8.41526	1.52656	-0.697497	
-9.6212	1.55451	-0.818747	
-9.69729	1.60907	-0.809425	
-6.94419	0.903738	-0.613048	
-9.43218	0.902651	-0.851489	
-8.66544	0	-0.686803	
-8.59423	0	-0.685674	
-8.61682	0.051764	-0.685566	
-8.52585	0	-0.688299	
-8.54711	0.0537652	-0.687187	
-8.44387	1.3862	-0.694596	
-8.37315	1.3946	-0.702389	
-8.44973	1.26486	-0.694045	
-7.21738	1.21166	-0.578018	
-8.40685	1.32507	-0.698415	
-8.47783	1.32038	-0.691614	
-7.60802	0.814456	-0.614052	
-8.21344	1.88165	-0.727225	
-8.64126	0.594595	-0.68593	
-7.65637	1.38879	-0.636282	
-8.88747	1.39048	-0.725617	
-9.43559	0.75837	-0.850783	
-8.11136	0.821275	-0.74804	
-8.92003	0.75743	-0.7391	
-9.48335	1.60921	-0.841325	
-8.20229	1.68446	-0.729315	
-6.91483	1.75212	-0.618524	
-9.53856	1.73879	-0.831433	
-9.39941	1.59941	-0.858499	
-8.13365	1.66432	-0.743173	
-9.9806	1.93182	-0.801022	
-8.77461	1.87756	-0.69783	
-8.92827	0.146224	-0.743276	
-7.65393	1.10891	-0.634831	
-7.6481	0.544978	-0.631563	
-9.43542	1.32361	-0.850818	
-8.21274	0.0813768	-0.727356	
-8.17534	0	-0.734552	
-7.53568	1.21454	-0.59365	
-8.81621	1.14931	-0.705645	
-8.6391	1.87232	-0.685877	
-8.11592	1.24379	-0.74703	
-8.07777	1.29411	-0.755723	
-8.18194	1.24385	-0.733244	
-8.27994	1.16415	-0.715715	
-10.713	0.398041	-0.963554	
-9.32046	1.20048	-0.877002	
-8.02893	1.11243	-0.767637	
-8.21545	0.560548	-0.726853	
-8.28021	0.523541	-0.71567	
-9.98971	1.65544	-0.801786	
-8.57754	0.109422	-0.686021	
-7.10742	1.86761	-0.588496	
-8.42165	1.9304	-0.696819	
-7.44829	0.741046	-0.579664	
-8.83907	0.676971	-0.711011	
-6.88821	0.693471	-0.623758	
-8.22802	0.726744	-0.724562	
-8.29499	0.760134	-0.713337	
-5.66019	0.61385	-0.50157	
-6.73134	0.170423	-0.659876	
-7.43017	1.15632	-0.577857	
-7.4175	1.09603	-0.576791	
-8.7558	1.1197	-0.695019	
-6.87375	1.85832	-0.626711	
-8.2078	1.8111	-0.728276	
-8.86747	1.45652	-0.718962	
-8.82794	1.39372	-0.708293	
-6.93109	1.94352	-0.615453	
-8.24417	2	-0.721703	
-8.69169	0.79232	-0.688354	
-7.43568	0.850283	-0.578371	
-8.66725	0.718066	-0.68689	
-8.11725	0.180772	-0.746737	
-8.64159	1.51591	-0.685939	
-9.91534	1.59438	-0.797836	
-7.41283	1.48768	-0.576439	
-8.76043	1.50665	-0.695673	
-6.74064	1.83632	-0.657481	
-9.52745	1.53312	-0.833332	
-6.89417	1.54488	-0.622563	
-8.01892	1.71558	-0.770189	
-10.168	1.66217	-0.837585	
-8.21104	0.358669	-0.727672	
-8.15439	0.310734	-0.738804	
-7.48865	1.39867	-0.584962	
-8.79967	1.4537	-0.702257	
-8.77918	1.33896	-0.698577	
-8.57351	0.46147	-0.686138	
-7.27347	0.394907	-0.574805	
-9.77644	0.433969	-0.802317	
-7.28669	1.42238	-0.574279	
-8.51411	1.37641	-0.689009	
-8.82612	0.606335	-0.707867	
-8.06263	0.879786	-0.75932	
-8.07398	0.752034	-0.756614	
-8.03074	0.815753	-0.767177	
-9.38297	1.38066	-0.862163	
-10.1898	1.52165	-0.84613	
-8.834	1.51493	-0.709747	
-7.52102	1.08423	-0.59062	
-8.03106	1.59815	-0.767097	
-7.31342	2	-0.573616	
-9.4848	1.16076	-0.841051	
-6.86675	1.18618	-0.628166	
-7.14424	1.14984	-0.584406	
-8.24395	1.23168	-0.721741	
-8.08984	1.16237	-0.752915	
-8.39573	1.68406	-0.699675	
-6.15341	0.333428	-0.466175	
-8.03157	1.52552	-0.766969	
-8.07801	0.488947	-0.755666	
-6.99478	1.59304	-0.604358	
-8.8664	1.57917	-0.718635	
-8.0561	1.65719	-0.760899	
-8.77096	0.559694	-0.697251	
-8.80882	0.490232	-0.704083	
-8.09496	0.956713	-0.751739	
-8.16561	0.989568	-0.736506	
-8.36982	1.75665	-0.702807	
-7.02917	1.77244	-0.598997	
-6.86802	1.72615	-0.627901	
-6.97607	0.310718	-0.607463	
-6.92351	0.290342	-0.616872	
-6.93455	1.29539	-0.614812	
-8.66544	2	-0.686803	
-7.06143	0.482459	-0.594376	
-7.43959	1.30941	-0.578754	
-8.50377	0.109198	-0.689688	
-8.11855	1.03572	-0.746451	
-8.17958	1.07584	-0.733709	
-8.17534	2	-0.734552	
-7.60026	0.633303	-0.611321	
-8.84804	0.422033	-0.713355	
-6.24159	0.266461	-0.478838	
-8.10196	0.262786	-0.75015	
-7.35851	1.66446	-0.573825	
-7.29581	1.54135	-0.573989	
-8.0598	0.371856	-0.760002	
-6.81128	0.429791	-0.640337	
-7.18997	1.56661	-0.580133	
-7.20438	1.62234	-0.578978	
-5.76198	1.2804	-0.484938	
-8.02806	0.68957	-0.767855	
-6.73194	0.753859	-0.659722	
-8.92547	0.285029	-0.741813	
-6.73602	1.26259	-0.658667	
-10.2078	0	-0.854639	
-6.74398	1.39629	-0.656628	
-9.33178	1.45609	-0.874208	
-8.03611	0.308608	-0.765829	
-9.38241	0.682551	-0.862288	
-8.02512	0.423502	-0.768604	
-8.92695	2	-0.742582	
-7.20627	0.980727	-0.578834	
-9.39367	1.51237	-0.859766	
-8.13616	1.11653	-0.742636	
-7.26383	0.277428	-0.575247	
-9.79029	0.33864	-0.801365	
-6.80076	1.08627	-0.642772	
-7.36071	0.0993244	-0.573879	
-8.68962	0.0548078	-0.688209	
-5.51349	1.55961	-0.532229	
-8.92687	1.72118	-0.742537	
-7.61112	1.94239	-0.61519	
-7.60295	1.87535	-0.612248	
-6.85834	0.473525	-0.62994	
-6.82183	0.331482	-0.637936	
-7.54582	1.63205	-0.595931	
-7.64361	1.59521	-0.629221	
-8.18564	1.47977	-0.732519	
-8.72548	0.160133	-0.691333	
-7.4128	0.114041	-0.576436	
-6.96341	1.45658	-0.609636	
-7.50832	0.130179	-0.58824	
-8.39385	0.972536	-0.699894	
-8.89866	0.0752793	-0.729815	
-7.20332	0.0509452	-0.57906	
-7.15837	1.00206	-0.582989	
-5.77278	0.356044	-0.483403	
-8.35374	0.0762643	-0.704885	
-6.84841	1.44431	-0.632067	
-8.73301	0	-0.692155	
-6.37389	0.460204	-0.523227	
-6.08092	0.946643	-0.461849	
-8.04003	2	-0.775108	
-8.11902	2	-0.766574	
-8.28258	2	-0.753311	
-8.36859	2	-0.748721	
-8.19958	2	-0.759298	
-9.82571	2	-0.85651	
-10.0039	2	-0.862651	
-8.89497	2	-0.771507	
-8.81164	2	-0.759524	
-8.6339	2	-0.745567	
-9.73622	2	-0.857814	
-10.5273	-0.0721374	-1.00852	
-6.73471	-0.0524234	-0.672733	
-7.00183	-1.94219	-0.678813	
-8.21695	-1.93265	-0.788748	
-8.25732	-2	-0.790008	
-8.07636	-0.0610541	-0.78557	
-8.22061	-0.0745946	-0.788856	
-8.36261	-0.063891	-0.793904	
-8.96571	-1.2856	-0.784404	
-8.90398	-1.32684	-0.810702	
-8.96571	-1.35721	-0.784404	
-8.96571	-0.0721374	-0.784404	
-10.2465	-0.215036	-0.896462	
-8.96571	-0.143615	-0.784404	
-8.91448	-0.177622	-0.809436	
-7.68489	-0.286611	-0.672346	
-8.91556	-0.326516	-0.809284	
-10.2465	-0.358269	-0.896462	
-8.91575	-0.255005	-0.809257	
-8.96571	-0.714404	-0.784404	
-10.1871	-0.754353	-0.922513	
-8.96571	-0.786116	-0.784404	
-8.40295	-2	-0.795572	
-9.63859	-1.91632	-0.905766	
-8.33026	-2	-0.792625	
-6.75798	-2	-0.67299	
-6.73581	-1.94543	-0.672744	
-7.96571	-2	-0.784404	
-8.91678	-1.39944	-0.809106	
-8.96571	-1.42879	-0.784404	
-6.40408	-2	-0.560289	
-10.2465	-1.92786	-0.896462	
-7.62536	-2	-0.69841	
-8.11177	-2	-0.786188	
-8.07592	-1.9425	-0.785563	
-9.79731	-1.91894	-0.912481	
-8.47533	-2	-0.798674	
-7.2673	-2	-0.68966	
-8.96571	-1.21388	-0.784404	
-8.90389	-1.25457	-0.810712	
-10.2465	-1.78496	-0.896462	
-6.36023	-1.82622	-0.584179	
-8.96571	-1.85639	-0.784404	
-8.16051	-0.824164	-0.78724	
-8.08271	-0.840188	-0.785672	
-9.41842	-0.897364	-0.898774	
-10.5273	-1.07055	-1.00852	
-9.312	-1.0996	-0.897016	
-10.5875	-0.999321	-1.00901	
-8.34502	-1.67801	-0.793201	
-8.4161	-1.66711	-0.796129	
-9.62946	-1.60664	-0.905402	
-8.2286	-0.446895	-0.789097	
-10.8112	-0.354649	-1.01387	
-8.17478	-0.398171	-0.787592	
-9.68051	-1.83141	-0.907493	
-7.17823	-1.78071	-0.685915	
-9.68207	-1.74009	-0.907558	
-9.84242	-1.7075	-0.914306	
-8.48009	-1.71822	-0.798878	
-8.5272	-1.78279	-0.800868	
-9.88235	-1.79397	-0.91597	
-8.42699	-1.60358	-0.796594	
-8.38175	-1.5428	-0.794687	
-7.04685	-1.84473	-0.680468	
-10.001	-1.45461	-0.921762	
-8.63799	-1.49442	-0.805623	
-8.68547	-1.53304	-0.80799	
-11.2488	-1.28582	-1.03219	
-8.61713	-1.23395	-0.804626	
-11.1496	-1.30809	-1.02743	
-11.3339	-1.05755	-1.03608	
-7.56644	-1.02435	-0.70131	
-7.51785	-0.98494	-0.700749	
-8.53925	-0.659051	-0.801361	
-8.47222	-0.685531	-0.79854	
-9.8062	-0.738859	-0.912851	
-9.78161	-1.33862	-0.91182	
-9.79129	-1.25231	-0.912229	
-10.5273	-1.42879	-1.00852	
-10.5273	-1.49933	-1.00852	
-9.33109	-1.4654	-0.897251	
-8.05318	-0.918262	-0.785232	
-8.10532	-1.01699	-0.786066	
-6.81617	-0.957788	-0.673857	
-10.793	-0.881052	-1.0133	
-8.2393	-0.965074	-0.789428	
-8.30278	-0.954992	-0.791592	
-7.28372	-0.86716	-0.690304	
-9.91176	-0.888326	-0.917339	
-8.61311	-0.817828	-0.804439	
-9.42199	-0.589278	-0.898852	
-9.43902	-0.676587	-0.899243	
-9.50431	-0.618429	-0.901	
-10.0986	-0.0745363	-0.925275	
-8.55233	-1.18703	-0.801885	
-8.49036	-1.16574	-0.799318	
-8.4857	-0.496062	-0.799118	
-9.84751	-0.503541	-0.914502	
-8.52134	-0.439924	-0.800626	
-9.88389	-0.698429	-0.916039	
-8.37034	-1.23016	-0.794218	
-9.57287	-1.19538	-0.903262	