<VTKFile type="UnstructuredGrid" version="0.1" byte_order="LittleEndian">
	<UnstructuredGrid>
		<Piece NumberOfPoints="1917" NumberOfCells="56">
			<CellData Scalars="scalars">
				<DataArray type="Float64" Name="Doublet Strengths" NumberOfComponents="1" Format="ascii">
-1.06791	
-4.11694	
-3.11389	
-3.16862	
-3.94989	
-4.08992	
-4.20931	
-4.03	
-3.04737	
-2.91394	
-1.75806	
-4.5824	
-3.14679	
-4.41231	
-2.89268	
-3.22182	
-4.1	
-3.79484	
-3.77221	
-3.62829	
-4.05743	
-4.06837	
-3.54392	
-4.0482	
-6.08619	
-3.7326	
-2.5774	
-3.00974	
-6.0869	
-3.20804	
-3.74065	
-4.09075	
-3.57454	
-2.98148	
-1.61559	
-4.54222	
-3.15766	
-3.60642	
-4.00162	
-2.91034	
-3.20613	
-3.87298	
-3.95684	
-3.55944	
-3.56454	
-4.01168	
-3.88455	
-3.58702	
-3.04971	
-3.50684	
-3.74175	
-1.02782	
-2.63873	
-3.05606	
-3.72689	
-2.03184	
				</DataArray>
				<DataArray type="Float64" Name="Velocity Potential" NumberOfComponents="1" Format="ascii">
-244.785	
-284.585	
-299.871	
-299.824	
-313.326	
-298.902	
-284.491	
-313.247	
-314.23	
-300.072	
-301.235	
-298.41	
-299.839	
-270.001	
-314.384	
-299.763	
-313.175	
-299.196	
-313.505	
-299.359	
-284.645	
-298.925	
-299.445	
-313.226	
-296.905	
-299.258	
-300.416	
-299.976	
-296.905	
-299.781	
-313.536	
-284.616	
-299.418	
-285.724	
-301.376	
-298.45	
-299.831	
-285.101	
-298.991	
-300.079	
-299.782	
-313.402	
-299.032	
-299.431	
-299.427	
-284.69	
-284.818	
-313.689	
-299.939	
-299.48	
-313.533	
-244.826	
-300.353	
-299.933	
-299.265	
-315.247	
				</DataArray>
			</CellData>
			<Points>
				<DataArray type="Float64" Name="Position" NumberOfComponents="3" Format="ascii">
-4.05404	0	-0.436424	
-3.3192	0.0524256	-0.373913	
-5.40408	0	-0.560289	
-4.20009	2	-0.439229	
-4.23132	1.93467	-0.440098	
-4.98412	2	-0.503638	
-4.12701	0	-0.437564	
-4.0916	0.0610502	-0.436946	
-4.23584	0.0745738	-0.440232	
-4.20009	0	-0.439229	
-4.27256	0	-0.441384	
-4.3455	0	-0.444001	
-4.41819	0	-0.446948	
-4.37681	0.0639395	-0.445238	
-4.22175	1.39584	-0.398032	
-4.91895	1.3266	-0.462107	
-4.98095	1.35721	-0.43578	
-5.40408	1.92786	-0.560289	
-3.32006	1.94512	-0.373921	
-5.69251	0.0721374	-0.498034	
-4.91698	0.0533506	-0.462304	
-4.26939	0	-0.373526	
-5.69251	0.215036	-0.498034	
-6.31423	0.171582	-0.588569	
-4.26939	0.143615	-0.373526	
-4.26939	0.286611	-0.373526	
-5.69251	0.358269	-0.498034	
-4.93077	0.326064	-0.460664	
-4.92856	0.252841	-0.460971	
-4.98095	0.714404	-0.43578	
-4.98095	0.786116	-0.43578	
-5.63306	0.754574	-0.524089	
-4.41819	2	-0.446948	
-4.3455	2	-0.444001	
-5.80573	1.91204	-0.569981	
-4.43342	1.66657	-0.447594	
-5.07502	1.60722	-0.506958	
-4.24408	0.446925	-0.44048	
-4.19114	0.397747	-0.438997	
-5.68846	0.354616	-0.565657	
-3.98095	2	-0.43578	
-4.98095	1.42879	-0.43578	
-3.55782	2	-0.311271	
-4.20985	2	-0.399589	
-5.69251	1.92786	-0.498034	
-4.12701	2	-0.437564	
-3.34248	2	-0.374169	
-4.09193	1.93956	-0.436951	
-3.74664	1.94176	-0.386401	
-5.95463	1.9167	-0.576298	
-4.49057	2	-0.45005	
-4.98095	1.21388	-0.43578	
-4.21772	1.19029	-0.398618	
-4.98095	1.14216	-0.43578	
-4.98095	1.2856	-0.43578	
-4.91925	1.25405	-0.462076	
-5.69251	1.78496	-0.498034	
-4.98095	1.85639	-0.43578	
-3.51394	1.82617	-0.335168	
-4.21043	0.114671	-0.399525	
-5.61927	1.46922	-0.525352	
-5.57375	1.38862	-0.527001	
-4.17575	0.824164	-0.438616	
-4.86441	0.897364	-0.500346	
-4.09795	0.840188	-0.437048	
-4.82359	1.46561	-0.464416	
-4.69251	1	-0.498034	
-5.46422	0.999321	-0.560783	
-5.40408	1.07055	-0.560289	
-4.44226	1.60348	-0.447971	
-4.07347	0.356544	-0.436677	
-3.42622	0.353408	-0.375522	
-4.11788	0.427857	-0.437393	
-5.12502	1.82506	-0.509003	
-5.12871	1.7382	-0.509158	
-3.76271	1.77788	-0.387094	
-4.49572	1.71777	-0.450271	
-4.54361	1.78088	-0.452293	
-5.28856	1.70728	-0.515884	
-5.32861	1.79378	-0.517554	
-4.39692	1.54291	-0.446059	
-4.33467	1.8351	-0.443588	
-5.44685	1.45384	-0.523326	
-4.70076	1.53294	-0.459368	
-4.65327	1.49429	-0.457001	
-5.40529	1.28284	-0.521269	
-6.02517	1.30815	-0.579152	
-4.63105	1.23305	-0.45594	
-6.21176	1.05577	-0.587886	
-4.82712	0.974397	-0.464489	
-4.15583	1.02275	-0.402441	
-4.5545	0.65903	-0.452738	
-5.25219	0.738857	-0.514424	
-4.48746	0.685529	-0.449916	
-5.22749	1.33866	-0.513388	
-5.23717	1.25226	-0.513797	
-5.40408	1.42879	-0.560289	
-4.77761	1.46516	-0.49883	
-5.40408	1.49933	-0.560289	
-4.06842	0.918262	-0.436608	
-5.66974	0.881052	-0.565066	
-4.33155	0.891355	-0.44347	
-4.31802	0.954992	-0.442968	
-3.86821	0.867158	-0.391483	
-4.62834	0.817822	-0.455814	
-5.35764	0.888323	-0.518907	
-4.86798	0.589259	-0.500425	
-4.9503	0.618435	-0.502573	
-4.88501	0.676586	-0.500815	
-4.77942	0	-0.463027	
-4.85071	0	-0.464767	
-5.55312	0.0790961	-0.52696	
-4.46091	1.27156	-0.448772	
-4.45048	1.20368	-0.448324	
-4.50117	0.496767	-0.450504	
-4.53788	0.442032	-0.452055	
-5.29418	0.502871	-0.516102	
-5.32988	0.698424	-0.517612	
-4.38558	1.23016	-0.445594	
-4.33622	1.27217	-0.443647	
-5.01886	1.19537	-0.504834	
-3.69326	1.2898	-0.384133	
-3.90432	1.02577	-0.392994	
-5.3519	0.967174	-0.518632	
-4.69429	1.0342	-0.459043	
-5.88689	1.00672	-0.573403	
-4.50056	0.93866	-0.450478	
-4.55212	0.987296	-0.452641	
-5.0705	0.378981	-0.506779	
-4.41978	0.426844	-0.447015	
-5.07844	0.470462	-0.507093	
-5.61038	1.87857	-0.525931	
-5.59615	1.79633	-0.526564	
-4.81929	1.84585	-0.464319	
-4.60901	0.270573	-0.454945	
-3.88275	0.200611	-0.392065	
-5.37313	0.193571	-0.519662	
-5.31142	0.123897	-0.516805	
-4.54346	0.249496	-0.452286	
-4.53436	0.173576	-0.451909	
-5.56376	1.20923	-0.527025	
-4.82208	1.13932	-0.464383	
-4.9067	1.13751	-0.463171	
-4.65929	0.531427	-0.457295	
-4.66019	0.463982	-0.457339	
-4.60335	0.427199	-0.4547	
-4.67007	0.382421	-0.457829	
-4.14499	0.742778	-0.402517	
-5.57391	0.813881	-0.526999	
-5.2966	0.580015	-0.516198	
-4.66407	1.7199	-0.457531	
-5.38887	0.757182	-0.520444	
-3.98016	0.698895	-0.39666	
-4.75087	0.732194	-0.461803	
-4.73119	0.893597	-0.460875	
-4.69823	0.830458	-0.459241	
-5.49255	0.834567	-0.525343	
-4.84842	1.53139	-0.464758	
-4.79585	1.59044	-0.463633	
-4.7715	1.5207	-0.462706	
-5.03847	1.10613	-0.505551	
-4.25687	1.13654	-0.440877	
-5.53402	0.567577	-0.526646	
-5.60115	0.624293	-0.526378	
-4.81665	0.641057	-0.464254	
-4.7483	0.667946	-0.461685	
-4.74819	0.607392	-0.46168	
-5.45169	0.97644	-0.523557	
-4.92141	0	-0.461844	
-4.41396	1.40806	-0.44677	
-4.44664	1.34451	-0.448158	
-4.48021	1.41675	-0.449604	
-4.44113	1.48085	-0.447923	
-5.25793	1.43176	-0.51466	
-4.50581	1.49613	-0.450703	
-4.57179	0.925911	-0.453427	
-4.73883	1.74077	-0.461241	
-6.16271	1.66215	-0.585786	
-4.09231	1.70694	-0.40164	
-5.40408	1.71339	-0.560289	
-5.47453	1.77904	-0.560901	
-5.40408	1.78496	-0.560289	
-4.77942	2	-0.463027	
-5.53357	1.92525	-0.526636	
-4.85071	2	-0.464767	
-4.61183	0.350099	-0.455068	
-4.54812	0.315549	-0.452478	
-4.30793	1.02327	-0.442603	
-5.08907	1.02942	-0.50752	
-4.30298	0.0746863	-0.442426	
-4.33769	0.130322	-0.443703	
-4.97506	0.159825	-0.503343	
-4.98744	0.255296	-0.503748	
-3.60742	0.198868	-0.38075	
-4.38106	0.185075	-0.44541	
-4.94022	0.53229	-0.502275	
-6.82721	0.358269	-0.684797	
-4.69251	0.286611	-0.498034	
-4.04314	0.283499	-0.436297	
-5.40408	0.143615	-0.560289	
-4.77029	0.19815	-0.498736	
-5.40408	0.215036	-0.560289	
-5.54884	0.268711	-0.562047	
-5.20214	0	-0.512304	
-3.85179	0	-0.390839	
-4.57018	0.0522709	-0.453364	
-3.45014	0.233077	-0.340095	
-5.5709	0.293965	-0.527017	
-5.28456	1.52249	-0.515729	
-4.57149	1.6164	-0.453415	
-4.51187	1.57352	-0.450961	
-4.50741	1.65009	-0.450771	
-4.86903	1.59898	-0.464674	
-4.7079	0	-0.459726	
-4.65332	0.0589648	-0.457003	
-4.63527	0	-0.456138	
-4.15336	1.47391	-0.438103	
-4.94765	1.46129	-0.502493	
-4.92517	1.53681	-0.501848	
-5.38621	0.286849	-0.520311	
-4.29439	0.724627	-0.442124	
-3.593	0.784216	-0.380228	
-4.95471	0.788387	-0.502706	
-5.52074	0.223399	-0.526307	
-4.08354	1.34531	-0.401353	
-4.0788	1.40661	-0.401186	
-5.43988	1.36487	-0.52299	
-4.76314	1.29047	-0.462351	
-4.06512	0.414541	-0.400664	
-4.72396	0.434011	-0.460522	
-5.44475	0.349215	-0.523225	
-4.83955	0.422964	-0.464684	
-5.5015	0.489015	-0.525679	
-4.86186	0.488653	-0.464749	
-3.15834	1.24582	-0.329294	
-4.56742	1.18695	-0.453255	
-4.02501	1.58611	-0.398879	
-3.59654	0.42229	-0.380355	
-3.61872	0.312816	-0.381169	
-5.12231	0.310713	-0.508889	
-4.36015	0.255176	-0.444573	
-4.42599	0.23291	-0.447278	
-6.18009	1.20734	-0.586587	
-4.62645	1.1572	-0.455727	
-4.6957	1.15129	-0.459114	
-3.97288	1.2101	-0.396294	
-5.34728	1.08885	-0.518413	
-4.2391	1.61914	-0.440329	
-4.25794	1.69424	-0.440911	
-4.8909	1.67616	-0.500957	
-4.30682	1.64844	-0.442563	
-4.33523	1.72086	-0.443609	
-4.68026	0.644913	-0.458338	
-4.03706	1.94629	-0.399446	
-5.3882	1.93331	-0.520411	
-4.75005	1.88539	-0.461766	
-4.87325	0.0804625	-0.500543	
-3.39049	0.127785	-0.374861	
-3.40173	1.88257	-0.375055	
-4.87632	1.92762	-0.500612	
-4.20058	0.21589	-0.439242	
-4.02969	0.273142	-0.399102	
-4.73436	0.209198	-0.461028	
-4.01832	0.143339	-0.398557	
-4.80052	0.145092	-0.463788	
-3.96585	0.115792	-0.395941	
-4.67719	1.85807	-0.458184	
-4.61144	1.88373	-0.455051	
-3.89013	1.94611	-0.392375	
-3.85179	2	-0.390839	
-4.63527	2	-0.456138	
-4.22006	0.682902	-0.398286	
-5.69251	0.64279	-0.498034	
-3.74663	1.88295	-0.386401	
-4.33609	1.53147	-0.443642	
-4.31366	1.46174	-0.44281	
-4.37814	1.47178	-0.445291	
-4.88055	1.08229	-0.464434	
-3.47777	0.329519	-0.376697	
-4.75505	0.43708	-0.498555	
-4.69251	0.429861	-0.498034	
-3.6595	1.67699	-0.382752	
-4.28876	1.57544	-0.44193	
-3.97291	1.60691	-0.396295	
-4.64275	1.65508	-0.456493	
-4.74383	1.81461	-0.461477	
-3.97148	1.78507	-0.396223	
-3.47658	0.749751	-0.376667	
-4.23799	0.701087	-0.440296	
-4.82952	0.758919	-0.499648	
-4.98095	0.429861	-0.43578	
-5.62638	0.409639	-0.524762	
-4.81198	1.77163	-0.464131	
-5.59315	1.71936	-0.526658	
-4.88626	1.1716	-0.500845	
-4.20749	1.09553	-0.439427	
-4.9918	1.76477	-0.503894	
-3.64587	1.7791	-0.382212	
-4.48095	0.277236	-0.449635	
-5.16773	0.151691	-0.510822	
-3.85111	1.84554	-0.390812	
-4.49646	1.83711	-0.450303	
-4.37698	1.33945	-0.445244	
-4.34801	1.40104	-0.444098	
-4.07867	0.297567	-0.401182	
-4.80963	0.357474	-0.464066	
-3.89486	0.760525	-0.392578	
-4.55674	0.810302	-0.452828	
-4.46477	0.749841	-0.448938	
-4.39975	0.751361	-0.446177	
-4.42203	0.686344	-0.44711	
-4.49142	0.810027	-0.450086	
-4.42611	0.81571	-0.447283	
-6.11564	1.64173	-0.622543	
-4.0466	1.65788	-0.436336	
-5.69251	1	-0.498034	
-5.69251	1.07055	-0.498034	
-4.22075	1.0308	-0.398183	
-3.33415	1.5272	-0.374072	
-5.40408	1.57014	-0.560289	
-3.6898	0.121062	-0.383989	
-4.44798	0.068568	-0.448216	
-4.51547	0.0968802	-0.451114	
-5.40408	1.85639	-0.560289	
-4.75922	1.8723	-0.498603	
-5.40408	0.0721374	-0.560289	
-4.04118	0.116381	-0.436276	
-4.54719	0.378957	-0.45244	
-5.40408	1.2856	-0.560289	
-4.04671	1.33655	-0.436337	
-5.40408	1.35721	-0.560289	
-3.72431	1.07097	-0.385444	
-4.44236	1.13809	-0.447975	
-3.67693	1.10545	-0.383458	
-4.49545	1.08867	-0.450259	
-4.45672	0.876824	-0.448592	
-4.39505	0.882801	-0.445982	
-5.07285	0.819303	-0.506872	
-4.6147	1.38959	-0.455195	
-3.89669	1.45442	-0.392657	
-4.67347	1.41914	-0.457998	
-3.77317	0.213959	-0.387544	
-4.4427	0.621411	-0.44799	
-4.40488	0.549577	-0.44639	
-4.46628	0.556476	-0.449003	
-4.43401	0.491713	-0.447619	
-5.45842	0.0712931	-0.523872	
-4.37471	1.1672	-0.445153	
-4.63016	1.57159	-0.455899	
-4.17453	0.47164	-0.438587	
-4.2167	0.476615	-0.398756	
-5.615	0.546631	-0.52565	
-4.69251	0.500665	-0.498034	
-4.04093	0.802839	-0.436273	
-3.40461	0.646217	-0.375107	
-3.38243	0.69766	-0.374729	
-4.09409	1.17495	-0.436985	
-4.75799	1.0996	-0.498589	
-4.84241	1.1007	-0.499892	
-4.95058	1.32398	-0.502581	
-3.45889	1.29855	-0.376236	
-4.20026	1.24767	-0.439233	
-4.38288	0.61668	-0.445484	
-4.34574	0.546139	-0.444011	
-3.5755	0.561624	-0.379617	
-4.29894	0.491616	-0.442283	
-3.46525	1.0418	-0.376387	
-4.23745	1.02609	-0.44028	
-4.88997	0.976287	-0.500934	
-4.25454	0.965074	-0.440804	
-4.38703	0.954567	-0.445653	
-4.11454	1.62515	-0.437332	
-3.46432	1.59965	-0.376365	
-4.16253	0.360303	-0.402334	
-4.05113	1.5889	-0.436389	
-4.30868	1.33334	-0.44263	
-4.28234	1.39903	-0.441711	
-4.26993	1.2624	-0.441298	
-5.06899	0.683934	-0.50672	
-4.91273	0.967445	-0.462693	
-6.31763	0.89983	-0.588412	
-4.79925	0.914042	-0.463747	
-4.5491	1.0505	-0.452518	
-4.04758	1.13415	-0.399922	
-4.00398	1.09375	-0.397853	
-3.74561	1.5431	-0.386357	
-4.80717	0.770923	-0.463994	
-4.02974	0.785107	-0.399104	
-3.9524	1.34839	-0.395271	
-5.55944	1.29694	-0.527009	
-4.83071	1.65281	-0.464555	
-4.76408	1.25411	-0.49866	
-4.11074	1.32162	-0.437264	
-3.9056	0.633745	-0.393051	
-4.67128	0.587288	-0.457889	
-4.87197	0.6882	-0.464628	
-4.51787	0.873522	-0.451216	
-3.14496	1.36753	-0.328773	
-4.7079	2	-0.459726	
-3.52792	1.1987	-0.378086	
-4.48428	0.394274	-0.449779	
-4.48362	0.336713	-0.44975	
-4.80567	0.702848	-0.463949	
-4.98095	0.929454	-0.43578	
-4.98095	0.857842	-0.43578	
-4.18472	1.94387	-0.40156	
-4.50558	1.16572	-0.450693	
-4.56232	1.11814	-0.453052	
-4.91044	1.79696	-0.501451	
-3.49556	1.73661	-0.377163	
-3.71671	0.370041	-0.38512	
-3.765	0.446178	-0.387192	
-3.72918	0.936014	-0.385652	
-2.65946	1.0523	-0.3123	
-4.12056	1.01699	-0.437442	
-4.98095	1.49933	-0.43578	
-4.77571	0.586375	-0.498805	
-4.81222	0.509874	-0.499347	
-4.91938	1.54624	-0.462062	
-3.58313	0.664255	-0.379881	
-3.63428	0.750955	-0.38176	
-3.58632	0.837223	-0.379992	
-5.40408	1.21388	-0.560289	
-3.32068	1.17543	-0.373927	
-5.40408	0.929454	-0.560289	
-3.32153	0.873321	-0.373936	
-6.11564	0.857842	-0.622543	
-4.03749	0.725606	-0.436236	
-5.40408	0.786116	-0.560289	
-5.40408	0.714404	-0.560289	
-4.0535	0.653203	-0.436417	
-5.40408	0.64279	-0.560289	
-6.11564	0.571209	-0.622543	
-5.40408	1.14216	-0.560289	
-3.40066	0.957788	-0.375036	
-2.78461	0.930031	-0.314925	
-4.32176	0.613315	-0.443106	
-4.22539	1.6049	-0.397442	
-3.81504	0.552048	-0.38933	
-4.50618	0.616488	-0.450718	
-4.83458	1.54065	-0.499742	
-4.14	0.177963	-0.437821	
-4.1267	1.24487	-0.437558	
-4.8243	1.39957	-0.499554	
-3.49019	0.139289	-0.377019	
-4.10395	1.69928	-0.437147	
-4.13697	1.75272	-0.43776	
-4.17544	1.35868	-0.438609	
-3.51664	1.39206	-0.377753	
-3.47015	1.42097	-0.376507	
-4.11449	1.81911	-0.437331	
-4.91432	1.6612	-0.462553	
-4.98095	1.71339	-0.43578	
-4.00925	0.496577	-0.398114	
-4.7446	0.549039	-0.461513	
-3.45246	1.85508	-0.376087	
-3.32322	0.520218	-0.373953	
-2.74091	0.528047	-0.313833	
-4.98095	1.57014	-0.43578	
-5.69251	0.500665	-0.498034	
-3.26546	0.932053	-0.334248	
-3.56168	1.07414	-0.379153	
-3.56513	1.51028	-0.379267	
-5.69251	1.64173	-0.498034	
-3.5014	0.282674	-0.377322	
-4.98095	0.571209	-0.43578	
-3.51323	0.59575	-0.335287	
-2.62334	1.71321	-0.311826	
-5.00635	1.88726	-0.504392	
-4.21318	0.827624	-0.399204	
-3.55187	1.82622	-0.378833	
-3.33237	1.40032	-0.374052	
-4.21897	1.87065	-0.439743	
-3.41067	0.866054	-0.340097	
-3.37784	1.24863	-0.339294	
-3.61054	1.94589	-0.380864	
-3.51078	1.75284	-0.335685	
-2.85716	1.94185	-0.317133	
-4.94468	0.611259	-0.39528	
-5.63617	0.691022	-0.44786	
-4.2301	0.951279	-0.331427	
-5.64234	0.885946	-0.450612	
-4.46946	0	-0.345009	
-4.40112	0	-0.35221	
-5.1519	0.0792566	-0.410091	
-5.47412	0	-0.541803	
-3.37719	0.0639973	-0.345847	
-4.12044	0	-0.400794	
-4.0341	0.0936441	-0.421581	
-4.32997	0	-0.361725	
-4.25941	0	-0.373079	
-4.30251	0.0798839	-0.365922	
-4.24108	0.821071	-0.337592	
-4.9435	1.45488	-0.394647	
-4.94655	1.89867	-0.396309	
-3.7579	2	-0.282755	
-4.54109	2	-0.339675	
-5.23047	1.91895	-0.403326	
-3.38063	1.93754	-0.345036	
-4.0392	1.90585	-0.420274	
-4.05099	2	-0.417295	
-4.12044	2	-0.400794	
-4.40112	2	-0.35221	
-4.36542	1.92228	-0.356735	
-4.32997	2	-0.361725	
-4.57769	1.85759	-0.337902	
-5.21478	1.82278	-0.404454	
-5.00967	0.600657	-0.428875	
-4.24302	0.663037	-0.375981	
-5.02195	0.68441	-0.426944	
-4.03575	0.939959	-0.421156	
-4.04482	1.33496	-0.418847	
-5.20026	1.68417	-0.4056	
-3.80714	1.74973	-0.278831	
-6.00824	1.71007	-0.46214	
-4.29554	1.02684	-0.367032	
-5.01755	0.943151	-0.427629	
-4.24036	0.965528	-0.376462	
-4.07126	0.553448	-0.412293	
-4.02832	0.495631	-0.423071	
-4.73071	1.36962	-0.341707	
-6.08556	1.42353	-0.461981	
-4.74127	1.43872	-0.342767	
-5.5585	1.02505	-0.422819	
-4.78081	0.965827	-0.347803	
-5.46553	1.04082	-0.40645	
-5.40439	1.21008	-0.401071	
-6.20472	1.26463	-0.47243	
-4.77559	1.19252	-0.347037	
-4.28436	1.8275	-0.368851	
-5.00823	1.91186	-0.429106	
-5.06334	1.83465	-0.420852	
-5.127	1.04863	-0.412794	
-4.35489	1.0111	-0.358167	
-5.04991	1.09426	-0.422756	
-3.69577	1.10778	-0.289221	
-5.19979	1.09436	-0.405639	
-4.52415	0.92332	-0.34072	
-4.56235	0.983948	-0.338563	
-6.02842	0.912712	-0.461625	
-3.83758	1.65028	-0.276973	
-3.89138	1.64109	-0.274905	
-5.26681	1.58611	-0.401164	
-4.05117	0.621253	-0.417249	
-3.40608	0.607584	-0.33917	
-4.86894	0.544593	-0.454996	
-4.88961	0.626188	-0.450706	
-5.12488	0.883867	-0.413036	
-4.37226	0.814004	-0.355829	
-4.34793	0.883506	-0.359136	
-3.65495	0.94284	-0.294335	
-3.60186	0.823889	-0.301965	
-4.27879	0.86549	-0.369776	
-4.7242	0.577518	-0.34111	
-5.43326	0.659851	-0.403146	
-4.78591	0.634606	-0.348583	
-4.86435	0.0913029	-0.45597	
-4.08157	0.141129	-0.409809	
-4.5077	1.15841	-0.341866	
-6.01764	1.18235	-0.461859	
-3.8466	1.11752	-0.27651	
-5.57718	0.938839	-0.427621	
-4.20392	0.99711	-0.319565	
-4.54089	0.516229	-0.339686	
-5.28079	0.597248	-0.400506	
-4.61527	0.53029	-0.336982	
-5.10261	1.25683	-0.415689	
-5.08257	1.17353	-0.418248	
-4.32253	1.22905	-0.362834	
-5.5982	1.10599	-0.433823	
-4.93053	1.05145	-0.388247	
-4.88734	1.1866	-0.371794	
-4.94039	1.17077	-0.393022	
-5.73086	1.39834	-0.48961	
-3.60056	1.4857	-0.302165	
-4.37232	1.4682	-0.355821	
-5.41671	0.907417	-0.401859	
-4.65218	0.841878	-0.337205	
-6.32494	0.492781	-0.501181	
-4.13362	0.543817	-0.29789	
-4.8941	0.570722	-0.374004	
-4.67218	1.72433	-0.337813	
-4.6281	1.78876	-0.33693	
-4.54244	0.853718	-0.339598	
-4.4554	0.389993	-0.346328	
-3.75127	0.316743	-0.283366	
-4.40121	0.343184	-0.352199	
-4.57582	0.780432	-0.337976	
-3.88322	0.84375	-0.275089	
-4.64588	0.770799	-0.337085	
-4.49103	0.577671	-0.343155	
-4.76712	1.02428	-0.478408	
-4.96915	0.237428	-0.435652	
-4.27343	0.153222	-0.370676	
-4.20582	0.163431	-0.382933	
-5.06021	0.159631	-0.42129	
-4.69532	1.80219	-0.338965	
-4.01368	1.86234	-0.278949	
-4.77421	1.80354	-0.34684	
-4.60338	0.329138	-0.337151	
-5.38962	0.30982	-0.400314	
-5.33751	0.244444	-0.399184	
-4.6355	0.391669	-0.336962	
-3.52344	1.03303	-0.315182	
-4.60378	0.717798	-0.337143	
-4.52215	0.718603	-0.340852	
-3.84851	0.665477	-0.276417	
-4.63518	0.658642	-0.33696	
-3.74971	1.87015	-0.283512	
-4.42562	1.80864	-0.349403	
-3.85474	1.78424	-0.276126	
-4.45319	1.74797	-0.346543	
-4.70067	0.386445	-0.339302	
-4.73072	0.441074	-0.341707	
-4.77005	0.365688	-0.346259	
-4.54195	1.25637	-0.339626	
-4.6168	1.24657	-0.336969	
-4.5648	1.3122	-0.338449	
-3.91876	1.30199	-0.274681	
-4.69031	1.27096	-0.338674	
-4.41589	0.276367	-0.350488	
-5.75777	0.292881	-0.485548	
-3.65844	0.234809	-0.293871	
-3.60252	0.216682	-0.301864	
-4.79254	0.891352	-0.349643	
-4.59189	1.48059	-0.337422	
-4.51603	1.4429	-0.34127	
-5.2259	1.51083	-0.403643	
-4.44465	1.45569	-0.347395	
-4.6044	1.36546	-0.337132	
-4.67486	1.34038	-0.337922	
-4.34042	1.70558	-0.360204	
-4.3554	1.63351	-0.358096	
-4.28344	1.65739	-0.369003	
-4.20426	0.837679	-0.383236	
-4.24855	0.792044	-0.374992	
-4.2608	1.09876	-0.372838	
-5.00218	1.30603	-0.430082	
-3.53238	1.35315	-0.313561	
-5.36836	0.166399	-0.399568	
-4.57499	0.169498	-0.33801	
-4.92023	1.40455	-0.444638	
-5.08572	0.41495	-0.417836	
-5.13828	0.474418	-0.411537	
-5.37333	1.05334	-0.399707	
-4.70267	0.984567	-0.339435	
-4.66611	1.13834	-0.337591	
-4.30088	0.452043	-0.36618	
-5.0096	0.374434	-0.428887	
-3.53055	0.42015	-0.313891	
-4.93269	0.484457	-0.442267	
-4.8187	0	-0.354376	
-4.83534	0.0667918	-0.357876	
-4.88309	0	-0.370456	
-4.8187	2	-0.354376	
-4.07561	1.94291	-0.286527	
-4.03668	2	-0.281277	
-4.85629	0.853126	-0.362892	
-4.88309	2	-0.370456	
-5.56128	1.92333	-0.423494	
-3.76692	0.506745	-0.281954	
-4.42545	0.56183	-0.349421	
-4.43322	0.636864	-0.348583	
-4.36413	0.546278	-0.356908	
-4.36485	0.617676	-0.356811	
-5.4777	0.078087	-0.407985	
-5.43779	1.56345	-0.403545	
-4.06671	1.62497	-0.285173	
-4.81038	1.57191	-0.352772	
-5.57988	0.153301	-0.428366	
-5.58412	0.252546	-0.429567	
-4.21221	0.211952	-0.322993	
-4.49656	0.650538	-0.342713	
-5.15745	0.718414	-0.409523	
-4.43515	0.798942	-0.348378	
-4.5022	0.786413	-0.342277	
-3.66908	0.678765	-0.292489	
-4.3749	0.741319	-0.355485	
-5.6427	1.80752	-0.450776	
-4.88239	1.74768	-0.370238	
-5.56497	1.83308	-0.424411	
-4.44273	1.20637	-0.347591	
-4.86955	1.92648	-0.454867	
-4.81387	1.86025	-0.467185	
-4.90207	0.344499	-0.376763	
-4.92798	0.410465	-0.38709	
-5.47464	0.282592	-0.407583	
-5.54446	0.338159	-0.419591	
-5.20132	0.251286	-0.405513	
-3.83481	0.217721	-0.277123	
-5.19424	0.164212	-0.406103	
-4.76997	0.230355	-0.477702	
-5.32552	1.93673	-0.39925	
-4.87078	1.26103	-0.366807	
-4.93439	1.24459	-0.390053	
-4.8558	1.32491	-0.362765	
-5.63798	1.31978	-0.448651	
-5.50007	0.804788	-0.411246	
-5.57189	0.759874	-0.426198	
-4.79754	0.714139	-0.35048	
-4.42387	0.206449	-0.349595	
-3.69674	0.138218	-0.289107	
-4.1042	1.72394	-0.404492	
-4.0692	1.78328	-0.412794	
-4.85981	1.79352	-0.45694	
-4.50177	1.03613	-0.34231	
-5.28647	1.05319	-0.400267	
-4.62566	0.992616	-0.33693	
-3.90402	1.10914	-0.274725	
-5.50933	0.204267	-0.412773	
-4.70927	0.22975	-0.3399	
-4.47784	0.863551	-0.344264	
-4.45978	0.938032	-0.345908	
-4.11407	1.76807	-0.293532	
-5.52609	1.69808	-0.415815	
-4.74273	1.73846	-0.342922	
-4.7997	0.425321	-0.35085	
-4.75575	0.500006	-0.344411	
-4.65927	0.456585	-0.33738	
-4.68679	0.51622	-0.338483	
-4.18091	0.232607	-0.38787	
-4.35495	1.33248	-0.358158	
-4.4305	1.52656	-0.348873	
-5.06719	1.55451	-0.42032	
-5.14328	1.60907	-0.410997	
-3.52868	0.903738	-0.314228	
-4.87817	0.902651	-0.453062	
-4.68068	0	-0.338179	
-4.60947	0	-0.33705	
-4.63206	0.051764	-0.336942	
-4.54109	0	-0.339675	
-4.56235	0.0537652	-0.338563	
-4.45911	1.3862	-0.345972	
-4.38839	1.3946	-0.353765	
-4.46497	1.26486	-0.345421	
-3.80187	1.21166	-0.279198	
-4.42209	1.32507	-0.349791	
-4.49307	1.32038	-0.34299	
-4.19251	0.814456	-0.315232	
-4.22868	1.88165	-0.378601	
-4.6565	0.594595	-0.337306	
-4.24086	1.38879	-0.337461	
-4.90271	1.39048	-0.376993	
-4.88158	0.75837	-0.452355	
-4.1266	0.821275	-0.399416	
-4.93527	0.75743	-0.390476	
-4.92934	1.60921	-0.442898	
-4.21753	1.68446	-0.380691	
-3.49932	1.75212	-0.319703	
-4.98455	1.73879	-0.433005	
-4.8454	1.59941	-0.460072	
-4.14889	1.66432	-0.394549	
-5.42659	1.93182	-0.402595	
-4.78985	1.87756	-0.349206	
-4.94351	0.146224	-0.394652	
-4.23842	1.10891	-0.336011	
-4.23259	0.544978	-0.332742	
-4.88141	1.32361	-0.45239	
-4.22798	0.0813768	-0.378732	
-4.19058	0	-0.385928	
-4.12017	1.21454	-0.294829	
-4.83145	1.14931	-0.357021	
-4.65434	1.87232	-0.337253	
-4.13116	1.24379	-0.398406	
-4.09301	1.29411	-0.407099	
-4.19718	1.24385	-0.38462	
-4.29518	1.16415	-0.367091	
-5.5897	0.398041	-0.515323	
-4.76645	1.20048	-0.478575	
-4.04417	1.11243	-0.419013	
-4.23069	0.560548	-0.378229	
-4.29545	0.523541	-0.367046	
-5.43569	1.65544	-0.403358	
-4.59278	0.109422	-0.337397	
-3.69191	1.86761	-0.289675	
-4.43689	1.9304	-0.348195	
-4.03278	0.741046	-0.280843	
-4.85431	0.676971	-0.362387	
-3.4727	0.693471	-0.324938	
-4.24326	0.726744	-0.375938	
-4.31023	0.760134	-0.364713	
-2.81393	0.61385	-0.252553	
-3.31583	0.170423	-0.361056	
-4.01466	1.15632	-0.279037	
-4.00199	1.09603	-0.277971	
-4.77104	1.1197	-0.346395	
-3.45824	1.85832	-0.32789	
-4.22304	1.8111	-0.379652	
-4.88271	1.45652	-0.370338	
-4.84318	1.39372	-0.359669	
-3.51558	1.94352	-0.316632	
-4.25941	2	-0.373079	
-4.70693	0.79232	-0.33973	
-4.02017	0.850283	-0.279551	
-4.68249	0.718066	-0.338266	
-4.13249	0.180772	-0.398113	
-4.65683	1.51591	-0.337315	
-5.36133	1.59438	-0.399409	
-3.99732	1.48768	-0.277618	
-4.77567	1.50665	-0.347049	
-3.32513	1.83632	-0.35866	
-4.97344	1.53312	-0.434905	
-3.47867	1.54488	-0.323743	
-4.03416	1.71558	-0.421565	
-5.61403	1.66217	-0.439158	
-4.22628	0.358669	-0.379048	
-4.16963	0.310734	-0.39018	
-4.07314	1.39867	-0.286141	
-4.81491	1.4537	-0.353633	
-4.79442	1.33896	-0.349953	
-4.58875	0.46147	-0.337514	
-3.85797	0.394907	-0.275984	
-5.22243	0.433969	-0.40389	
-3.87118	1.42238	-0.275458	
-4.52935	1.37641	-0.340385	
-4.84136	0.606335	-0.359243	
-4.07787	0.879786	-0.410696	
-4.08922	0.752034	-0.40799	
-4.04598	0.815753	-0.418553	
-4.82896	1.38066	-0.463736	
-5.63581	1.52165	-0.447702	
-4.84924	1.51493	-0.361123	
-4.10551	1.08423	-0.2918	
-4.0463	1.59815	-0.418473	
-3.89791	2	-0.274796	
-4.93079	1.16076	-0.442624	
-3.45125	1.18618	-0.329345	
-3.72874	1.14984	-0.285586	
-4.25919	1.23168	-0.373117	
-4.10508	1.16237	-0.404291	
-4.41097	1.68406	-0.351051	
-3.30716	0.333428	-0.217158	
-4.04681	1.52552	-0.418345	
-4.09325	0.488947	-0.407042	
-3.57927	1.59304	-0.305538	
-4.88164	1.57917	-0.370011	
-4.07134	1.65719	-0.412275	
-4.7862	0.559694	-0.348627	
-4.82406	0.490232	-0.355459	
-4.1102	0.956713	-0.403115	
-4.18085	0.989568	-0.387882	
-4.38506	1.75665	-0.354183	
-3.61366	1.77244	-0.300176	
-3.45251	1.72615	-0.329081	
-3.56056	0.310718	-0.308642	
-3.508	0.290342	-0.318051	
-3.51904	1.29539	-0.315991	
-4.68068	2	-0.338179	
-3.64592	0.482459	-0.295555	
-4.02408	1.30941	-0.279934	
-4.51901	0.109198	-0.341064	
-4.13379	1.03572	-0.397827	
-4.19482	1.07584	-0.385085	
-4.19058	2	-0.385928	
-4.18475	0.633303	-0.3125	
-4.86328	0.422033	-0.364731	
-3.39534	0.266461	-0.22982	
-4.1172	0.262786	-0.401526	
-3.94301	1.66446	-0.275005	
-3.8803	1.54135	-0.275168	
-4.07504	0.371856	-0.411378	
-3.39578	0.429791	-0.341516	
-3.77446	1.56661	-0.281312	
-3.78888	1.62234	-0.280157	
-2.91573	1.2804	-0.23592	
-4.0433	0.68957	-0.419231	
-3.31643	0.753859	-0.360902	
-4.94071	0.285029	-0.393189	
-3.32051	1.26259	-0.359846	
-5.65376	0	-0.456212	
-3.32847	1.39629	-0.357807	
-4.77777	1.45609	-0.47578	
-4.05135	0.308608	-0.417205	
-4.8284	0.682551	-0.463861	
-4.04036	0.423502	-0.41998	
-4.94219	2	-0.393958	
-3.79076	0.980727	-0.280013	
-4.83966	1.51237	-0.461338	
-4.1514	1.11653	-0.394012	
-3.84832	0.277428	-0.276426	
-5.23628	0.33864	-0.402937	
-3.38525	1.08627	-0.343952	
-3.9452	0.0993244	-0.275059	
-4.70486	0.0548078	-0.339585	
-2.66724	1.55961	-0.283212	
-4.94211	1.72118	-0.393913	
-4.19561	1.94239	-0.316369	
-4.18744	1.87535	-0.313428	
-3.44283	0.473525	-0.33112	
-3.40632	0.331482	-0.339115	
-4.13031	1.63205	-0.29711	
-4.22811	1.59521	-0.330401	
-4.20088	1.47977	-0.383895	
-4.74072	0.160133	-0.342709	
-3.99729	0.114041	-0.277616	
-3.5479	1.45658	-0.310816	
-4.09281	0.130179	-0.28942	
-4.40909	0.972536	-0.35127	
-4.9139	0.0752793	-0.381191	
-3.78781	0.0509452	-0.280239	
-3.74286	1.00206	-0.284169	
-2.92652	0.356044	-0.234386	
-4.36898	0.0762643	-0.356261	
-3.4329	1.44431	-0.333246	
-4.74825	0	-0.343531	
-3.52763	0.460204	-0.27421	
-3.23467	0.946643	-0.212831	
-4.05527	2	-0.426484	
-4.13426	2	-0.41795	
-4.29782	2	-0.404687	
-4.38383	2	-0.400097	
-4.21482	2	-0.410674	
-5.2717	2	-0.458082	
-5.44986	2	-0.464223	
-4.91021	2	-0.422883	
-4.82688	2	-0.4109	
-4.64914	2	-0.396943	
-5.18221	2	-0.459386	
-5.40408	-0.0721374	-0.560289	
-3.3192	-0.0524234	-0.373913	
-3.58632	-1.94219	-0.379992	
-4.23219	-1.93265	-0.440124	
-4.27256	-2	-0.441384	
-4.0916	-0.0610541	-0.436946	
-4.23585	-0.0745946	-0.440232	
-4.37785	-0.063891	-0.44528	
-4.98095	-1.2856	-0.43578	
-4.91922	-1.32684	-0.462078	
-4.98095	-1.35721	-0.43578	
-4.98095	-0.0721374	-0.43578	
-5.69251	-0.215036	-0.498034	
-4.98095	-0.143615	-0.43578	
-4.92972	-0.177622	-0.460812	
-4.26939	-0.286611	-0.373526	
-4.9308	-0.326516	-0.46066	
-5.69251	-0.358269	-0.498034	
-4.93099	-0.255005	-0.460633	
-4.98095	-0.714404	-0.43578	
-5.63309	-0.754353	-0.524086	
-4.98095	-0.786116	-0.43578	
-4.41819	-2	-0.446948	
-5.08457	-1.91632	-0.507339	
-4.3455	-2	-0.444001	
-3.34248	-2	-0.374169	
-3.3203	-1.94543	-0.373924	
-3.98095	-2	-0.43578	
-4.93202	-1.39944	-0.460482	
-4.98095	-1.42879	-0.43578	
-3.55782	-2	-0.311271	
-5.69251	-1.92786	-0.498034	
-4.20985	-2	-0.399589	
-4.12701	-2	-0.437564	
-4.09116	-1.9425	-0.436939	
-5.2433	-1.91894	-0.514054	
-4.49057	-2	-0.45005	
-3.85179	-2	-0.390839	
-4.98095	-1.21388	-0.43578	
-4.91913	-1.25457	-0.462088	
-5.69251	-1.78496	-0.498034	
-3.51397	-1.82622	-0.335162	
-4.98095	-1.85639	-0.43578	
-4.17575	-0.824164	-0.438616	
-4.09795	-0.840188	-0.437048	
-4.86441	-0.897364	-0.500346	
-5.40408	-1.07055	-0.560289	
-4.75799	-1.0996	-0.498589	
-5.46422	-0.999321	-0.560783	
-4.36026	-1.67801	-0.444577	
-4.43134	-1.66711	-0.447505	
-5.07545	-1.60664	-0.506975	
-4.24384	-0.446895	-0.440473	
-5.68789	-0.354649	-0.565638	
-4.19002	-0.398171	-0.438968	
-5.1265	-1.83141	-0.509065	
-3.76272	-1.78071	-0.387094	
-5.12806	-1.74009	-0.509131	
-5.2884	-1.7075	-0.515878	
-4.49533	-1.71822	-0.450254	
-4.54244	-1.78279	-0.452244	
-5.32834	-1.79397	-0.517542	
-4.44223	-1.60358	-0.44797	
-4.39699	-1.5428	-0.446063	
-3.63134	-1.84473	-0.381648	
-5.44703	-1.45461	-0.523335	
-4.65323	-1.49442	-0.456999	
-4.70071	-1.53304	-0.459366	
-6.1255	-1.28582	-0.583958	
-4.63237	-1.23395	-0.456002	
-6.02634	-1.30809	-0.579202	
-6.21068	-1.05755	-0.587846	
-4.15093	-1.02435	-0.40249	
-4.10234	-0.98494	-0.401929	
-4.55449	-0.659051	-0.452737	
-4.48746	-0.685531	-0.449916	
-5.25219	-0.738859	-0.514424	
-5.2276	-1.33862	-0.513392	
-5.23728	-1.25231	-0.513801	
-5.40408	-1.42879	-0.560289	
-5.40408	-1.49933	-0.560289	
-4.77708	-1.4654	-0.498823	
-4.06842	-0.918262	-0.436608	
-4.12056	-1.01699	-0.437442	
-3.40066	-0.957788	-0.375036	
-5.66974	-0.881052	-0.565066	
-4.25454	-0.965074	-0.440804	
-4.31802	-0.954992	-0.442968	
-3.86822	-0.86716	-0.391483	
-5.35775	-0.888326	-0.518912	
-4.62835	-0.817828	-0.455815	
-4.86797	-0.589278	-0.500425	
-4.88501	-0.676587	-0.500815	
-4.9503	-0.618429	-0.502573	
-5.54455	-0.0745363	-0.526847	
-4.56757	-1.18703	-0.453261	
-4.5056	-1.16574	-0.450694	
-4.50094	-0.496062	-0.450494	
-5.29349	-0.503541	-0.516075	
-4.53658	-0.439924	-0.452002	
-5.32988	-0.698429	-0.517612	
-4.38558	-1.23016	-0.445594	
-5.01886	-1.19538	-0.504834	