<VTKFile type="UnstructuredGrid" version="0.1" byte_order="LittleEndian">
	<UnstructuredGrid>
		<Piece NumberOfPoints="1917" NumberOfCells="56">
			<CellData Scalars="scalars">
				<DataArray type="Float64" Name="Doublet Strengths" NumberOfComponents="1" Format="ascii">
-3.54035	
-14.2928	
-11.8979	
-8.5049	
-13.6506	
-13.7203	
-14.8801	
-13.3405	
-8.83697	
-10.169	
-5.73367	
-13.7152	
-11.3389	
-13.7138	
-9.32337	
-11.7843	
-12.8052	
-11.8494	
-12.3542	
-13.1647	
-13.226	
-13.0816	
-13.3922	
-12.4006	
-14.7515	
-12.0537	
-7.20271	
-10.8731	
-14.7664	
-13.056	
-13.6353	
-14.8864	
-13.0583	
-10.3488	
-6.19664	
-13.7464	
-12.1222	
-13.1547	
-13.6983	
-10.3635	
-12.394	
-13.1599	
-14.5865	
-12.8595	
-13.6019	
-14.6328	
-13.537	
-12.941	
-11.2494	
-13.9304	
-12.9616	
-3.78338	
-9.41415	
-11.8314	
-13.3714	
-7.48379	
				</DataArray>
				<DataArray type="Float64" Name="Velocity Potential" NumberOfComponents="1" Format="ascii">
14.6155	
14.7199	
8.83422	
5.42811	
6.93789	
10.5697	
15.2972	
6.62496	
2.20527	
7.10473	
2.64567	
10.5788	
8.27249	
17.6948	
2.69485	
8.71539	
6.1012	
8.70757	
5.6436	
10.0286	
13.6524	
9.93381	
10.3204	
5.69528	
11.6156	
8.91048	
4.12013	
7.80805	
11.6304	
9.92766	
6.93235	
15.3103	
9.92362	
10.7352	
3.00388	
10.604	
9.00485	
13.5906	
10.5537	
7.2153	
9.28008	
6.48218	
11.4709	
9.73748	
10.495	
15.09	
13.9927	
6.24941	
8.11239	
10.819	
6.28192	
14.6859	
6.23989	
8.70893	
10.2527	
0.750912	
				</DataArray>
			</CellData>
			<Points>
				<DataArray type="Float64" Name="Position" NumberOfComponents="3" Format="ascii">
-1.06547	0	-0.174956	
-0.757567	0.0524256	-0.149797	
-1.56163	0	-0.224115	
-1.21152	2	-0.177761	
-1.24275	1.93467	-0.17863	
-1.56862	2	-0.204818	
-1.13844	0	-0.176096	
-1.10303	0.0610502	-0.175478	
-1.24727	0.0745738	-0.178764	
-1.21152	0	-0.177761	
-1.28399	0	-0.179916	
-1.35693	0	-0.182533	
-1.42962	0	-0.18548	
-1.38824	0.0639395	-0.18377	
-1.66011	1.39584	-0.173917	
-1.93038	1.3266	-0.200639	
-1.99238	1.35721	-0.174312	
-1.56163	1.92786	-0.224115	
-0.758432	1.94512	-0.149806	
-2.27701	0.0721374	-0.199214	
-1.92841	0.0533506	-0.200836	
-1.70775	0	-0.14941	
-2.27701	0.215036	-0.199214	
-2.47179	0.171582	-0.252396	
-1.70775	0.143615	-0.14941	
-1.70775	0.286611	-0.14941	
-2.27701	0.358269	-0.199214	
-1.9422	0.326064	-0.199196	
-1.93999	0.252841	-0.199503	
-1.99238	0.714404	-0.174312	
-1.99238	0.786116	-0.174312	
-2.21755	0.754574	-0.225268	
-1.42962	2	-0.18548	
-1.35693	2	-0.182533	
-1.96329	1.91204	-0.233808	
-1.44485	1.66657	-0.186126	
-1.65951	1.60722	-0.208137	
-1.25551	0.446925	-0.179012	
-1.20257	0.397747	-0.177529	
-1.84601	0.354616	-0.229483	
-0.99238	2	-0.174312	
-1.99238	1.42879	-0.174312	
-1.42313	2	-0.124509	
-1.64822	2	-0.175474	
-2.27701	1.92786	-0.199214	
-1.13844	2	-0.176096	
-0.780844	2	-0.150054	
-1.10336	1.93956	-0.175483	
-1.18501	1.94176	-0.162286	
-2.11218	1.9167	-0.240125	
-1.502	2	-0.188582	
-1.99238	1.21388	-0.174312	
-1.65609	1.19029	-0.174502	
-1.99238	1.14216	-0.174312	
-1.99238	1.2856	-0.174312	
-1.93068	1.25405	-0.200608	
-2.27701	1.78496	-0.199214	
-1.99238	1.85639	-0.174312	
-1.37924	1.82617	-0.148405	
-1.64879	0.114671	-0.17541	
-2.20376	1.46922	-0.226531	
-2.15824	1.38862	-0.22818	
-1.18718	0.824164	-0.177148	
-1.4489	0.897364	-0.201526	
-1.10938	0.840188	-0.17558	
-1.83502	1.46561	-0.202948	
-1.27701	1	-0.199214	
-1.62177	0.999321	-0.22461	
-1.56163	1.07055	-0.224115	
-1.45369	1.60348	-0.186503	
-1.0849	0.356544	-0.175209	
-0.86459	0.353408	-0.151406	
-1.12931	0.427857	-0.175925	
-1.70951	1.82506	-0.210183	
-1.7132	1.7382	-0.210338	
-1.20108	1.77788	-0.162978	
-1.50715	1.71777	-0.188803	
-1.55504	1.78088	-0.190825	
-1.87305	1.70728	-0.217064	
-1.9131	1.79378	-0.218734	
-1.40835	1.54291	-0.184591	
-1.3461	1.8351	-0.18212	
-2.03134	1.45384	-0.224506	
-1.71219	1.53294	-0.1979	
-1.6647	1.49429	-0.195533	
-1.98979	1.28284	-0.222449	
-2.18272	1.30815	-0.242979	
-1.64248	1.23305	-0.194472	
-2.36932	1.05577	-0.251713	
-1.83855	0.974397	-0.203021	
-1.5942	1.02275	-0.178326	
-1.56593	0.65903	-0.19127	
-1.83668	0.738857	-0.215603	
-1.49889	0.685529	-0.188448	
-1.81198	1.33866	-0.214567	
-1.82166	1.25226	-0.214976	
-1.56163	1.42879	-0.224115	
-1.3621	1.46516	-0.20001	
-1.56163	1.49933	-0.224115	
-1.07985	0.918262	-0.17514	
-1.82729	0.881052	-0.228893	
-1.34298	0.891355	-0.182002	
-1.32945	0.954992	-0.1815	
-1.30658	0.867158	-0.167367	
-1.63977	0.817822	-0.194346	
-1.94214	0.888323	-0.220086	
-1.45247	0.589259	-0.201604	
-1.53479	0.618435	-0.203752	
-1.4695	0.676586	-0.201995	
-1.79085	0	-0.201559	
-1.86214	0	-0.203299	
-2.13762	0.0790961	-0.228139	
-1.47234	1.27156	-0.187304	
-1.46191	1.20368	-0.186856	
-1.5126	0.496767	-0.189036	
-1.54931	0.442032	-0.190587	
-1.87868	0.502871	-0.217282	
-1.91437	0.698424	-0.218791	
-1.39701	1.23016	-0.184126	
-1.34765	1.27217	-0.182179	
-1.60335	1.19537	-0.206014	
-1.13163	1.2898	-0.160018	
-1.34268	1.02577	-0.168878	
-1.93639	0.967174	-0.219811	
-1.70572	1.0342	-0.197575	
-2.04445	1.00672	-0.23723	
-1.51199	0.93866	-0.18901	
-1.56355	0.987296	-0.191173	
-1.65499	0.378981	-0.207959	
-1.43121	0.426844	-0.185547	
-1.66293	0.470462	-0.208273	
-2.19487	1.87857	-0.227111	
-2.18064	1.79633	-0.227744	
-1.83072	1.84585	-0.202851	
-1.62044	0.270573	-0.193477	
-1.32112	0.200611	-0.16795	
-1.95762	0.193571	-0.220841	
-1.89591	0.123897	-0.217985	
-1.55489	0.249496	-0.190818	
-1.54579	0.173576	-0.190441	
-2.14825	1.20923	-0.228205	
-1.83351	1.13932	-0.202915	
-1.91813	1.13751	-0.201703	
-1.67072	0.531427	-0.195827	
-1.67162	0.463982	-0.195871	
-1.61478	0.427199	-0.193232	
-1.6815	0.382421	-0.196361	
-1.58336	0.742778	-0.178402	
-2.1584	0.813881	-0.228179	
-1.88109	0.580015	-0.217377	
-1.6755	1.7199	-0.196063	
-1.97336	0.757182	-0.221624	
-1.41853	0.698895	-0.172544	
-1.7623	0.732194	-0.200335	
-1.74262	0.893597	-0.199407	
-1.70966	0.830458	-0.197773	
-2.07704	0.834567	-0.226522	
-1.85985	1.53139	-0.20329	
-1.80728	1.59044	-0.202165	
-1.78293	1.5207	-0.201238	
-1.62296	1.10613	-0.206731	
-1.2683	1.13654	-0.179409	
-2.11851	0.567577	-0.227825	
-2.18564	0.624293	-0.227558	
-1.82808	0.641057	-0.202786	
-1.75973	0.667946	-0.200217	
-1.75962	0.607392	-0.200212	
-2.03618	0.97644	-0.224737	
-1.93284	0	-0.200376	
-1.42539	1.40806	-0.185302	
-1.45807	1.34451	-0.18669	
-1.49164	1.41675	-0.188136	
-1.45256	1.48085	-0.186455	
-1.84242	1.43176	-0.21584	
-1.51724	1.49613	-0.189235	
-1.58322	0.925911	-0.191959	
-1.75026	1.74077	-0.199773	
-2.32027	1.66215	-0.249613	
-1.53068	1.70694	-0.177525	
-1.56163	1.71339	-0.224115	
-1.63208	1.77904	-0.224728	
-1.56163	1.78496	-0.224115	
-1.79085	2	-0.201559	
-2.11806	1.92525	-0.227815	
-1.86214	2	-0.203299	
-1.62326	0.350099	-0.1936	
-1.55955	0.315549	-0.19101	
-1.31936	1.02327	-0.181135	
-1.67356	1.02942	-0.2087	
-1.31441	0.0746863	-0.180958	
-1.34912	0.130322	-0.182235	
-1.55955	0.159825	-0.204522	
-1.57193	0.255296	-0.204928	
-1.04579	0.198868	-0.156634	
-1.39249	0.185075	-0.183942	
-1.52471	0.53229	-0.203454	
-2.13088	0.358269	-0.273919	
-1.27701	0.286611	-0.199214	
-1.05457	0.283499	-0.174829	
-1.56163	0.143615	-0.224115	
-1.35478	0.19815	-0.199915	
-1.56163	0.215036	-0.224115	
-1.7064	0.268711	-0.225874	
-1.78663	0	-0.213483	
-1.29016	0	-0.166724	
-1.58161	0.0522709	-0.191896	
-1.31544	0.233077	-0.153333	
-2.15539	0.293965	-0.228196	
-1.86905	1.52249	-0.216908	
-1.58292	1.6164	-0.191947	
-1.5233	1.57352	-0.189493	
-1.51884	1.65009	-0.189303	
-1.88046	1.59898	-0.203206	
-1.71933	0	-0.198258	
-1.66475	0.0589648	-0.195535	
-1.6467	0	-0.19467	
-1.16479	1.47391	-0.176635	
-1.53214	1.46129	-0.203673	
-1.50966	1.53681	-0.203028	
-1.9707	0.286849	-0.221491	
-1.30582	0.724627	-0.180656	
-1.03137	0.784216	-0.156113	
-1.53921	0.788387	-0.203885	
-2.10523	0.223399	-0.227486	
-1.52191	1.34531	-0.177238	
-1.51716	1.40661	-0.177071	
-2.02437	1.36487	-0.224169	
-1.77457	1.29047	-0.200883	
-1.50349	0.414541	-0.176549	
-1.73539	0.434011	-0.199054	
-2.02924	0.349215	-0.224405	
-1.85098	0.422964	-0.203216	
-2.08599	0.489015	-0.226859	
-1.87329	0.488653	-0.203281	
-1.02364	1.24582	-0.142531	
-1.57885	1.18695	-0.191787	
-1.46338	1.58611	-0.174764	
-1.03491	0.42229	-0.156239	
-1.05709	0.312816	-0.157053	
-1.7068	0.310713	-0.210069	
-1.37158	0.255176	-0.183105	
-1.43742	0.23291	-0.18581	
-2.33764	1.20734	-0.250414	
-1.63788	1.1572	-0.194259	
-1.70713	1.15129	-0.197646	
-1.41125	1.2101	-0.172178	
-1.93177	1.08885	-0.219592	
-1.25053	1.61914	-0.178861	
-1.26937	1.69424	-0.179443	
-1.47539	1.67616	-0.202136	
-1.31825	1.64844	-0.181095	
-1.34666	1.72086	-0.182141	
-1.69169	0.644913	-0.19687	
-1.47543	1.94629	-0.175331	
-1.97269	1.93331	-0.22159	
-1.76148	1.88539	-0.200298	
-1.45774	0.0804625	-0.201722	
-0.828857	0.127785	-0.150746	
-0.840097	1.88257	-0.15094	
-1.46081	1.92762	-0.201792	
-1.21201	0.21589	-0.177774	
-1.46806	0.273142	-0.174987	
-1.74579	0.209198	-0.19956	
-1.45669	0.143339	-0.174442	
-1.81195	0.145092	-0.20232	
-1.40422	0.115792	-0.171826	
-1.68862	1.85807	-0.196716	
-1.62287	1.88373	-0.193583	
-1.3285	1.94611	-0.168259	
-1.29016	2	-0.166724	
-1.6467	2	-0.19467	
-1.65843	0.682902	-0.17417	
-2.27701	0.64279	-0.199214	
-1.185	1.88295	-0.162285	
-1.34752	1.53147	-0.182174	
-1.32509	1.46174	-0.181342	
-1.38957	1.47178	-0.183823	
-1.89198	1.08229	-0.202966	
-0.916136	0.329519	-0.152581	
-1.33954	0.43708	-0.199735	
-1.27701	0.429861	-0.199214	
-1.09787	1.67699	-0.158637	
-1.30019	1.57544	-0.180462	
-1.41128	1.60691	-0.17218	
-1.65418	1.65508	-0.195025	
-1.75526	1.81461	-0.200009	
-1.40984	1.78507	-0.172108	
-0.914949	0.749751	-0.152551	
-1.24942	0.701087	-0.178828	
-1.41401	0.758919	-0.200828	
-1.99238	0.429861	-0.174312	
-2.21088	0.409639	-0.225942	
-1.82341	1.77163	-0.202663	
-2.17764	1.71936	-0.227838	
-1.47075	1.1716	-0.202024	
-1.21892	1.09553	-0.177959	
-1.57629	1.76477	-0.205074	
-1.08424	1.7791	-0.158096	
-1.49238	0.277236	-0.188167	
-1.75222	0.151691	-0.212001	
-1.28947	1.84554	-0.166697	
-1.50789	1.83711	-0.188835	
-1.38841	1.33945	-0.183776	
-1.35944	1.40104	-0.18263	
-1.51704	0.297567	-0.177066	
-1.82106	0.357474	-0.202598	
-1.33323	0.760525	-0.168463	
-1.56817	0.810302	-0.19136	
-1.4762	0.749841	-0.18747	
-1.41118	0.751361	-0.184709	
-1.43346	0.686344	-0.185642	
-1.50285	0.810027	-0.188618	
-1.43754	0.81571	-0.185815	
-1.84626	1.64173	-0.249017	
-1.05803	1.65788	-0.174868	
-2.27701	1	-0.199214	
-2.27701	1.07055	-0.199214	
-1.65912	1.0308	-0.174068	
-0.772518	1.5272	-0.149956	
-1.56163	1.57014	-0.224115	
-1.12817	0.121062	-0.159874	
-1.45941	0.068568	-0.186748	
-1.5269	0.0968802	-0.189646	
-1.56163	1.85639	-0.224115	
-1.34371	1.8723	-0.199782	
-1.56163	0.0721374	-0.224115	
-1.05261	0.116381	-0.174808	
-1.55862	0.378957	-0.190972	
-1.56163	1.2856	-0.224115	
-1.05814	1.33655	-0.174869	
-1.56163	1.35721	-0.224115	
-1.16268	1.07097	-0.161328	
-1.45379	1.13809	-0.186507	
-1.1153	1.10545	-0.159343	
-1.50688	1.08867	-0.188791	
-1.46815	0.876824	-0.187124	
-1.40648	0.882801	-0.184514	
-1.65734	0.819303	-0.208051	
-1.62613	1.38959	-0.193727	
-1.33506	1.45442	-0.168542	
-1.6849	1.41914	-0.19653	
-1.21153	0.213959	-0.163428	
-1.45413	0.621411	-0.186522	
-1.41631	0.549577	-0.184922	
-1.47771	0.556476	-0.187535	
-1.44544	0.491713	-0.186151	
-2.04291	0.0712931	-0.225052	
-1.38614	1.1672	-0.183685	
-1.64159	1.57159	-0.194431	
-1.18596	0.47164	-0.177119	
-1.65507	0.476615	-0.174641	
-2.19949	0.546631	-0.226829	
-1.27701	0.500665	-0.199214	
-1.05236	0.802839	-0.174805	
-0.842979	0.646217	-0.150992	
-0.820794	0.69766	-0.150614	
-1.10552	1.17495	-0.175517	
-1.34248	1.0996	-0.199768	
-1.42691	1.1007	-0.201072	
-1.53507	1.32398	-0.20376	
-0.897254	1.29855	-0.152121	
-1.21169	1.24767	-0.177765	
-1.39431	0.61668	-0.184016	
-1.35717	0.546139	-0.182543	
-1.01387	0.561624	-0.155502	
-1.31037	0.491616	-0.180815	
-0.903616	1.0418	-0.152272	
-1.24888	1.02609	-0.178812	
-1.47446	0.976287	-0.202114	
-1.26597	0.965074	-0.179336	
-1.39846	0.954567	-0.184185	
-1.12597	1.62515	-0.175864	
-0.902693	1.59965	-0.15225	
-1.6009	0.360303	-0.178218	
-1.06256	1.5889	-0.174921	
-1.32011	1.33334	-0.181162	
-1.29377	1.39903	-0.180243	
-1.28136	1.2624	-0.17983	
-1.65348	0.683934	-0.207899	
-1.92416	0.967445	-0.201225	
-2.47518	0.89983	-0.252239	
-1.81068	0.914042	-0.202279	
-1.56053	1.0505	-0.19105	
-1.48595	1.13415	-0.175806	
-1.44235	1.09375	-0.173737	
-1.18398	1.5431	-0.162241	
-1.8186	0.770923	-0.202526	
-1.4681	0.785107	-0.174989	
-1.39077	1.34839	-0.171156	
-2.14393	1.29694	-0.228189	
-1.84214	1.65281	-0.203087	
-1.34857	1.25411	-0.199839	
-1.12217	1.32162	-0.175796	
-1.34397	0.633745	-0.168936	
-1.68271	0.587288	-0.196421	
-1.8834	0.6882	-0.20316	
-1.5293	0.873522	-0.189748	
-1.01026	1.36753	-0.14201	
-1.71933	2	-0.198258	
-0.966284	1.1987	-0.153971	
-1.49571	0.394274	-0.188311	
-1.49505	0.336713	-0.188282	
-1.8171	0.702848	-0.202481	
-1.99238	0.929454	-0.174312	
-1.99238	0.857842	-0.174312	
-1.62309	1.94387	-0.177444	
-1.51701	1.16572	-0.189225	
-1.57375	1.11814	-0.191584	
-1.49494	1.79696	-0.202631	
-0.933932	1.73661	-0.153047	
-1.15508	0.370041	-0.161005	
-1.20337	0.446178	-0.163077	
-1.16755	0.936014	-0.161536	
-0.524764	1.0523	-0.125537	
-1.13199	1.01699	-0.175974	
-1.99238	1.49933	-0.174312	
-1.3602	0.586375	-0.199985	
-1.39671	0.509874	-0.200526	
-1.93081	1.54624	-0.200594	
-1.0215	0.664255	-0.155765	
-1.07264	0.750955	-0.157645	
-1.02469	0.837223	-0.155877	
-1.56163	1.21388	-0.224115	
-0.759045	1.17543	-0.149812	
-1.56163	0.929454	-0.224115	
-0.759903	0.873321	-0.149821	
-1.84626	0.857842	-0.249017	
-1.04892	0.725606	-0.174768	
-1.56163	0.786116	-0.224115	
-1.56163	0.714404	-0.224115	
-1.06493	0.653203	-0.174949	
-1.56163	0.64279	-0.224115	
-1.84626	0.571209	-0.249017	
-1.56163	1.14216	-0.224115	
-0.839027	0.957788	-0.150921	
-0.649921	0.930031	-0.128162	
-1.33319	0.613315	-0.181638	
-1.66376	1.6049	-0.173326	
-1.25341	0.552048	-0.165215	
-1.51761	0.616488	-0.18925	
-1.41907	1.54065	-0.200921	
-1.15143	0.177963	-0.176353	
-1.13813	1.24487	-0.17609	
-1.40879	1.39957	-0.200734	
-0.928561	0.139289	-0.152903	
-1.11538	1.69928	-0.175679	
-1.1484	1.75272	-0.176292	
-1.18687	1.35868	-0.177141	
-0.955007	1.39206	-0.153638	
-0.908519	1.42097	-0.152391	
-1.12592	1.81911	-0.175863	
-1.92575	1.6612	-0.201085	
-1.99238	1.71339	-0.174312	
-1.44762	0.496577	-0.173998	
-1.75603	0.549039	-0.200045	
-0.89083	1.85508	-0.151972	
-0.761589	0.520218	-0.149838	
-0.606222	0.528047	-0.12707	
-1.99238	1.57014	-0.174312	
-2.27701	0.500665	-0.199214	
-1.13077	0.932053	-0.147485	
-1.00005	1.07414	-0.155037	
-1.0035	1.51028	-0.155152	
-2.27701	1.64173	-0.199214	
-0.939766	0.282674	-0.153206	
-1.99238	0.571209	-0.174312	
-1.37854	0.59575	-0.148524	
-0.488648	1.71321	-0.125063	
-1.59084	1.88726	-0.205572	
-1.65155	0.827624	-0.175088	
-0.990243	1.82622	-0.154717	
-0.77074	1.40032	-0.149936	
-1.2304	1.87065	-0.178275	
-1.27598	0.866054	-0.153334	
-1.24315	1.24863	-0.152531	
-1.04891	1.94589	-0.156749	
-1.37609	1.75284	-0.148923	
-0.722471	1.94185	-0.13037	
-1.95611	0.611259	-0.133812	
-2.22066	0.691022	-0.149039	
-1.66847	0.951279	-0.107312	
-2.22683	0.885946	-0.151792	
-1.48089	0	-0.083541	
-1.41255	0	-0.0907422	
-1.73639	0.0792566	-0.111271	
-1.63167	0	-0.20563	
-0.815558	0.0639973	-0.121731	
-1.13187	0	-0.139326	
-1.04553	0.0936441	-0.160113	
-1.3414	0	-0.100257	
-1.27084	0	-0.111611	
-1.31394	0.0798839	-0.104454	
-1.67945	0.821071	-0.113477	
-1.95493	1.45488	-0.133179	
-1.95798	1.89867	-0.134841	
-1.19627	2	-0.0586392	
-1.55252	2	-0.0782073	
-1.81496	1.91895	-0.104505	
-0.818997	1.93754	-0.12092	
-1.05063	1.90585	-0.158806	
-1.06242	2	-0.155827	
-1.13187	2	-0.139326	
-1.41255	2	-0.0907422	
-1.37685	1.92228	-0.0952669	
-1.3414	2	-0.100257	
-1.58912	1.85759	-0.0764341	
-1.79927	1.82278	-0.105634	
-1.59416	0.600657	-0.130055	
-1.25445	0.663037	-0.114513	
-1.60644	0.68441	-0.128123	
-1.04718	0.939959	-0.159688	
-1.05625	1.33496	-0.157379	
-1.78475	1.68417	-0.10678	
-1.24551	1.74973	-0.0547155	
-2.16579	1.71007	-0.125967	
-1.30697	1.02684	-0.105564	
-1.60204	0.943151	-0.128808	
-1.25179	0.965528	-0.114994	
-1.08269	0.553448	-0.150825	
-1.03975	0.495631	-0.161603	
-1.74214	1.36962	-0.0802391	
-2.24311	1.42353	-0.125808	
-1.7527	1.43872	-0.0812994	
-2.143	1.02505	-0.123998	
-1.79224	0.965827	-0.086335	
-2.05002	1.04082	-0.107629	
-1.98888	1.21008	-0.102251	
-2.36228	1.26463	-0.136257	
-1.78702	1.19252	-0.0855688	
-1.29579	1.8275	-0.107383	
-1.59272	1.91186	-0.130285	
-1.64784	1.83465	-0.122031	
-1.71149	1.04863	-0.113974	
-1.36632	1.0111	-0.0966988	
-1.63441	1.09426	-0.123936	
-1.13413	1.10778	-0.0651052	
-1.78428	1.09436	-0.106818	
-1.53558	0.92332	-0.0792521	
-1.57378	0.983948	-0.0770946	
-2.18597	0.912712	-0.125452	
-1.27595	1.65028	-0.0528575	
-1.32975	1.64109	-0.0507894	
-1.8513	1.58611	-0.102343	
-1.0626	0.621253	-0.155781	
-0.84445	0.607584	-0.115054	
-1.45343	0.544593	-0.156175	
-1.47411	0.626188	-0.151886	
-1.70937	0.883867	-0.114216	
-1.38369	0.814004	-0.0943611	
-1.35936	0.883506	-0.0976678	
-1.09332	0.94284	-0.0702193	
-1.04023	0.823889	-0.0778498	
-1.29022	0.86549	-0.108308	
-1.73563	0.577518	-0.0796417	
-2.01775	0.659851	-0.104326	
-1.79734	0.634606	-0.0871155	
-1.44884	0.0913029	-0.157149	
-1.093	0.141129	-0.148341	
-1.51913	1.15841	-0.0803978	
-2.17519	1.18235	-0.125686	
-1.28496	1.11752	-0.0523944	
-2.16168	0.938839	-0.128801	
-1.64229	0.99711	-0.0954495	
-1.55232	0.516229	-0.0782184	
-1.86528	0.597248	-0.101686	
-1.6267	0.53029	-0.0755142	
-1.6871	1.25683	-0.116869	
-1.66707	1.17353	-0.119427	
-1.33396	1.22905	-0.101366	
-2.18269	1.10599	-0.135002	
-1.94196	1.05145	-0.126779	
-1.89877	1.1866	-0.110326	
-1.95182	1.17077	-0.131554	
-1.88842	1.39834	-0.153437	
-1.03893	1.4857	-0.0780497	
-1.38375	1.4682	-0.0943527	
-2.0012	0.907417	-0.103038	
-1.66361	0.841878	-0.0757366	
-2.4825	0.492781	-0.165008	
-1.57199	0.543817	-0.0737747	
-1.90553	0.570722	-0.112536	
-1.68361	1.72433	-0.0763452	
-1.63953	1.78876	-0.0754621	
-1.55387	0.853718	-0.0781296	
-1.46683	0.389993	-0.0848603	
-1.18964	0.316743	-0.0592503	
-1.41264	0.343184	-0.0907305	
-1.58725	0.780432	-0.0765081	
-1.32159	0.84375	-0.050974	
-1.65731	0.770799	-0.0756172	
-1.50246	0.577671	-0.081687	
-1.35161	1.02428	-0.179588	
-1.55364	0.237428	-0.136831	
-1.28486	0.153222	-0.109208	
-1.21725	0.163431	-0.121465	
-1.6447	0.159631	-0.122469	
-1.70675	1.80219	-0.077497	
-1.45205	1.86234	-0.0548334	
-1.78564	1.80354	-0.0853724	
-1.61481	0.329138	-0.0756829	
-1.97412	0.30982	-0.101493	
-1.922	0.244444	-0.100363	
-1.64693	0.391669	-0.0754942	
-0.961811	1.03303	-0.0910665	
-1.61521	0.717798	-0.0756753	
-1.53358	0.718603	-0.0793845	
-1.28688	0.665477	-0.0523012	
-1.64661	0.658642	-0.0754919	
-1.18808	1.87015	-0.0593969	
-1.43705	1.80864	-0.0879347	
-1.29311	1.78424	-0.0520109	
-1.46462	1.74797	-0.0850752	
-1.7121	0.386445	-0.077834	
-1.74215	0.441074	-0.0802394	
-1.78148	0.365688	-0.0847906	
-1.55338	1.25637	-0.0781577	
-1.62823	1.24657	-0.0755009	
-1.57623	1.3122	-0.0769811	
-1.35713	1.30199	-0.0505652	
-1.70174	1.27096	-0.077206	
-1.42732	0.276367	-0.0890203	
-1.91532	0.292881	-0.149375	
-1.09681	0.234809	-0.069756	
-1.04089	0.216682	-0.0777482	
-1.80397	0.891352	-0.0881747	
-1.60332	1.48059	-0.075954	
-1.52746	1.4429	-0.0798015	
-1.81039	1.51083	-0.104822	
-1.45608	1.45569	-0.0859268	
-1.61583	1.36546	-0.0756639	
-1.68629	1.34038	-0.0764536	
-1.35185	1.70558	-0.0987359	
-1.36683	1.63351	-0.0966284	
-1.29487	1.65739	-0.107535	
-1.21569	0.837679	-0.121768	
-1.25998	0.792044	-0.113524	
-1.27223	1.09876	-0.11137	
-1.58667	1.30603	-0.131261	
-0.970745	1.35315	-0.089446	
-1.95286	0.166399	-0.100748	
-1.58642	0.169498	-0.0765415	
-1.50472	1.40455	-0.145817	
-1.67021	0.41495	-0.119015	
-1.72277	0.474418	-0.112716	
-1.95783	1.05334	-0.100886	
-1.7141	0.984567	-0.0779671	
-1.67754	1.13834	-0.076123	
-1.31231	0.452043	-0.104712	
-1.59409	0.374434	-0.130066	
-0.968914	0.42015	-0.0897757	
-1.51718	0.484457	-0.143446	
-1.83013	0	-0.0929081	
-1.84677	0.0667918	-0.096408	
-1.89452	0	-0.108988	
-1.83013	2	-0.0929081	
-1.51398	1.94291	-0.0624112	
-1.47505	2	-0.0571617	
-1.86772	0.853126	-0.101424	
-1.89452	2	-0.108988	
-2.14577	1.92333	-0.124674	
-1.20529	0.506745	-0.0578386	
-1.43688	0.56183	-0.087953	
-1.44465	0.636864	-0.0871148	
-1.37556	0.546278	-0.0954404	
-1.37628	0.617676	-0.0953435	
-2.06219	0.078087	-0.109165	
-2.02228	1.56345	-0.104725	
-1.50508	1.62497	-0.061058	
-1.82181	1.57191	-0.0913038	
-2.16437	0.153301	-0.129546	
-2.16861	0.252546	-0.130746	
-1.65058	0.211952	-0.0988772	
-1.50799	0.650538	-0.0812447	
-1.74195	0.718414	-0.110703	
-1.44658	0.798942	-0.0869103	
-1.51363	0.786413	-0.0808091	
-1.10745	0.678765	-0.0683733	
-1.38633	0.741319	-0.0940167	
-2.22719	1.80752	-0.151956	
-1.89382	1.74768	-0.10877	
-2.14946	1.83308	-0.125591	
-1.45416	1.20637	-0.0861226	
-1.45404	1.92648	-0.156047	
-1.39836	1.86025	-0.168365	
-1.9135	0.344499	-0.115295	
-1.93941	0.410465	-0.125622	
-2.05913	0.282592	-0.108763	
-2.12896	0.338159	-0.120771	
-1.78581	0.251286	-0.106693	
-1.27318	0.217721	-0.053008	
-1.77873	0.164212	-0.107282	
-1.35446	0.230355	-0.178881	
-1.91001	1.93673	-0.100429	
-1.88221	1.26103	-0.105339	
-1.94582	1.24459	-0.128585	
-1.86723	1.32491	-0.101297	
-2.22248	1.31978	-0.14983	
-2.08456	0.804788	-0.112426	
-2.15638	0.759874	-0.127377	
-1.80897	0.714139	-0.0890119	
-1.4353	0.206449	-0.0881266	
-1.1351	0.138218	-0.0649918	
-1.11563	1.72394	-0.143024	
-1.08063	1.78328	-0.151326	
-1.44431	1.79352	-0.158119	
-1.5132	1.03613	-0.0808417	
-1.87096	1.05319	-0.101447	
-1.63709	0.992616	-0.0754615	
-1.34239	1.10914	-0.0506096	
-2.09383	0.204267	-0.113952	
-1.7207	0.22975	-0.0784323	
-1.48927	0.863551	-0.0827961	
-1.47121	0.938032	-0.0844401	
-1.55244	1.76807	-0.0694161	
-2.11059	1.69808	-0.116994	
-1.75416	1.73846	-0.0814542	
-1.81113	0.425321	-0.0893817	
-1.76718	0.500006	-0.0829426	
-1.6707	0.456585	-0.0759122	
-1.69822	0.51622	-0.0770152	
-1.19234	0.232607	-0.126402	
-1.36638	1.33248	-0.0966897	
-1.44193	1.52656	-0.0874054	
-1.65168	1.55451	-0.121499	
-1.72777	1.60907	-0.112177	
-0.967053	0.903738	-0.0901121	
-1.46266	0.902651	-0.154241	
-1.69211	0	-0.0767114	
-1.6209	0	-0.0755821	
-1.64349	0.051764	-0.0754736	
-1.55252	0	-0.0782073	
-1.57378	0.0537652	-0.0770949	
-1.47054	1.3862	-0.0845041	
-1.39982	1.3946	-0.0922969	
-1.4764	1.26486	-0.0839534	
-1.24024	1.21166	-0.0550823	
-1.43352	1.32507	-0.0883233	
-1.5045	1.32038	-0.0815223	
-1.63088	0.814456	-0.0911161	
-1.24011	1.88165	-0.117133	
-1.66793	0.594595	-0.0758382	
-1.67923	1.38879	-0.113346	
-1.91414	1.39048	-0.115525	
-1.46607	0.75837	-0.153535	
-1.13803	0.821275	-0.137948	
-1.9467	0.75743	-0.129008	
-1.51383	1.60921	-0.144077	
-1.22896	1.68446	-0.119223	
-0.937689	1.75212	-0.0955876	
-1.56904	1.73879	-0.134185	
-1.42989	1.59941	-0.161251	
-1.16032	1.66432	-0.133081	
-2.01108	1.93182	-0.103774	
-1.80128	1.87756	-0.0877379	
-1.95494	0.146224	-0.133184	
-1.67679	1.10891	-0.111895	
-1.67096	0.544978	-0.108627	
-1.4659	1.32361	-0.15357	
-1.23941	0.0813768	-0.117264	
-1.20201	0	-0.12446	
-1.55854	1.21454	-0.0707137	
-1.84288	1.14931	-0.0955531	
-1.66577	1.87232	-0.0757854	
-1.14259	1.24379	-0.136938	
-1.10444	1.29411	-0.145631	
-1.20861	1.24385	-0.123152	
-1.30661	1.16415	-0.105623	
-1.74725	0.398041	-0.17915	
-1.35094	1.20048	-0.179754	
-1.0556	1.11243	-0.157545	
-1.24212	0.560548	-0.116761	
-1.30688	0.523541	-0.105578	
-2.02019	1.65544	-0.104538	
-1.60421	0.109422	-0.0759291	
-1.13028	1.86761	-0.0655601	
-1.44832	1.9304	-0.0867272	
-1.47115	0.741046	-0.0567278	
-1.86574	0.676971	-0.100919	
-0.911072	0.693471	-0.100822	
-1.25469	0.726744	-0.11447	
-1.32166	0.760134	-0.103245	
-0.679236	0.61385	-0.0657903	
-0.754203	0.170423	-0.13694	
-1.45303	1.15632	-0.0549211	
-1.44036	1.09603	-0.0538554	
-1.78247	1.1197	-0.0849274	
-0.896607	1.85832	-0.103775	
-1.23447	1.8111	-0.118184	
-1.89414	1.45652	-0.10887	
-1.85461	1.39372	-0.0982007	
-0.953949	1.94352	-0.0925166	
-1.27084	2	-0.111611	
-1.71836	0.79232	-0.0782624	
-1.45854	0.850283	-0.0554351	
-1.69392	0.718066	-0.0767977	
-1.14392	0.180772	-0.136645	
-1.66826	1.51591	-0.0758468	
-1.94582	1.59438	-0.100588	
-1.43569	1.48768	-0.0535025	
-1.7871	1.50665	-0.0855808	
-0.763499	1.83632	-0.134545	
-1.55793	1.53312	-0.136084	
-0.917034	1.54488	-0.0996272	
-1.04559	1.71558	-0.160097	
-2.19852	1.66217	-0.140337	
-1.23771	0.358669	-0.11758	
-1.18106	0.310734	-0.128712	
-1.51151	1.39867	-0.0620258	
-1.82634	1.4537	-0.0921649	
-1.80585	1.33896	-0.0884853	
-1.60018	0.46147	-0.0760463	
-1.29633	0.394907	-0.0518687	
-1.80692	0.433969	-0.105069	
-1.30955	1.42238	-0.0513429	
-1.54078	1.37641	-0.0789166	
-1.85279	0.606335	-0.0977755	
-1.0893	0.879786	-0.149228	
-1.10065	0.752034	-0.146522	
-1.05741	0.815753	-0.157085	
-1.41345	1.38066	-0.164915	
-2.2203	1.52165	-0.148882	
-1.86067	1.51493	-0.0996549	
-1.54388	1.08423	-0.0676845	
-1.05773	1.59815	-0.157005	
-1.33628	2	-0.0506804	
-1.51528	1.16076	-0.143803	
-0.889614	1.18618	-0.10523	
-1.1671	1.14984	-0.0614705	
-1.27062	1.23168	-0.111649	
-1.11651	1.16237	-0.142823	
-1.4224	1.68406	-0.0895831	
-1.17246	0.333428	-0.0303952	
-1.05824	1.52552	-0.156877	
-1.10468	0.488947	-0.145574	
-1.01764	1.59304	-0.0814224	
-1.89307	1.57917	-0.108543	
-1.08277	1.65719	-0.150807	
-1.79763	0.559694	-0.0871595	
-1.83549	0.490232	-0.0939912	
-1.12163	0.956713	-0.141647	
-1.19228	0.989568	-0.126414	
-1.39649	1.75665	-0.092715	
-1.05203	1.77244	-0.0760605	
-0.890879	1.72615	-0.104965	
-0.998925	0.310718	-0.0845269	
-0.946371	0.290342	-0.0939358	
-0.95741	1.29539	-0.0918756	
-1.69211	2	-0.0767114	
-1.08429	0.482459	-0.07144	
-1.46245	1.30941	-0.0558184	
-1.53044	0.109198	-0.0795964	
-1.14522	1.03572	-0.136359	
-1.20625	1.07584	-0.123617	
-1.20201	2	-0.12446	
-1.62312	0.633303	-0.0883847	
-1.87471	0.422033	-0.103263	
-1.26064	0.266461	-0.0430575	
-1.12863	0.262786	-0.140058	
-1.38137	1.66446	-0.0508891	
-1.31867	1.54135	-0.0510529	
-1.08647	0.371856	-0.14991	
-0.834145	0.429791	-0.117401	
-1.21283	1.56661	-0.057197	
-1.22724	1.62234	-0.0560418	
-0.781034	1.2804	-0.0491575	
-1.05473	0.68957	-0.157763	
-0.754797	0.753859	-0.136786	
-1.95214	0.285029	-0.131721	
-0.758881	1.26259	-0.135731	
-2.23825	0	-0.157391	
-0.76684	1.39629	-0.133692	
-1.36226	1.45609	-0.17696	
-1.06278	0.308608	-0.155737	
-1.41289	0.682551	-0.16504	
-1.05179	0.423502	-0.158512	
-1.95362	2	-0.13249	
-1.22913	0.980727	-0.0558981	
-1.42415	1.51237	-0.162518	
-1.16283	1.11653	-0.132544	
-1.28669	0.277428	-0.0523106	
-1.82077	0.33864	-0.104117	
-0.823623	1.08627	-0.119836	
-1.38357	0.0993244	-0.0509434	
-1.71629	0.0548078	-0.0781169	
-0.532543	1.55961	-0.096449	
-1.95354	1.72118	-0.132445	
-1.63398	1.94239	-0.0922538	
-1.62581	1.87535	-0.0893123	
-0.881198	0.473525	-0.107004	
-0.844692	0.331482	-0.115	
-1.56868	1.63205	-0.0729946	
-1.66647	1.59521	-0.106285	
-1.21231	1.47977	-0.122427	
-1.75215	0.160133	-0.0812408	
-1.43566	0.114041	-0.0535002	
-0.986266	1.45658	-0.0867005	
-1.53118	0.130179	-0.0653041	
-1.42052	0.972536	-0.0898016	
-1.92533	0.0752793	-0.119723	
-1.22618	0.0509452	-0.0561236	
-1.18123	1.00206	-0.0600533	
-0.791831	0.356044	-0.0476232	
-1.38041	0.0762643	-0.0947935	
-0.871267	1.44431	-0.109131	
-1.75968	0	-0.0820634	
-1.39294	0.460204	-0.0874474	
-1.09997	0.946643	-0.0260686	
-1.0667	2	-0.165016	
-1.14569	2	-0.156482	
-1.30925	2	-0.143219	
-1.39526	2	-0.138629	
-1.22625	2	-0.149206	
-1.85619	2	-0.159262	
-2.03435	2	-0.165403	
-1.92164	2	-0.161415	
-1.83831	2	-0.149432	
-1.66057	2	-0.135475	
-1.7667	2	-0.160566	
-1.56163	-0.0721374	-0.224115	
-0.757566	-0.0524234	-0.149797	
-1.02469	-1.94219	-0.155877	
-1.24362	-1.93265	-0.178656	
-1.28399	-2	-0.179916	
-1.10303	-0.0610541	-0.175478	
-1.24728	-0.0745946	-0.178764	
-1.38928	-0.063891	-0.183812	
-1.99238	-1.2856	-0.174312	
-1.93065	-1.32684	-0.20061	
-1.99238	-1.35721	-0.174312	
-1.99238	-0.0721374	-0.174312	
-2.27701	-0.215036	-0.199214	
-1.99238	-0.143615	-0.174312	
-1.94115	-0.177622	-0.199344	
-1.70775	-0.286611	-0.14941	
-1.94223	-0.326516	-0.199192	
-2.27701	-0.358269	-0.199214	
-1.94242	-0.255005	-0.199165	
-1.99238	-0.714404	-0.174312	
-2.21758	-0.754353	-0.225265	
-1.99238	-0.786116	-0.174312	
-1.42962	-2	-0.18548	
-1.66907	-1.91632	-0.208518	
-1.35693	-2	-0.182533	
-0.780844	-2	-0.150054	
-0.758671	-1.94543	-0.149808	
-0.99238	-2	-0.174312	
-1.94345	-1.39944	-0.199014	
-1.99238	-1.42879	-0.174312	
-1.42313	-2	-0.124509	
-2.27701	-1.92786	-0.199214	
-1.64822	-2	-0.175474	
-1.13844	-2	-0.176096	
-1.10259	-1.9425	-0.175471	
-1.82779	-1.91894	-0.215233	
-1.502	-2	-0.188582	
-1.29016	-2	-0.166724	
-1.99238	-1.21388	-0.174312	
-1.93056	-1.25457	-0.20062	
-2.27701	-1.78496	-0.199214	
-1.37928	-1.82622	-0.148399	
-1.99238	-1.85639	-0.174312	
-1.18718	-0.824164	-0.177148	
-1.10938	-0.840188	-0.17558	
-1.4489	-0.897364	-0.201526	
-1.56163	-1.07055	-0.224115	
-1.34248	-1.0996	-0.199768	
-1.62177	-0.999321	-0.22461	
-1.37169	-1.67801	-0.183109	
-1.44277	-1.66711	-0.186037	
-1.65994	-1.60664	-0.208154	
-1.25527	-0.446895	-0.179005	
-1.84544	-0.354649	-0.229465	
-1.20145	-0.398171	-0.1775	
-1.71099	-1.83141	-0.210245	
-1.20109	-1.78071	-0.162979	
-1.71255	-1.74009	-0.21031	
-1.8729	-1.7075	-0.217058	
-1.50676	-1.71822	-0.188786	
-1.55387	-1.78279	-0.190776	
-1.91283	-1.79397	-0.218722	
-1.45366	-1.60358	-0.186502	
-1.40842	-1.5428	-0.184595	
-1.06971	-1.84473	-0.157532	
-2.03152	-1.45461	-0.224514	
-1.66466	-1.49442	-0.195531	
-1.71214	-1.53304	-0.197898	
-2.28305	-1.28582	-0.247784	
-1.6438	-1.23395	-0.194534	
-2.18389	-1.30809	-0.243029	
-2.36823	-1.05755	-0.251673	
-1.5893	-1.02435	-0.178374	
-1.54071	-0.98494	-0.177813	
-1.56592	-0.659051	-0.191269	
-1.49889	-0.685531	-0.188448	
-1.83668	-0.738859	-0.215603	
-1.81209	-1.33862	-0.214572	
-1.82177	-1.25231	-0.214981	
-1.56163	-1.42879	-0.224115	
-1.56163	-1.49933	-0.224115	
-1.36157	-1.4654	-0.200003	
-1.07985	-0.918262	-0.17514	
-1.13199	-1.01699	-0.175974	
-0.839027	-0.957788	-0.150921	
-1.82729	-0.881052	-0.228893	
-1.26597	-0.965074	-0.179336	
-1.32945	-0.954992	-0.1815	
-1.30658	-0.86716	-0.167368	
-1.94224	-0.888326	-0.220091	
-1.63978	-0.817828	-0.194347	
-1.45247	-0.589278	-0.201604	
-1.4695	-0.676587	-0.201995	
-1.53479	-0.618429	-0.203752	