<VTKFile type="UnstructuredGrid" version="0.1" byte_order="LittleEndian">
	<UnstructuredGrid>
		<Piece NumberOfPoints="1917" NumberOfCells="56">
			<CellData Scalars="scalars">
				<DataArray type="Float64" Name="Doublet Strengths" NumberOfComponents="1" Format="ascii">
-0.5955	
-2.33278	
-1.78009	
-2.26701	
-2.52656	
-2.70164	
-2.67583	
-2.623	
-2.06115	
-1.73986	
-1.08861	
-3.22429	
-1.79082	
-3.01188	
-1.82128	
-1.82368	
-2.54285	
-2.41106	
-2.39433	
-2.07003	
-2.43292	
-2.67222	
-1.98245	
-2.58269	
-4.78319	
-2.35057	
-1.79246	
-1.73842	
-4.78102	
-1.71919	
-2.2726	
-2.53037	
-2.12106	
-1.55803	
-0.867455	
-3.1727	
-1.68735	
-2.10782	
-2.59594	
-1.61313	
-1.71271	
-2.19859	
-2.18146	
-2.06743	
-1.9253	
-2.14503	
-2.16091	
-2.08261	
-1.70884	
-1.85863	
-2.10463	
-0.520749	
-1.4055	
-1.65099	
-2.1188	
-1.11035	
				</DataArray>
				<DataArray type="Float64" Name="Velocity Potential" NumberOfComponents="1" Format="ascii">
-845.241	
-961.36	
-1001.2	
-1000.71	
-1039.74	
-1000.28	
-961.016	
-1039.64	
-1040.2	
-1001.24	
-1001.89	
-999.754	
-1001.19	
-921.397	
-1040.44	
-1001.15	
-1039.72	
-1000.57	
-1039.87	
-1000.91	
-961.26	
-1000.31	
-1001	
-1039.68	
-998.195	
-1000.63	
-1001.19	
-1001.24	
-998.197	
-1001.26	
-1039.99	
-961.162	
-1000.86	
-962.135	
-1002.11	
-999.806	
-1001.29	
-961.585	
-1000.38	
-1001.37	
-1001.27	
-1040.07	
-1000.8	
-1000.91	
-1001.05	
-961.547	
-961.532	
-1040.18	
-1001.27	
-1001.12	
-1040.16	
-845.315	
-1001.58	
-1001.33	
-1000.86	
-1041.16	
				</DataArray>
			</CellData>
			<Points>
				<DataArray type="Float64" Name="Position" NumberOfComponents="3" Format="ascii">
-11.0274	0	-1.04652	
-9.29634	0.0524256	-0.896849	
-14.3698	0	-1.34469	
-11.1734	2	-1.04932	
-11.2046	1.93467	-1.05019	
-12.9536	2	-1.20089	
-11.1003	0	-1.04766	
-11.0649	0.0610502	-1.04704	
-11.2092	0.0745738	-1.05032	
-11.1734	0	-1.04932	
-11.2459	0	-1.05148	
-11.3188	0	-1.05409	
-11.3915	0	-1.05704	
-11.3501	0.0639395	-1.05533	
-10.1989	1.39584	-0.920968	
-11.8923	1.3266	-1.0722	
-11.9543	1.35721	-1.04587	
-14.3698	1.92786	-1.34469	
-9.2972	1.94512	-0.896857	
-13.662	0.0721374	-1.19528	
-11.8903	0.0533506	-1.0724	
-10.2465	0	-0.896462	
-13.662	0.215036	-1.19528	
-15.2799	0.171582	-1.37297	
-10.2465	0.143615	-0.896462	
-10.2465	0.286611	-0.896462	
-13.662	0.358269	-1.19528	
-11.9041	0.326064	-1.07076	
-11.9019	0.252841	-1.07106	
-11.9543	0.714404	-1.04587	
-11.9543	0.786116	-1.04587	
-13.6026	0.754574	-1.22134	
-11.3915	2	-1.05704	
-11.3188	2	-1.05409	
-14.7714	1.91204	-1.35439	
-11.4068	1.66657	-1.05769	
-13.0445	1.60722	-1.20421	
-11.2174	0.446925	-1.05057	
-11.1645	0.397747	-1.04909	
-14.6542	0.354616	-1.35006	
-10.9543	2	-1.04587	
-11.9543	1.42879	-1.04587	
-8.53877	2	-0.747051	
-10.187	2	-0.922525	
-13.662	1.92786	-1.19528	
-11.1003	2	-1.04766	
-9.31962	2	-0.897105	
-11.0653	1.93956	-1.04704	
-9.72378	1.94176	-0.909337	
-14.9203	1.9167	-1.3607	
-11.4639	2	-1.06014	
-11.9543	1.21388	-1.04587	
-10.1949	1.19029	-0.921554	
-11.9543	1.14216	-1.04587	
-11.9543	1.2856	-1.04587	
-11.8926	1.25405	-1.07217	
-13.662	1.78496	-1.19528	
-11.9543	1.85639	-1.04587	
-8.49489	1.82617	-0.770948	
-10.1876	0.114671	-0.922461	
-13.5888	1.46922	-1.2226	
-13.5433	1.38862	-1.22425	
-11.1491	0.824164	-1.04871	
-12.8339	0.897364	-1.19759	
-11.0713	0.840188	-1.04714	
-11.7969	1.46561	-1.07451	
-12.662	1	-1.19528	
-14.4299	0.999321	-1.34519	
-14.3698	1.07055	-1.34469	
-11.4156	1.60348	-1.05806	
-11.0468	0.356544	-1.04677	
-9.40336	0.353408	-0.898458	
-11.0912	0.427857	-1.04748	
-13.0945	1.82506	-1.20625	
-13.0982	1.7382	-1.20641	
-9.73985	1.77788	-0.91003	
-11.469	1.71777	-1.06036	
-11.5169	1.78088	-1.06238	
-13.2581	1.70728	-1.21313	
-13.2981	1.79378	-1.2148	
-11.3702	1.54291	-1.05615	
-11.308	1.8351	-1.05368	
-13.4164	1.45384	-1.22057	
-11.6741	1.53294	-1.06946	
-11.6266	1.49429	-1.06709	
-13.3748	1.28284	-1.21852	
-14.9909	1.30815	-1.36356	
-11.6044	1.23305	-1.06603	
-15.1775	1.05577	-1.37229	
-11.8004	0.974397	-1.07458	
-10.133	1.02275	-0.925377	
-11.5278	0.65903	-1.06283	
-13.2217	0.738857	-1.21167	
-11.4608	0.685529	-1.06001	
-13.197	1.33866	-1.21064	
-13.2067	1.25226	-1.21104	
-14.3698	1.42879	-1.34469	
-12.7471	1.46516	-1.19608	
-14.3698	1.49933	-1.34469	
-11.0417	0.918262	-1.0467	
-14.6355	0.881052	-1.34947	
-11.3049	0.891355	-1.05356	
-11.2913	0.954992	-1.05306	
-9.84535	0.867158	-0.914419	
-11.6017	0.817822	-1.06591	
-13.3272	0.888323	-1.21615	
-12.8375	0.589259	-1.19767	
-12.9198	0.618435	-1.19982	
-12.8545	0.676586	-1.19806	
-11.7527	0	-1.07312	
-11.824	0	-1.07486	
-13.5226	0.0790961	-1.22421	
-11.4342	1.27156	-1.05886	
-11.4238	1.20368	-1.05842	
-11.4745	0.496767	-1.0606	
-11.5112	0.442032	-1.06215	
-13.2637	0.502871	-1.21335	
-13.2994	0.698424	-1.21486	
-11.3589	1.23016	-1.05569	
-11.3096	1.27217	-1.05374	
-12.9884	1.19537	-1.20208	
-9.6704	1.2898	-0.907069	
-9.88146	1.02577	-0.91593	
-13.3214	0.967174	-1.21588	
-11.6676	1.0342	-1.06914	
-14.8526	1.00672	-1.35781	
-11.4739	0.93866	-1.06057	
-11.5255	0.987296	-1.06273	
-13.04	0.378981	-1.20403	
-11.3931	0.426844	-1.05711	
-13.048	0.470462	-1.20434	
-13.5799	1.87857	-1.22318	
-13.5657	1.79633	-1.22381	
-11.7926	1.84585	-1.07441	
-11.5823	0.270573	-1.06504	
-9.85989	0.200611	-0.915001	
-13.3427	0.193571	-1.21691	
-13.2809	0.123897	-1.21405	
-11.5168	0.249496	-1.06238	
-11.5077	0.173576	-1.062	
-13.5333	1.20923	-1.22427	
-11.7954	1.13932	-1.07448	
-11.88	1.13751	-1.07326	
-11.6326	0.531427	-1.06739	
-11.6335	0.463982	-1.06743	
-11.5767	0.427199	-1.06479	
-11.6434	0.382421	-1.06792	
-10.1221	0.742778	-0.925453	
-13.5434	0.813881	-1.22425	
-13.2661	0.580015	-1.21345	
-11.6374	1.7199	-1.06762	
-13.3584	0.757182	-1.21769	
-9.9573	0.698895	-0.919596	
-11.7242	0.732194	-1.0719	
-11.7045	0.893597	-1.07097	
-11.6716	0.830458	-1.06933	
-13.4621	0.834567	-1.22259	
-11.8217	1.53139	-1.07485	
-11.7692	1.59044	-1.07372	
-11.7448	1.5207	-1.0728	
-13.008	1.10613	-1.2028	
-11.2302	1.13654	-1.05097	
-13.5035	0.567577	-1.22389	
-13.5707	0.624293	-1.22363	
-11.79	0.641057	-1.07435	
-11.7216	0.667946	-1.07178	
-11.7215	0.607392	-1.07177	
-13.4212	0.97644	-1.22081	
-11.8947	0	-1.07194	
-11.3873	1.40806	-1.05686	
-11.42	1.34451	-1.05825	
-11.4535	1.41675	-1.0597	
-11.4145	1.48085	-1.05801	
-13.2275	1.43176	-1.21191	
-11.4791	1.49613	-1.06079	
-11.5451	0.925911	-1.06352	
-11.7122	1.74077	-1.07133	
-15.1284	1.66215	-1.37019	
-10.0694	1.70694	-0.924576	
-14.3698	1.71339	-1.34469	
-14.4402	1.77904	-1.3453	
-14.3698	1.78496	-1.34469	
-11.7527	2	-1.07312	
-13.5031	1.92525	-1.22388	
-11.824	2	-1.07486	
-11.5852	0.350099	-1.06516	
-11.5214	0.315549	-1.06257	
-11.2813	1.02327	-1.05269	
-13.0586	1.02942	-1.20477	
-11.2763	0.0746863	-1.05252	
-11.311	0.130322	-1.05379	
-12.9446	0.159825	-1.20059	
-12.957	0.255296	-1.201	
-9.58456	0.198868	-0.903686	
-11.3544	0.185075	-1.0555	
-12.9097	0.53229	-1.19952	
-17.7853	0.358269	-1.64351	
-12.662	0.286611	-1.19528	
-11.0165	0.283499	-1.04639	
-14.3698	0.143615	-1.34469	
-12.7398	0.19815	-1.19598	
-14.3698	0.215036	-1.34469	
-14.5146	0.268711	-1.34645	
-13.1717	0	-1.20955	
-9.82893	0	-0.913775	
-11.5435	0.0522709	-1.06346	
-8.43109	0.233077	-0.775875	
-13.5404	0.293965	-1.22426	
-13.2541	1.52249	-1.21298	
-11.5448	1.6164	-1.06351	
-11.4852	1.57352	-1.06105	
-11.4807	1.65009	-1.06086	
-11.8424	1.59898	-1.07477	
-11.6812	0	-1.06982	
-11.6266	0.0589648	-1.06709	
-11.6086	0	-1.06623	
-11.1267	1.47391	-1.0482	
-12.9172	1.46129	-1.19974	
-12.8947	1.53681	-1.1991	
-13.3557	0.286849	-1.21756	
-11.2677	0.724627	-1.05222	
-9.57014	0.784216	-0.903164	
-12.9242	0.788387	-1.19995	
-13.4903	0.223399	-1.22355	
-10.0607	1.34531	-0.924289	
-10.0559	1.40661	-0.924122	
-13.4094	1.36487	-1.22024	
-11.7365	1.29047	-1.07244	
-10.0423	0.414541	-0.9236	
-11.6973	0.434011	-1.07061	
-13.4143	0.349215	-1.22047	
-11.8129	0.422964	-1.07478	
-13.471	0.489015	-1.22293	
-11.8352	0.488653	-1.07484	
-8.13929	1.24582	-0.765074	
-11.5407	1.18695	-1.06335	
-10.0021	1.58611	-0.921815	
-9.57368	0.42229	-0.903291	
-9.59586	0.312816	-0.904105	
-13.0918	0.310713	-1.20614	
-11.3335	0.255176	-1.05466	
-11.3993	0.23291	-1.05737	
-15.1458	1.20734	-1.37099	
-11.5998	1.1572	-1.06582	
-11.669	1.15129	-1.06921	
-9.95002	1.2101	-0.91923	
-13.3168	1.08885	-1.21566	
-11.2124	1.61914	-1.05042	
-11.2313	1.69424	-1.051	
-12.8604	1.67616	-1.19821	
-11.2802	1.64844	-1.05266	
-11.3086	1.72086	-1.0537	
-11.6536	0.644913	-1.06843	
-10.0142	1.94629	-0.922382	
-13.3577	1.93331	-1.21766	
-11.7234	1.88539	-1.07186	
-12.8428	0.0804625	-1.19779	
-9.36763	0.127785	-0.897797	
-9.37887	1.88257	-0.897991	
-12.8458	1.92762	-1.19786	
-11.1739	0.21589	-1.04933	
-10.0068	0.273142	-0.922038	
-11.7077	0.209198	-1.07112	
-9.99546	0.143339	-0.921493	
-11.7739	0.145092	-1.07388	
-9.94299	0.115792	-0.918877	
-11.6505	1.85807	-1.06828	
-11.5848	1.88373	-1.06514	
-9.86727	1.94611	-0.915311	
-9.82893	2	-0.913775	
-11.6086	2	-1.06623	
-10.1972	0.682902	-0.921222	
-13.662	0.64279	-1.19528	
-9.72377	1.88295	-0.909337	
-11.3094	1.53147	-1.05373	
-11.287	1.46174	-1.0529	
-11.3515	1.47178	-1.05538	
-11.8539	1.08229	-1.07453	
-9.45491	0.329519	-0.899633	
-12.7246	0.43708	-1.1958	
-12.662	0.429861	-1.19528	
-9.63664	1.67699	-0.905688	
-11.2621	1.57544	-1.05202	
-9.95005	1.60691	-0.919231	
-11.6161	1.65508	-1.06658	
-11.7172	1.81461	-1.07157	
-9.94862	1.78507	-0.919159	
-9.45372	0.749751	-0.899603	
-11.2113	0.701087	-1.05039	
-12.799	0.758919	-1.1969	
-11.9543	0.429861	-1.04587	
-13.5959	0.409639	-1.22201	
-11.7853	1.77163	-1.07422	
-13.5627	1.71936	-1.22391	
-12.8558	1.1716	-1.19809	
-11.1808	1.09553	-1.04952	
-12.9613	1.76477	-1.20114	
-9.62301	1.7791	-0.905148	
-11.4543	0.277236	-1.05973	
-13.1372	0.151691	-1.20807	
-9.82825	1.84554	-0.913748	
-11.4698	1.83711	-1.06039	
-11.3503	1.33945	-1.05534	
-11.3213	1.40104	-1.05419	
-10.0558	0.297567	-0.924118	
-11.783	0.357474	-1.07416	
-9.872	0.760525	-0.915514	
-11.5301	0.810302	-1.06292	
-11.4381	0.749841	-1.05903	
-11.3731	0.751361	-1.05627	
-11.3954	0.686344	-1.0572	
-11.4648	0.810027	-1.06018	
-11.3994	0.81571	-1.05737	
-16.0775	1.64173	-1.4941	
-11.0199	1.65788	-1.04643	
-13.662	1	-1.19528	
-13.662	1.07055	-1.19528	
-10.1979	1.0308	-0.921119	
-9.31129	1.5272	-0.897008	
-14.3698	1.57014	-1.34469	
-9.66694	0.121062	-0.906925	
-11.4213	0.068568	-1.05831	
-11.4888	0.0968802	-1.06121	
-14.3698	1.85639	-1.34469	
-12.7287	1.8723	-1.19585	
-14.3698	0.0721374	-1.34469	
-11.0145	0.116381	-1.04637	
-11.5205	0.378957	-1.06253	
-14.3698	1.2856	-1.34469	
-11.02	1.33655	-1.04643	
-14.3698	1.35721	-1.34469	
-9.70145	1.07097	-0.90838	
-11.4157	1.13809	-1.05807	
-9.65407	1.10545	-0.906394	
-11.4688	1.08867	-1.06035	
-11.43	0.876824	-1.05868	
-11.3684	0.882801	-1.05607	
-13.0424	0.819303	-1.20412	
-11.588	1.38959	-1.06529	
-9.87383	1.45442	-0.915593	
-11.6468	1.41914	-1.06809	
-9.75031	0.213959	-0.91048	
-11.416	0.621411	-1.05808	
-11.3782	0.549577	-1.05648	
-11.4396	0.556476	-1.0591	
-11.4073	0.491713	-1.05771	
-13.4279	0.0712931	-1.22112	
-11.348	1.1672	-1.05524	
-11.6035	1.57159	-1.06599	
-11.1479	0.47164	-1.04868	
-10.1938	0.476615	-0.921692	
-13.5845	0.546631	-1.2229	
-12.662	0.500665	-1.19528	
-11.0143	0.802839	-1.04636	
-9.38175	0.646217	-0.898043	
-9.35957	0.69766	-0.897665	
-11.0674	1.17495	-1.04708	
-12.7275	1.0996	-1.19584	
-12.8119	1.1007	-1.19714	
-12.9201	1.32398	-1.19983	
-9.43603	1.29855	-0.899172	
-11.1736	1.24767	-1.04933	
-11.3562	0.61668	-1.05558	
-11.3191	0.546139	-1.0541	
-9.55264	0.561624	-0.902553	
-11.2723	0.491616	-1.05238	
-9.44239	1.0418	-0.899323	
-11.2108	1.02609	-1.05037	
-12.8595	0.976287	-1.19818	
-11.2279	0.965074	-1.0509	
-11.3604	0.954567	-1.05574	
-11.0879	1.62515	-1.04742	
-9.44146	1.59965	-0.899301	
-10.1397	0.360303	-0.92527	
-11.0245	1.5889	-1.04648	
-11.282	1.33334	-1.05272	
-11.2557	1.39903	-1.0518	
-11.2433	1.2624	-1.05139	
-13.0385	0.683934	-1.20397	
-11.8861	0.967445	-1.07279	
-15.2833	0.89983	-1.37282	
-11.7726	0.914042	-1.07384	
-11.5224	1.0505	-1.06261	
-10.0247	1.13415	-0.922858	
-9.98112	1.09375	-0.920789	
-9.72275	1.5431	-0.909293	
-11.7805	0.770923	-1.07409	
-10.0069	0.785107	-0.92204	
-9.92954	1.34839	-0.918207	
-13.529	1.29694	-1.22426	
-11.804	1.65281	-1.07465	
-12.7336	1.25411	-1.19591	
-11.0841	1.32162	-1.04736	
-9.88274	0.633745	-0.915987	
-11.6446	0.587288	-1.06798	
-11.8453	0.6882	-1.07472	
-11.4912	0.873522	-1.06131	
-8.12591	1.36753	-0.764553	
-11.6812	2	-1.06982	
-9.50506	1.1987	-0.901022	
-11.4576	0.394274	-1.05987	
-11.4569	0.336713	-1.05984	
-11.779	0.702848	-1.07404	
-11.9543	0.929454	-1.04587	
-11.9543	0.857842	-1.04587	
-10.1619	1.94387	-0.924496	
-11.4789	1.16572	-1.06078	
-11.5356	1.11814	-1.06314	
-12.88	1.79696	-1.1987	
-9.4727	1.73661	-0.900099	
-9.69385	0.370041	-0.908056	
-9.74214	0.446178	-0.910128	
-9.70632	0.936014	-0.908588	
-7.64041	1.0523	-0.74808	
-11.0939	1.01699	-1.04753	
-11.9543	1.49933	-1.04587	
-12.7452	0.586375	-1.19605	
-12.7817	0.509874	-1.19659	
-11.8927	1.54624	-1.07215	
-9.56027	0.664255	-0.902817	
-9.61142	0.750955	-0.904696	
-9.56346	0.837223	-0.902928	
-14.3698	1.21388	-1.34469	
-9.29782	1.17543	-0.896863	
-14.3698	0.929454	-1.34469	
-9.29867	0.873321	-0.896872	
-16.0775	0.857842	-1.4941	
-11.0108	0.725606	-1.04633	
-14.3698	0.786116	-1.34469	
-14.3698	0.714404	-1.34469	
-11.0268	0.653203	-1.04651	
-14.3698	0.64279	-1.34469	
-16.0775	0.571209	-1.4941	
-14.3698	1.14216	-1.34469	
-9.3778	0.957788	-0.897972	
-7.76556	0.930031	-0.750705	
-11.2951	0.613315	-1.0532	
-10.2025	1.6049	-0.920378	
-9.79218	0.552048	-0.912266	
-11.4795	0.616488	-1.06081	
-12.8041	1.54065	-1.19699	
-11.1133	0.177963	-1.04791	
-11.1	1.24487	-1.04765	
-12.7938	1.39957	-1.1968	
-9.46733	0.139289	-0.899955	
-11.0773	1.69928	-1.04724	
-11.1103	1.75272	-1.04785	
-11.1488	1.35868	-1.0487	
-9.49378	1.39206	-0.900689	
-9.44729	1.42097	-0.899443	
-11.0878	1.81911	-1.04742	
-11.8877	1.6612	-1.07264	
-11.9543	1.71339	-1.04587	
-9.98639	0.496577	-0.92105	
-11.7179	0.549039	-1.07161	
-9.4296	1.85508	-0.899023	
-9.30036	0.520218	-0.896889	
-7.72186	0.528047	-0.749613	
-11.9543	1.57014	-1.04587	
-13.662	0.500665	-1.19528	
-8.24641	0.932053	-0.770028	
-9.53882	1.07414	-0.902089	
-9.54227	1.51028	-0.902203	
-13.662	1.64173	-1.19528	
-9.47854	0.282674	-0.900258	
-11.9543	0.571209	-1.04587	
-8.49418	0.59575	-0.771067	
-7.60429	1.71321	-0.747606	
-12.9759	1.88726	-1.20164	
-10.1903	0.827624	-0.92214	
-9.52901	1.82622	-0.901769	
-9.30951	1.40032	-0.896988	
-11.1923	1.87065	-1.04984	
-8.39162	0.866054	-0.775877	
-8.35879	1.24863	-0.775074	
-9.58768	1.94589	-0.9038	
-8.49173	1.75284	-0.771465	
-7.83811	1.94185	-0.752913	
-11.918	0.611259	-1.00537	
-13.6057	0.691022	-1.14511	
-10.2072	0.951279	-0.854363	
-13.6119	0.885946	-1.14786	
-11.4428	0	-0.955101	
-11.3744	0	-0.962302	
-13.1214	0.0792566	-1.10734	
-14.4398	0	-1.32621	
-9.35433	0.0639973	-0.868783	
-11.0938	0	-1.01089	
-11.0074	0.0936441	-1.03167	
-11.3033	0	-0.971817	
-11.2327	0	-0.983171	
-11.2758	0.0798839	-0.976014	
-10.2182	0.821071	-0.860528	
-11.9168	1.45488	-1.00474	
-11.9199	1.89867	-1.0064	
-9.73504	2	-0.805691	
-11.5144	2	-0.949767	
-13.2	1.91895	-1.10057	
-9.35777	1.93754	-0.867972	
-11.0125	1.90585	-1.03037	
-11.0243	2	-1.02739	
-11.0938	2	-1.01089	
-11.3744	2	-0.962302	
-11.3388	1.92228	-0.966827	
-11.3033	2	-0.971817	
-11.551	1.85759	-0.947994	
-13.1843	1.82278	-1.1017	
-12.9792	0.600657	-1.12612	
-11.2164	0.663037	-0.986073	
-12.9915	0.68441	-1.12419	
-11.0091	0.939959	-1.03125	
-11.0181	1.33496	-1.02894	
-13.1698	1.68417	-1.10285	
-9.78428	1.74973	-0.801767	
-14.9739	1.71007	-1.24654	
-11.2689	1.02684	-0.977124	
-12.9871	0.943151	-1.12488	
-11.2137	0.965528	-0.986554	
-11.0446	0.553448	-1.02239	
-11.0016	0.495631	-1.03316	
-11.704	1.36962	-0.951799	
-15.0513	1.42353	-1.24639	
-11.7146	1.43872	-0.952859	
-13.528	1.02505	-1.12007	
-11.7541	0.965827	-0.957895	
-13.435	1.04082	-1.1037	
-13.3739	1.21008	-1.09832	
-15.1704	1.26463	-1.25683	
-11.7489	1.19252	-0.957129	
-11.2577	1.8275	-0.978943	
-12.9778	1.91186	-1.12635	
-13.0329	1.83465	-1.1181	
-13.0965	1.04863	-1.11004	
-11.3282	1.0111	-0.968259	
-13.0194	1.09426	-1.12	
-9.67291	1.10778	-0.812157	
-13.1693	1.09436	-1.10289	
-11.4975	0.92332	-0.950812	
-11.5357	0.983948	-0.948655	
-14.9941	0.912712	-1.24603	
-9.81472	1.65028	-0.799909	
-9.86852	1.64109	-0.797841	
-13.2363	1.58611	-1.09841	
-11.0245	0.621253	-1.02734	
-9.38322	0.607584	-0.862106	
-12.8385	0.544593	-1.15224	
-12.8591	0.626188	-1.14795	
-13.0944	0.883867	-1.11028	
-11.3456	0.814004	-0.965921	
-11.3213	0.883506	-0.969228	
-9.63209	0.94284	-0.817271	
-9.579	0.823889	-0.824901	
-11.2521	0.86549	-0.979868	
-11.6975	0.577518	-0.951202	
-13.4028	0.659851	-1.10039	
-11.7592	0.634606	-0.958675	
-12.8339	0.0913029	-1.15322	
-11.0549	0.141129	-1.0199	
-11.481	1.15841	-0.951958	
-14.9833	1.18235	-1.24626	
-9.82374	1.11752	-0.799446	
-13.5467	0.938839	-1.12487	
-10.1811	0.99711	-0.842501	
-11.5142	0.516229	-0.949778	
-13.2503	0.597248	-1.09775	
-11.5886	0.53029	-0.947074	
-13.0721	1.25683	-1.11294	
-13.0521	1.17353	-1.1155	
-11.2959	1.22905	-0.972926	
-13.5677	1.10599	-1.13107	
-11.9039	1.05145	-0.998339	
-11.8607	1.1866	-0.981886	
-11.9137	1.17077	-1.00311	
-14.6966	1.39834	-1.27401	
-9.5777	1.4857	-0.825101	
-11.3457	1.4682	-0.965913	
-13.3862	0.907417	-1.09911	
-11.6255	0.841878	-0.947297	
-15.2907	0.492781	-1.28559	
-10.1108	0.543817	-0.820826	
-11.8674	0.570722	-0.984096	
-11.6455	1.72433	-0.947905	
-11.6014	1.78876	-0.947022	
-11.5158	0.853718	-0.94969	
-11.4287	0.389993	-0.95642	
-9.72841	0.316743	-0.806302	
-11.3745	0.343184	-0.962291	
-11.5492	0.780432	-0.948068	
-9.86036	0.84375	-0.798025	
-11.6192	0.770799	-0.947177	
-11.4644	0.577671	-0.953247	
-12.7366	1.02428	-1.17566	
-12.9387	0.237428	-1.1329	
-11.2468	0.153222	-0.980768	
-11.1792	0.163431	-0.993025	
-13.0297	0.159631	-1.11854	
-11.6687	1.80219	-0.949057	
-9.99082	1.86234	-0.801885	
-11.7475	1.80354	-0.956932	
-11.5767	0.329138	-0.947243	
-13.3591	0.30982	-1.09756	
-13.307	0.244444	-1.09643	
-11.6088	0.391669	-0.947054	
-9.50058	1.03303	-0.838118	
-11.5771	0.717798	-0.947235	
-11.4955	0.718603	-0.950944	
-9.82565	0.665477	-0.799353	
-11.6085	0.658642	-0.947052	
-9.72685	1.87015	-0.806448	
-11.3989	1.80864	-0.959495	
-9.83188	1.78424	-0.799062	
-11.4265	1.74797	-0.956635	
-11.674	0.386445	-0.949394	
-11.704	0.441074	-0.951799	
-11.7434	0.365688	-0.956351	
-11.5153	1.25637	-0.949718	
-11.5901	1.24657	-0.947061	
-11.5381	1.3122	-0.948541	
-9.8959	1.30199	-0.797617	
-11.6636	1.27096	-0.948766	
-11.3892	0.276367	-0.96058	
-14.7235	0.292881	-1.26995	
-9.63558	0.234809	-0.816807	
-9.57966	0.216682	-0.8248	
-11.7659	0.891352	-0.959735	
-11.5652	1.48059	-0.947514	
-11.4894	1.4429	-0.951362	
-13.1954	1.51083	-1.10089	
-11.418	1.45569	-0.957487	
-11.5777	1.36546	-0.947224	
-11.6482	1.34038	-0.948014	
-11.3137	1.70558	-0.970296	
-11.3287	1.63351	-0.968188	
-11.2568	1.65739	-0.979095	
-11.1776	0.837679	-0.993328	
-11.2219	0.792044	-0.985084	
-11.2341	1.09876	-0.98293	
-12.9717	1.30603	-1.12733	
-9.50952	1.35315	-0.836497	
-13.3379	0.166399	-1.09682	
-11.5483	0.169498	-0.948102	
-12.8898	1.40455	-1.14189	
-13.0552	0.41495	-1.11508	
-13.1078	0.474418	-1.10878	
-13.3429	1.05334	-1.09695	
-11.676	0.984567	-0.949527	
-11.6394	1.13834	-0.947683	
-11.2742	0.452043	-0.976272	
-12.9791	0.374434	-1.12613	
-9.50769	0.42015	-0.836827	
-12.9022	0.484457	-1.13951	
-11.792	0	-0.964468	
-11.8087	0.0667918	-0.967968	
-11.8564	0	-0.980548	
-11.792	2	-0.964468	
-10.0527	1.94291	-0.809463	
-10.0138	2	-0.804213	
-11.8296	0.853126	-0.972984	
-11.8564	2	-0.980548	
-13.5308	1.92333	-1.12074	
-9.74406	0.506745	-0.80489	
-11.3988	0.56183	-0.959513	
-11.4065	0.636864	-0.958675	
-11.3375	0.546278	-0.967	
-11.3382	0.617676	-0.966903	
-13.4472	0.078087	-1.10523	
-13.4073	1.56345	-1.10079	
-10.0439	1.62497	-0.808109	
-11.7837	1.57191	-0.962864	
-13.5494	0.153301	-1.12561	
-13.5536	0.252546	-1.12681	
-10.1894	0.211952	-0.845929	
-11.4699	0.650538	-0.952805	
-13.127	0.718414	-1.10677	
-11.4085	0.798942	-0.95847	
-11.4755	0.786413	-0.952369	
-9.64622	0.678765	-0.815425	
-11.3482	0.741319	-0.965577	
-13.6122	1.80752	-1.14802	
-11.8557	1.74768	-0.98033	
-13.5345	1.83308	-1.12166	
-11.4161	1.20637	-0.957683	
-12.8391	1.92648	-1.15212	
-12.7834	1.86025	-1.16443	
-11.8754	0.344499	-0.986855	
-11.9013	0.410465	-0.997182	
-13.4442	0.282592	-1.10483	
-13.514	0.338159	-1.11684	
-13.1708	0.251286	-1.10276	
-9.81195	0.217721	-0.800059	
-13.1638	0.164212	-1.10335	
-12.7395	0.230355	-1.17495	
-13.295	1.93673	-1.0965	
-11.8441	1.26103	-0.976899	
-11.9077	1.24459	-1.00014	
-11.8291	1.32491	-0.972857	
-13.6075	1.31978	-1.1459	
-13.4696	0.804788	-1.10849	
-13.5414	0.759874	-1.12345	
-11.7709	0.714139	-0.960572	
-11.3972	0.206449	-0.959687	
-9.67388	0.138218	-0.812043	
-11.0775	1.72394	-1.01458	
-11.0425	1.78328	-1.02289	
-12.8293	1.79352	-1.15419	
-11.4751	1.03613	-0.952402	
-13.256	1.05319	-1.09752	
-11.599	0.992616	-0.947022	
-9.88116	1.10914	-0.797661	
-13.4789	0.204267	-1.11002	
-11.6826	0.22975	-0.949992	
-11.4512	0.863551	-0.954356	
-11.4331	0.938032	-0.956	
-10.0912	1.76807	-0.816468	
-13.4956	1.69808	-1.11306	
-11.7161	1.73846	-0.953014	
-11.773	0.425321	-0.960942	
-11.7291	0.500006	-0.954503	
-11.6326	0.456585	-0.947472	
-11.6601	0.51622	-0.948575	
-11.1542	0.232607	-0.997962	
-11.3283	1.33248	-0.96825	
-11.4038	1.52656	-0.958965	
-13.0367	1.55451	-1.11757	
-13.1128	1.60907	-1.10825	
-9.50582	0.903738	-0.837164	
-12.8477	0.902651	-1.15031	
-11.654	0	-0.948271	
-11.5828	0	-0.947142	
-11.6054	0.051764	-0.947034	
-11.5144	0	-0.949767	
-11.5357	0.0537652	-0.948655	
-11.4324	1.3862	-0.956064	
-11.3617	1.3946	-0.963857	
-11.4383	1.26486	-0.955513	
-9.77901	1.21166	-0.802134	
-11.3954	1.32507	-0.959883	
-11.4664	1.32038	-0.953082	
-10.1697	0.814456	-0.838168	
-11.202	1.88165	-0.988693	
-11.6298	0.594595	-0.947398	
-10.218	1.38879	-0.860397	
-11.876	1.39048	-0.987085	
-12.8511	0.75837	-1.1496	
-11.0999	0.821275	-1.00951	
-11.9086	0.75743	-1.00057	
-12.8989	1.60921	-1.14015	
-11.1909	1.68446	-0.990783	
-9.47646	1.75212	-0.842639	
-12.9541	1.73879	-1.13025	
-12.8149	1.59941	-1.15732	
-11.1222	1.66432	-1.00464	
-13.3961	1.93182	-1.09984	
-11.7632	1.87756	-0.959298	
-11.9168	0.146224	-1.00474	
-10.2156	1.10891	-0.858947	
-10.2097	0.544978	-0.855678	
-12.8509	1.32361	-1.14964	
-11.2013	0.0813768	-0.988824	
-11.1639	0	-0.99602	
-10.0973	1.21454	-0.817765	
-11.8048	1.14931	-0.967113	
-11.6277	1.87232	-0.947345	
-11.1045	1.24379	-1.0085	
-11.0663	1.29411	-1.01719	
-11.1705	1.24385	-0.994712	
-11.2685	1.16415	-0.977183	
-14.5554	0.398041	-1.29973	
-12.736	1.20048	-1.17582	
-11.0175	1.11243	-1.0291	
-11.204	0.560548	-0.988321	
-11.2688	0.523541	-0.977138	
-13.4052	1.65544	-1.10061	
-11.5661	0.109422	-0.947489	
-9.66905	1.86761	-0.812611	
-11.4102	1.9304	-0.958287	
-10.0099	0.741046	-0.803779	
-11.8276	0.676971	-0.972479	
-9.44984	0.693471	-0.847874	
-11.2166	0.726744	-0.98603	
-11.2836	0.760134	-0.974805	
-7.79488	0.61385	-0.688333	
-9.29297	0.170423	-0.883992	
-9.9918	1.15632	-0.801973	
-9.97913	1.09603	-0.800907	
-11.7444	1.1197	-0.956487	
-9.43538	1.85832	-0.850826	
-11.1964	1.8111	-0.989744	
-11.856	1.45652	-0.98043	
-11.8165	1.39372	-0.969761	
-9.49272	1.94352	-0.839568	
-11.2327	2	-0.983171	
-11.6803	0.79232	-0.949822	
-9.99731	0.850283	-0.802487	
-11.6558	0.718066	-0.948358	
-11.1058	0.180772	-1.00821	
-11.6302	1.51591	-0.947407	
-13.3308	1.59438	-1.09666	
-9.97446	1.48768	-0.800554	
-11.749	1.50665	-0.957141	
-9.30227	1.83632	-0.881596	
-12.943	1.53312	-1.13215	
-9.45581	1.54488	-0.846679	
-11.0075	1.71558	-1.03166	
-13.5835	1.66217	-1.13641	
-11.1996	0.358669	-0.98914	
-11.143	0.310734	-1.00027	
-10.0503	1.39867	-0.809077	
-11.7882	1.4537	-0.963725	
-11.7677	1.33896	-0.960045	
-11.5621	0.46147	-0.947606	
-9.83511	0.394907	-0.79892	
-13.192	0.433969	-1.10114	
-9.84832	1.42238	-0.798394	
-11.5027	1.37641	-0.950477	
-11.8147	0.606335	-0.969335	
-11.0512	0.879786	-1.02079	
-11.0626	0.752034	-1.01808	
-11.0193	0.815753	-1.02865	
-12.7985	1.38066	-1.16098	
-13.6053	1.52165	-1.14495	
-11.8226	1.51493	-0.971215	
-10.0826	1.08423	-0.814736	
-11.0196	1.59815	-1.02856	
-9.87505	2	-0.797732	
-12.9003	1.16076	-1.13987	
-9.42839	1.18618	-0.852281	
-9.70588	1.14984	-0.808522	
-11.2325	1.23168	-0.983209	
-11.0784	1.16237	-1.01438	
-11.3843	1.68406	-0.961143	
-8.28811	0.333428	-0.652938	
-11.0201	1.52552	-1.02844	
-11.0666	0.488947	-1.01713	
-9.55641	1.59304	-0.828474	
-11.855	1.57917	-0.980103	
-11.0447	1.65719	-1.02237	
-11.7595	0.559694	-0.958719	
-11.7974	0.490232	-0.965551	
-11.0835	0.956713	-1.01321	
-11.1542	0.989568	-0.997974	
-11.3584	1.75665	-0.964275	
-9.5908	1.77244	-0.823112	
-9.42965	1.72615	-0.852017	
-9.5377	0.310718	-0.831578	
-9.48514	0.290342	-0.840987	
-9.49618	1.29539	-0.838927	
-11.654	2	-0.948271	
-9.62306	0.482459	-0.818491	
-10.0012	1.30941	-0.80287	
-11.4923	0.109198	-0.951156	
-11.1071	1.03572	-1.00792	
-11.1682	1.07584	-0.995177	
-11.1639	2	-0.99602	
-10.1619	0.633303	-0.835436	
-11.8366	0.422033	-0.974823	
-8.37629	0.266461	-0.6656	
-11.0905	0.262786	-1.01162	
-9.92015	1.66446	-0.797941	
-9.85744	1.54135	-0.798104	
-11.0484	0.371856	-1.02147	
-9.37292	0.429791	-0.864452	
-9.7516	1.56661	-0.804248	
-9.76602	1.62234	-0.803093	
-7.89668	1.2804	-0.6717	
-11.0166	0.68957	-1.02932	
-9.29357	0.753859	-0.883838	
-11.914	0.285029	-1.00328	
-9.29765	1.26259	-0.882782	
-13.6233	0	-1.15346	
-9.30561	1.39629	-0.880743	
-12.7473	1.45609	-1.17303	
-11.0247	0.308608	-1.0273	
-12.7979	0.682551	-1.16111	
-11.0137	0.423502	-1.03007	
-11.9155	2	-1.00405	
-9.7679	0.980727	-0.802949	
-12.8092	1.51237	-1.15859	
-11.1247	1.11653	-1.0041	
-9.82546	0.277428	-0.799362	
-13.2058	0.33864	-1.10019	
-9.36239	1.08627	-0.866888	
-9.92234	0.0993244	-0.797995	
-11.6782	0.0548078	-0.949677	
-7.64819	1.55961	-0.718992	
-11.9154	1.72118	-1.004	
-10.1728	1.94239	-0.839305	
-10.1646	1.87535	-0.836364	
-9.41997	0.473525	-0.854056	
-9.38346	0.331482	-0.862051	
-10.1075	1.63205	-0.820046	
-10.2052	1.59521	-0.853337	
-11.1742	1.47977	-0.993987	
-11.714	0.160133	-0.952801	
-9.97443	0.114041	-0.800552	
-9.52504	1.45658	-0.833752	
-10.07	0.130179	-0.812356	
-11.3824	0.972536	-0.961362	
-11.8872	0.0752793	-0.991283	
-9.76495	0.0509452	-0.803175	
-9.72	1.00206	-0.807105	
-7.90747	0.356044	-0.670166	
-11.3423	0.0762643	-0.966353	
-9.41004	1.44431	-0.856182	
-11.7216	0	-0.953623	
-8.50858	0.460204	-0.70999	
-8.21562	0.946643	-0.648611	
-11.0286	2	-1.03658	
-11.1076	2	-1.02804	
-11.2712	2	-1.01478	
-11.3572	2	-1.01019	
-11.1882	2	-1.02077	
-13.2412	2	-1.15533	
-13.4194	2	-1.16147	
-11.8835	2	-1.03297	
-11.8002	2	-1.02099	
-11.6225	2	-1.00703	
-13.1517	2	-1.15663	
-14.3698	-0.0721374	-1.34469	
-9.29634	-0.0524234	-0.896849	
-9.56346	-1.94219	-0.902928	
-11.2055	-1.93265	-1.05022	
-11.2459	-2	-1.05148	
-11.0649	-0.0610541	-1.04704	
-11.2092	-0.0745946	-1.05032	
-11.3512	-0.063891	-1.05537	
-11.9543	-1.2856	-1.04587	
-11.8926	-1.32684	-1.07217	
-11.9543	-1.35721	-1.04587	
-11.9543	-0.0721374	-1.04587	
-13.662	-0.215036	-1.19528	
-11.9543	-0.143615	-1.04587	
-11.903	-0.177622	-1.0709	
-10.2465	-0.286611	-0.896462	
-11.9041	-0.326516	-1.07075	
-13.662	-0.358269	-1.19528	
-11.9043	-0.255005	-1.07072	
-11.9543	-0.714404	-1.04587	
-13.6026	-0.754353	-1.22133	
-11.9543	-0.786116	-1.04587	
-11.3915	-2	-1.05704	
-13.0541	-1.91632	-1.20459	
-11.3188	-2	-1.05409	
-9.31962	-2	-0.897105	
-9.29744	-1.94543	-0.89686	
-10.9543	-2	-1.04587	
-11.9053	-1.39944	-1.07057	
-11.9543	-1.42879	-1.04587	
-8.53877	-2	-0.747051	
-13.662	-1.92786	-1.19528	
-10.187	-2	-0.922525	
-11.1003	-2	-1.04766	
-11.0645	-1.9425	-1.04703	
-13.2128	-1.91894	-1.2113	
-11.4639	-2	-1.06014	
-9.82893	-2	-0.913775	
-11.9543	-1.21388	-1.04587	
-11.8925	-1.25457	-1.07218	
-13.662	-1.78496	-1.19528	
-8.49492	-1.82622	-0.770942	
-11.9543	-1.85639	-1.04587	
-11.1491	-0.824164	-1.04871	
-11.0713	-0.840188	-1.04714	
-12.8339	-0.897364	-1.19759	
-14.3698	-1.07055	-1.34469	
-12.7275	-1.0996	-1.19584	
-14.4299	-0.999321	-1.34519	
-11.3336	-1.67801	-1.05467	
-11.4047	-1.66711	-1.0576	
-13.045	-1.60664	-1.20422	
-11.2172	-0.446895	-1.05056	
-14.6536	-0.354649	-1.35004	
-11.1634	-0.398171	-1.04906	
-13.096	-1.83141	-1.20631	
-9.73986	-1.78071	-0.91003	
-13.0976	-1.74009	-1.20638	
-13.2579	-1.7075	-1.21313	
-11.4687	-1.71822	-1.06035	
-11.5158	-1.78279	-1.06234	
-13.2979	-1.79397	-1.21479	
-11.4156	-1.60358	-1.05806	
-11.3703	-1.5428	-1.05615	
-9.60848	-1.84473	-0.904584	
-13.4165	-1.45461	-1.22058	
-11.6266	-1.49442	-1.06709	
-11.674	-1.53304	-1.06946	
-15.0912	-1.28582	-1.36836	
-11.6057	-1.23395	-1.06609	
-14.992	-1.30809	-1.36361	
-15.1764	-1.05755	-1.37225	
-10.1281	-1.02435	-0.925426	
-10.0795	-0.98494	-0.924865	
-11.5278	-0.659051	-1.06283	
-11.4608	-0.685531	-1.06001	
-13.2217	-0.738859	-1.21167	
-13.1971	-1.33862	-1.21064	
-13.2068	-1.25231	-1.21105	
-14.3698	-1.42879	-1.34469	
-14.3698	-1.49933	-1.34469	
-12.7466	-1.4654	-1.19607	
-11.0417	-0.918262	-1.0467	
-11.0939	-1.01699	-1.04753	
-9.3778	-0.957788	-0.897972	
-14.6355	-0.881052	-1.34947	
-11.2279	-0.965074	-1.0509	
-11.2913	-0.954992	-1.05306	
-9.84536	-0.86716	-0.914419	
-13.3273	-0.888326	-1.21616	
-11.6017	-0.817828	-1.06591	
-12.8375	-0.589278	-1.19767	
-12.8545	-0.676587	-1.19806	
-12.9198	-0.618429	-1.19982	
-13.5141	-0.0745363	-1.2241	
-11.5409	-1.18703	-1.06335	
-11.4789	-1.16574	-1.06079	
-11.4743	-0.496062	-1.06059	
-13.263	-0.503541	-1.21332	
-11.5099	-0.439924	-1.06209	
-13.2994	-0.698429	-1.21486	
-11.3589	-1.23016	-1.05569	
-12.9884	-1.19538	-1.20208	
-11.3095	-1.27217	-1.05374	
-11.3503	-1.33945	-1.05534	
-9.6704	-1.2898	-0.907069	
-13.4197	-0.976561	-1.22073	
-13.3213	-0.96716	-1.21587	
-11.6674	-1.03431	-1.06913	
-14.8526	-1.00672	-1.35781	
-11.5254	-0.987297	-1.06273	
-11.4739	-0.93866	-1.06057	
-13.0389	-0.379548	-1.20398	
-13.0481	-0.470375	-1.20435	
-11.3942	-0.425581	-1.05715	
-13.5799	-1.87861	-1.22318	
-11.8582	-1.79701	-1.07439	
-11.7926	-1.84585	-1.07441	
-11.5088	-0.176311	-1.06205	
-11.5172	-0.252878	-1.0624	
-9.86089	-0.202898	-0.915043	
-13.2847	-0.126149	-1.21421	
-13.2936	-0.277581	-1.2146	
-13.3431	-0.192415	-1.21693	