<VTKFile type="UnstructuredGrid" version="0.1" byte_order="LittleEndian">
	<UnstructuredGrid>
		<Piece NumberOfPoints="3959" NumberOfCells="111">
			<CellData Scalars="scalars">
				<DataArray type="Float64" Name="Doublet Strengths" NumberOfComponents="1" Format="ascii">
-0.0767028	
-0.0262484	
0.603236	
0.0125222	
0.067255	
0.436222	
0.678429	
0.176257	
0.651412	
0.271336	
0.123817	
-0.0162609	
0.388573	
-0.036075	
0.575937	
0.682126	
0.765444	
0.51466	
0.162109	
-0.0103652	
0.340814	
-0.0374703	
0.0179602	
-0.0272067	
0.466223	
-0.0373687	
0.705593	
0.424264	
0.718981	
0.371375	
0.504105	
0.716061	
0.0497206	
0.697584	
0.675566	
0.248074	
0.550728	
-0.117287	
0.382957	
0.445336	
-0.0946743	
0.470222	
0.480237	
0.368376	
0.321192	
0.47753	
0.395491	
0.477608	
0.404111	
0.272575	
0.232694	
0.389732	
0.217196	
0.489937	
0.466727	
0.407141	
0.49473	
0.392487	
0.42136	
0.418377	
0.486339	
-0.118489	
0.267762	
0.162283	
0.0551988	
0.457017	
0.326135	
0.105341	
0.379725	
-0.0652338	
-0.0186693	
0.235017	
0.48581	
0.453005	
0.325652	
0.0614214	
0.206214	
0.329457	
0.0317931	
0.120931	
0.39645	
0.425855	
0.0109487	
0.0453191	
0.0223443	
0.054926	
0.487728	
0.352626	
0.342083	
0.492598	
0.00306234	
0.0221508	
0.0390051	
0.0146696	
0.0585032	
0.0313709	
0.0505499	
0.0821356	
0.351083	
0.283378	
0.492871	
0.461416	
0.240637	
0.410384	
0.472982	
0.30159	
0.381277	
0.46058	
0.167713	
-0.00645592	
0.166231	
				</DataArray>
				<DataArray type="Float64" Name="Velocity Potential" NumberOfComponents="1" Format="ascii">
0.497734	
0.387547	
-0.339781	
0.435898	
0.382006	
-0.0339815	
-0.356878	
0.267054	
-0.319811	
0.161241	
0.159807	
0.36608	
-0.206793	
0.396579	
-0.210134	
-0.368152	
-0.58044	
-0.117976	
0.116707	
0.357791	
-0.145232	
0.399326	
0.307598	
0.383919	
-0.295832	
0.478373	
-0.413066	
-0.243191	
-0.503644	
0.053682	
-0.276244	
-0.465193	
0.256861	
-0.397614	
-0.406268	
-0.00256542	
-0.283514	
0.528449	
-0.338218	
-0.115663	
0.536843	
-0.292642	
-0.213472	
0.0710486	
0.117588	
-0.413938	
-0.38796	
-0.312406	
-0.383705	
0.170427	
0.217789	
-0.0171352	
0.229146	
-0.369462	
-0.433812	
-0.39177	
-0.330296	
-0.360857	
-0.397268	
-0.407751	
-0.251608	
0.551018	
0.144842	
0.289603	
0.399699	
-0.0946345	
0.0807243	
0.351637	
0.00684855	
0.515738	
0.473577	
0.212092	
-0.326496	
-0.134797	
0.126898	
0.340838	
0.285143	
0.103546	
0.486385	
0.389105	
0.0427148	
0.000553468	
0.470732	
0.379579	
0.487647	
0.355498	
-0.0745549	
0.0940481	
0.0924277	
-0.0895168	
0.496053	
0.441195	
0.399768	
0.491366	
0.346782	
0.420452	
0.366006	
0.439045	
0.0935445	
0.128977	
-0.0860197	
-0.048464	
0.254779	
0.0142028	
-0.0556283	
0.170095	
0.0309966	
-0.0469125	
0.276222	
0.511108	
0.338048	
				</DataArray>
			</CellData>
			<Points>
				<DataArray type="Float64" Name="Position" NumberOfComponents="3" Format="ascii">
0	1	0	
-0.0556941	1	-0.0461597	
-0.0387961	1	-0.281373	
-0.0813001	1	-0.210952	
-0.0844436	1	-0.0957871	
0.17604	1	0.00651238	
0.263074	1	-0.107088	
0.300136	1	-0.354528	
0.289662	1	-0.214139	
0.0337367	1.3	-0.254059	
-0.00524728	1.21229	-0.235165	
0.0678225	1	0.0251526	
0.125176	1	0.0252367	
0.22334	1	-0.0350678	
0	1.07537	0	
-0.0425512	1.05368	-0.0339075	
0	1.22383	0	
0	1.26176	0	
-0.0266066	1.24543	-0.0243169	
-0.0385513	1.15579	-0.0349103	
0	1.13562	0	
0	1.18344	0	
-0.0662217	1.08519	-0.0761415	
-0.0796875	1.04325	-0.100674	
0.209703	1.3	-0.460418	
0.177149	1.16535	-0.443635	
0.105216	1.3	-0.348211	
0.12703	1.04325	0.0186742	
0.293882	1.3	-0.411817	
0.248952	1.3	-0.265225	
0.295624	1.16535	-0.375233	
0.203153	1.3	-0.156246	
-0.00944542	1.3	-0.176995	
-0.0467389	1.22596	-0.0731665	
-0.0370117	1.23126	-0.15466	
-0.0538859	1.19107	-0.119981	
-0.0691331	1.06209	-0.19645	
-0.0472134	1.14967	-0.18916	
-0.0613907	1.15498	-0.103266	
0.0224534	1.11572	-0.311607	
-0.0310369	1.0958	-0.251241	
0.0505579	1.22041	-0.309076	
-0.0306813	1.3	-0.114532	
-0.0742779	1.08976	-0.140378	
-0.068392	1.12097	-0.120963	
-0.0317151	1.20159	-0.028618	
0.233101	1.079	-0.484431	
0.311829	1.1495	-0.540104	
0.0988861	1.17169	-0.374288	
-0.0510969	1.18448	-0.0671296	
-0.0598204	1.12458	-0.0715611	
-0.03801	1.10809	-0.0312698	
-0.0375585	1.26613	-0.0526212	
-0.0254545	1.3	-0.0272616	
-0.035034	1.3	-0.0653948	
0.33	1.3	-0.571577	
-0.0414303	1.26192	-0.0955801	
0	1.3	0	
0.096349	1.07891	-0.388834	
0.0506403	1.05368	0.0198967	
0.0495089	1.15579	0.0159312	
0.0343623	1.24543	0.0108835	
0.158005	1.3	-0.0803178	
0.206283	1.21229	-0.113038	
0.187424	1.14967	-0.0536919	
0.152445	1.23126	-0.0452768	
0.130849	1.19107	-0.0133237	
0.0867335	1.22596	0.0038938	
0.204698	1.06209	-0.0383542	
0.120126	1.15498	0.00153306	
0.233099	1.0958	-0.0987416	
0.114529	1.3	-0.0306954	
0.10349	1.26192	-0.0119103	
0.138953	1.12097	-0.00125217	
0.15871	1.08976	-0.00586259	
0.0406415	1.20159	0.0131571	
0.302979	1.079	-0.444087	
0.258632	1.11572	-0.175249	
0.2747	1.17169	-0.272782	
0.242388	1.22041	-0.198322	
0.0836844	1.18448	0.0106864	
0.0460855	1.10809	0.0172827	
0.091884	1.12458	0.0160254	
0.0990513	1.08519	0.0192789	
0.0643505	1.26613	0.00621603	
0.0363365	1.3	0.00841347	
0.0741506	1.3	-0.00235706	
0.288565	1.07891	-0.277858	
0.0131139	1.40499	-0.217104	
0.0633054	1.37727	-0.295068	
0.224593	1.43129	-0.476918	
0.122123	4.13964	-0.237141	
0.118641	4.10232	-0.24417	
0.138751	4.12048	-0.208855	
0.0820763	2.96842	-0.123545	
0.0840342	3.00823	-0.126493	
0.0603837	2.98021	-0.1542	
0.0938214	3.20718	-0.141225	
0.0710925	3.18051	-0.168273	
0.0918631	3.16737	-0.138277	
0.105484	3.85899	-0.226789	
0.125051	3.84201	-0.188234	
0.127011	3.88184	-0.191183	
0.097731	3.28665	-0.14711	
0.0738151	3.26148	-0.180844	
0.0957781	3.24695	-0.14417	
0.111417	3.56486	-0.167711	
0.113394	3.60504	-0.170687	
0.0897546	3.57487	-0.210023	
0.102681	3.74145	-0.202524	
0.098215	3.70445	-0.209051	
0.119265	3.72439	-0.179524	
0.0892258	3.50212	-0.187752	
0.107523	3.4857	-0.16185	
0.109476	3.52539	-0.164789	
0.0960215	3.66005	-0.205016	
0.115348	3.64477	-0.173628	
0.117283	3.68409	-0.17654	
0.00395795	1.83494	-0.0628471	
-0.00352386	1.79153	-0.0720399	
0.0254059	1.81645	-0.0382424	
0.00745437	1.95234	-0.0768342	
0.0312745	1.93574	-0.047076	
0.0332323	1.97554	-0.050023	
0.0273593	1.85615	-0.0411826	
0.00191731	1.33897	-0.00288604	
-0.0257663	1.33017	-0.0334712	
0.146526	4.57603	-0.263589	
0.143593	4.53975	-0.265483	
0.160275	4.55803	-0.241254	
0.00387392	1.37875	-0.00583122	
-0.0203717	1.3631	-0.0284566	
0.0136606	1.57769	-0.0205627	
-0.0109723	1.55967	-0.0441318	
0.0117251	1.53834	-0.0176492	
0.00778786	1.45831	-0.0117227	
-0.019795	1.43735	-0.0403681	
0.00585929	1.41911	-0.00881971	
0.0664356	2.65048	-0.100002	
0.0443862	2.62346	-0.121087	
0.0644585	2.6103	-0.0970263	
0.110993	3.93875	-0.224626	
0.108314	3.89895	-0.224746	
0.128992	3.92211	-0.194165	
0.0430068	2.17423	-0.0647361	
0.0449721	2.21418	-0.0676943	
0.0171371	2.19178	-0.102581	
0.0410608	2.13467	-0.0618069	
0.0178203	2.11235	-0.0839892	
0.0391036	2.09489	-0.0588608	
-0.00853701	1.67373	-0.0601759	
0.0175858	1.65748	-0.026471	
0.0195339	1.69708	-0.0294034	
0.0308558	2.38506	-0.106297	
0.052807	2.37345	-0.0794878	
0.0547484	2.41291	-0.0824102	
0.0845323	3.3813	-0.174597	
0.0801904	3.34137	-0.177891	
0.101651	3.36634	-0.153011	
-1.99949e-05	1.75228	-0.0562973	
-0.00556194	1.71372	-0.0608563	
0.0214862	1.73677	-0.0323421	
0.121218	3.7641	-0.182464	
0.229097	6.12877	-0.380233	
0.23673	6.11219	-0.356339	
0.238343	6.14497	-0.358766	
0.269235	6.27895	-0.632982	
0.264644	6.3	-0.611736	
0.268978	6.3	-0.633241	
0.256725	6.2585	-0.570807	
0.253225	6.3	-0.549468	
0.259272	6.3	-0.583562	
0.240853	6.27503	-0.470318	
0.243074	6.3	-0.481589	
0.24419	6.26032	-0.498273	
0.0371385	2.05494	-0.0559028	
0.0113606	2.0272	-0.0822708	
0.0351875	2.01528	-0.0529661	
0.156368	4.4786	-0.235373	
0.137985	4.44908	-0.263585	
0.15441	4.43881	-0.232426	
0.103603	3.40601	-0.155948	
0.150834	4.69551	-0.286049	
0.166141	4.67728	-0.250085	
0.168109	4.71727	-0.253046	
0.0234485	1.77666	-0.0352959	
-0.0203441	1.37911	-0.142154	
0.162239	4.59796	-0.244211	
0.116508	4.05569	-0.237526	
0.134856	4.04132	-0.202993	
0.136795	4.08074	-0.205911	
0.0553906	2.87037	-0.143768	
0.076203	2.84903	-0.114705	
0.0781665	2.88895	-0.11766	
0.138703	2.9706	-0.382727	
0.102816	3.0258	-0.322464	
0.158734	3.05813	-0.41101	
0.127063	4.25795	-0.25534	
0.144622	4.23983	-0.217692	
0.146585	4.27974	-0.220647	
0.048878	2.29358	-0.0735737	
0.0254058	2.27081	-0.0968601	
0.0469343	2.25407	-0.0706479	
0.140721	4.16054	-0.21182	
0.130922	3.96135	-0.197071	
0.201303	5.39204	-0.303012	
0.186818	5.35785	-0.342752	
0.199338	5.3521	-0.300054	
0.200869	5.61543	-0.350764	
0.211085	5.59088	-0.317736	
0.213041	5.63063	-0.32068	
0.177881	4.91593	-0.267756	
0.161074	4.88739	-0.30555	
0.175942	4.87651	-0.264837	
0.206656	5.72295	-0.360312	
0.216949	5.71009	-0.326564	
0.218882	5.74938	-0.329473	
0.19152	5.19317	-0.288286	
0.17643	5.16786	-0.321863	
0.189574	5.15361	-0.285357	
0.13187	1.40066	-0.379105	
0.245047	4.6839	-0.541345	
0.28774	4.76275	-0.614282	
0.289569	4.61285	-0.612434	
0.0166687	1.60413	-0.215669	
0.0310403	1.68525	-0.239282	
0.0660307	1.59173	-0.296177	
-0.0123309	1.46511	-0.157542	
-0.0281032	1.42352	-0.0941202	
0.222584	1.58809	-0.477094	
0.32559	1.66135	-0.576033	
0.327912	1.47107	-0.573687	
0.212275	1	-0.367671	
0.156963	1	-0.437189	
0.29378	1	-0.508841	
0.139396	1	-0.241441	
0.0406189	1	-0.357924	
0.036454	1	-0.0631401	
-0.09366	1	-0.149199	
0.0817425	1	-0.141582	
0.13353	1.51471	-0.381308	
0.239689	1.75117	-0.496618	
0.323034	1.87078	-0.578616	
0.15371	1.72943	-0.405049	
0.0870055	1.8262	-0.322419	
0.0798984	1.70991	-0.313958	
0.00109626	1.72825	-0.171192	
0.0333003	1.78365	-0.239813	
0.315268	2.50708	-0.586464	
0.224877	2.58736	-0.492402	
0.312832	2.70669	-0.588925	
0.2366	5.2023	-0.5249	
0.246829	5.30244	-0.547523	
0.282508	5.19143	-0.619569	
0.22705	3.37025	-0.503487	
0.303639	3.45998	-0.598216	
0.305851	3.27872	-0.59598	
0.11605	3.3133	-0.336944	
0.116985	3.41436	-0.334721	
0.154802	3.37035	-0.401966	
0.0577965	2.96793	-0.204673	
0.069372	3.02031	-0.24556	
0.0750073	2.96211	-0.266685	
0.0633918	1.47326	-0.294052	
0.154287	2.86098	-0.405991	
0.198279	2.73513	-0.462562	
0.128768	2.744	-0.370876	
0.232548	2.83797	-0.504281	
0.0876367	2.78018	-0.303095	
0.103958	2.84297	-0.330141	
0.238109	2.01676	-0.499017	
0.320381	2.08817	-0.581297	
0.131007	1.62234	-0.378599	
0.202782	2.9562	-0.469499	
0.233459	3.05995	-0.5081	
0.233281	3.21432	-0.509713	
0.308118	3.09294	-0.593689	
0.230972	2.22219	-0.494439	
0.31779	2.30047	-0.583915	
0.17456	1.87354	-0.429309	
0.100009	2.56352	-0.330264	
0.0841822	2.47902	-0.306542	
0.0591351	2.52843	-0.25726	
0.236831	3.52046	-0.517733	
0.0946792	3.47213	-0.276614	
0.0886072	3.41509	-0.262945	
-0.00519852	1.59964	-0.0408093	
-0.0173642	1.59755	-0.0726301	
0.239908	6.17679	-0.361122	
0.241485	6.20885	-0.363496	
0.231433	6.17188	-0.38322	
-0.00598146	1.83513	-0.106391	
0.235733	6.10164	-0.474198	
0.235833	6.05391	-0.482308	
0.228683	6.0642	-0.436815	
-0.0315733	1.36665	-0.0735216	
0.230425	6.11515	-0.43406	
0.15826	4.71895	-0.343468	
0.151173	4.6764	-0.315184	
-0.00738709	1.78592	-0.125935	
0.274625	5.83735	-0.627535	
0.251985	5.85855	-0.558708	
0.273436	5.93478	-0.628737	
0.216204	5.79023	-0.424591	
0.210781	5.74226	-0.403047	
0.209067	5.76772	-0.369117	
0.0953603	3.36769	-0.288259	
0.156688	4.64239	-0.348431	
0.263424	6.25953	-0.604376	
-0.0131924	1.69519	-0.111831	
-0.0162322	1.6451	-0.103874	
0.270955	6.13801	-0.631243	
0.25939	6.17582	-0.584569	
0.270405	6.18314	-0.6318	
0.00984973	2.12401	-0.130053	
0.0150061	2.17431	-0.158379	
0.0180224	2.11897	-0.181506	
0.233623	5.89113	-0.490662	
0.220091	5.85805	-0.432261	
0.222866	5.92179	-0.434657	
-0.0226662	1.51062	-0.106752	
-0.00969054	1.54944	-0.156985	
-0.00848531	1.61435	-0.153564	
0.110088	3.88097	-0.276705	
0.108029	3.83698	-0.275489	
0.120073	3.12032	-0.350292	
0.172664	3.16225	-0.430085	
0.12363	3.22052	-0.353764	
0.0417247	2.69446	-0.1511	
0.0491834	2.70954	-0.214723	
0.0414722	2.65851	-0.188901	
0.131561	4.2865	-0.299775	
0.12926	4.2384	-0.298314	
0.129891	4.29666	-0.251914	
0.232548	6.16275	-0.43522	
0.23491	6.21002	-0.438875	
0.237153	6.1796	-0.467254	
0.231684	5.80085	-0.490688	
0.213045	5.83589	-0.382739	
0.194998	5.04128	-0.42951	
0.180136	4.99207	-0.38918	
0.175741	5.04161	-0.365802	
0.242324	6.14643	-0.504081	
0.251269	6.13681	-0.548801	
0.244036	6.08726	-0.518654	
0.168246	3.27931	-0.423168	
0.0665631	2.59611	-0.269545	
0.0613525	2.65672	-0.254539	
0.10054	2.65254	-0.329185	
0.205308	5.21004	-0.447353	
0.189129	5.15912	-0.401809	
0.186767	5.21948	-0.384857	
0.184192	5.09646	-0.39153	
0.211095	5.12102	-0.467023	
0.18628	3.69555	-0.44719	
0.141609	3.71534	-0.371404	
0.166066	3.79266	-0.413377	
0.219057	5.59175	-0.462468	
0.216626	5.52653	-0.459587	
0.204281	5.55766	-0.407748	
0.279198	5.46259	-0.622914	
0.280836	5.32844	-0.621259	
0.247203	5.41482	-0.548236	
0.0348574	2.53882	-0.130562	
0.0344506	2.50972	-0.18568	
0.0314047	2.49283	-0.13255	
0.226927	6.09472	-0.401566	
0.229497	6.14203	-0.406525	
0.203831	4.95043	-0.456268	
0.244474	4.95321	-0.541879	
0.225014	4.85851	-0.503927	
0.121805	3.49117	-0.341158	
0.146536	3.54337	-0.385226	
0.116508	3.5649	-0.326385	
0.269934	6.22173	-0.632276	
0.269549	6.25322	-0.632664	
0.0210469	2.23527	-0.100538	
0.0348602	2.56725	-0.170825	
0.0237663	2.23472	-0.186709	
0.0360817	2.18146	-0.226071	
0.0837703	3.44459	-0.234427	
0.0807604	3.41426	-0.202086	
-0.00286428	1.88352	-0.124006	
0.0060853	1.83981	-0.174845	
0.146247	2.48956	-0.396785	
0.1525	2.62515	-0.404569	
-0.0110588	1.74262	-0.101166	
0.178956	5.21473	-0.330364	
0.193466	5.23273	-0.291215	
0.058889	2.77356	-0.23898	
0.0716951	2.83097	-0.267616	
0.216832	5.37324	-0.470368	
0.215665	5.28638	-0.471558	
0.196381	5.3459	-0.406061	
0.194259	5.27344	-0.407094	
0.0495666	2.47611	-0.238452	
0.244062	6.01498	-0.52408	
0.230698	6.01443	-0.461182	
0.233539	5.96263	-0.482911	
0.223913	5.97344	-0.428371	
0.112535	3.97685	-0.230098	
0.132881	4.00117	-0.200019	
0.114209	4.01812	-0.237015	
0.120755	4.0346	-0.296791	
0.0964433	3.64795	-0.256997	
0.0931797	3.62138	-0.206259	
0.0836827	3.46587	-0.204145	
0.169446	3.46308	-0.423439	
0.27604	5.72142	-0.626106	
0.2434	5.66794	-0.535285	
0.253633	5.77389	-0.564496	
0.0563226	2.90447	-0.148922	
0.0801293	2.92885	-0.120615	
0.058231	2.94518	-0.152704	
0.167813	4.95841	-0.342599	
0.179008	4.9415	-0.390651	
0.124493	4.21517	-0.255779	
0.122398	4.17564	-0.252096	
0.142669	4.20013	-0.214752	
0.19075	3.58289	-0.454457	
0.144658	3.62692	-0.37979	
0.115268	3.67263	-0.31672	
0.0779718	3.36692	-0.202753	
0.0814158	3.36995	-0.240035	
-0.0214084	1.55369	-0.0890055	
-0.0178869	1.51545	-0.051566	
0.148541	4.3195	-0.223592	
0.0879563	3.23981	-0.278841	
0.076884	3.15957	-0.254159	
0.0703012	3.19775	-0.21886	
0.15282	4.73061	-0.287406	
0.170069	4.75713	-0.255997	
0.024425	2.30496	-0.106435	
0.0508382	2.33343	-0.0765243	
0.0273209	2.34511	-0.107074	
0.103281	3.81781	-0.223661	
0.101714	3.77682	-0.21626	
0.123132	3.80299	-0.185344	
0.233092	6.21179	-0.395473	
0.23179	6.18377	-0.411782	
0.0280888	2.45478	-0.155095	
0.0351276	2.44944	-0.19887	
0.0294439	2.40126	-0.183319	
0.0391553	2.58391	-0.126536	
0.0625201	2.57089	-0.0941085	
0.220795	5.78826	-0.332352	
0.17457	5.12784	-0.313006	
0.145925	4.60946	-0.291691	
0.164196	4.63773	-0.247156	
0.148242	4.65162	-0.287173	
0.198705	5.57432	-0.360578	
0.204569	5.61616	-0.396802	
0.011524	2.06661	-0.0902421	
0.0996896	3.32646	-0.150058	
0.24303	6.24025	-0.365821	
0.0727377	3.22021	-0.17282	
0.0959339	2.40039	-0.327111	
0.143473	4.5624	-0.291897	
0.166766	4.87117	-0.354992	
0.1605	4.84486	-0.327463	
0.0889402	3.52959	-0.243389	
0.0854184	3.49946	-0.224622	
0.0891244	3.53631	-0.197489	
0.240394	6.21983	-0.480605	
0.203422	5.6631	-0.363622	
0.212929	5.65879	-0.431315	
0.185653	5.0739	-0.279454	
0.169662	5.04454	-0.31552	
0.183746	5.03515	-0.276584	
0.0421103	2.65815	-0.135337	
0.0683868	2.69015	-0.102939	
0.0367354	2.61536	-0.159413	
0.0151185	2.15249	-0.0995209	
0.0583238	3.00921	-0.181906	
0.0606135	3.04884	-0.193066	
0.0495016	2.8404	-0.162788	
0.051744	2.88009	-0.188097	
0.0532681	2.83025	-0.212155	
0.0468311	2.79594	-0.178173	
-0.0248198	1.47171	-0.0681958	
0.0953995	3.16675	-0.30145	
-0.0317687	1.33913	-0.098288	
-0.00923153	1.63484	-0.0540856	
-0.0178811	1.59454	-0.113682	
0.0753911	3.30168	-0.187242	
0.0781569	2.71718	-0.287421	
0.0179072	2.26951	-0.1424	
0.0288208	2.29896	-0.196127	
0.101014	3.52474	-0.29046	
0.0952127	3.5695	-0.265947	
0.229597	3.92795	-0.511577	
0.221208	3.80015	-0.498735	
0.175809	3.88973	-0.428194	
0.133481	3.86018	-0.34833	
0.2427	6.19134	-0.500143	
0.249417	6.18722	-0.536926	
0.246605	6.22621	-0.518131	
0.167983	5.0003	-0.329264	
0.186602	5.31083	-0.364795	
0.00743291	1.91048	-0.171198	
0.0380445	1.89153	-0.244462	
-0.000262204	1.93919	-0.11877	
0.255897	6.06835	-0.570436	
0.220578	5.72145	-0.45539	
0.208136	5.69951	-0.397225	
0.196258	5.52487	-0.361576	
0.209134	5.55121	-0.314799	
0.0651017	3.03963	-0.153736	
0.0457368	2.75369	-0.188575	
0.0474885	2.76085	-0.143056	
0.143302	4.51972	-0.309436	
0.159427	4.50727	-0.370615	
0.145425	4.47195	-0.329171	
0.0766746	3.32663	-0.22175	
0.239768	6.3	-0.450856	
0.247661	6.3	-0.514793	
0.0350605	2.46179	-0.111393	
0.0292099	2.42335	-0.120098	
0.0567049	2.45268	-0.0853551	
0.156675	4.16797	-0.384132	
0.147622	4.24773	-0.358415	
0.187164	4.23662	-0.441889	
0.0756642	3.27649	-0.230559	
0.250047	6.26183	-0.534142	
0.253836	6.22265	-0.557256	
0.0859977	3.04814	-0.129448	
0.107594	3.61449	-0.301055	
0.0847525	3.08875	-0.281794	
0.150061	4.57262	-0.332494	
0.164029	4.58156	-0.377525	
0.00866012	2.07661	-0.14542	
0.139782	4.00506	-0.354663	
0.143864	3.94136	-0.366994	
0.121637	3.97573	-0.30784	
0.158323	4.51834	-0.238316	
0.141826	4.5077	-0.26345	
0.0445616	2.56122	-0.217269	
0.310444	2.90236	-0.591339	
0.104027	2.9303	-0.327774	
0.214406	4.60446	-0.48625	
0.201824	4.69325	-0.459982	
0.220393	4.76341	-0.495854	
0.138722	4.4779	-0.282675	
0.139761	4.43096	-0.310982	
0.238889	6.24484	-0.462961	
0.214999	5.67044	-0.323627	
0.185846	4.88489	-0.414946	
0.16759	4.91224	-0.351527	
0.0772091	2.89452	-0.276405	
0.0601061	2.87216	-0.23226	
0.0597294	2.91957	-0.224464	
0.163405	4.92942	-0.306161	
0.0151644	2.22041	-0.13768	
0.00614397	1.98155	-0.155217	
0.0199708	1.96674	-0.201988	
0.198987	5.42402	-0.405687	
0.189578	5.39532	-0.357163	
0.0228763	2.36232	-0.142998	
0.027214	2.3503	-0.182609	
0.0441031	2.6109	-0.209628	
0.119537	3.92085	-0.307125	
0.182834	4.00614	-0.438273	
0.0156146	1.61741	-0.0235039	
0.0134004	1.99236	-0.0719379	
0.301477	3.6371	-0.6004	
-0.00145511	1.66476	-0.169894	
0.0038471	1.7822	-0.17398	
0.132815	4.36534	-0.2811	
0.130586	4.3298	-0.269988	
0.150495	4.35922	-0.226532	
0.143111	4.32625	-0.33902	
0.145381	4.38061	-0.340538	
0.176589	4.36891	-0.41799	
0.103125	3.78517	-0.261167	
0.115239	3.80163	-0.306047	
0.0537082	2.92461	-0.18203	
0.0606142	2.53215	-0.0912397	
0.113434	3.99481	-0.266597	
0.111479	3.95375	-0.266239	
0.0206351	2.31833	-0.146779	
0.0924147	3.60523	-0.243706	
0.0223525	2.04466	-0.202031	
0.0444979	1.98376	-0.252873	
0.238286	6.3	-0.393124	
0.244524	6.27063	-0.368071	
0.245969	6.3	-0.370246	
0.0715676	3.23562	-0.214748	
0.187594	5.11336	-0.282376	
0.0872211	3.31431	-0.270022	
0.20717	5.5113	-0.311843	
0.238083	6.27336	-0.444286	
0.237909	6.3	-0.421464	
0.039425	2.11398	-0.237293	
0.0769976	2.16034	-0.302588	
0.234496	6.23947	-0.406205	
0.23609	6.24619	-0.43428	
0.235253	6.14106	-0.463248	
0.224564	5.86488	-0.338025	
0.222694	5.82687	-0.335211	
0.154528	4.76032	-0.308939	
0.156995	4.80769	-0.310245	
0.170664	4.82218	-0.375762	
0.159654	4.84977	-0.291818	
-0.0238777	1.3993	-0.0428439	
0.144849	4.07242	-0.36259	
0.123085	4.0909	-0.297385	
0.00524773	2.03245	-0.132916	
0.00295888	1.99007	-0.107405	
0.185365	5.32604	-0.326468	
0.182583	5.26185	-0.350626	
0.183586	5.29347	-0.324321	
0.176961	5.13223	-0.352657	
0.172226	5.08556	-0.329801	
0.099718	3.69991	-0.262616	
0.224094	6.01566	-0.414909	
0.132015	3.78159	-0.349175	
0.111885	3.73813	-0.302189	
0.00309362	1.91001	-0.0794661	
0.133155	4.13227	-0.32775	
0.172981	4.69294	-0.393609	
0.180591	4.63088	-0.416046	
0.184143	4.5426	-0.427631	
0.248939	5.93773	-0.546599	
0.157436	4.42992	-0.371039	
0.0538492	2.42137	-0.251682	
0.0667835	3.08434	-0.158857	
0.130563	4.19029	-0.312226	
0.181685	4.75761	-0.412004	
0.0988022	3.74076	-0.242753	
0.135689	4.39639	-0.295219	
0.135786	4.41451	-0.263915	
0.135614	4.38459	-0.252819	
0.0191833	1.51628	-0.224007	
0.0489601	2.35416	-0.244762	
0.0512811	2.2578	-0.254545	
0.293357	4.30247	-0.608606	
0.295318	4.14181	-0.606625	
0.241846	4.21633	-0.532098	
0.16776	4.2995	-0.402191	
0.108904	3.91811	-0.258628	
0.105553	3.44566	-0.158884	
0.0667966	3.15687	-0.204548	
0.0667376	3.13234	-0.172443	
0.179904	5.18159	-0.357773	
0.2057	5.68874	-0.345383	
0.245534	5.08663	-0.544441	
0.219517	5.02344	-0.489731	
0.152452	4.399	-0.229478	
0.173975	4.83653	-0.261877	
0.0879497	3.08782	-0.132386	
0.197392	5.31252	-0.297124	
0.179843	4.9558	-0.270709	
0.215944	4.30927	-0.491143	
0.121931	4.14092	-0.28001	
0.17473	2.10553	-0.430953	
0.140735	2.19468	-0.390397	
0.0703305	2.72966	-0.105865	
0.0723013	2.76972	-0.108832	
0.00974437	1.49808	-0.0146677	
0.229963	5.97462	-0.346152	
0.231701	6.00995	-0.348768	
0.220558	5.98015	-0.382432	
0.155542	1.99343	-0.408156	
0.193966	5.47269	-0.364593	
0.202957	5.49441	-0.412172	
0.0682126	3.11384	-0.227627	
0.0293161	1.89593	-0.0441281	
0.236347	6.27167	-0.416639	
0.224501	6.05086	-0.395983	
0.194115	4.81829	-0.438958	
0.16241	4.7748	-0.35193	
0.222818	6.01933	-0.378335	
0.233394	6.04437	-0.351316	
0.262075	6.21745	-0.597101	
0.254542	4.80762	-0.559313	
0.0530349	2.79223	-0.133654	
0.0742577	2.80949	-0.111777	
0.0950162	3.6788	-0.231321	
-0.0247905	1.46833	-0.105693	
0.0017953	1.87168	-0.0746437	
0.156596	4.78054	-0.282195	
0.172012	4.79661	-0.258921	
0.261127	6.12242	-0.591622	
0.0543096	2.82102	-0.13627	
0.216652	5.90246	-0.38796	
0.152405	2.33251	-0.404889	
0.271633	6.08251	-0.630559	
0.277596	5.59393	-0.624533	
0.243286	5.5279	-0.53741	
-0.0129598	1.47619	-0.0340207	
0.058679	2.49281	-0.0883267	
0.165941	4.96804	-0.301319	
0.210966	5.80296	-0.370208	
0.181814	4.99587	-0.273676	
0.203264	5.43189	-0.305963	
0.205212	5.47149	-0.308895	
0.191198	5.43934	-0.345197	
0.0092493	2.09387	-0.108668	
0.194773	5.49433	-0.335166	
0.272446	6.01587	-0.629737	
0.0432855	2.72832	-0.156485	
0.218682	5.94134	-0.389508	
0.169725	5.01748	-0.296834	
0.2315	4.39538	-0.516915	
0.0899051	3.12757	-0.13533	
0.116978	4.0705	-0.265756	
0.0619391	2.05674	-0.28086	
0.0914758	1.95004	-0.327212	
0.284211	5.05185	-0.617848	
0.110773	2.07113	-0.352279	
0.222806	4.50249	-0.502177	
0.291441	4.45946	-0.610542	
0.236366	6.26456	-0.390703	
0.219102	5.45818	-0.472145	
0.18532	4.45066	-0.43312	
0.195439	5.27283	-0.294185	
0.0837011	2.31908	-0.309692	
0.242599	3.6776	-0.527194	
0.299381	3.80887	-0.602518	
0.214769	5.87314	-0.374732	
0.0247449	2.39329	-0.137791	
0.0629271	3.09122	-0.195636	
0.0672944	3.06807	-0.231689	
0.226392	5.90203	-0.340777	
0.18176	5.24732	-0.315054	
0.20243	4.16176	-0.46946	
0.220985	2.41338	-0.485968	
0.285953	4.90915	-0.616088	
0.297329	3.97699	-0.604592	
0.238287	4.07392	-0.525444	
0.180302	4.09733	-0.432267	
0.0969598	2.24913	-0.331138	
0.258484	5.99459	-0.58049	
0.0421633	2.51441	-0.106792	
0.23507	6.07844	-0.353839	
0.226091	6.07065	-0.374585	
0.22777	6.10265	-0.377392	
0.190693	5.41471	-0.327608	
0.220443	5.95769	-0.362726	
0.22818	5.93838	-0.343468	
0.0508729	2.71282	-0.123844	
0.218037	5.92133	-0.363802	
0.235828	5.73229	-0.509475	
0.226333	5.66196	-0.481942	
0.242048	5.59908	-0.532831	
0.063881	3.00932	-0.150584	
0.15923	4.82254	-0.283187	
0.182363	5.26823	-0.320866	
0.0874985	3.43142	-0.177419	
0.03024	1.43561	-0.00226025	
0.0635627	1.83549	-0.0330312	
0.0610376	1.91279	-0.0383599	
0.0649719	1.99272	-0.0445028	
0.0793841	2.15678	-0.0580625	
0.164643	2.07223	-0.120267	
0.200723	2.10066	-0.179728	
0.159753	2.14484	-0.116799	
0.0869831	2.39505	-0.0758882	
0.100067	2.4316	-0.0818029	
0.133964	2.39746	-0.100645	
0.0914776	2.51158	-0.0847447	
0.103637	2.71326	-0.101002	
0.109719	2.83421	-0.110574	
0.118517	2.94741	-0.120638	
0.091509	2.23606	-0.0665119	
0.0565747	1.67261	-0.0205317	
0.0482949	1.34758	0.00355243	
0.142242	1.37641	-0.0631661	
0.186324	1.38564	-0.127842	
0.160093	1.45901	-0.0895909	
0.127654	3.26538	-0.143723	
0.229283	1.41421	-0.218057	
0.305771	1.41777	-0.465544	
0.0503632	1.55699	-0.0115128	
0.115929	3.147	-0.132956	
0.0986282	2.30334	-0.0733298	
0.14733	3.46817	-0.164695	
0.147943	3.58314	-0.171366	
0.158228	3.66674	-0.182179	
0.149887	3.74572	-0.181629	
0.164794	3.89777	-0.198468	
0.170596	4.13914	-0.214686	
0.181726	4.38156	-0.234608	
0.125155	2.08935	-0.0782268	
0.0778221	2.07261	-0.0520067	
0.0590567	1.7557	-0.0267674	
0.210422	4.97238	-0.287003	
0.21962	5.28761	-0.308513	
0.237678	5.69193	-0.346317	
0.199748	4.89459	-0.272638	
0.242144	5.61017	-0.357129	
0.249829	6.05421	-0.374337	
0.15632	3.82068	-0.18911	
0.198371	4.69106	-0.263065	
0.180919	4.49435	-0.239614	
0.252161	6.12514	-0.379729	
0.270092	6.26319	-0.555266	
0.269911	6.3	-0.582631	
0.269946	6.3	-0.548005	
0.112667	3.06812	-0.12694	
0.269512	6.3	-0.61131	
0.178836	1.54537	-0.121147	
0.132715	1.52375	-0.0589146	
0.197683	1.47391	-0.151789	
0.301036	1.56542	-0.453981	
0.266761	1.61804	-0.331063	
0.270016	1.4565	-0.334955	
0.28207	4.36826	-0.527533	
0.230258	1.54182	-0.224976	
0.231968	1.65586	-0.233246	
0.196894	1.62928	-0.155854	
0.239163	2.05326	-0.265794	
0.23714	2.14494	-0.263592	
0.266692	1.97075	-0.345216	
0.278248	2.09241	-0.390939	
0.138743	2.50087	-0.109743	
0.179994	2.48357	-0.157947	
0.166765	2.5475	-0.141989	
0.276088	5.25707	-0.548524	
0.173606	2.22504	-0.138761	
0.131937	2.20431	-0.0896032	
0.290999	2.80866	-0.479401	
0.275664	4.16109	-0.47701	
0.271245	4.2818	-0.459369	
0.254496	4.21617	-0.382736	
0.282196	4.04684	-0.507215	
0.229545	1.97451	-0.238337	
0.295341	2.19436	-0.464459	
0.260899	2.22847	-0.336391	
0.218845	2.23197	-0.221815	
0.294073	1.72925	-0.434333	
0.241103	1.88426	-0.265059	
0.201212	1.92705	-0.17462	
0.210873	1.82691	-0.190659	
0.280733	1.85616	-0.389362	
0.250217	1.75925	-0.285991	
0.27806	4.69516	-0.522367	
0.277512	4.57599	-0.510944	
0.296579	2.42411	-0.483043	
0.288519	2.30494	-0.441349	
0.233079	2.31434	-0.258789	
0.207876	1.72987	-0.18104	
0.265395	2.36154	-0.356617	
0.271503	5.98629	-0.561033	
0.101155	1.89229	-0.0508234	
0.108463	1.83408	-0.0524758	
0.137491	1.88533	-0.0801593	
0.119862	2.14634	-0.0769077	
0.225034	4.42405	-0.299554	
0.224274	4.48739	-0.299286	
0.198622	4.4615	-0.25495	
0.263111	5.67528	-0.45024	
0.258193	5.60409	-0.420141	
0.267778	5.61924	-0.487753	
0.252597	5.05046	-0.39232	
0.245018	5.00476	-0.363681	
0.261551	4.98052	-0.432759	
0.234969	5.05838	-0.334734	
0.229511	4.99183	-0.320698	
0.22759	4.93759	-0.315548	
0.244616	4.95177	-0.361735	
0.266047	6.24229	-0.454651	
0.262044	6.25636	-0.418012	
0.262092	6.22192	-0.421178	
0.148673	1.8305	-0.090155	
0.176548	1.86734	-0.129613	
0.270322	6.23372	-0.588576	
0.269999	6.26918	-0.596664	
0.271937	5.33899	-0.514336	
0.271263	3.07639	-0.407528	
0.246527	3.15895	-0.324032	
0.24499	3.05661	-0.316094	
0.268407	6.14667	-0.497028	
0.263846	6.13307	-0.441625	
0.26671	6.09527	-0.473979	
0.266853	5.88377	-0.481184	
0.263902	5.94614	-0.451565	
0.25931	5.90459	-0.42047	
0.106688	2.04088	-0.0623542	
0.0721792	2.0278	-0.0478505	
0.272548	5.76739	-0.553827	
0.252855	5.64681	-0.393807	
0.265345	6.04514	-0.461006	
0.261993	6.08072	-0.430218	
0.259035	6.03354	-0.413648	
0.251702	5.27332	-0.390362	
0.24768	5.21847	-0.374672	
0.264976	5.25147	-0.458431	
0.256789	5.73236	-0.410925	
0.266604	5.73652	-0.478637	
0.259592	5.7868	-0.425419	
0.198363	4.51768	-0.256623	
0.217219	4.54741	-0.286344	
0.124814	1.44876	-0.0474353	
0.205846	4.31263	-0.260359	
0.232077	4.31825	-0.314207	
0.221156	4.36274	-0.289702	
0.172275	2.41407	-0.144125	
0.144585	2.44769	-0.112724	
0.267108	5.80905	-0.483957	
0.259231	5.84646	-0.421781	
0.248195	5.81353	-0.373691	
0.236329	4.00168	-0.318209	
0.237664	4.07841	-0.323856	
0.214721	4.03645	-0.268219	
0.252084	4.83967	-0.387323	
0.235761	4.80037	-0.333173	
0.24921	4.75963	-0.375058	
0.269858	6.09844	-0.528443	
0.270504	6.14062	-0.553236	
0.17634	1.78421	-0.126153	
0.264962	6.21159	-0.445844	
0.267206	6.19874	-0.473937	
0.263344	6.18158	-0.433813	
0.0959148	2.55391	-0.0885161	
0.112575	2.59591	-0.0969495	
0.226293	4.74978	-0.309221	
0.205891	4.72468	-0.273175	
0.225563	4.68248	-0.306276	
0.208199	3.98731	-0.254649	
0.278053	3.2112	-0.441899	
0.243112	3.27188	-0.31732	
0.21997	3.2193	-0.255902	
0.180929	2.9893	-0.178097	
0.153416	2.99707	-0.14621	
0.161557	2.9444	-0.152132	
0.132269	3.30853	-0.148069	
0.143914	3.35232	-0.156382	
0.199212	4.65423	-0.262587	
0.201285	4.60264	-0.26319	
0.259683	5.33692	-0.428325	
0.122173	1.94063	-0.0684396	
0.206871	4.85416	-0.27868	
0.212999	4.80487	-0.285734	
0.0989426	1.34921	-0.0203391	
0.104462	1.76751	-0.0461934	
0.115471	1.70688	-0.0513499	
0.144987	1.73424	-0.0817315	
0.106005	1.65773	-0.0415202	
0.0682165	1.70647	-0.025211	
0.13544	1.78744	-0.0736299	
0.175921	1.70382	-0.122461	
0.15061	1.6606	-0.0853508	
0.134521	1.59405	-0.0639781	
0.0965303	1.56762	-0.0302149	
0.129977	2.26055	-0.0906287	
0.261375	4.04415	-0.404841	
0.255286	4.1337	-0.383434	
0.236826	4.16013	-0.323432	
0.220881	4.12685	-0.283277	
0.236621	5.27291	-0.341224	
0.0815186	1.52613	-0.0192412	
0.253872	4.30935	-0.382846	
0.244904	4.38023	-0.352826	
0.266005	4.39238	-0.437522	
0.209857	2.84923	-0.222809	
0.244186	2.82207	-0.30604	
0.238029	2.90368	-0.291269	
0.225605	5.24428	-0.317025	
0.227564	5.20074	-0.319956	
0.241796	5.1609	-0.354813	
0.0458997	1.3981	0.000393277	
0.0622128	1.43684	-0.00589169	
0.0683618	1.48227	-0.0108752	
0.0360373	1.47107	-0.00461424	
0.0994268	1.4036	-0.0235203	
0.183099	3.59974	-0.203855	
0.184164	3.64313	-0.206849	
0.15233	3.62455	-0.176127	
0.128439	3.02929	-0.129846	
0.14042	3.0732	-0.139354	
0.173677	3.98171	-0.209434	
0.18214	4.02569	-0.219425	