<VTKFile type="UnstructuredGrid" version="0.1" byte_order="LittleEndian">
	<UnstructuredGrid>
		<Piece NumberOfPoints="222" NumberOfCells="111">
			<CellData Scalars="scalars">
				<DataArray type="Float64" Name="Gamma" NumberOfComponents="1" Format="ascii">
0.0826912	
0.0277695	
-0.599763	
-0.00513517	
-0.0597648	
-0.427006	
-0.67139	
-0.168036	
-0.643985	
-0.262926	
-0.118631	
0.0200852	
-0.382976	
0.0387495	
-0.568313	
-0.676107	
-0.760026	
-0.506994	
-0.156881	
0.0143254	
-0.334859	
0.0397769	
-0.0137932	
0.0304479	
-0.461842	
0.0444941	
-0.699454	
-0.419345	
-0.71445	
-0.362567	
-0.50036	
-0.710628	
-0.0450783	
-0.691692	
-0.671445	
-0.242484	
-0.547272	
0.121718	
-0.378104	
-0.437569	
0.0998423	
-0.463604	
-0.473645	
-0.361131	
-0.31394	
-0.471822	
-0.390557	
-0.471498	
-0.398966	
-0.265401	
-0.227207	
-0.383052	
-0.210147	
-0.483896	
-0.46111	
-0.402137	
-0.488426	
-0.387503	
-0.41627	
-0.413034	
-0.479412	
0.122873	
-0.260702	
-0.155616	
-0.0489563	
-0.450374	
-0.319495	
-0.0988716	
-0.371627	
0.0709114	
0.0246876	
-0.229184	
-0.47982	
-0.445576	
-0.319559	
-0.0622794	
-0.202823	
-0.322949	
-0.030343	
-0.118489	
-0.391411	
-0.420737	
-0.0111641	
-0.0459721	
-0.0212552	
-0.0557013	
-0.481751	
-0.348124	
-0.337401	
-0.486354	
-0.00303878	
-0.0225087	
-0.0395777	
-0.0139337	
-0.0593241	
-0.0318463	
-0.0512695	
-0.0802774	
-0.345111	
-0.279763	
-0.486362	
-0.454101	
-0.23691	
-0.405522	
-0.466428	
-0.297339	
-0.373798	
-0.453928	
-0.165102	
0.00683101	
-0.163191	
				</DataArray>
			</CellData>
			<Points>
				<DataArray type="Float64" Name="Position" NumberOfComponents="3" Format="ascii">
0.438322	1.08841	-0.759196	
0.468163	1.28242	-0.81406	
0.365889	6.2675	-1.65708	
0.359072	6.28842	-1.66128	
0.543974	4.60704	-1.33524	
0.537762	4.75656	-1.36337	
0.47614	1.46965	-0.83555	
0.485102	1.6598	-0.85997	
0.485102	1.6598	-0.85997	
0.4933	1.86903	-0.888978	
0.519343	2.5047	-0.981571	
0.525326	2.70405	-1.01278	
0.542406	3.27535	-1.10373	
0.546083	3.45633	-1.13367	
0.4933	1.86903	-0.888978	
0.501939	2.08621	-0.92003	
0.538666	3.08985	-1.07313	
0.542406	3.27535	-1.10373	
0.501939	2.08621	-0.92003	
0.509568	2.29827	-0.951547	
0.450057	5.82786	-1.57014	
0.424901	5.92476	-1.59108	
0.393943	6.12719	-1.63004	
0.378551	6.17203	-1.63949	
0.501131	5.32064	-1.47172	
0.481403	5.45425	-1.49956	
0.37526	6.21051	-1.64641	
0.368749	6.24186	-1.65242	
0.533537	2.89952	-1.04251	
0.538666	3.08985	-1.07313	
0.546083	3.45633	-1.13367	
0.54947	3.63318	-1.16311	
0.55261	4.13702	-1.24998	
0.544499	4.29724	-1.2811	
0.525326	2.70405	-1.01278	
0.533537	2.89952	-1.04251	
0.461606	5.71231	-1.5481	
0.450057	5.82786	-1.57014	
0.403419	6.07192	-1.61937	
0.393943	6.12719	-1.63004	
0.481403	5.45425	-1.49956	
0.466976	5.58513	-1.5252	
0.368749	6.24186	-1.65242	
0.365889	6.2675	-1.65708	
0.41709	6.0056	-1.60609	
0.403419	6.07192	-1.61937	
0.378551	6.17203	-1.63949	
0.37526	6.21051	-1.64641	
0.528102	5.04498	-1.41648	
0.506801	5.18397	-1.44668	
0.468163	1.28242	-0.81406	
0.47614	1.46965	-0.83555	
0.54947	3.63318	-1.16311	
0.550108	3.80465	-1.19286	
0.506801	5.18397	-1.44668	
0.501131	5.32064	-1.47172	
0.544499	4.29724	-1.2811	
0.542001	4.4539	-1.3093	
0.509568	2.29827	-0.951547	
0.519343	2.5047	-0.981571	
0.537602	4.90269	-1.3888	
0.528102	5.04498	-1.41648	
0.553796	3.97252	-1.22069	
0.55261	4.13702	-1.24998	
0.424901	5.92476	-1.59108	
0.41709	6.0056	-1.60609	
0.550108	3.80465	-1.19286	
0.553796	3.97252	-1.22069	
0.542001	4.4539	-1.3093	
0.543974	4.60704	-1.33524	
0.466976	5.58513	-1.5252	
0.461606	5.71231	-1.5481	
0.537762	4.75656	-1.36337	
0.537602	4.90269	-1.3888	
0.438322	0.113277	1.32219	
0.468061	0.0638452	1.51765	
0.364794	-1.69858	6.25639	
0.359072	-1.7055	6.27657	
0.546642	-1.14801	4.657	
0.537215	-1.1974	4.80107	
0.476066	-0.0111784	1.69055	
0.485018	-0.0851011	1.86743	
0.518475	-1.34204	5.21132	
0.494062	-1.38416	5.34448	
0.537572	-1.2486	4.94025	
0.522065	-1.29415	5.07815	
0.542428	-0.681824	3.38839	
0.546196	-0.746419	3.56008	
0.538669	-0.615566	3.21245	
0.542428	-0.681824	3.38839	
0.450012	-1.55414	5.83215	
0.428062	-1.58492	5.92632	
0.394871	-1.65205	6.12128	
0.382883	-1.66661	6.1647	
0.494062	-1.38416	5.34448	
0.484557	-1.42913	5.47297	
0.378612	-1.67975	6.20152	
0.368775	-1.68989	6.23182	
0.533535	-0.546918	3.03232	
0.538669	-0.615566	3.21245	
0.546196	-0.746419	3.56008	
0.550119	-0.809561	3.72785	
0.552222	-0.98586	4.20782	
0.544782	-1.03925	4.36203	
0.527821	-0.476048	2.84758	
0.533535	-0.546918	3.03232	
0.463112	-1.51573	5.72092	
0.450012	-1.55414	5.83215	
0.428062	-1.58492	5.92632	
0.415697	-1.61169	6.00413	
0.408971	-1.63424	6.06781	
0.394871	-1.65205	6.12128	
0.484557	-1.42913	5.47297	
0.469663	-1.47221	5.59922	
0.368775	-1.68989	6.23182	
0.364794	-1.69858	6.25639	
0.415697	-1.61169	6.00413	
0.408971	-1.63424	6.06781	
0.382883	-1.66661	6.1647	
0.378612	-1.67975	6.20152	
0.522065	-1.29415	5.07815	
0.518475	-1.34204	5.21132	
0.468061	0.0638452	1.51765	
0.476066	-0.0111784	1.69055	
0.555012	-0.871148	3.89037	
0.549505	-0.927542	4.05147	
0.520754	-0.402932	2.65958	
0.527821	-0.476048	2.84758	
0.501794	-0.246266	2.26676	
0.511001	-0.325736	2.46578	
0.547814	-1.09494	4.51086	
0.546642	-1.14801	4.657	
0.549505	-0.927542	4.05147	
0.552222	-0.98586	4.20782	
0.511001	-0.325736	2.46578	
0.520754	-0.402932	2.65958	
0.544782	-1.03925	4.36203	
0.547814	-1.09494	4.51086	
0.485018	-0.0851011	1.86743	
0.491708	-0.163872	2.06353	
0.491708	-0.163872	2.06353	
0.501794	-0.246266	2.26676	
0.550119	-0.809561	3.72785	
0.555012	-0.871148	3.89037	
0.469663	-1.47221	5.59922	
0.463112	-1.51573	5.72092	
0.537215	-1.1974	4.80107	
0.537572	-1.2486	4.94025	
0.438322	-1.20169	-0.562995	
0.468061	-1.34625	-0.703533	
0.364794	-4.5689	-4.59921	
0.359072	-4.58292	-4.61529	
0.546642	-3.45907	-3.32271	
0.537215	-3.55915	-3.43752	
0.476066	-1.45847	-0.854954	
0.485018	-1.57469	-1.00742	
0.518475	-3.84212	-3.7679	
0.494062	-3.93638	-3.87096	
0.537572	-3.65408	-3.55145	
0.522065	-3.75073	-3.65984	
0.542428	-2.59352	-2.28467	
0.546196	-2.70991	-2.42646	
0.538669	-2.47428	-2.13932	
0.542428	-2.59352	-2.28467	
0.450012	-4.27372	-4.262	
0.428062	-4.33988	-4.33574	
0.394871	-4.47516	-4.49136	
0.382883	-4.50548	-4.52568	
0.494062	-3.93638	-3.87096	
0.484557	-4.02517	-3.97415	
0.378612	-4.5308	-4.55547	
0.368775	-4.55197	-4.5794	
0.533535	-2.3526	-1.9898	
0.538669	-2.47428	-2.13932	
0.546196	-2.70991	-2.42646	
0.550119	-2.82363	-2.56503	
0.552222	-3.15115	-2.95769	
0.544782	-3.258	-3.08103	
0.527821	-2.22805	-1.83606	
0.533535	-2.3526	-1.9898	
0.463112	-4.1966	-4.17313	
0.450012	-4.27372	-4.262	
0.428062	-4.33988	-4.33574	
0.415697	-4.39388	-4.39783	
0.408971	-4.43776	-4.4492	
0.394871	-4.47516	-4.49136	
0.484557	-4.02517	-3.97415	
0.469663	-4.11296	-4.07458	
0.368775	-4.55197	-4.5794	
0.364794	-4.5689	-4.59921	
0.415697	-4.39388	-4.39783	
0.408971	-4.43776	-4.4492	
0.382883	-4.50548	-4.52568	
0.378612	-4.5308	-4.55547	
0.522065	-3.75073	-3.65984	
0.518475	-3.84212	-3.7679	
0.468061	-1.34625	-0.703533	
0.476066	-1.45847	-0.854954	
0.555012	-2.93359	-2.69962	
0.549505	-3.0449	-2.82901	
0.520754	-2.10179	-1.67874	
0.527821	-2.22805	-1.83606	
0.501794	-1.83994	-1.34665	
0.511001	-1.97256	-1.51499	
0.547814	-3.35905	-3.20368	
0.546642	-3.45907	-3.32271	
0.549505	-3.0449	-2.82901	
0.552222	-3.15115	-2.95769	
0.511001	-1.97256	-1.51499	
0.520754	-2.10179	-1.67874	
0.544782	-3.258	-3.08103	
0.547814	-3.35905	-3.20368	
0.485018	-1.57469	-1.00742	
0.491708	-1.70513	-1.17368	
0.491708	-1.70513	-1.17368	
0.501794	-1.83994	-1.34665	
0.550119	-2.82363	-2.56503	
0.555012	-2.93359	-2.69962	
0.469663	-4.11296	-4.07458	
0.463112	-4.1966	-4.17313	
0.537215	-3.55915	-3.43752	
0.537572	-3.65408	-3.55145	
				</DataArray>
			</Points>
			<Cells>
				<DataArray type="Int32" Name="connectivity" Format="ascii">
0	1	
2	3	
4	5	
6	7	
8	9	
10	11	
12	13	
14	15	
16	17	
18	19	
20	21	
22	23	
24	25	
26	27	
28	29	
30	31	
32	33	
34	35	
36	37	
38	39	
40	41	
42	43	
44	45	
46	47	
48	49	
50	51	
52	53	
54	55	
56	57	
58	59	
60	61	
62	63	
64	65	
66	67	
68	69	
70	71	
72	73	
74	75	
76	77	
78	79	
80	81	
82	83	
84	85	
86	87	
88	89	
90	91	
92	93	
94	95	
96	97	
98	99	
100	101	
102	103	
104	105	
106	107	
108	109	
110	111	
112	113	
114	115	
116	117	
118	119	
120	121	
122	123	
124	125	
126	127	
128	129	
130	131	
132	133	
134	135	
136	137	
138	139	
140	141	
142	143	
144	145	
146	147	
148	149	
150	151	
152	153	
154	155	
156	157	
158	159	
160	161	
162	163	
164	165	
166	167	
168	169	
170	171	
172	173	
174	175	
176	177	
178	179	
180	181	
182	183	
184	185	
186	187	
188	189	
190	191	
192	193	
194	195	
196	197	
198	199	
200	201	
202	203	
204	205	
206	207	
208	209	
210	211	
212	213	
214	215	
216	217	
218	219	
220	221	
				</DataArray>
				<DataArray type="Int32" Name="offsets" Format="ascii">
2	
4	
6	
8	
10	
12	
14	
16	
18	
20	
22	
24	
26	
28	
30	
32	
34	
36	
38	
40	
42	
44	
46	
48	
50	
52	
54	
56	
58	
60	
62	
64	
66	
68	
70	
72	
74	
76	
78	
80	
82	
84	
86	
88	
90	
92	
94	
96	
98	
100	
102	
104	
106	
108	
110	
112	
114	
116	
118	
120	
122	
124	
126	
128	
130	
132	
134	
136	
138	
140	
142	
144	
146	
148	
150	
152	
154	
156	
158	
160	
162	
164	
166	
168	
170	
172	
174	
176	
178	
180	
182	
184	
186	
188	
190	
192	
194	
196	
198	
200	
202	
204	
206	
208	
210	
212	
214	
216	
218	
220	
222	
				</DataArray>
				<DataArray type="Int32" Name="types" Format="ascii">
3	
3	
3	
3	
3	
3	
3	
3	
3	
3	
3	
3	
3	
3	
3	
3	
3	
3	
3	
3	
3	
3	
3	
3	
3	
3	
3	
3	
3	
3	
3	
3	
3	
3	
3	
3	
3	
3	
3	
3	
3	
3	
3	
3	
3	
3	
3	
3	
3	
3	
3	
3	
3	
3	
3	
3	
3	
3	
3	
3	
3	
3	
3	
3	
3	
3	
3	
3	
3	
3	
3	
3	
3	
3	
3	
3	
3	
3	
3	
3	
3	
3	
3	
3	
3	
3	
3	
3	
3	
3	
3	
3	
3	
3	
3	
3	
3	
3	
3	
3	
3	
3	
3	
3	
3	
3	
3	
3	
3	
3	
3	
				</DataArray>
			</Cells>
		</Piece>
	</UnstructuredGrid>
</VTKFile>
