<VTKFile type="UnstructuredGrid" version="0.1" byte_order="LittleEndian">
	<UnstructuredGrid>
		<Piece NumberOfPoints="8880" NumberOfCells="8880">
			<CellData Scalars="scalars">
				<DataArray type="Float64" Name="Strength" NumberOfComponents="3" Format="ascii">
-0.00773528	-0.0152746	0.0132202	
0.0147737	-0.00746479	-0.0261374	
-0.0155686	0.071034	-0.00337692	
0.00465725	-0.00688871	-0.00701997	
0.00584139	0.000124046	-0.0111528	
0.0142225	0.0535468	-0.033592	
0.00530998	0.0852962	-0.0334154	
0.00193767	0.0166817	-0.0177986	
0.0101665	0.0833099	-0.034975	
0.00387878	0.0299684	-0.0252678	
0.00247723	0.00986579	0.044391	
0.00460343	-0.00317757	-0.00133047	
-0.0109662	0.0409416	0.0111441	
0.000232661	-0.0012124	0.00234511	
0.0064398	0.071499	-0.0344448	
0.00554438	0.0864743	-0.0247111	
0.00694466	0.0956324	-0.00578311	
-0.00399698	0.0620258	-0.0320802	
0.000109811	0.0143524	0.0282083	
0.00645786	-0.0104804	0.00762791	
-0.0113835	0.0340923	0.0190202	
-0.00258768	0.00127274	-0.00138195	
0.00491181	-0.00468319	0.00936969	
0.00239344	0.000803631	0.000582302	
-0.0147008	0.0487979	0.00246303	
-0.000881482	-0.0126642	0.00313329	
0.000950059	0.0877789	-0.0226421	
0.00718682	0.0403922	0.0143092	
-0.00340743	0.0874933	-0.00607904	
-0.00578569	0.0442643	-0.0240083	
-0.00400664	0.0537101	0.0101486	
0.00387064	0.0909845	-0.0103651	
-0.000439681	0.000448681	0.000200212	
0.00131309	0.0870761	-0.0158965	
-0.00285696	0.0781476	0.0183384	
0.0168913	0.0116971	0.00810781	
0.0037833	0.0574677	0.0211917	
-0.0120412	-0.00553033	-0.0250486	
-0.0273479	-0.110526	-0.0839335	
-0.00512314	0.00796741	0.0512794	
0.000806269	0.0119149	-0.0134601	
0.00803377	-0.00731109	0.0545387	
0.016652	-0.0256438	0.061209	
-0.0147868	-0.0281715	0.0517962	
0.0174416	-0.0123964	0.0519713	
0.0167403	-0.0247615	0.0290342	
0.0118238	0.000762337	0.0164758	
0.00411537	-0.0160362	0.0557028	
-0.0146014	-0.00931456	-0.0197184	
0.00980948	-0.00424619	0.0483907	
0.00289163	-0.0111672	0.0259664	
0.00749644	0.00287939	0.0547528	
0.005716	0.00111043	0.0403739	
0.0131778	-0.0304172	0.0390418	
0.026654	-0.0137117	0.0165421	
-0.00579614	-0.0179892	0.00639025	
0.00962432	-0.0208639	0.0534107	
0.0242939	-0.00185297	0.0126722	
0.00279669	-0.0255168	0.00368621	
-0.00992923	-0.00789779	0.0153623	
0.00279604	-0.0107304	0.0587341	
-0.00508745	0.00857549	-0.0201254	
0.022106	0.00794522	0.037941	
0.00509949	0.00327675	0.0315358	
0.00940283	0.0128446	0.0165231	
0.0325026	-0.0180721	0.0689712	
-0.00309501	9.8327e-05	0.0409755	
-0.00123502	-0.00161948	0.0190532	
0.00191979	0.00130016	0.0449152	
0.00314312	0.00887274	-0.0104243	
0.00053914	0.000951985	-0.0047791	
0.00191719	-0.00561227	0.0245449	
0.00998163	-0.0243508	0.0502405	
0.0028261	-0.00817615	0.0518537	
0.0154005	-0.0580062	-0.006264	
-0.00395607	0.0205303	-0.0301046	
-0.0106013	-0.000214357	-0.031189	
-0.00747748	-0.0386468	-0.0200811	
-0.00914172	0.0144	-0.0106259	
-0.0157108	0.0109689	-0.0219741	
0.0030698	-0.0117279	-0.0524111	
0.00500275	-0.0199342	-0.0548573	
0.00239885	-0.00947641	0.00216819	
-0.00124899	-0.00724395	0.0010933	
-9.50536e-05	0.000433609	-0.00356523	
0.00489608	-0.00389397	0.00391406	
0.00603929	-0.0329233	-0.0610156	
-0.0174614	-0.00797056	-0.0476921	
-0.0269326	-0.0293167	-0.0343473	
0.00478388	-0.0440009	-0.056997	
0.000898177	-0.00489429	0.000994113	
0.0005948	-0.00602974	-0.000165146	
0.00072811	-0.00539837	-0.00125279	
-0.0019381	0.00496758	-0.00488014	
0.000889895	-0.000783321	0.00375416	
-0.00192359	-0.00209803	-0.00121152	
0.000885903	-0.00228769	-0.00144282	
0.00405929	-0.00304596	-0.00970031	
-0.0171133	-0.0441709	-0.0172586	
0.0542369	-0.0630194	-0.0292131	
0.00794938	-0.0476044	-0.0529956	
-0.000561801	-0.0488352	-0.050037	
-0.00564281	-0.00388077	-0.034455	
-0.0143182	-0.0481708	-0.0321644	
0.00437841	-0.0463203	-0.050817	
0.00807195	-0.0094985	-0.040555	
0.0109186	-0.048923	-0.0324649	
0.00274993	-0.0589875	-0.0522958	
0.000970115	-0.011421	-0.0137427	
1.0133e-06	6.78626e-06	9.0405e-06	
0.00767293	-0.00249169	-0.0209446	
-0.00214156	0.00301288	0.00646759	
0.00393358	-0.0228962	-0.018779	
-0.0195243	-0.00164088	0.0277178	
0.00441546	-0.000213341	-0.0106291	
0.0064814	0.000984861	-0.0128673	
0.0197319	0.00986939	-0.013483	
0.00547776	0.0124359	-0.00438045	
0.00678816	0.00339985	-0.0121097	
0.0127997	0.0143544	-0.00615327	
0.00976071	0.00517399	-0.0129299	
0.0172652	-0.00245636	0.0432274	
0.00138338	-0.0039055	0.00299167	
0.000522879	-0.00264246	0.0278628	
-0.000344137	0.00142678	0.00173058	
0.00930886	0.0120278	-0.00724269	
0.00509236	0.0122945	-0.00287386	
0.00238521	0.011036	0.00131961	
-0.00125274	0.0086873	-0.00577941	
0.0109115	-0.000226996	0.0313349	
0.00579111	-0.00681392	0.00962739	
0.00384825	-0.00145456	0.0324339	
-0.000220348	-5.84019e-05	6.24335e-05	
0.0052605	-0.00420321	0.0100977	
0.000312401	7.36353e-05	-0.000266828	
-0.00643628	-0.000873941	0.0234364	
4.56547e-06	0.000189646	-5.48814e-05	
-0.00147351	0.0108451	-0.00131968	
0.00333202	0.00438419	0.000970118	
-0.00822005	0.00576916	0.00803171	
-0.00143726	0.00659184	-0.00470929	
-0.00348571	0.00181461	0.0123641	
0.00420669	0.0109098	-0.000242332	
0.00045071	-0.0012177	-0.000430191	
-0.000333095	0.0101695	-0.000236219	
0.00302712	0.0069658	0.00426251	
0.00242108	0.0011411	-0.000690876	
0.003299	0.00562353	0.00292073	
-0.00359411	-0.0122208	-0.00486284	
-0.0153256	-0.0767345	-0.138137	
-0.00894708	-0.00608972	0.00242986	
0.00167504	0.00648285	0.00178981	
-0.00273607	-0.0046015	0.00389035	
0.0106141	0.0076004	0.0164427	
-0.0227357	-0.0166073	-0.000156507	
0.00964903	0.00371502	0.00563646	
-0.000890298	-0.00811781	-0.000194191	
-0.00102692	0.000567052	0.00688445	
0.00113469	-0.000970016	0.00766781	
-0.000272289	-0.00406077	-0.0125356	
0.00934159	0.00432783	0.00675014	
-0.00093785	-0.00320182	0.00419738	
0.00789785	0.00573545	0.00981301	
0.00793935	0.00506753	0.00597651	
0.000892427	-0.00291199	0.00475945	
-0.00440729	-0.015087	-0.00809438	
-0.0013229	-0.00569045	-0.000883371	
0.000124937	-0.00256227	0.00644572	
-0.00205237	0.000946887	-0.000905217	
0.0012146	-0.00168658	0.0021545	
-0.000256991	0.00228198	0.000565965	
-0.000619253	-0.00271598	0.0056299	
-0.000345836	0.000552028	-0.00131148	
0.0191599	0.0155183	0.0156961	
0.00734765	0.00606105	0.00481547	
0.0112855	0.0152059	0.00654809	
0.0237638	0.0151255	0.0182881	
-0.00136486	0.000477996	0.00574149	
-0.000107303	5.50233e-06	0.000790912	
-0.00111509	0.000440725	0.00680503	
0.0024017	0.00595196	0.00143608	
0.000166537	0.000127746	-0.000928507	
0.000196349	-0.000938439	0.00603545	
0.000375017	-0.00294875	0.00528968	
-0.000652259	-0.00211365	0.00713234	
0.0279134	-0.0169716	0.00756811	
0.00298013	0.0039092	-0.0252088	
-0.0113959	0.0194478	-0.00524755	
0.000401734	-0.0061899	-0.00229029	
-0.00547676	0.0201209	-0.00519802	
-0.0103311	0.0258734	-0.00504664	
-0.0107458	0.0038707	-0.0136041	
-0.00847678	0.00159689	-0.0102164	
0.00105854	-0.00634135	0.0052061	
0.000179834	-0.00350339	0.00355708	
-0.000690426	0.00267143	-7.26549e-05	
-2.14632e-05	0.000830618	0.00346212	
0.00034776	-0.00264372	-0.00779896	
-0.0316608	0.0106683	-0.025323	
-0.0200852	0.0194299	-0.0107334	
0.00236997	-0.0053793	-0.00762514	
0.000954721	-0.00296735	0.00303221	
0.000609876	-0.00254946	0.00293234	
0.000329062	-0.00237809	0.0022777	
-0.00130983	0.00805908	-0.00230915	
0.00109294	0.000705332	0.000195723	
0.000839733	0.000426244	0.000497996	
0.000675784	-0.000233002	0.00039493	
-0.000219883	0.000103551	0.000399184	
-0.00205661	-0.00487984	-0.000943481	
0.0514407	-0.0499541	0.000664246	
0.00471505	-0.00690243	-0.00703699	
-0.00186042	-0.00617128	-0.00670079	
-0.00960479	0.0142912	-0.0060995	
-0.00110967	-0.00198033	-0.00181865	
0.000464796	-0.00654185	-0.00712237	
0.000811148	-0.000182411	-0.00131732	
0.0127658	-0.0096303	-0.00345291	
0.000188442	-0.00549612	-0.00454197	
-5.95799e-05	-0.00307529	-0.00287832	
0.000114568	0.000741172	0.00102006	
9.05926e-05	-8.66049e-06	-0.000149503	
-0.00235431	0.00332473	0.00617795	
0.00525897	-0.0231744	-0.0151483	
-0.00226111	-0.00522788	0.0340458	
0.0052549	-0.00107005	-0.010326	
0.00749651	-0.000890967	-0.0121264	
0.0165645	-0.000162881	-0.0173346	
0.00272558	0.00291888	-0.0066746	
0.00776905	-8.40813e-05	-0.0108642	
0.008423	0.00266953	-0.0128967	
0.00984154	-0.000128257	-0.0118508	
0.0122053	0.000240421	0.0458083	
0.00170871	-0.00392511	0.00399867	
0.00144676	0.000521131	0.0287279	
-0.00122886	0.0025875	0.000796211	
0.00684814	0.00190855	-0.00965821	
0.00203329	0.00295806	-0.00583894	
0.000564156	0.00328512	-0.00241319	
-0.000673265	0.00227323	-0.001562	
0.00796196	0.00255534	0.032782	
0.00586625	-0.00749432	0.00935111	
0.00255985	0.000742867	0.0335556	
5.52064e-05	1.82899e-05	-0.000190925	
0.00549037	-0.00440001	0.0107265	
0.000158329	8.52524e-06	-3.97495e-05	
-0.00230095	-0.000859495	0.0245415	
-1.50815e-06	6.87283e-05	-2.28654e-05	
-0.00061537	0.00289607	0.000713058	
0.00096967	0.00142274	-0.00011022	
-0.000688253	0.000244156	0.0108404	
-0.000552741	0.0016368	-0.00132141	
-0.000812392	-0.000211533	0.0125505	
0.000771215	0.00361718	-0.00505526	
0.000312502	-0.000440078	-0.000183945	
-0.000107702	0.0028056	-0.000188366	
0.000969749	0.00224513	0.000190217	
0.00104139	0.000558366	-0.000337119	
0.00104679	0.00183552	0.000132683	
-0.00381872	-0.0126628	-0.00363726	
-0.0440189	-0.0679943	-0.144794	
-0.00333393	-0.00781818	-0.000995494	
0.00218734	0.00596307	0.00268595	
-0.00155893	-0.00289123	0.000416146	
0.00660724	0.0139288	0.00902929	
-0.0132236	-0.0227937	-0.00736596	
0.00588027	0.00806379	0.00395195	
-0.00202553	-0.00683882	-0.00373538	
0.00236478	-0.00100219	0.00564516	
0.00122603	0.00288519	0.00379869	
0.00106922	-0.0084564	-0.0116066	
0.00657429	0.00821777	0.0047477	
-0.000638171	-0.00226242	0.000774604	
0.00403718	0.0104179	0.00604918	
0.0062815	0.00758441	0.00401687	
0.000249	-0.000673723	0.00160215	
-0.00441093	-0.0151308	-0.0100816	
-0.00191794	-0.00481001	-0.00295854	
-0.000107207	-0.00053541	0.00198966	
-0.000357134	0.000498498	-0.000243001	
0.000391117	-0.000496464	0.000609089	
-0.000533824	0.000494073	2.05967e-05	
-0.000138603	-0.000318393	0.00184481	
-0.000106295	0.000166074	-0.000396625	
0.0107315	0.0218923	0.0126521	
0.00626694	0.00762506	0.00328721	
0.0109128	0.0160041	0.00584909	
0.00916389	0.0273318	0.0120118	
-0.000646478	8.3211e-06	0.00182389	
3.3345e-05	-1.14671e-05	-0.000175653	
-0.000615991	0.000101948	0.00221177	
0.00264761	0.00567125	0.00227202	
0.000120485	4.73595e-05	-0.000538477	
-2.88242e-05	-0.000348657	0.00203715	
6.19223e-05	-0.000539754	0.00161526	
-0.000274559	-0.000245442	0.0024124	
0.0288791	-0.0138145	0.0107783	
0.00497952	0.00654008	-0.0269274	
-0.00672274	0.0218421	-0.00475743	
0.00144751	-0.00279414	-0.000202998	
-0.00598854	0.0195037	-0.00623294	
-0.0083901	0.0265825	-0.00546261	
-0.00787274	0.0115301	-0.00991369	
-0.00684754	0.0084893	-0.00657917	
0.00172272	-0.00752945	0.00387595	
0.000457345	-0.00482051	0.00240987	
-0.000555283	0.00224153	-0.00115844	
-0.00111618	-0.00183262	0.00327474	
-0.000171562	-0.000127172	-0.00246776	
-0.0221454	0.028768	-0.0237439	
-0.00904649	0.0250813	-0.0146023	
0.00133788	-0.00245146	-0.00176269	
0.000864224	-0.00396247	0.00172895	
0.000632585	-0.00376544	0.00186309	
0.000139917	-0.00339917	0.00103727	
-0.00185868	0.0070588	-0.00320687	
-0.000303092	-5.01693e-05	0.000199684	
-0.000205169	-0.000137236	-0.000127282	
6.57605e-06	-0.000210129	-2.5461e-05	
0.000167318	-8.31602e-05	-0.000317405	
-0.000732474	-0.00148704	-0.000101347	
0.0277173	-0.061481	0.022308	
0.00344754	-0.00417942	-0.00103685	
-0.00119809	-0.0015029	-0.00250245	
-0.00521507	0.0168027	-0.00556384	
-0.000408009	-0.000569372	-0.000540428	
0.000110066	-0.00208413	-0.00227496	
0.000368562	-0.000196223	-0.000514883	
0.0116535	-0.0072166	0.0020972	
2.98867e-05	-0.00176918	-0.00137183	
-0.000127576	-0.000765607	-0.00080018	
-3.50049e-05	-0.000224691	-0.000312962	
0.000242262	-4.96764e-05	-0.000392086	
-0.00258153	0.00362773	0.00571693	
0.00763128	-0.0229671	-0.0113881	
-0.00612181	-0.000393808	0.0347243	
0.00562819	-0.00111017	-0.0103224	
0.00748886	-0.00126079	-0.0124867	
0.0116042	-0.00313195	-0.0218173	
0.00123039	0.00219722	-0.00791869	
0.00714363	-0.000976786	-0.0117114	
0.00439242	0.000579402	-0.0154969	
0.00834747	-0.00148466	-0.0133959	
0.0130569	-0.00084507	0.0465181	
0.0018512	-0.0033072	0.00526513	
0.00173277	0.000307306	0.0291745	
-0.000126341	0.00389635	0.000566743	
0.00356508	0.000666529	-0.0119304	
0.00121527	0.00264004	-0.00666213	
0.000807886	0.00344222	-0.00257458	
-0.00095491	0.00240173	-0.00161639	
0.00822264	0.00189385	0.0333864	
0.00541133	-0.00734915	0.010016	
0.00263642	0.000506273	0.0340687	
3.73382e-05	-8.70771e-05	0.000135067	
0.00581606	-0.00441609	0.0111627	
0.000159164	2.2254e-05	6.08385e-05	
-0.00210784	-0.000527581	0.025223	
-1.219e-05	0.000251871	-9.445e-05	
-0.00072506	0.00357256	5.2906e-05	
0.000917262	0.00141971	-0.000127469	
-0.00265824	0.00267153	0.0106352	
-0.000719277	0.00157984	-0.00128316	
-0.00151326	0.000526308	0.0129976	
0.00150309	0.00341474	-0.00559343	
0.000301982	-0.00044893	-0.000184328	
-0.000141246	0.00338574	-0.000860994	
0.00112191	0.0026097	-3.94956e-06	
0.00108627	0.000589224	-0.000347194	
0.00113927	0.00202554	7.37011e-05	
-0.00470028	-0.0126961	-0.00309651	
-0.0183303	-0.0544595	-0.162378	
-0.00357009	-0.00609274	-0.000451947	
0.00268235	0.00566671	0.00258516	
-0.00154691	-0.00276825	0.00048623	
0.00629234	0.0132002	0.0087361	
-0.0100969	-0.0235565	-0.00752116	
0.00474118	0.00902128	0.00444888	
-0.00250689	-0.0069701	-0.0038901	
0.000912499	0.00113484	0.00599618	
0.00158199	0.00335206	0.00421232	
-0.00487844	-0.00419783	-0.0126917	
0.00510437	0.00950005	0.005104	
-0.000366785	-0.00191898	0.000673265	
0.0054069	0.0108362	0.00583042	
0.00496606	0.00885339	0.00418909	
0.000472842	-0.000338793	0.00192308	
-0.0051402	-0.0156913	-0.00948176	
-0.00212652	-0.00500474	-0.00265558	
-0.000368628	-0.0011855	0.00161541	
-0.000268291	0.000451586	-0.000456732	
0.000425032	-0.000517335	0.000669472	
0.000505136	0.000443559	-0.00031899	
-0.000116663	-0.000331757	0.00184115	
-7.91679e-05	0.000123136	-0.000292965	
0.0116715	0.0214878	0.0126122	
0.0052572	0.00866417	0.0033197	
0.0103934	0.0167836	0.00568024	
0.0126611	0.0255895	0.0109754	
-0.000470042	2.81229e-05	0.0016097	
2.68286e-05	-9.16182e-06	-0.000122115	
-0.000479664	0.00015024	0.00197682	
0.00296718	0.00557492	0.0022474	
0.000129038	3.06681e-05	-0.000520945	
-3.53974e-05	-0.000319971	0.00161554	
4.50554e-05	-0.000584767	0.00168927	
-0.00019797	-0.000226433	0.00230437	
0.027794	-0.0144831	0.0147866	
0.00581332	0.00518278	-0.0258987	
-0.00813239	0.0217326	-0.00541961	
0.00133718	-0.00288775	0.000563015	
-0.00596518	0.0199724	-0.00603081	
-0.0090492	0.0268111	-0.00567509	
-0.00558895	0.0133882	-0.00945381	
-0.00481312	0.0100822	-0.00665941	
0.00149128	-0.00708178	0.00421574	
0.000448723	-0.00438244	0.00276343	
-0.000624417	0.002466	-0.000888075	
-0.000563892	-9.3733e-05	0.00363837	
1.54388e-05	-0.000125695	-0.00251089	
-0.0167339	0.0339058	-0.0236087	
-0.0124787	0.0236813	-0.0155063	
0.000705938	-0.00247447	-0.00170664	
0.000860018	-0.00357986	0.00204511	
0.000632232	-0.00338957	0.00213933	
0.000148568	-0.00305723	0.00146359	
-0.00175534	0.00744017	-0.00302949	
9.7421e-05	-9.17912e-05	-6.29623e-05	
8.37161e-05	5.26618e-05	5.2155e-05	
6.33993e-05	5.98955e-05	1.75334e-05	
6.33475e-05	-3.4288e-05	-0.000123319	
-0.000827424	-0.00134092	-7.58974e-07	
0.0289937	-0.0614833	0.0205394	
0.0023438	-0.00492412	-0.000553413	
-0.000475295	-0.00166775	-0.00222045	
-0.0066261	0.0163347	-0.00644705	
-0.000439875	-0.00073191	-0.000612796	
1.44013e-05	-0.00207342	-0.0022098	
0.000395228	-0.000211585	-0.000568028	
0.00949195	-0.00850128	0.00490476	
-8.29237e-05	-0.00173591	-0.00125954	
-0.000143543	-0.000719934	-0.000861476	
6.88424e-06	4.43524e-05	6.18324e-05	
0.000164608	-3.73058e-05	-0.000279424	
-0.00295788	0.00345969	0.00552437	
0.0091535	-0.0214655	-0.010115	
-0.00657216	-0.000370428	0.0354266	
0.00594029	-0.00115376	-0.0106409	
0.0073009	-0.00127167	-0.0131123	
0.0100704	-0.00390407	-0.0233085	
0.00225844	0.00190911	-0.00767332	
0.00646231	-0.00129458	-0.0126901	
0.00601711	0.000300107	-0.0150618	
0.00716914	-0.00205984	-0.0146625	
0.0135415	-0.000797746	0.0473219	
0.0020706	-0.00288823	0.00611098	
0.00171168	0.000589896	0.0296364	
0.000133765	0.00447906	0.00155283	
0.004281	2.65162e-05	-0.0118024	
0.00196669	0.00223714	-0.00645194	
0.000987752	0.00336906	-0.00285883	
-0.00102065	0.00251781	-0.00174524	
0.00854565	0.00206262	0.0339909	
0.00499577	-0.00725654	0.0105515	
0.00270436	0.000970285	0.0349691	
0.000142082	6.20911e-05	1.15895e-05	
0.0060461	-0.00463206	0.0115604	
7.38328e-05	3.14234e-05	0.000124416	
-0.00211608	-0.000213433	0.0259358	
-9.60496e-06	0.000122843	-5.01786e-05	
-0.000732888	0.00322127	0.000150479	
0.000989935	0.00152936	-0.000141358	
-0.00281389	0.00265695	0.0108803	
-0.000905688	0.00188957	-0.00154294	
-0.00153134	0.00075098	0.0135543	
0.00168457	0.00321261	-0.00559508	
0.000273662	-0.00040603	-0.000167297	
-0.000121628	0.00309357	-0.000755021	
0.00120071	0.00280982	3.91737e-05	
0.00107451	0.000533843	-0.000322901	
0.00122113	0.00220616	8.57437e-05	
-0.0055515	-0.0126094	-0.00270587	
0.00332075	-0.072259	-0.16331	
-0.00298037	-0.00521538	-0.000344909	
0.00307455	0.00545678	0.00260058	
-0.00144826	-0.00267158	0.000306148	
0.00600857	0.0129687	0.00835945	
-0.0115798	-0.0224133	-0.00712415	
0.00540467	0.00895363	0.00412152	
-0.00254364	-0.00721477	-0.00428051	
0.000437162	0.00203024	0.00531346	
0.00163953	0.00366797	0.00420398	
-0.00342729	-0.00654328	-0.0116838	
0.00571171	0.00949711	0.00482846	
-0.000374771	-0.00148603	0.000549641	
0.00595189	0.0114389	0.00584008	
0.00508868	0.00902799	0.00413802	
0.000467506	-0.000188642	0.00175284	
-0.00477277	-0.0154224	-0.00997581	
-0.0025025	-0.00461677	-0.00306409	
-0.000406499	-0.00126886	0.00120051	
0.000367412	0.000207701	-0.000153257	
0.000345717	-0.000491743	0.00063135	
0.000529585	0.000214694	-0.000194434	
-0.00010196	-0.000302348	0.00166484	
-6.69624e-05	0.000104458	-0.000249052	
0.0119487	0.0216648	0.0122769	
0.00510917	0.00895077	0.00334145	
0.0100659	0.0172255	0.00583655	
0.0125496	0.0251887	0.0105663	
-0.000391689	4.60446e-05	0.00134349	
1.37701e-06	-1.30615e-06	-8.49896e-06	
-0.000411582	0.000136372	0.00171518	
0.00313432	0.00549376	0.00243152	
7.1666e-05	1.38528e-05	-0.000282379	
-3.20258e-05	-0.000246605	0.00131128	
4.60703e-05	-0.000544473	0.00159115	
-0.000158353	-0.000186009	0.001923	
0.02613	-0.0152895	0.0180889	
0.0061433	0.00524497	-0.0258861	
-0.00819193	0.0220445	-0.00530262	
0.00129821	-0.00291846	0.00121945	
-0.0060671	0.0200794	-0.00609673	
-0.00903658	0.0270151	-0.00594153	
-0.00650131	0.012965	-0.00982951	
-0.00560628	0.00969113	-0.00688588	
0.00156118	-0.00713027	0.00405515	
0.000437242	-0.0044649	0.00266017	
-0.000628229	0.00249294	-0.000970049	
-0.000794464	-4.25611e-05	0.00362533	
-7.00798e-05	-8.52498e-05	-0.00223273	
-0.019333	0.0333304	-0.0245069	
-0.0127067	0.0243325	-0.0152012	
0.000589609	-0.00225945	-0.00149677	
0.000849105	-0.00360992	0.00190853	
0.000643493	-0.00347948	0.00202339	
0.000107026	-0.00313362	0.00133775	
-0.00180012	0.0074271	-0.00310373	
-6.70383e-06	6.41367e-06	5.2118e-06	
-8.58393e-06	-5.5368e-06	-5.44331e-06	
-2.20184e-06	-6.58555e-06	-5.22361e-07	
6.76231e-05	-3.59906e-05	-0.000130139	
-0.000721568	-0.000920066	2.23333e-05	
0.0310367	-0.0598546	0.0205647	
0.00208402	-0.00478747	-1.6599e-05	
-0.000125358	-0.00171287	-0.00165721	
-0.0066743	0.0165985	-0.00628467	
-0.000296992	-0.000498695	-0.000431284	
-1.85091e-05	-0.00173725	-0.00180264	
0.000261297	-0.000140523	-0.000378098	
0.00786482	-0.00890018	0.00641485	
-0.000139667	-0.00155644	-0.00109013	
-0.000130086	-0.00068509	-0.000789094	
-4.75884e-06	-3.13071e-05	-4.36293e-05	
0.000129557	-3.06474e-05	-0.000218644	
-0.00283606	0.00375572	0.0049316	
0.00832994	-0.0204312	-0.0113004	
-0.00561123	-0.00204717	0.0362917	
0.00591578	-0.000857569	-0.0110366	
0.00696153	-0.00150077	-0.0136184	
0.0115437	-0.00464726	-0.0227652	
0.00254955	0.00135603	-0.00783934	
0.00612978	-0.00147456	-0.012955	
0.00634547	-0.000324188	-0.0149587	
0.00702119	-0.00260992	-0.0146762	
0.0144895	-0.00125672	0.0474904	
0.00249299	-0.00296335	0.00627131	
0.00231297	-0.000115598	0.0302571	
-0.000383143	0.0047947	0.00165818	
0.00486655	-0.000273554	-0.0116334	
0.00214981	0.00183633	-0.00672795	
0.000625371	0.00263038	-0.00167915	
-0.000682761	0.00173769	-0.00123836	
0.00910945	0.00174136	0.0342901	
0.00486228	-0.0073499	0.0106992	
0.00328904	0.000326021	0.0355748	
7.30565e-05	1.95773e-05	1.08442e-05	
0.00619614	-0.00479378	0.0117996	
2.18006e-05	3.42751e-05	5.24344e-05	
-0.0014886	-0.00116698	0.0264732	
-5.37355e-05	0.000564847	-0.00024541	
-0.000746753	0.00316311	0.000308797	
0.000515246	0.000793031	-9.10834e-05	
-0.00261311	0.00132905	0.0114759	
-0.000608323	0.0012594	-0.00104718	
-0.00148178	-0.000226368	0.0140433	
0.00152496	0.00282497	-0.00537886	
0.000126123	-0.000178244	-8.68779e-05	
-0.000110421	0.00292676	-0.000711596	
0.000704167	0.001627	1.28145e-05	
0.000461384	0.000236371	-0.000155259	
0.000677576	0.00119951	2.79861e-05	
-0.0059314	-0.0124965	-0.00218173	
-0.00087305	-0.0670382	-0.169636	
-0.00276369	-0.00504398	-0.000523295	
0.00333873	0.00535133	0.00295672	
-0.00140596	-0.00273892	-6.95705e-05	
0.00582367	0.0129637	0.00806668	
-0.0112755	-0.0225102	-0.00669783	
0.00551046	0.008954	0.00469218	
-0.00258618	-0.00736055	-0.00476051	
0.00018149	0.0014481	0.00510734	
0.0015516	0.0036947	0.0038392	
-0.00293084	-0.00531851	-0.0125419	
0.00572324	0.00943281	0.00557791	
-0.000239442	-0.0013324	0.000753626	
0.00594132	0.0117929	0.0059002	
0.00520111	0.00893665	0.0048678	
0.000280379	-0.000250298	0.00115541	
-0.00470464	-0.0154161	-0.0100911	
-0.00258176	-0.00449664	-0.00330904	
-0.00032126	-0.00103483	0.000808518	
0.000242789	0.000146471	-0.000114	
0.000269252	-0.000358472	0.000411511	
0.000372608	-6.08948e-05	5.54176e-05	
-7.94911e-05	-0.000258619	0.0014166	
4.43153e-06	-6.72925e-06	1.66856e-05	
0.0118955	0.0220028	0.0121835	
0.00521954	0.00900719	0.00424066	
0.0100092	0.0175638	0.00668784	
0.0121347	0.0254482	0.0105322	
-0.000401887	5.71841e-05	0.00137387	
-0.000177194	5.55695e-05	0.00080174	
-0.000359846	0.000125615	0.0014807	
0.00316045	0.00550807	0.00295969	
-0.000103127	-2.03762e-05	0.000400892	
-4.05108e-05	-0.000235977	0.00133015	
3.76448e-05	-0.000432504	0.00126124	
-0.000131136	-0.000139885	0.00155021	
0.0242928	-0.0173421	0.020369	
0.00542245	0.00582516	-0.0255999	
-0.00818008	0.02232	-0.00523706	
0.00109982	-0.0030614	0.00144512	
-0.00608091	0.0202499	-0.00612737	
-0.00901112	0.0272248	-0.00606574	
-0.00682462	0.0133355	-0.00947075	
-0.00594608	0.0100453	-0.00639343	
0.00154184	-0.00701704	0.0040505	
0.000431299	-0.00435648	0.00273178	
-0.000646353	0.00255963	-0.000963251	
-9.54723e-05	0.000313023	0.0036389	
-0.000262073	0.000260093	-0.00170887	
-0.0198423	0.0343878	-0.0242093	
-0.0125975	0.0248656	-0.0150486	
0.000651808	-0.00192132	-0.00108786	
0.000845025	-0.00351715	0.00190862	
0.000636307	-0.00341524	0.00204351	
0.000119097	-0.00306981	0.0013861	
-0.00180709	0.00751797	-0.00310844	
1.82465e-05	-3.03272e-05	-2.11544e-05	
2.10341e-05	1.3738e-05	1.35745e-05	
1.97656e-05	1.41335e-05	1.72391e-06	
5.47497e-05	-2.96667e-05	-0.000105868	
-0.000986909	-0.00109239	2.52452e-05	
0.0309053	-0.0596386	0.0206131	
0.00231553	-0.00424127	0.000352899	
-6.54878e-05	-0.00149629	-0.00132325	
-0.00659829	0.0167771	-0.00616112	
-0.000223199	-0.000375877	-0.000333145	
-6.67003e-06	-0.00135776	-0.00137508	
0.000203642	-0.000110028	-0.00029533	
0.00722781	-0.00897875	0.00702865	
-0.00016029	-0.00157974	-0.00109812	
-8.74921e-05	-0.000446651	-0.000519469	
-8.944e-07	-6.02538e-06	-8.34547e-06	
0.000108187	-2.62583e-05	-0.000183476	
-0.00302082	0.00342909	0.00490275	
0.00698364	-0.0206079	-0.0105357	
-0.00475607	-0.00306525	0.0367241	
0.00623539	-0.00143187	-0.0109346	
0.00709454	-0.00193755	-0.0133096	
0.0119074	-0.00535927	-0.0227137	
0.00247754	0.000563109	-0.0072432	
0.00670931	-0.00224036	-0.0125607	
0.0065084	-0.0010791	-0.0150269	
0.00763501	-0.0031428	-0.0143007	
0.0147507	-0.00163118	0.0476721	
0.00269671	-0.00306258	0.0063162	
0.00249633	-0.000601858	0.0305636	
-0.00120957	0.00439931	0.00260672	
0.00513326	-0.00106326	-0.0114977	
0.00195371	0.000688374	-0.00600029	
0.000611371	0.00102361	-0.00128794	
-0.000450517	0.00114173	-0.000822494	
0.00943069	0.00151723	0.0344367	
0.00461861	-0.00740943	0.0108241	
0.00346315	-5.31865e-05	0.035847	
6.47462e-05	2.4112e-05	-1.08673e-05	
0.00606869	-0.00498616	0.0119741	
7.75351e-06	4.52124e-05	3.65493e-05	
-0.00119179	-0.00170115	0.0265877	
-1.60161e-05	0.000141424	-6.24905e-05	
-0.000649269	0.00147062	0.00112861	
0.000286057	0.000439834	-5.38282e-05	
-0.00231982	0.000184487	0.0117462	
-0.000373259	0.000779772	-0.000647737	
-0.00142885	-0.000789849	0.0142102	
0.00146894	0.00103075	-0.00499666	
9.11629e-05	-0.00012382	-6.30121e-05	
-3.93398e-05	0.00110082	-0.000267469	
0.000318384	0.000740981	-4.13499e-06	
0.000292694	0.000153483	-0.0001016	
0.000308527	0.000555243	6.18733e-06	
-0.00665624	-0.0124652	-0.00253343	
-0.000689009	-0.0521134	-0.177787	
-0.00185501	-0.00344072	-0.000384918	
0.00339847	0.00539137	0.00214202	
-0.0011894	-0.00248744	-0.000566381	
0.0051733	0.0120591	0.00688818	
-0.011164	-0.0214883	-0.00791429	
0.00534705	0.00936333	0.0032051	
-0.00254877	-0.00733461	-0.00519325	
-0.000433492	0.00115534	0.00544826	
0.00177581	0.0047602	0.00382414	
-0.00205291	-0.00456879	-0.0133835	
0.00606224	0.00969581	0.00403043	
-0.000269027	-0.000733725	3.78505e-05	
0.00651151	0.0125251	0.00511731	
0.0058045	0.00902041	0.00327425	
0.000593024	0.000712603	0.00170419	
-0.00443378	-0.0157148	-0.0108609	
-0.00247071	-0.00425728	-0.00397731	
-0.00071763	-0.00218024	-9.14603e-05	
0.000178962	0.000123045	-8.10713e-05	
0.000189141	-0.000257206	0.00029061	
0.000315787	-7.62952e-06	5.70655e-05	
-3.64338e-05	-0.000126828	0.000690209	
-0.000126082	0.000197329	-0.000471187	
0.011934	0.0220888	0.0114633	
0.00574941	0.00889088	0.00248167	
0.0104771	0.0174549	0.00518812	
0.0115949	0.0245971	0.00913734	
-0.000160658	2.33843e-05	0.000555044	
0.000177301	-5.82095e-05	-0.000836156	
-0.00024043	8.38263e-05	0.000987588	
0.00338454	0.0055996	0.00191498	
0.000216623	3.8683e-05	-0.000875672	
-2.10943e-05	-0.000106746	0.000617813	
1.09626e-05	-0.000199611	0.000591199	
-0.000107568	-0.000120278	0.00130308	
0.0233979	-0.0174618	0.0212846	
0.00527329	0.00620555	-0.0254082	
-0.00816437	0.022455	-0.00513804	
0.00175627	-0.00248585	0.00196712	
-0.00607133	0.0202825	-0.00610789	
-0.00907334	0.027331	-0.00603583	
-0.00689421	0.0136482	-0.00921599	
-0.0061876	0.0104416	-0.00611538	
0.00156538	-0.00697042	0.00400728	
0.000432196	-0.00434288	0.00271235	
-0.00065627	0.00259849	-0.000970636	
0.000137302	0.000275096	0.00362934	
-0.000204565	0.000224943	-0.00136546	
-0.0198477	0.0353375	-0.0240624	
-0.0126134	0.0252884	-0.0149482	
0.000385572	-0.0011828	-0.00071988	
0.000847202	-0.00347814	0.00187088	
0.000632063	-0.00341125	0.0020202	
0.000116075	-0.00305821	0.00138035	
-0.00182009	0.00755658	-0.00314031	
5.62077e-06	-1.28286e-05	-8.92188e-06	
7.44586e-06	4.94847e-06	4.86747e-06	
8.51892e-06	4.35547e-06	2.91465e-07	
2.63584e-05	-1.485e-05	-5.14958e-05	
-0.000143279	-0.000146768	9.08789e-07	
0.0312099	-0.0592447	0.0204592	
0.00227932	-0.0040928	0.000454939	
0.000535933	-0.00173576	-0.000446077	
-0.00658884	0.0169506	-0.00604187	
-0.000135761	-0.000232457	-0.00020758	
-1.10128e-05	-0.00122198	-0.00126391	
0.000102006	-5.63673e-05	-0.000148248	
0.00718864	-0.00801402	0.00734753	
-4.28367e-05	-0.000455903	-0.000308625	
-5.76208e-05	-0.000312152	-0.000370916	
-1.80638e-06	-1.24211e-05	-1.72439e-05	
5.20712e-05	-1.33952e-05	-8.89727e-05	
-0.00309198	0.00328252	0.00491168	
0.00700308	-0.0204772	-0.00975706	
-0.00463529	-0.00308687	0.0369656	
0.00630675	-0.00162171	-0.0110612	
0.00730158	-0.00211949	-0.0134551	
0.011875	-0.00534231	-0.0233552	
0.00230337	0.000260254	-0.00678677	
0.00670351	-0.00211093	-0.0129199	
0.00624063	-0.00139464	-0.0146746	
0.0076566	-0.00305725	-0.0146591	
0.0148327	-0.00177882	0.0476992	
0.00272915	-0.00315713	0.00656096	
0.00259324	-0.000640786	0.0307071	
-0.00101536	0.0050928	0.00242309	
0.00501154	-0.000985447	-0.0118934	
0.00180901	0.0003686	-0.00568904	
0.000578049	0.000953552	-0.00116315	
-0.00056702	0.00141644	-0.00102484	
0.0095751	0.00146587	0.0345413	
0.00432172	-0.00744131	0.0110084	
0.00348933	-3.46181e-05	0.0360914	
1.95527e-05	-2.8185e-05	3.69868e-05	
0.0059217	-0.00516761	0.0121025	
-8.7685e-06	6.0859e-05	1.25972e-05	
-0.00117274	-0.00164526	0.0267488	
-5.50401e-06	4.31357e-05	-1.93369e-05	
-0.000637956	0.00125913	0.00134092	
0.000269238	0.000419668	-5.20533e-05	
-0.00230005	0.000122432	0.0118503	
-0.000479134	0.000996092	-0.000837119	
-0.00142082	-0.00073662	0.0142704	
0.00140402	0.000953879	-0.00495715	
0.00011512	-0.000147682	-7.68007e-05	
-3.24268e-05	0.000968736	-0.000230944	
0.000301931	0.000706091	-5.28205e-06	
0.00029263	0.000159531	-0.000101856	
0.000300709	0.000549084	3.9893e-06	
-0.00637041	-0.0125439	-0.0019323	
-0.00749518	-0.0667026	-0.176838	
-0.00199679	-0.00347384	9.85959e-06	
0.00344404	0.00530707	0.00304941	
-0.00130267	-0.00252618	4.83828e-05	
0.00529637	0.0119929	0.00759634	
-0.0104994	-0.0220961	-0.00619353	
0.00553225	0.00921499	0.00524676	
-0.00268242	-0.00778349	-0.00502631	
-0.000561864	0.00162147	0.00496152	
0.00196855	0.00469583	0.00454748	
-0.00121336	-0.00417014	-0.0134253	
0.00577945	0.00977061	0.00604346	
8.04753e-05	-0.000862842	0.00117635	
0.00626476	0.0125759	0.00610939	
0.00538308	0.00928576	0.00517534	
0.000677165	0.000539038	0.0019433	
-0.00445931	-0.0155795	-0.0106455	
-0.00235727	-0.00451638	-0.00384071	
-0.000834251	-0.00239194	0.000116282	
0.000328293	2.10333e-05	1.74197e-05	
0.000293503	-0.000404744	0.000480025	
0.000345038	-0.000161818	0.000167711	
-6.80043e-05	-0.000265041	0.00141752	
3.80359e-05	-5.94981e-05	0.000143043	
0.0118121	0.0221136	0.012082	