<VTKFile type="UnstructuredGrid" version="0.1" byte_order="LittleEndian">
	<UnstructuredGrid>
		<Piece NumberOfPoints="16761" NumberOfCells="16761">
			<CellData Scalars="scalars">
				<DataArray type="Float64" Name="Strength" NumberOfComponents="3" Format="ascii">
-0.00886823	-0.0142098	0.0145019	
-0.0214294	-0.0139401	-0.0192147	
0.0257599	0.0673574	0.0170781	
0.00593733	-0.00731045	-0.0059584	
0.00639077	-0.000622185	-0.0111748	
0.00874475	0.0516539	-0.0404267	
0.0156091	0.0837342	-0.0388272	
-0.00124595	0.0120892	-0.0218823	
0.0111765	0.0818794	-0.0421303	
-0.000199642	0.0241875	-0.0321925	
0.000455965	0.0240922	0.0394773	
0.00520521	-0.00196412	-0.0017648	
0.00231951	0.043811	0.00773533	
0.000417934	-0.00107035	0.00247454	
0.00681661	0.0670181	-0.0454211	
0.0124062	0.0858908	-0.0302581	
0.0200045	0.0943354	0.016583	
-0.00324142	0.0506573	-0.0502093	
0.00516021	0.0188593	0.0255112	
0.00373888	-0.0101609	0.00994285	
-0.00183537	0.0391717	0.0130366	
0.00194223	0.0037687	-0.00127959	
0.000666939	-0.00483947	0.0106805	
0.00102902	0.00191654	-0.0014422	
0.0115326	0.0501181	0.00700479	
-0.000579192	-0.0125149	0.0047291	
0.0157569	0.087306	-0.0259879	
0.00148263	0.0364585	0.0249237	
0.023844	0.0842608	0.0179276	
-0.0113715	0.0333417	-0.03796	
0.00620043	0.0516394	0.0201161	
0.0200034	0.091223	-0.000235801	
0.000598039	0.00024318	0.000175676	
0.0166687	0.087604	-0.0138227	
0.00262191	0.0809741	0.0111292	
0.00980415	-0.00300478	0.019964	
-0.0058137	0.0569812	0.0249094	
-0.0139647	-0.0069934	-0.0244399	
-0.120039	-0.0737019	-0.0493153	
0.0220279	0.0103955	0.0471802	
0.00105584	0.0116463	-0.0142236	
0.0140566	-0.0246887	0.0489156	
-0.00651729	-0.0193712	0.0665549	
-0.0148756	-0.0108355	0.0592221	
0.0173228	-0.0174424	0.0518364	
0.0219915	-0.0130099	0.0337855	
0.0112537	-0.001167	0.0172236	
0.0140807	-0.0243652	0.0519629	
0.0159847	-0.0301294	-0.0367229	
0.0116857	-0.00226327	0.0491892	
0.00216811	-0.00949651	0.0272913	
0.00577058	0.0142512	0.0542124	
0.00651041	0.00760125	0.0404471	
0.035416	-0.0188404	0.0332622	
0.0143432	-0.0186348	0.025647	
-0.00173922	-0.0203881	-0.00194807	
0.0124606	-0.030164	0.0492742	
0.00432826	-0.0110049	0.0488794	
0.00916264	-0.0244977	0.00418357	
-0.000756557	-7.52487e-05	0.0201538	
0.0135276	-0.0161225	0.0570555	
-0.00724984	0.007733	-0.0203893	
0.0215419	0.00466955	0.0397699	
0.0036826	0.0094851	0.0311918	
0.00873607	0.0153103	0.0154915	
0.00117602	-0.0189752	0.0774653	
-0.00497561	0.0165558	0.0381171	
-0.00397639	0.00352272	0.0188531	
0.00629792	0.0121279	0.0437051	
0.00471771	0.00808562	-0.0109094	
0.0013722	0.000175411	-0.00482196	
0.00126954	-0.00202009	0.0256291	
0.0211038	-0.0208205	0.0494561	
0.00835944	-0.00374053	0.0527159	
0.0111788	-0.0606229	0.00377078	
0.0011023	0.00418395	-0.03754	
-0.00457522	0.00214924	-0.0331596	
-0.00885592	-0.044234	-0.00262611	
-0.0107567	0.0144314	-0.00968691	
-0.0147564	0.00936574	-0.0239804	
0.00910707	0.00103361	-0.054114	
0.0133881	-0.00387781	-0.0581381	
0.00290751	-0.00968308	0.00107966	
0.001981	-0.00716033	0.00147662	
0.000466962	0.00113799	-0.00343905	
-0.000929529	-0.00110056	0.00810437	
0.0156149	-0.0176658	-0.0670179	
-0.0125354	-0.0149582	-0.048676	
-0.0131554	-0.0453995	-0.0251718	
0.0176964	-0.0378092	-0.0607315	
0.00109438	-0.0049806	0.000744546	
0.000170425	-0.00612065	-0.000609973	
-0.000222053	-0.00540105	-0.00171905	
-0.00205832	0.00536886	-0.00457168	
0.000991609	0.000931341	0.00388465	
-0.00213155	-0.00227627	0.000361377	
-0.00150183	0.00146687	-0.00199811	
0.00702132	0.00236983	-0.00831842	
-0.0173193	-0.0469713	0.0124011	
0.0519527	-0.0469129	-0.0562792	
0.0167411	-0.0458374	-0.0545691	
0.000941229	-0.05763	-0.042203	
-0.00348251	0.000965798	-0.0355927	
0.00213615	-0.0587446	-0.0154579	
0.00728902	-0.0502849	-0.0486955	
-0.00191208	0.00387122	-0.0429969	
0.0053347	-0.0530999	-0.0296548	
-0.000160961	-0.0676715	-0.0438093	
0.00255232	-0.0109787	-0.0143515	
1.44229e-06	6.68099e-06	9.31877e-06	
0.00958644	0.0122278	-0.0167574	
-0.00142106	0.00359584	0.0065792	
0.0093654	-0.0204256	-0.0204176	
-0.0221862	-0.00370973	0.0262241	
0.00450833	-0.00171986	-0.0107583	
0.00702057	-0.000384403	-0.0130051	
0.0193236	0.016538	-0.00712153	
0.0037831	0.0140446	-0.000706868	
0.00718913	0.00254791	-0.0124781	
0.00745654	0.0191315	0.001717	
0.0106372	0.00562943	-0.0125526	
0.0252488	0.000891203	0.0400423	
-0.00278794	-0.00271572	0.00344484	
-0.00186184	-0.00191556	0.0283293	
-0.000635304	0.00169437	0.00149834	
0.00734629	0.0152047	-0.00321179	
0.00287374	0.013509	0.00140826	
0.00219544	0.00919425	0.00668242	
0.00044145	0.00604678	-0.00884755	
0.0171845	0.00387829	0.0287389	
0.00375567	-0.00632106	0.0111441	
0.00427469	0.00259616	0.0328479	
0.000231962	-8.43045e-05	0.000196377	
0.00339699	-0.00435628	0.0110174	
-0.000320749	-0.000270442	-5.19528e-05	
-0.00800377	-0.0037492	0.0231037	
-7.19497e-06	0.00018426	-8.49612e-05	
-0.000917071	0.0110506	-0.00181983	
0.00538239	0.00105916	0.00149783	
-0.00921545	0.00500085	0.00784329	
-0.00156627	0.0038562	-0.00730279	
-0.00346879	-0.00114948	0.012684	
0.00299716	0.00982411	0.00603567	
-0.000969816	0.000788429	0.00060631	
-0.000562003	0.0103005	0.00106685	
0.00449166	0.00293753	0.00705664	
0.00191422	-0.0019623	-0.00061678	
0.00522787	0.00195984	0.00465854	
-0.00113439	-0.012683	-0.00571983	
0.0297889	-0.102772	-0.121013	
-0.0108374	0.000704445	0.003106	
0.000738406	0.00688831	0.00152776	
-0.00411	-0.00384656	0.00369349	
0.0137983	0.000958632	0.0162898	
-0.0275628	-0.00522632	0.00623072	
0.0113673	-0.000115701	0.00392735	
0.00181944	-0.00808068	-0.000495116	
-0.00228494	0.000917176	0.00664976	
0.001016	-0.00178295	0.00767409	
-0.0021578	-0.00498606	-0.0122359	
0.0109614	0.000792401	0.00611901	
-0.00141299	-0.00204522	0.00487099	
0.00982264	0.00394134	0.00931022	
0.00953885	0.00282876	0.00556568	
0.000169973	-0.003003	0.0048902	
-0.00398754	-0.015467	-0.0081982	
0.00287895	-0.00454201	-0.00268028	
-0.000446601	-0.00297466	0.00637954	
-0.00204738	0.00112097	-0.000824702	
0.00208277	-0.00186455	0.00119172	
0.000192931	0.00225964	0.000797223	
-0.00160689	-0.00260946	0.00560894	
-0.000491088	0.000489947	-0.00132667	
0.0229656	0.0120391	0.0146675	
0.00878303	0.00483312	0.00430077	
0.012524	0.015447	0.00497076	
0.0297497	0.00216547	0.0167322	
-0.00157444	0.00324841	0.00483176	
-0.000218845	0.000287351	0.000731107	
-0.000283	0.00336887	0.00616984	
0.00217994	0.00628473	0.00104113	
0.00035602	-7.71694e-05	-0.000903389	
0.000104323	0.000349349	0.00621929	
-0.000269739	-0.00311642	0.00531501	
-0.00142535	-0.00103875	0.00739452	
0.0265986	-0.020488	-0.00717866	
0.0097072	-0.0121606	-0.0210568	
-0.013534	0.019291	-0.00037598	
0.000512817	-0.00672146	-0.000532853	
-0.005293	0.0212074	-0.000443459	
-0.0117065	0.0261839	0.00281004	
-0.00825087	-0.00131017	-0.0160843	
-0.00655165	-0.00105419	-0.0119247	
0.00126721	-0.00594811	0.00579563	
0.000326255	-0.00303981	0.00404442	
-0.00084137	0.0026558	0.000338735	
-0.00256233	0.00180504	0.00217092	
0.000879404	-3.04606e-05	-0.00836794	
-0.0300895	-0.0114602	-0.0281607	
-0.0236986	0.0176565	-0.00750865	
0.00287072	-0.00300876	-0.00891124	
0.00116286	-0.00295878	0.00306604	
0.000844102	-0.00225834	0.00318357	
0.000510626	-0.00235432	0.00234057	
-0.00108936	0.00845363	-0.00131289	
-0.000946698	0.000234635	0.0011843	
0.00108049	8.67638e-06	-4.896e-05	
9.01597e-05	-8.15417e-05	0.000818077	
-0.000393352	-5.85889e-05	0.000260958	
-0.00120661	-0.00468453	0.00262125	
0.0540924	-0.0353383	-0.0341704	
0.00495003	-0.00436881	-0.00900218	
-0.00141487	-0.00816581	-0.00464124	
-0.0102528	0.0152185	-0.00307034	
-0.00139816	-0.00237302	-0.00109268	
0.000889649	-0.00719656	-0.00672616	
0.00118272	0.000451112	-0.000956994	
0.0114911	-0.00756478	-0.00952092	
0.000315562	-0.00636777	-0.00353062	
0.000904607	-0.00309042	-0.00284328	
0.000126338	0.000699002	0.00107238	
0.000148775	7.27789e-05	-6.57913e-05	
-0.00177867	0.00398668	0.00620114	
0.0118134	-0.0253638	-0.00608227	
0.000365078	-0.0113219	0.0332622	
0.00581726	-0.00233403	-0.0101382	
0.00866189	-0.001897	-0.0116322	
0.0211466	-8.52517e-05	-0.0123802	
0.00382331	0.00220438	-0.0065964	
0.00900639	-0.000501234	-0.0102703	
0.0115418	0.00176515	-0.0108798	
0.0119525	-0.000153378	-0.0102675	
0.0132211	0.0134208	0.0443207	
0.000771536	-0.00265515	0.00526414	
0.000223737	-0.000382153	0.0292492	
-0.00110861	0.00289486	3.68918e-05	
0.00943234	0.00113324	-0.00772782	
0.00255858	0.0024123	-0.00604353	
0.000395518	0.00354858	-0.00219559	
-0.000631006	0.00123222	-0.00254679	
0.00948246	0.00830611	0.031977	
0.00599397	-0.00540734	0.0108815	
0.00215275	0.00314206	0.0340049	
0.000201615	-5.85965e-05	0.000117397	
0.00555146	-0.00536124	0.0104944	
-2.99799e-07	4.02195e-05	-0.000163059	
-0.00206184	-0.00438109	0.0246203	
-7.64382e-06	6.49449e-05	-3.50615e-05	
-0.00110091	0.00287569	0.000405862	
0.00171529	0.000370529	-3.14741e-05	
-0.000486398	-0.000772557	0.0110257	
-0.00064281	0.000700866	-0.00200881	
-7.29138e-05	-0.00287984	0.0124707	
0.000494888	0.00383158	-0.00508111	
-0.000529897	-0.000182628	0.000146267	
-0.000467537	0.0028133	-0.000308512	
0.00166579	0.00182642	0.000356385	
0.000933041	-0.000819595	-0.000136295	
0.00181881	0.00113973	0.000196647	
-0.00140082	-0.01327	-0.00438733	
-0.015539	-0.104254	-0.131687	
-0.00442449	-0.00748467	0.000580183	
0.00152268	0.00643214	0.00248134	
-0.00191639	-0.00270208	0.000616224	
0.00782941	0.0146907	0.00732902	
-0.016149	-0.0225745	-0.00313617	
0.00711629	0.00801016	0.0023276	
-0.0019205	-0.00655593	-0.00450547	
0.00233852	-0.000375183	0.00584785	
0.0014705	0.0030592	0.00368579	
-0.00295115	-0.0104878	-0.00976523	
0.00793744	0.00803434	0.00341839	
-0.00084519	-0.00208785	0.00114115	
0.00479236	0.0115995	0.00316235	
0.00768133	0.00726619	0.00254237	
0.000335611	-0.000741961	0.00158856	
-0.00622311	-0.0145554	-0.010521	
-0.00152377	-0.00428103	-0.00401044	
-0.000164099	-0.00042705	0.00204781	
-0.000443261	0.000439037	-0.000243778	
0.000633246	-0.000550462	0.000301623	
-0.000631909	0.000325956	0.000203316	
-0.000351593	-3.78184e-06	0.00187796	
-0.000154342	0.000149548	-0.000398821	
0.0123004	0.0236035	0.00869436	
0.0075773	0.0072807	0.00165366	
0.0121251	0.0164611	0.00326703	
0.011416	0.0294233	0.00389364	
-0.000999003	0.000729162	0.00153593	
5.71597e-05	-8.51931e-05	-0.000152034	
-0.0010041	0.000996792	0.00186463	
0.00247766	0.00607932	0.00183999	
0.0002348	-9.6914e-05	-0.000506763	
-0.000198093	6.51749e-05	0.00209716	
6.83324e-05	-0.000535926	0.00164654	
-0.000625872	0.000387868	0.0023731	
0.029551	-0.0175588	-0.00386709	
0.0132114	-0.00523995	-0.024848	
-0.00501538	0.0228864	0.00401448	
0.00164161	-0.00277548	0.000101226	
-0.00572588	0.0209086	-0.00101966	
-0.00671046	0.0276814	0.00497482	
-0.00777466	0.0110715	-0.0110618	
-0.00692984	0.00893994	-0.00641551	
0.002313	-0.0075372	0.00385672	
8.04509e-05	-0.00482692	0.00261267	
-0.00045505	0.00248707	-0.000711771	
-0.00258197	0.00157274	0.00281988	
1.53884e-05	0.000607458	-0.00245498	
-0.028337	0.0199468	-0.0275385	
-0.0088684	0.0262382	-0.0138432	
0.00156854	-0.00200492	-0.00221481	
0.00109961	-0.00401973	0.00163946	
0.000884764	-0.00373477	0.00196991	
0.000400348	-0.00348121	0.000869037	
-0.00194783	0.00751214	-0.0023338	
0.000285773	0.00031325	2.88426e-05	
-0.000266407	-8.74227e-05	3.01881e-05	
-0.000170629	-7.02841e-06	0.000131038	
0.000308558	3.53763e-05	-0.000210024	
-0.000451844	-0.00119817	0.00111748	
0.0445976	-0.054571	0.0165951	
0.00415215	-0.00343462	-0.00165756	
-0.00141944	-0.00230293	-0.00175604	
-0.00318579	0.0185176	-0.000370207	
-0.000562845	-0.00064912	-0.000272563	
0.000100142	-0.00239592	-0.00205052	
0.000596458	-4.17572e-05	-0.000314002	
0.0132086	-0.00499085	-0.00136812	
6.14978e-05	-0.00209636	-0.000916189	
6.28324e-05	-0.000874776	-0.00072338	
-4.13062e-05	-0.00020688	-0.000331673	
0.000421649	9.44605e-05	-0.000190046	
-0.00224422	0.0043207	0.00560983	
0.00901291	-0.0253311	-0.00429112	
-0.00574517	-0.00188763	0.0353865	
0.00637565	-0.00238521	-0.010004	
0.00868721	-0.00290338	-0.0118375	
0.0148292	-0.0088306	-0.0187208	
0.00122388	0.000160626	-0.00839017	
0.00838661	-0.00280766	-0.0109531	
0.00546843	-0.00351934	-0.0151203	
0.0101939	-0.00403404	-0.0119531	
0.0168157	0.00941516	0.0451484	
0.00273535	-0.00169639	0.00580989	
0.000577558	0.000747637	0.0297066	
0.000798361	0.00415348	-0.00111295	
0.00447018	-0.00300476	-0.0115434	
0.00121515	0.00136461	-0.00718715	
0.00113296	0.00353223	-0.00246834	
-0.00137815	0.00118413	-0.00252932	
0.0106343	0.00930098	0.0320093	
0.003915	-0.0029095	0.0128691	
0.0034517	0.00404074	0.0343322	
-2.8146e-05	-0.00010342	-0.000130236	
0.00491915	-0.00615107	0.0110209	
0.000130485	0.000117802	2.36158e-06	
-0.00263598	-0.00266266	0.0254862	
-3.6018e-05	0.000232527	-0.000143975	
-0.001186	0.00348068	-0.000554179	
0.00163854	0.000533747	-7.02036e-05	
-0.00301881	0.00268578	0.0107574	
-0.00100344	0.000600864	-0.00187128	
-0.00127707	-0.00102226	0.013228	
0.00196741	0.00332934	-0.00565769	
-0.000536966	-7.35691e-05	0.000208061	
-0.000336917	0.00332024	-0.00125382	
0.00200167	0.00206955	0.000279385	
0.00105314	-0.000754122	-0.000160054	
0.00201739	0.00121577	0.000238315	
-0.00277224	-0.0135388	-0.00336474	
-0.0241772	-0.0236989	-0.171671	
-0.00439497	-0.00570644	0.000285297	
0.00240255	0.00606157	0.00238744	
-0.00188123	-0.00258593	0.000658834	
0.00736979	0.0138595	0.00737067	
-0.0104918	-0.024903	-0.00367199	
0.00517017	0.00971126	0.00283428	
-0.00291631	-0.00640832	-0.00476891	
0.00480037	0.00262873	0.00428088	
0.00187916	0.00344431	0.00414645	
-0.00651341	-0.00585848	-0.0114975	
0.00552629	0.0103129	0.00344764	
-0.000345348	-0.00185588	0.000939476	
0.0059103	0.0117169	0.00391628	
0.00565524	0.00945386	0.00218942	
0.000697013	-0.000518971	0.00184813	
-0.00568791	-0.0155437	-0.0100179	
0.000280107	-0.00382786	-0.00480005	
-0.000485497	-0.00113552	0.00166404	
-0.000703228	1.50212e-05	-6.58733e-05	
0.00087469	-0.000205172	0.000344382	
0.000392635	0.000618438	-0.000189006	
-0.000335084	-8.83505e-05	0.00187611	
-0.000119504	0.000114772	-0.000291334	
0.0130035	0.0222938	0.0109937	
0.00612153	0.00896837	0.00105005	
0.0114155	0.0175116	0.00224042	
0.0144072	0.0269011	0.00626738	
-0.000841601	0.000578088	0.00137093	
4.63778e-05	-6.12193e-05	-0.000102823	
-0.000909828	0.000882526	0.00164604	
0.00300123	0.00590327	0.00180904	
0.000240211	-0.000122614	-0.000479783	
-0.000205967	-3.76258e-05	0.00166696	
9.38934e-05	-0.000600871	0.00171341	
-0.000540998	0.000299033	0.00228422	
0.0317852	-0.0151274	0.0045243	
0.0106538	-0.00841328	-0.0238648	
-0.00803222	0.0228408	0.00165214	
0.00157908	-0.00255797	0.00138013	
-0.00614217	0.0211712	-0.00117908	
-0.00925662	0.0276293	0.00376512	
-0.00394468	0.0151122	-0.00827558	
-0.00397883	0.0116276	-0.00503394	
0.00192801	-0.00702495	0.00439402	
0.000801523	-0.00420051	0.00309441	
-0.000629011	0.00263244	-0.000424293	
-0.000376212	0.00106594	0.00361456	
0.000327178	0.000559765	-0.00248422	
-0.0167142	0.0336254	-0.0256759	
-0.0134497	0.0237799	-0.0157065	
0.000703447	-0.00235338	-0.00198074	
0.00105155	-0.00362977	0.0020065	
0.000857804	-0.00331558	0.00229196	
0.00055393	-0.00311459	0.00136256	
-0.00182961	0.00787573	-0.00211698	
-3.46406e-05	-0.000164018	1.35749e-05	
0.000108942	2.95008e-05	-1.24713e-05	
7.14378e-05	1.44092e-05	-5.36916e-05	
0.000116321	1.66202e-05	-8.56259e-05	
-0.000716553	-0.000817908	0.00119212	
0.0391346	-0.0587149	0.0161487	
0.00260447	-0.00493965	-0.000456445	
-0.000667987	-0.0021738	-0.00176893	
-0.00555462	0.0180662	-0.00285891	
-0.000562125	-0.000857468	-0.00030925	
-0.000111036	-0.00243993	-0.00190645	
0.000645097	6.84963e-06	-0.000356873	
0.0114369	-0.00641642	0.00482219	
-0.00013081	-0.00207832	-0.000694151	
-9.10124e-05	-0.000822931	-0.000804575	
8.18113e-06	4.0794e-05	6.55547e-05	
0.000288406	8.51101e-05	-0.000141756	
-0.00288448	0.00419521	0.00528619	
0.0227461	-0.0114633	0.00427716	
-0.00723007	-0.00203109	0.0359169	
0.00681413	-0.00252179	-0.0102277	
0.00838103	-0.00364854	-0.0124288	
0.012381	-0.00984185	-0.0209701	
0.00232622	0.000583242	-0.00804486	
0.00765157	-0.00410096	-0.0117885	
0.00685697	-0.00224579	-0.0149168	
0.00883853	-0.00552828	-0.0132175	
0.0148609	0.0122569	0.0461544	
0.00518925	-0.000739596	0.00493692	
0.00099862	0.00229686	0.0300918	
-0.00443843	0.000572511	-0.00198101	
0.00496648	-0.00253456	-0.0115548	
0.00217634	0.00139347	-0.00677521	
0.00140939	0.00348506	-0.00267401	
-0.00167977	0.00124245	-0.00255514	
0.0102266	0.0104136	0.0325543	
0.00574432	-0.00556378	0.0114401	
0.00411334	0.00510549	0.0350656	
-3.05964e-05	3.22882e-05	-0.000167279	
0.00453707	-0.0044418	0.0125411	
0.000142011	3.61325e-06	-4.98299e-05	
-0.00297136	-0.00156873	0.0262675	
-2.10913e-05	0.000111212	-7.57588e-05	
-0.00108999	0.00317518	-0.000334774	
0.00176897	0.000568495	-7.03816e-05	
-0.00324563	0.00247062	0.0110335	
-0.00139968	0.000664878	-0.00216301	
-0.00142152	-0.000539381	0.0138223	
0.00219274	0.00322204	-0.0055694	
-0.000493727	-7.67484e-05	0.000162943	
-0.000253958	0.00305951	-0.00106553	
0.00215968	0.0022037	0.000407679	
0.00100836	-0.00075679	-8.18881e-05	
0.0021794	0.00131741	0.000338241	
-0.0041712	-0.0135398	-0.00247236	
0.000332738	-0.111246	-0.143374	
-0.00367064	-0.00490007	0.000305986	
0.00308325	0.00575088	0.00237625	
-0.00174658	-0.00252763	0.00047037	
0.00697265	0.0136591	0.00699892	
-0.0124256	-0.0234434	-0.00354516	
0.0058879	0.00945809	0.00279546	
-0.00308955	-0.00658628	-0.00514762	
0.000431581	0.000514012	0.00576153	
0.00193455	0.00378514	0.0041145	
-0.00884916	-0.00233824	-0.0106495	
0.00610642	0.0100551	0.00379212	
-0.000339652	-0.00144705	0.000742394	
0.00654676	0.0122719	0.00383091	
0.00562128	0.00963251	0.00243207	
0.000719124	-0.000383641	0.00166558	
-0.0057413	-0.0150995	-0.0105348	
-0.00500878	-0.00254938	-0.00256596	
-0.000527365	-0.00122424	0.00124512	
0.000455481	3.84826e-05	-5.78226e-06	
0.000658487	-0.000529194	0.000267089	
-0.000335076	0.000465982	0.000219788	
-0.00029902	-8.2417e-05	0.00169695	
-0.000105342	0.000101046	-0.000244632	
0.0133006	0.022668	0.0101208	
0.00577194	0.00938523	0.00123052	
0.0109953	0.018072	0.00230124	
0.01399	0.0266254	0.00577863	
-0.000692569	0.000523019	0.00113303	
2.24484e-06	-5.34275e-06	-7.07667e-06	
-0.000800108	0.000775321	0.00141683	
0.00325796	0.00580357	0.00196948	
0.000132591	-7.10452e-05	-0.000257982	
-0.000147374	-4.46431e-05	0.00135258	
7.34103e-05	-0.000611751	0.00159582	
-0.000458049	0.000261112	0.00190216	
0.031715	-0.0121748	0.0122768	
0.0104291	-0.00769558	-0.0242994	
-0.00802197	0.0231496	0.00168739	
0.00143952	-0.00228075	0.00223097	
-0.00621331	0.0213004	-0.00127502	
-0.00925472	0.0279563	0.00322107	
-0.00438799	0.0148186	-0.00900229	
-0.00497406	0.0110944	-0.00568447	
0.00201504	-0.00711982	0.00414694	
0.000724414	-0.00434916	0.0029309	
-0.000620071	0.00268076	-0.000486477	
-0.000202096	0.00120193	0.00363321	
0.000213096	0.000575977	-0.002199	
-0.0180027	0.034386	-0.0258027	
-0.0139579	0.0245271	-0.0150203	
0.000669706	-0.00211604	-0.00176355	
0.00102951	-0.00366816	0.00185514	
0.000890527	-0.00342972	0.00214039	
0.000485629	-0.00320705	0.00120746	
-0.00188659	0.00787805	-0.00216396	
-9.24427e-06	4.53875e-06	-6.4232e-06	
-1.11737e-05	-3.4202e-06	1.2648e-06	
5.48504e-07	-3.63867e-06	6.02768e-06	
0.000123658	1.86008e-05	-8.94355e-05	
-0.000736808	-0.000389376	0.000860658	
0.0416696	-0.0567663	0.0143138	
0.00226342	-0.00483242	0.000119506	
-0.00028459	-0.00204988	-0.00129519	
-0.00579056	0.018225	-0.00269433	
-0.000375466	-0.000584463	-0.000245747	
-0.000143592	-0.0020291	-0.00155467	
0.000422774	1.41362e-06	-0.000247147	
0.00930289	-0.0067958	0.00762645	
-0.000235841	-0.00184187	-0.000592988	
-0.000119664	-0.000750127	-0.000759573	
-5.44096e-06	-2.86746e-05	-4.63671e-05	
0.000225111	6.53447e-05	-0.000114098	
-0.00293102	0.00443261	0.00454239	
0.0233373	0.000367453	0.00945742	
-0.00600032	-0.00455742	0.0366922	
0.00678095	-0.0023854	-0.0106717	
0.00808961	-0.00412195	-0.0128626	
0.0135309	-0.00905426	-0.0209539	
0.0027114	5.74511e-05	-0.00808689	
0.00711052	-0.00444161	-0.0121403	
0.00717729	-0.00270896	-0.0147237	
0.00851746	-0.00578352	-0.0133592	
0.0146042	0.0138517	0.0462751	
0.00232362	-0.0031871	0.00635977	
0.00192962	0.00134851	0.0307736	
-0.0048982	-0.000382498	-0.00161414	
0.00540218	-0.00255972	-0.0114226	
0.002389	0.000953092	-0.0069911	
0.000871148	0.00270817	-0.00155753	
-0.00118591	0.00088669	-0.00174731	
0.00963995	0.010717	0.0330986	
0.00708968	-0.00455808	0.0112735	
0.00481715	0.0045625	0.035717	
-4.29933e-05	-5.17839e-05	-4.47557e-05	
0.00589142	-0.00533982	0.0119848	
4.4897e-05	4.55589e-05	-2.13087e-05	
-0.00218485	-0.00264361	0.0267912	
-0.000104987	0.000506786	-0.000365546	
-0.00107479	0.003149	-0.000161467	
0.00092001	0.000285017	-8.5246e-05	
-0.00294722	0.00100588	0.0116578	
-0.00100162	0.000448225	-0.00141028	
-0.00145945	-0.00147125	0.0142262	
0.00197361	0.00281452	-0.00538269	
-0.000214747	-7.60001e-05	7.13774e-05	
-0.000218577	0.00290105	-0.000992889	
0.00126813	0.00127152	0.000191567	
0.000439121	-0.000327639	-5.22594e-05	
0.00120488	0.000706567	0.000133341	
-0.00499521	-0.0133467	-0.00165553	
0.0102756	-0.0315564	-0.182212	
-0.00334763	-0.00483633	0.000178863	
0.00349928	0.00560123	0.00269768	
-0.00167415	-0.00264769	8.80787e-05	
0.0066959	0.0137021	0.00664844	
-0.0121387	-0.0234759	-0.00304365	
0.00604643	0.00950164	0.00340325	
-0.00301269	-0.00674576	-0.00563732	
0.00277064	-0.00283263	0.00366519	
0.00182884	0.00380859	0.00374546	
-0.00951637	-0.00343315	-0.00990608	
0.00594932	0.0101472	0.00463081	
-0.000186205	-0.00126965	0.000923673	
0.00648837	0.0127598	0.00352316	
0.00542689	0.00976379	0.00345557	
0.000456345	-0.000363332	0.00108923	
-0.00495014	-0.0152548	-0.0107939	
-0.000395916	-0.00552272	-0.00289995	
-0.000409674	-0.00100912	0.000839682	
0.000210171	0.000185605	-0.000132987	
0.000548526	-0.000280339	-5.32507e-05	
0.000297022	-0.000195721	-0.000154959	
-0.000235329	-6.91062e-05	0.00144708	
7.06389e-06	-6.54095e-06	1.63701e-05	
0.0131094	0.0232331	0.00966519	
0.00555875	0.00977419	0.00243673	
0.0107246	0.0186897	0.0033057	
0.013257	0.0271532	0.00527088	
-0.000717353	0.000558	0.0011433	
-0.000347907	0.000360649	0.000677425	
-0.000705181	0.000684647	0.00120895	
0.00327379	0.00589631	0.00245028	
-0.000192953	9.93381e-05	0.000365003	
-0.000169834	-1.71734e-05	0.00136799	
7.82349e-05	-0.000489827	0.00126259	
-0.000366723	0.00022882	0.00153081	
0.0299146	-0.011094	0.018777	
0.0102349	-0.00767019	-0.0240383	
-0.00793616	0.0233981	0.00207271	
0.0011478	-0.00232734	0.0025588	
-0.00627963	0.0214613	-0.00128821	
-0.0093087	0.0281797	0.00316549	
-0.00525065	0.0147437	-0.00907695	
-0.00562219	0.0111859	-0.00528871	
0.00194669	-0.00700585	0.00416382	
0.000782001	-0.00422167	0.00300177	
-0.000644445	0.00274658	-0.000457742	
-0.000636005	0.000393697	0.00370387	
-7.01713e-05	0.000749358	-0.00161916	
-0.0196839	0.0347155	-0.025698	
-0.0139148	0.0252082	-0.0145918	
0.000737171	-0.00176171	-0.00137474	
0.00100683	-0.00357559	0.00186424	
0.000881593	-0.00336114	0.00216425	
0.000530991	-0.00314625	0.00123733	
-0.00188654	0.00797473	-0.00215352	
1.45614e-05	-4.14625e-05	1.62442e-05	
2.75682e-05	8.61664e-06	-2.67039e-06	
1.87975e-05	5.72559e-06	-1.50996e-05	
0.000100743	1.47709e-05	-7.26303e-05	
-0.00105551	-0.000322875	0.00102851	
0.0416522	-0.0565073	0.0142897	
0.0025796	-0.00421811	0.000309224	
-0.000188203	-0.00173849	-0.00106059	
-0.00571433	0.0183879	-0.00240389	
-0.000287407	-0.000435271	-0.000204215	
-8.13235e-05	-0.00153411	-0.0012436	
0.000328794	1.22501e-06	-0.000195301	
0.00831539	-0.00718123	0.00838165	
-0.000325793	-0.00183712	-0.000651368	
-8.73805e-05	-0.000484097	-0.000504395	
-9.93501e-07	-5.54211e-06	-8.86206e-06	
0.000188529	5.46143e-05	-9.6226e-05	
-0.00329275	0.00407024	0.00445643	
0.021942	-0.00513615	0.00981343	
-0.00481503	-0.00601627	0.0370558	
0.00729733	-0.00269959	-0.010401	
0.00825688	-0.00413833	-0.0125517	
0.0138581	-0.00953757	-0.0208683	
0.00268648	-0.000649999	-0.00733514	
0.00780634	-0.00441257	-0.011731	
0.00736576	-0.0034834	-0.0146526	
0.0089987	-0.00560543	-0.0131682	
0.013994	0.0137622	0.0467905	
0.00247518	-0.00275766	0.00667507	
0.00215408	0.000935024	0.0311126	
-0.00441583	0.00233396	-0.00204709	
0.00577574	-0.00325971	-0.0110843	
0.002216	-0.00014422	-0.00608781	
0.000739027	0.00105043	-0.0012451	
-0.000784294	0.000587754	-0.00114956	
0.00956598	0.0107154	0.0333662	
0.00781236	-0.00629886	0.00993915	
0.00510016	0.00432084	0.036012	
-6.54346e-06	-5.73423e-05	-4.32811e-05	
0.00561539	-0.00625381	0.0118667	
1.99556e-05	4.54804e-05	3.28986e-05	
-0.0016412	-0.00308721	0.0269193	
-2.94599e-05	0.000126439	-9.21855e-05	
-0.000853047	0.00157129	0.000906606	
0.000510709	0.000154335	-5.99849e-05	
-0.00251014	-0.000193536	0.0119382	
-0.000630812	0.00028622	-0.000860924	
-0.00131088	-0.00195081	0.0143715	
0.00182157	0.000950776	-0.00500859	
-0.000154477	-3.60446e-05	5.80247e-05	
-7.73415e-05	0.00109135	-0.000373892	
0.000577647	0.000581227	6.17951e-05	
0.000279658	-0.000210033	-3.69384e-05	
0.000558847	0.000323412	4.03566e-05	
-0.00621335	-0.0132292	-0.0016658	
0.00149316	-0.0523673	-0.180842	
-0.00223026	-0.00332124	0.000151009	
0.00370382	0.00550588	0.00184205	
-0.00137236	-0.0024796	-0.000417949	
0.0059042	0.0127553	0.00549571	
-0.0122778	-0.0225267	-0.00432655	
0.00592588	0.00967888	0.00183313	
-0.00290519	-0.00678296	-0.00598226	
-0.00129922	-0.00314376	0.00454509	
0.0020529	0.00491281	0.00367626	
-0.00269403	-0.00322292	-0.0139301	
0.00655122	0.0100557	0.00311699	
-0.0002808	-0.000733319	0.000144558	
0.00720797	0.0132362	0.0026798	
0.00635214	0.00931975	0.00212478	
0.000877477	0.000570262	0.00167279	
-0.00555471	-0.0145989	-0.0123853	
-0.000183565	-0.00432421	-0.00475539	
-0.000873917	-0.00216706	-3.84393e-05	
0.000189046	0.000100526	-9.80767e-05	
0.000346589	-0.000264365	5.05342e-05	
0.000301079	-0.000113115	6.06291e-05	
-0.00010782	-3.25066e-05	0.000706357	
-0.000206252	0.000202923	-0.000454652	
0.0131933	0.0232273	0.00887601	
0.00640772	0.00904646	0.00103011	
0.0114277	0.0180792	0.00234925	
0.0126748	0.0260421	0.00404147	
-0.00029234	0.000223749	0.000460503	
0.000360479	-0.000367464	-0.000710741	
-0.000479139	0.000454113	0.000803061	
0.00368292	0.00574923	0.00146108	
0.000416233	-0.000219737	-0.000796116	
-8.57742e-05	-1.54332e-06	0.000634102	
4.16031e-05	-0.00023428	0.000588487	
-0.00030234	0.000187421	0.00128918	
0.0285973	-0.0115005	0.020499	
0.0100239	-0.00729506	-0.0241001	
-0.00795548	0.023482	0.00225179	
0.0019812	-0.00197628	0.00243732	
-0.00629229	0.0214862	-0.00125432	
-0.00927687	0.0283313	0.00301383	
-0.00560336	0.0149856	-0.00872984	
-0.00604859	0.0114865	-0.00490693	
0.00194325	-0.0069768	0.00410105	
0.000811434	-0.0042368	0.00293463	
-0.0006603	0.00278618	-0.000455074	
-0.00100205	0.00013456	0.00362666	
-3.882e-05	0.000629853	-0.00128193	
-0.0200213	0.0358306	-0.0251287	
-0.0139699	0.0256896	-0.0143609	
0.000440035	-0.00107096	-0.000904338	
0.000993406	-0.00353959	0.00182731	
0.000840891	-0.00336872	0.00213941	
0.000534841	-0.00314471	0.00120393	
-0.00190399	0.00801886	-0.00217965	
1.2917e-05	-1.09824e-05	8.19706e-06	
9.79529e-06	3.18983e-06	-9.13486e-07	
7.85533e-06	3.08209e-06	-4.86737e-06	
4.87223e-05	6.45613e-06	-3.58539e-05	
-0.000155637	-3.45759e-05	0.000137208	
0.0410676	-0.0565854	0.0144896	
0.00252053	-0.00408112	0.000395926	
0.000513461	-0.00182792	-0.000247503	
-0.00577048	0.0185084	-0.00230565	
-0.000175624	-0.000267832	-0.00013219	
-7.15972e-05	-0.0013682	-0.00116516	
0.00016472	-9.0263e-08	-9.90863e-05	
0.00830348	-0.00670368	0.00801188	
-9.4224e-05	-0.000520104	-0.000200676	
-5.94951e-05	-0.000337657	-0.000361254	
-1.92611e-06	-1.13833e-05	-1.83501e-05	
9.12344e-05	2.54763e-05	-4.73146e-05	
-0.00348506	0.00387718	0.00443033	
0.0180984	-0.0115756	0.0109775	
-0.00490636	-0.00604985	0.037277	
0.00744199	-0.00277185	-0.0104971	
0.00840359	-0.00409887	-0.0127882	
0.0136441	-0.00996732	-0.0215233	
0.00250008	-0.000906232	-0.00682468	
0.00756576	-0.00433375	-0.0122908	
0.00700845	-0.00384089	-0.0142696	
0.00883065	-0.0056997	-0.0136428	
0.0133306	0.0144156	0.0468507	
0.00317158	-0.0024961	0.00678536	
0.00220249	0.00114638	0.0312609	
-0.00437232	0.00296915	-0.00253779	
0.00556399	-0.00343104	-0.0115062	
0.00203812	-0.000452733	-0.00573883	
0.000692305	0.000973039	-0.00112803	
-0.000980993	0.00072338	-0.00143091	
0.0102892	0.010585	0.0333497	
0.00790559	-0.00638879	0.009904	
0.00537732	0.00477862	0.0361716	
2.0446e-05	1.58158e-05	4.17867e-05	
0.00569352	-0.00595322	0.0121206	
6.47716e-07	5.90232e-05	2.40877e-05	
-0.00153769	-0.00285083	0.0271123	
-1.01555e-05	3.82791e-05	-2.82603e-05	
-0.000816303	0.00139184	0.00116001	
0.000484607	0.000148472	-5.97451e-05	
-0.00245164	-0.000278204	0.0120554	
-0.000810877	0.000365551	-0.00110537	
-0.00133873	-0.00182187	0.0144461	
0.0017086	0.000864265	-0.0049896	
-0.000191326	-1.49969e-05	7.41752e-05	
-6.16025e-05	0.000962433	-0.000321445	
0.000549851	0.000553923	5.79981e-05	
0.000282806	-0.000210821	-3.59106e-05	
0.000548127	0.000323764	3.7473e-05	
-0.00600654	-0.0132085	-0.00110623	
-0.0122746	-0.0284037	-0.189927	
-0.00247102	-0.00321694	0.0004754	
0.00373912	0.00550709	0.00273021	
-0.00156845	-0.0024241	0.000194039	
0.00608418	0.0127066	0.0063001	
-0.0114544	-0.022948	-0.00253174	
0.00606181	0.00986447	0.00392183	
-0.00313248	-0.00724897	-0.00581703	
0.00034394	-0.000428348	0.00530959	
0.00232441	0.00481533	0.00443494	
-0.000317047	-0.00292282	-0.0140516	
0.0058419	0.0106882	0.00496427	
0.000174934	-0.000745164	0.0012799	
0.00668763	0.0136543	0.00359094	
0.00544584	0.0102777	0.00367311	
0.000966707	0.000344117	0.00190472	
-0.00490456	-0.014704	-0.0121764	
-0.00113128	-0.00323333	-0.00550764	
-0.00104671	-0.00235171	0.000174696	
0.000321738	-9.52578e-05	-1.61061e-05	
0.000587553	-0.000388112	3.27183e-05	
0.000350678	-3.93773e-05	-0.000235075	
-0.000220019	-7.44317e-05	0.00145134	
6.18606e-05	-6.16367e-05	0.000138089	
0.0127485	0.0235111	0.00951795	
0.0055271	0.00998185	0.00254144	
0.0107591	0.0189828	0.00395486	
0.0126044	0.0264885	0.0054415	
-0.000762935	0.000572986	0.00118884	