<VTKFile type="UnstructuredGrid" version="0.1" byte_order="LittleEndian">
	<UnstructuredGrid>
		<Piece NumberOfPoints="2553" NumberOfCells="2553">
			<CellData Scalars="scalars">
				<DataArray type="Float64" Name="Strength" NumberOfComponents="3" Format="ascii">
-0.00626675	-0.0162222	0.0125294	
0.00505948	-0.0117476	-0.0277477	
-0.00135768	0.0706921	0.0142592	
0.00438077	-0.00627873	-0.00755358	
0.00581534	0.00118009	-0.0109765	
0.015723	0.0560492	-0.0271336	
0.0163403	0.0868282	-0.0214599	
0.00539462	0.019489	-0.0133918	
0.0184033	0.0840383	-0.0268387	
0.00778028	0.0339389	-0.0176427	
0.00622161	0.00538112	0.0445062	
0.00205727	-0.00413538	0.00332103	
-0.00564662	0.0402798	0.0153178	
0.00111256	-0.00213731	-0.000871725	
0.013504	0.0744902	-0.022273	
0.0193258	0.0849854	-0.0193365	
0.0199725	0.0908413	-0.0202428	
0.00598177	0.0677329	-0.0132851	
0.00232541	0.0123887	0.0288099	
0.00578866	-0.00617555	0.0116202	
-0.00401651	0.0331623	0.0226452	
0.000727159	0.0021413	0.000162887	
0.00298552	-0.00394826	0.0103682	
0.000542033	0.00241157	-0.000599054	
-0.00596452	0.0491981	0.0100677	
-0.000463183	-0.0127485	0.00214127	
0.0166501	0.086894	-0.0154382	
0.00980547	0.0417491	-0.00407984	
0.0123473	0.0859399	-0.00483155	
0.00292983	0.0492097	-0.00936605	
0.00512226	0.0540621	0.00130057	
0.0210231	0.0864685	-0.0181683	
-0.000356512	-0.000539816	9.72069e-05	
0.0181419	0.0847816	-0.01326	
0.024205	0.0755732	-0.00625592	
0.0073439	0.0204764	-0.00261573	
0.017872	0.0579378	-0.00481543	
-0.00963153	-0.00526667	-0.0258191	
-0.017876	-0.134497	0.0070964	
-0.00148451	-0.0198059	0.0478056	
0.00217827	0.0115816	-0.0133693	
0.00766287	-0.0108803	0.0536389	
0.0270906	0.000391704	0.0623244	
-0.00558125	-0.040345	0.0445027	
0.0156575	-0.010572	0.0524735	
0.0120464	-0.0138728	0.0371266	
0.0125443	-0.000163999	0.0157975	
0.0153141	-0.0126889	0.0542241	
0.0192574	0.0138977	-0.000318146	
0.0122871	-0.00785202	0.0469574	
0.00361472	-0.0120673	0.0252629	
0.0109934	-0.00546027	0.053623	
0.00909226	-0.00511577	0.039094	
0.0155868	-0.0152	0.0460296	
0.00265777	-0.0183548	0.0285413	
0.00482992	-0.00815654	0.0173926	
0.0157276	-0.0114868	0.0544215	
0.0244836	-0.00884228	-0.0056271	
0.0171652	-0.0101594	0.0162647	
0.00993662	-0.0024076	0.0168212	
0.0145232	-0.0145447	0.0557127	
-0.0019163	0.00835366	-0.0205366	
0.0181457	0.0118807	0.0386256	
0.00763969	-0.00216797	0.0308342	
0.00985701	0.0105155	0.0175339	
0.0358986	0.00713446	0.0686733	
0.00463315	-0.0104694	0.0392069	
0.00139839	-0.00595026	0.017987	
0.00742455	-0.0107615	0.0427418	
0.00264578	0.00929554	-0.00999825	
-0.000119164	0.0016124	-0.00458029	
0.0038928	-0.00730065	0.023702	
0.0168412	-0.0158818	0.0514076	
0.0126126	-0.0129823	0.0489778	
0.0237986	-0.0524561	-0.0154177	
-0.000809879	0.0141943	-0.0325399	
-0.00681901	-0.00146663	-0.0317659	
0.00362951	-0.0281578	-0.0331954	
-0.00721177	0.0137551	-0.012372	
-0.011239	0.0106017	-0.0242591	
0.00193959	-0.0183049	-0.0499431	
0.0064855	-0.0275197	-0.0506078	
0.00161574	-0.00931408	0.00301932	
0.000285498	-0.0072663	0.000897895	
-0.000494716	-0.000109681	-0.00351299	
0.0042187	6.05795e-05	0.00462652	
0.0114226	-0.0401512	-0.0547657	
-0.0121563	-0.00222734	-0.0492573	
-0.0128957	-0.0146048	-0.0481293	
0.0106782	-0.0448675	-0.0544892	
0.000847948	-0.00480239	0.00123134	
0.000303304	-0.00599991	0.00021754	
5.17213e-05	-0.00551093	-0.000612768	
-0.00176798	0.00454234	-0.00522439	
0.00149866	0.00206093	0.00257332	
-0.000807751	-0.00182679	-0.00231772	
0.000811669	0.00266474	-0.000113423	
0.00148831	-0.00620578	-0.00876601	
-3.45696e-05	-0.0325801	-0.0376827	
0.0459749	-0.0741432	-0.00124492	
0.0120585	-0.0463881	-0.0522587	
0.0057457	-0.0408681	-0.0554671	
-0.00132642	-0.00722283	-0.0339483	
0.00216958	-0.0387048	-0.0445571	
0.00951369	-0.0424419	-0.0524649	
0.0112204	-0.0229369	-0.0334014	
0.0158293	-0.0434974	-0.0366716	
0.0107943	-0.0487857	-0.0598914	
0.000978783	-0.011551	-0.0133887	
6.53286e-07	7.10878e-06	8.63996e-06	
0.00428532	-0.012069	-0.0181744	
-0.0027649	0.0024034	0.00639094	
0.00112746	-0.00572065	-0.0291416	
-0.00668053	0.00718388	0.0322557	
0.00509504	0.00111676	-0.0101461	
0.00670171	0.00270649	-0.0123592	
0.0139419	0.00854062	-0.0197681	
0.00441737	0.0112109	-0.00744562	
0.00658758	0.00492253	-0.0115478	
0.00956199	0.0113084	-0.0135036	
0.00805513	0.00650155	-0.0133215	
0.0147269	0.00268861	0.0438381	
0.00116159	-0.0013074	0.00477332	
0.00273714	0.00471393	0.0272705	
-7.87832e-05	2.73795e-05	0.00220791	
0.00718241	0.0107281	-0.0106251	
0.00383007	0.0110726	-0.00671555	
0.000770347	0.0105077	-0.00400346	
0.00025557	0.0101699	-0.00221229	
0.0101425	0.00399436	0.0311123	
0.0026932	-0.0020583	0.012622	
0.00502985	0.00522865	0.0316608	
0.000137774	9.58914e-05	-3.92822e-05	
0.00254872	-0.000868392	0.0117659	
-0.000173503	0.00033084	0.000159993	
-0.0023516	0.00641944	0.0231739	
6.42325e-06	0.00019212	-3.16808e-05	
-0.000302804	0.0108442	-0.00125235	
0.000277237	0.00546486	-0.000893626	
-0.00408105	0.00819953	0.00887384	
0.000151982	0.00797677	-0.00164554	
-0.00200969	0.00593758	0.0112542	
0.00246392	0.00962453	-0.00599107	
0.000749559	0.00110218	-0.00025902	
0.00024986	0.00993009	-0.00174189	
0.000745705	0.00854687	-0.000957658	
0.000455467	0.0026212	-0.000669445	
0.00054984	0.00699788	-0.000938106	
-0.00523816	-0.0115635	-0.00455958	
-0.0258458	-0.104072	-0.115455	
-0.00533346	-0.00934151	0.00216408	
0.00287862	0.00596187	0.00177765	
-0.00241103	-0.00400281	0.00460691	
0.00634478	0.012486	0.0154096	
-0.0139434	-0.0232077	-0.00653714	
0.00645516	0.00614398	0.0075052	
-0.000924405	-0.00802958	0.000478045	
-0.00013655	0.00434421	0.00541734	
6.70621e-05	0.00101686	0.00770066	
-0.00383595	-0.00800707	-0.00960383	
0.0070727	0.00647457	0.00750417	
-0.000523324	-0.00378094	0.00371027	
0.00602631	0.00673532	0.0103345	
0.00637766	0.00617932	0.00654586	
-0.000426605	-0.00225235	0.00512943	
-0.00284472	-0.0160553	-0.00645863	
-0.00159201	-0.00560588	-0.000603885	
-0.000803296	-0.00109645	0.0067632	
-0.00108766	0.0014733	-0.00156818	
0.00085301	-0.00118067	0.00259554	
0.00104342	0.00146184	-0.00151413	
-0.000474781	-0.00169365	0.00598881	
-0.000137102	0.000552912	-0.00133543	
0.0143608	0.0181548	0.017413	
0.00600076	0.00656328	0.00568214	
0.0102424	0.0145822	0.00863368	
0.0155858	0.0221295	0.0193471	
-2.20189e-05	-0.00138727	0.00572141	
3.8049e-05	-0.000240473	0.000753557	
-3.47528e-05	-0.00152345	0.00669833	
0.00299285	0.00552412	0.00167164	
-9.99981e-06	0.000310912	-0.000890555	
0.000614135	-0.00163821	0.005819	
-0.000543343	-0.00179433	0.00573455	
-0.000131669	-0.00185901	0.0071818	
0.022858	-0.0195011	0.013881	
0.00155713	0.018125	-0.0176972	
-0.0065153	0.0187889	-0.0113012	
0.00151205	-0.00500916	-0.00391853	
-0.00464831	0.0185488	-0.00929135	
-0.00724647	0.0239882	-0.0124796	
-0.00666145	0.00780735	-0.0142227	
-0.00556342	0.00401343	-0.0112737	
0.00165868	-0.0063747	0.00486399	
-8.86982e-06	-0.00375065	0.00322844	
-0.000475512	0.00264629	-0.000497165	
-0.000190751	-0.00152692	0.00311476	
0.000400639	-0.00430921	-0.00690916	
-0.0190555	0.023655	-0.0281061	
-0.013662	0.021449	-0.0151064	
0.00218288	-0.00689544	-0.00619921	
0.0011018	-0.0028632	0.00301368	
0.000581099	-0.00263287	0.00280619	
0.000405747	-0.00224793	0.00234757	
-0.00135222	0.00765109	-0.00319709	
0.00094775	-0.000311949	-0.0002991	
0.000377438	0.000643908	0.000743281	
-0.000276742	-0.00022942	0.000718221	
-4.80951e-05	0.000269394	0.00037341	
-0.000223109	-0.00356567	-0.00393382	
0.0421732	-0.0519072	0.0234908	
0.00388063	-0.00852491	-0.00539628	
-0.000580218	-0.00454125	-0.00796797	
-0.00548895	0.0141946	-0.00970512	
-0.000339458	-0.00191366	-0.00212322	
0.00106463	-0.00607791	-0.00732229	
0.000251934	-0.000917288	-0.00121555	
0.00999501	-0.0126987	6.23478e-06	
0.000807186	-0.00449848	-0.00537288	
-4.75906e-06	-0.00285903	-0.00303346	
8.4806e-05	0.000794588	0.000965728	
2.29936e-05	-9.85663e-05	-0.000140765	
-0.00277647	0.00252869	0.00627944	
0.00182316	-0.0060076	-0.0273612	
-0.00141875	0.00325449	0.034106	
0.00551383	0.00043369	-0.0101152	
0.00715681	0.000880724	-0.0121829	
0.0118611	0.00195697	-0.0205225	
0.00207056	0.00289337	-0.00685795	
0.00687644	0.00140986	-0.0112272	
0.00607852	0.00285321	-0.0139966	
0.00780467	0.00171264	-0.0130162	
0.0124901	0.00100345	0.0454752	
0.00138851	-0.00186959	0.00534995	
0.00189629	0.00252498	0.0284273	
-0.000455645	-2.93857e-05	0.00288187	
0.00500354	0.0027094	-0.0104599	
0.00135213	0.00279568	-0.00605839	
0.00019414	0.00275497	-0.00301051	
-0.000190535	0.00272396	-0.000673378	
0.00780746	0.00284009	0.0326107	
0.00312574	-0.00254399	0.0126613	
0.00314502	0.00251844	0.0332317	
0.00015881	9.14147e-07	-9.11738e-06	
0.00255596	-0.00157346	0.0124151	
-4.65759e-05	0.000140367	6.00105e-05	
-0.00174121	0.00203633	0.0243693	
2.20914e-06	7.08189e-05	-1.10854e-05	
-0.000660447	0.00290107	0.000491059	
0.000143128	0.00168071	-0.000287148	
-0.00125383	0.00270295	0.0103702	
-8.0541e-05	0.00209783	-0.000480978	
-0.00119696	0.00200346	0.0122795	
0.000695083	0.00260274	-0.00560846	
0.000303022	0.000469912	-8.93361e-05	
-0.000323177	0.00271033	-0.000568528	
-2.53769e-06	0.00239386	-0.000428688	
0.000215802	0.00116857	-0.000274799	
8.23083e-05	0.00206669	-0.000358293	
-0.0052038	-0.011996	-0.00362387	
-0.026325	-0.112455	-0.117646	
-0.00314423	-0.00761324	-0.0019701	
0.00307774	0.0054151	0.0027778	
-0.0013276	-0.00298111	0.000289818	
0.00586032	0.0131918	0.0102515	
-0.0104306	-0.0226662	-0.0105389	
0.00480809	0.007999	0.00506815	
-0.00167552	-0.00712676	-0.00318852	
0.00108814	0.00433501	0.00424966	
0.00106899	0.00282072	0.00384944	
-0.00487462	-0.00627788	-0.0118864	
0.00587743	0.00817318	0.0053842	
-0.00066326	-0.00229251	0.000567971	
0.00483451	0.00903607	0.0073178	
0.00572502	0.00741911	0.00476728	
6.44281e-05	-0.000521326	0.00166592	
-0.00363916	-0.0156176	-0.0093605	
-0.0015686	-0.00503783	-0.00268514	
-9.78085e-05	-0.000565609	0.00197004	
7.75427e-05	0.000434603	-0.000483356	
0.000221	-0.00035149	0.000768025	
0.000675193	-0.000144973	-0.000206913	
1.4608e-05	-0.000487507	0.00180126	
-4.60173e-05	0.000172288	-0.000401211	
0.0111147	0.0202946	0.0143468	
0.00562053	0.00740026	0.00440613	
0.0102718	0.014947	0.00842111	
0.0105799	0.0242585	0.0160275	
-0.00012797	-0.000443637	0.00186872	
-4.3946e-06	5.18934e-05	-0.000169684	
-0.000132899	-0.000500371	0.00222636	
0.00315994	0.00516537	0.00257784	
-2.06315e-06	0.000180791	-0.000518148	
7.73809e-05	-0.000538247	0.00198275	
2.06128e-05	-0.00048827	0.00162314	
-2.16251e-05	-0.000602855	0.00234955	
0.022961	-0.017478	0.0166913	
0.00258344	0.0184022	-0.0207273	
-0.00574703	0.0194456	-0.0110141	
0.00145639	-0.00269907	-0.00055394	
-0.00555379	0.0178787	-0.00972541	
-0.00784571	0.0238836	-0.0125144	
-0.00525906	0.0117867	-0.0109421	
-0.00492513	0.0083216	-0.00804954	
0.00165182	-0.00741924	0.00393152	
1.24894e-05	-0.00475744	0.0024675	
-0.000564311	0.00201408	-0.00146671	
-0.000502874	-0.00283973	0.00241965	
-0.00038172	-0.000818155	-0.00227525	
-0.015051	0.0314314	-0.0249551	
-0.00968287	0.0239399	-0.015387	
0.00100359	-0.00288895	-0.00114851	
0.000933406	-0.00386777	0.00179758	
0.000450185	-0.00375723	0.00184178	
9.30854e-05	-0.00320101	0.00147246	
-0.00167051	0.00662223	-0.00394728	
-0.000287257	5.9294e-05	6.57056e-05	
-8.89133e-05	-0.00016748	-0.000198681	
0.000140471	7.72958e-05	-0.000130834	
3.77668e-05	-0.000205974	-0.000298689	
-0.00014638	-0.00112893	-0.00118056	
0.033893	-0.0546542	0.0282538	
0.00256524	-0.00480343	-0.000288146	
-0.00076595	-0.00100035	-0.00284937	
-0.00433795	0.0150249	-0.00938901	
-0.000155361	-0.000588924	-0.000628531	
0.000151717	-0.00201388	-0.0022883	
7.63774e-05	-0.000405807	-0.000510808	
0.00855005	-0.00990375	0.00403169	
0.000147141	-0.00146261	-0.00165498	
-6.83834e-05	-0.000757998	-0.000798263	
-2.07939e-05	-0.000241151	-0.000296842	
5.41841e-05	-0.000255366	-0.000377779	
-0.00275258	0.00269291	0.00604007	
0.00289994	-0.00618437	-0.0257768	
-0.00382421	0.00312712	0.0346954	
0.00574737	0.000577858	-0.0101767	
0.00730703	0.000935486	-0.0124709	
0.0102064	0.00188178	-0.0224297	
0.0017109	0.00329101	-0.00737514	
0.00679238	0.00132158	-0.0117472	
0.00488664	0.00303833	-0.0149388	
0.00737015	0.00158204	-0.0137943	
0.0128267	0.00117791	0.0463749	
0.00141811	-0.0019521	0.00600599	
0.00196038	0.00246106	0.0289055	
-0.000591715	0.000714815	0.00377441	
0.00403053	0.00288229	-0.0113494	
0.00128082	0.00332789	-0.00627971	
0.00060144	0.00335088	-0.00269653	
-0.000304329	0.00291379	-0.000732152	
0.00796916	0.00290189	0.0332172	
0.00308614	-0.00235878	0.0129459	
0.00317407	0.00248858	0.0337682	
9.66978e-05	-9.58861e-05	1.73535e-05	
0.00254198	-0.00149262	0.0129681	
-2.34634e-05	0.00015306	6.61774e-05	
-0.00162491	0.0019658	0.0250484	
8.30547e-06	0.000263538	-3.9309e-05	
-0.000552635	0.00354095	0.000435312	
0.000142322	0.00165189	-0.000280521	
-0.00220441	0.0032196	0.0105052	
-0.00015233	0.00207376	-0.000495689	
-0.00158835	0.00201373	0.0127633	
0.00137249	0.0033545	-0.00561272	
0.000296892	0.000475731	-8.7559e-05	
-6.66394e-05	0.00340822	-0.000621396	
0.000224545	0.00277407	-0.000432898	
0.000215258	0.00122376	-0.000283266	
0.000205091	0.00227117	-0.00034003	
-0.00544626	-0.0121052	-0.0035362	
-0.0257123	-0.113863	-0.125253	
-0.00282436	-0.00625002	-0.00139802	
0.00319479	0.00519517	0.00278807	
-0.00127501	-0.00288568	0.000351007	
0.00548562	0.0125258	0.00990121	
-0.00950426	-0.0223521	-0.0104529	
0.00452635	0.00832778	0.00559066	
-0.00179754	-0.00736233	-0.0033771	
0.0010235	0.0042731	0.00428411	
0.00129731	0.00331326	0.00428687	
-0.00364313	-0.00716254	-0.0116512	
0.00551491	0.00861533	0.00588335	
-0.000522224	-0.00191635	0.000502156	
0.00554208	0.00949989	0.00750934	
0.00540682	0.0078606	0.00518067	
0.000218954	-0.000143739	0.00198251	
-0.0038502	-0.0158171	-0.00959186	
-0.00154974	-0.00514117	-0.0026812	
-0.000272719	-0.00121305	0.00159642	
6.26633e-05	0.000462839	-0.000505312	
0.000232843	-0.000370651	0.000833888	
0.000699868	-0.000155177	-0.000176052	
3.61235e-05	-0.000496984	0.00179623	
-3.70754e-05	0.000130833	-0.000294608	
0.0116195	0.0200487	0.0143644	
0.0053653	0.00776683	0.00469268	
0.0102544	0.0152525	0.00861473	
0.0117791	0.0232066	0.0155088	
-2.66328e-05	-0.000433953	0.0016111	
-2.17408e-06	3.60531e-05	-0.000118853	
9.40543e-06	-0.000501864	0.00196602	
0.00328851	0.00511981	0.00261926	
-3.075e-06	0.000174954	-0.00050313	
8.12836e-05	-0.00046868	0.00156847	
4.74035e-05	-0.000520738	0.00170039	
8.02982e-05	-0.000608179	0.00222784	
0.0227712	-0.0185976	0.0174821	
0.00226311	0.0182041	-0.0194851	
-0.00672352	0.0197634	-0.0108989	
0.00145493	-0.00283946	-0.000148005	
-0.00559031	0.0183163	-0.0096794	
-0.00837459	0.0242613	-0.0124578	
-0.00466259	0.012308	-0.0109375	
-0.00436895	0.00879162	-0.00829106	
0.00161333	-0.00699713	0.0041445	
1.78283e-05	-0.00440705	0.00266733	
-0.000581887	0.00228325	-0.00124586	
-0.000644435	-0.00234771	0.00265208	
-0.000386569	-0.000868616	-0.00229489	
-0.0146011	0.0334341	-0.0246725	
-0.0113378	0.0238956	-0.0153293	
0.000613934	-0.00271848	-0.0012505	
0.000951676	-0.00347867	0.00208938	
0.000469004	-0.00338935	0.00210565	
0.000182794	-0.00287915	0.00172352	
-0.00165185	0.00699247	-0.00381753	
7.6469e-05	-6.46346e-05	-6.9845e-05	
3.60088e-05	6.78888e-05	7.95002e-05	
-5.0939e-05	-3.16799e-05	6.32976e-05	
1.35211e-05	-8.05091e-05	-0.000115491	
-0.00020449	-0.00108656	-0.00109341	
0.0353119	-0.054326	0.0270184	
0.00210372	-0.00499155	-0.000192063	
-0.000338788	-0.00143033	-0.0023623	
-0.00518783	0.0151926	-0.00928858	
-0.000113506	-0.000687498	-0.000771851	
2.2876e-05	-0.00200739	-0.00222222	
0.000110723	-0.000425055	-0.000566959	
0.00757496	-0.0102152	0.00448235	
3.85002e-05	-0.00142976	-0.00156615	
-4.13588e-05	-0.000738617	-0.000840692	
4.43134e-06	4.77895e-05	5.84615e-05	
4.27883e-05	-0.000176993	-0.000267254	
-0.00283891	0.00245258	0.00599968	
0.00257929	-0.00538647	-0.0246369	
-0.00384562	0.0032105	0.0354645	
0.00601589	0.000719824	-0.0105082	
0.00740999	0.00121367	-0.0129037	
0.00983883	0.00234357	-0.0233995	
0.00240143	0.00316491	-0.0071407	
0.00669585	0.00167112	-0.0123854	
0.00590217	0.0031494	-0.01466	
0.00708852	0.00198178	-0.0145606	
0.0132302	0.0014666	0.0472203	
0.0014388	-0.0020194	0.00661134	
0.00207359	0.00262927	0.0293565	
-0.000686886	0.00189728	0.00424651	
0.00429272	0.00295267	-0.0113286	
0.00179357	0.00311363	-0.00607899	
0.00075217	0.00325511	-0.003011	
-0.000241655	0.00310925	-0.000712319	
0.00826237	0.00302007	0.0338459	
0.00299167	-0.00222837	0.0132063	
0.00339838	0.00274668	0.0346549	
1.14129e-05	-0.000111969	1.11442e-05	
0.00255511	-0.00142245	0.0134983	
-1.94625e-07	0.00013605	5.45966e-05	
-0.00155633	0.00217337	0.0257453	
3.84934e-06	0.000130405	-1.88315e-05	
-0.00046641	0.00319209	0.000562418	
0.000149462	0.00178055	-0.00030689	
-0.00224673	0.00332122	0.0107461	
-0.000184385	0.00250421	-0.000581448	
-0.00160454	0.00220234	0.013305	
0.00146743	0.00313808	-0.00565048	
0.000261838	0.000434605	-8.09246e-05	
-3.43901e-05	0.00311186	-0.000540502	
0.000247913	0.00298606	-0.000452174	
0.000196515	0.00118567	-0.000278895	
0.000223494	0.00246477	-0.000367465	
-0.00570222	-0.0121663	-0.00351017	
-0.0266294	-0.116027	-0.131504	
-0.00240235	-0.0053173	-0.00117005	
0.00330006	0.00507258	0.00288672	
-0.00121331	-0.00276125	0.000179968	
0.00530948	0.0122667	0.00951941	
-0.0101722	-0.0213153	-0.0107498	
0.00492352	0.0083562	0.00544239	
-0.0018425	-0.00763872	-0.00371702	
0.000940375	0.00396918	0.00393526	
0.00136527	0.00361424	0.00428915	
-0.001248	-0.00766154	-0.0113434	
0.00574192	0.00872667	0.00581012	
-0.000437079	-0.00151056	0.000365264	
0.00590763	0.0101215	0.00769731	
0.00546306	0.00804021	0.00521412	
0.000221548	-9.94804e-06	0.00180178	
-0.00373913	-0.0156754	-0.00974135	
-0.00149866	-0.00517088	-0.0027197	
-0.000312488	-0.00129555	0.00117942	
0.000435404	4.72955e-05	-7.29652e-05	
0.000205607	-0.000330852	0.000774755	
0.000474145	-0.000319674	0.000176501	
3.4269e-05	-0.000452066	0.00162412	
-3.29496e-05	0.000112638	-0.000249345	
0.0117256	0.0202212	0.0142233	
0.00534991	0.00791894	0.00482896	
0.0101583	0.0154633	0.0089153	
0.0115899	0.0228098	0.015195	
-6.1284e-06	-0.000371009	0.00134311	
-2.50949e-07	2.34453e-06	-8.13485e-06	
2.18827e-05	-0.000446785	0.00170223	
0.0033678	0.00504386	0.00283617	
-2.72891e-06	9.49868e-05	-0.000272924	
8.07821e-05	-0.000398572	0.00126434	
4.68797e-05	-0.000486962	0.00160076	
7.31368e-05	-0.000511226	0.00185754	
0.0224236	-0.0192454	0.0184036	
0.00246151	0.0183199	-0.0194456	
-0.00680347	0.0200361	-0.0109422	
0.00157594	-0.00297566	0.000282806	
-0.00564237	0.0183806	-0.00983673	
-0.00844576	0.0244228	-0.012629	
-0.00544746	0.0126405	-0.0104897	
-0.0049504	0.00897193	-0.00796544	
0.00160664	-0.00703357	0.00403316	
2.73782e-05	-0.00446731	0.00259562	
-0.000595652	0.00228959	-0.00133695	
-0.000679965	-0.00236134	0.00265404	
-0.00035569	-0.000649302	-0.00208036	
-0.0161467	0.034455	-0.0242077	
-0.0114671	0.0244719	-0.0151884	
0.000598435	-0.00242035	-0.00114695	
0.000929155	-0.00351148	0.00196053	
0.00046179	-0.00347052	0.00200805	
0.000159738	-0.00294588	0.00164292	
-0.00168045	0.00696419	-0.00390578	
-2.37334e-06	5.68673e-06	6.12445e-06	
-3.62873e-06	-7.05428e-06	-8.25826e-06	
4.46004e-06	2.97107e-06	-4.2433e-06	
1.35504e-05	-8.58188e-05	-0.000121748	
-0.000178764	-0.000807236	-0.000804388	
0.0352969	-0.0537042	0.0269012	
0.00205549	-0.00473303	0.000146004	
-5.78641e-05	-0.00153124	-0.0017914	
-0.00524507	0.0154435	-0.00921955	
-6.93568e-05	-0.000469889	-0.000534967	
8.68629e-06	-0.00164633	-0.00184649	
6.94192e-05	-0.00028274	-0.000377021	
0.00697892	-0.0102898	0.00481476	
-4.31956e-06	-0.0012677	-0.001391	
-2.32474e-05	-0.00067099	-0.000796799	
-2.94205e-06	-3.37553e-05	-4.12474e-05	
3.15279e-05	-0.000140225	-0.000208972	
-0.00263608	0.00278017	0.00553995	
0.0016933	-0.00543924	-0.0240191	
-0.00346524	0.00198591	0.0363368	
0.00609657	0.00114471	-0.0107819	
0.00737406	0.00143213	-0.0132528	
0.0106201	0.00168176	-0.0233868	
0.00258849	0.0026725	-0.00742018	
0.00660634	0.00172622	-0.0125479	
0.00604329	0.00258711	-0.0147416	
0.00706269	0.00161653	-0.014645	
0.0137757	0.00136475	0.0475275	
0.00149049	-0.0020801	0.00690102	
0.00237026	0.00192755	0.0300432	
-0.000692141	0.00244051	0.00432947	
0.00475787	0.00240416	-0.0113336	
0.0019315	0.00277632	-0.00641523	
0.00049328	0.00256038	-0.00178613	
-0.000105539	0.00217273	-0.000440649	
0.00860076	0.002656	0.0342169	
0.00303605	-0.00221437	0.0133149	
0.00383477	0.00205524	0.0352984	
-2.41516e-05	-4.75448e-05	7.7789e-07	
0.00264881	-0.00148475	0.0137973	
2.81441e-06	6.18715e-05	2.20629e-05	
-0.00118718	0.00131875	0.0263377	
1.87189e-05	0.000605804	-8.57389e-05	
-0.000498155	0.00311335	0.000713372	
6.94118e-05	0.000925867	-0.000163636	
-0.00217104	0.00209655	0.0113721	
-0.000100229	0.00168848	-0.000367183	
-0.00149655	0.00120631	0.0139088	
0.00138032	0.00277315	-0.00540088	
0.000113044	0.000200515	-3.81651e-05	
-3.9788e-05	0.00294438	-0.000506022	
0.000127585	0.00173331	-0.000264069	
7.64704e-05	0.00051753	-0.000122756	
0.000108427	0.00134668	-0.000204698	
-0.00575837	-0.0121906	-0.00317249	
-0.029702	-0.119441	-0.132953	
-0.00228329	-0.00506006	-0.00134159	
0.00342419	0.00499815	0.00327013	
-0.00120537	-0.00279081	-0.000199523	
0.00521742	0.012211	0.00926252	
-0.0100816	-0.0213417	-0.0103856	
0.0050091	0.00826989	0.0060199	
-0.00187836	-0.0077919	-0.00423057	
0.000868783	0.00380745	0.00354907	
0.00131973	0.00362632	0.003929	
-0.0012737	-0.007526	-0.0115631	
0.00588507	0.00855568	0.00644833	
-0.000339952	-0.00137921	0.000589149	
0.00598675	0.0103188	0.00792665	
0.00561211	0.00779523	0.00594079	
0.000112772	-0.000135094	0.00119634	
-0.00362742	-0.0155611	-0.0100333	
-0.0015174	-0.00511681	-0.00295433	
-0.000259071	-0.00105362	0.000787893	
0.000298682	2.39747e-05	-3.91587e-05	
0.000140884	-0.000222876	0.000544554	
0.000197476	-0.000192294	0.000260024	
3.17338e-05	-0.000388026	0.00138088	
2.24752e-06	-7.46224e-06	1.65921e-05	
0.0117695	0.020414	0.0142802	
0.00551561	0.0077437	0.00573941	
0.0102862	0.0154701	0.00985966	
0.0115054	0.0228092	0.0153112	
9.42365e-08	-0.000382787	0.00137343	
2.25503e-05	-0.000249623	0.000776649	
2.3153e-05	-0.000389586	0.00147035	
0.0034314	0.00496806	0.00338207	
6.4229e-06	-0.000136663	0.00038718	
8.31491e-05	-0.000405211	0.00127993	
3.90888e-05	-0.000385595	0.00126925	
5.98712e-05	-0.00041506	0.00149606	
0.0222419	-0.0204924	0.0189105	
0.00235862	0.0185104	-0.0188518	
-0.00688551	0.0202241	-0.0110414	
0.00157262	-0.00313343	0.000293029	
-0.00569397	0.0184991	-0.00994854	
-0.00853835	0.0245524	-0.0127846	
-0.00564989	0.013171	-0.0100463	
-0.00511356	0.00948317	-0.00751919	
0.00159304	-0.00692264	0.00402272	
2.34347e-05	-0.0043904	0.00261702	
-0.000609521	0.00235458	-0.00134458	
-0.000493007	-0.00221149	0.00276924	
-0.000421039	-0.000155784	-0.00166582	
-0.0164827	0.035517	-0.0239782	
-0.011518	0.0248136	-0.0151939	
0.00066932	-0.00201604	-0.000823008	
0.000919663	-0.00341897	0.00196078	
0.000469582	-0.00340808	0.00202192	
0.000177771	-0.00288857	0.0016639	
-0.00169796	0.00704175	-0.00393392	
-7.52027e-06	-2.10246e-05	-2.47461e-05	
8.76437e-06	1.75015e-05	2.03539e-05	
-1.39209e-05	-9.3949e-06	1.70561e-05	
1.03221e-05	-7.04152e-05	-9.86468e-05	
-0.000229564	-0.00100566	-0.00102127	
0.0351396	-0.0533308	0.0272305	
0.00222491	-0.00421743	0.000435221	
3.12187e-06	-0.00131014	-0.00147633	
-0.00527539	0.0155481	-0.00919814	
-4.72485e-05	-0.000355879	-0.000408445	
3.39217e-05	-0.00124221	-0.00144973	
4.9894e-05	-0.000221976	-0.000294191	
0.00680812	-0.0104012	0.00481855	
-2.53806e-06	-0.00126828	-0.00142303	
-9.38234e-06	-0.00043741	-0.000525113	
-5.48765e-07	-6.49108e-06	-7.89745e-06	
2.50444e-05	-0.000118786	-0.000174555	
-0.00269744	0.00241143	0.00554647	
0.00078698	-0.00583692	-0.02334	
-0.00314187	0.00116471	0.0367754	
0.00622555	0.000632525	-0.0108799	
0.00734202	0.000939532	-0.0131269	
0.0107564	0.00114536	-0.0236275	
0.00247228	0.00182483	-0.0069781	
0.00677384	0.000811444	-0.012553	
0.00613301	0.00194606	-0.0149687	
0.00727656	0.000997668	-0.0146295	
0.0139353	0.00154553	0.0477498	
0.00143973	-0.00196186	0.00709855	
0.00254329	0.00158915	0.0303722	
-0.000138367	0.00270196	0.00448399	
0.00487237	0.00165811	-0.0114391	
0.00178316	0.00157442	-0.00584064	
0.000547179	0.00099257	-0.00132521	
-6.56154e-05	0.00143488	-0.000282047	
0.00873103	0.00264489	0.0344092	
0.00295176	-0.00202774	0.0134068	
0.00406088	0.00185516	0.035571	
-4.21639e-05	-2.45888e-05	4.88617e-07	
0.00266034	-0.00136493	0.0139655	
4.66911e-06	5.53834e-05	1.71136e-05	
-0.000964378	0.000886211	0.0264879	
4.89638e-06	0.000152482	-2.1148e-05	
-0.000510709	0.00134051	0.00131435	
3.43e-05	0.000513969	-9.22894e-05	
-0.00203171	0.000951274	0.0116815	
-4.72723e-05	0.00104821	-0.000210503	
-0.00140752	0.000659387	0.0141329	
0.00135796	0.00101833	-0.00499524	
7.58305e-05	0.000143949	-2.73e-05	
-1.94255e-05	0.00110753	-0.000189195	
5.03146e-05	0.000788818	-0.00012129	
4.43356e-05	0.000331309	-7.8154e-05	
4.3964e-05	0.000621069	-9.56662e-05	
-0.00610887	-0.0122608	-0.0037328	
-0.0304236	-0.12263	-0.133743	
-0.001559	-0.00342368	-0.000963481	
0.00332129	0.00517188	0.00252422	
-0.00106755	-0.00248098	-0.000678898	
0.00474315	0.0113329	0.00803023	
-0.0098972	-0.0201102	-0.0115417	
0.00491675	0.00884333	0.00462511	
-0.00192088	-0.00778356	-0.00464098	
0.00091136	0.00412946	0.00359004	
0.00157428	0.00465868	0.00394694	
-0.00131714	-0.00762339	-0.0119107	
0.00590678	0.00915526	0.00499104	
-0.000271776	-0.000722986	-6.72198e-05	
0.0063291	0.0112524	0.00735846	
0.00568622	0.00842055	0.00441676	
0.000399587	0.000846948	0.00168535	
-0.00365481	-0.0160047	-0.0104364	
-0.00156941	-0.00518368	-0.00317286	
-0.000613476	-0.00218599	-0.000128445	
0.000226299	2.18113e-05	-2.76916e-05	
9.73004e-05	-0.000155652	0.00038823	
0.00015341	-0.000165625	0.000224835	
1.48348e-05	-0.000190126	0.000672555	
-6.27591e-05	0.000212132	-0.000471405	
0.0117061	0.0205643	0.013657	
0.00548906	0.0082982	0.00404558	
0.0102229	0.0159493	0.00844832	
0.0109772	0.0222071	0.013843	
2.98662e-06	-0.000156186	0.000553987	
-3.05451e-05	0.000266424	-0.00080546	
1.82892e-05	-0.000263229	0.000979603	
0.00338522	0.00530768	0.00238932	
-1.92457e-05	0.000299694	-0.000842364	
3.88367e-05	-0.000188986	0.000593802	
1.75126e-05	-0.000179704	0.000594062	
4.97757e-05	-0.000352768	0.00125631	
0.0220368	-0.0198779	0.0197603	
0.00210452	0.0187356	-0.0184768	
-0.00693665	0.0203355	-0.0110065	
0.00190605	-0.00281327	0.00112386	
-0.00570241	0.0184954	-0.00998727	
-0.00858464	0.0246195	-0.0128649	
-0.00574087	0.0134825	-0.00979606	
-0.00526143	0.00995066	-0.00729545	
0.00157932	-0.00688042	0.00398498	
3.88546e-05	-0.00437374	0.00260253	
-0.000618645	0.00238695	-0.00136453	
-0.000328074	-0.00211405	0.00284915	
-0.000337829	-0.000119239	-0.00133277	
-0.0167179	0.0363026	-0.0238302	
-0.0116057	0.0251765	-0.0151147	
0.000404711	-0.0012468	-0.00055241	
0.000907105	-0.00338165	0.00192694	
0.000471458	-0.00340206	0.00199982	
0.000182883	-0.00288077	0.00165061	
-0.00171217	0.00707168	-0.00397249	
-8.35813e-06	-5.89944e-06	-8.45591e-06	
3.04466e-06	6.26901e-06	7.26052e-06	
-4.97391e-06	-3.24415e-06	7.29816e-06	
4.66392e-06	-3.45773e-05	-4.77417e-05	
-3.00979e-05	-0.000137491	-0.000145018	
0.0349836	-0.052947	0.0275266	
0.00219615	-0.00406449	0.000532218	
0.000568829	-0.00164186	-0.000633684	
-0.00531729	0.0157218	-0.00909812	
-2.53029e-05	-0.000219311	-0.000253742	
6.07514e-05	-0.00109702	-0.00134558	
2.3097e-05	-0.000112177	-0.000147678	
0.00670677	-0.00967125	0.00519512	
4.18066e-06	-0.000356021	-0.000412876	
-2.83303e-06	-0.000307802	-0.0003725	
-1.09346e-06	-1.34049e-05	-1.62864e-05	
1.14234e-05	-5.82039e-05	-8.41882e-05	
-0.00272113	0.00226585	0.00555474	
0.000428555	-0.00599319	-0.0229099	
-0.00310731	0.00113628	0.0370059	
0.00626691	0.000484535	-0.0110497	
0.00745959	0.000803535	-0.013348	
0.0108302	0.00154958	-0.0241505	
0.00231294	0.00148257	-0.00657129	
0.00686364	0.00117556	-0.012804	
0.00593896	0.00165406	-0.0146437	
0.00734118	0.00133614	-0.0149069	
0.0140219	0.00185002	0.0478358	
0.00142325	-0.00182687	0.00742328	
0.00266757	0.00163769	0.0305234	
0.000690167	0.00270498	0.00500856	
0.00488651	0.00196994	-0.0117156	
0.00167517	0.00123731	-0.00556346	
0.000522135	0.000923854	-0.00119817	
-7.84064e-05	0.00178643	-0.000344326	
0.0088283	0.00274108	0.0345564	
0.00289452	-0.00176721	0.0135521	
0.00420712	0.00193336	0.0358138	
-3.71794e-05	9.21369e-07	-4.88772e-07	
0.00266879	-0.00113326	0.0141216	
8.32054e-06	5.9646e-05	1.56651e-05	
-0.000892959	0.00095254	0.0266501	
1.45601e-06	4.67794e-05	-6.39444e-06	
-0.000528245	0.00110213	0.00149249	
2.88521e-05	0.00048861	-8.85782e-05	
-0.00201852	0.00089616	0.011786	
-5.56083e-05	0.001347	-0.000262203	
-0.00139137	0.000701571	0.0141905	
0.00132235	0.000938176	-0.00494672	
8.7161e-05	0.000177864	-3.38004e-05	
-1.78384e-05	0.000973845	-0.000164296	
4.36295e-05	0.000751369	-0.000115421	
3.97086e-05	0.000334724	-7.81878e-05	
3.89262e-05	0.000612298	-9.4793e-05	
-0.00594757	-0.0123536	-0.00304468	
-0.029752	-0.126379	-0.135667	
-0.00159141	-0.00358174	-0.00057209	
0.00341926	0.00499227	0.00339287	
-0.00111232	-0.00258104	-7.51338e-05	
0.0047562	0.0112416	0.00872411	
-0.00974257	-0.0207716	-0.00985528	
0.00513143	0.00835148	0.00661111	
-0.00200944	-0.00823535	-0.00442339	
0.000809828	0.0037534	0.00352112	
0.0016467	0.00461117	0.00467518	
-0.00143336	-0.00761306	-0.0116747	
0.00604095	0.00872547	0.00698419	
-9.23516e-05	-0.000965809	0.00108164	
0.00627435	0.0109794	0.00835681	
0.00578744	0.00801823	0.00636888	
0.000407609	0.00072248	0.00194478	
-0.00367726	-0.015905	-0.0101605	
-0.00161136	-0.00533513	-0.00298865	
-0.000669308	-0.00241866	6.96762e-05	
0.00029239	-8.77135e-05	0.000114311	
0.000152017	-0.000244381	0.000626245	
0.000186024	-0.000206839	0.000305267	
3.70067e-05	-0.000395053	0.00137994	
1.83718e-05	-6.3711e-05	0.000143181	
0.0116755	0.020421	0.0143179	
0.00555862	0.00781343	0.00591066	
0.0103846	0.0155853	0.010259	
0.0110763	0.0220873	0.0150649	
1.76321e-05	-0.000409416	0.00142954	
3.68428e-05	-0.000313528	0.000934228	