<VTKFile type="UnstructuredGrid" version="0.1" byte_order="LittleEndian">
	<UnstructuredGrid>
		<Piece NumberOfPoints="2886" NumberOfCells="2886">
			<CellData Scalars="scalars">
				<DataArray type="Float64" Name="Strength" NumberOfComponents="3" Format="ascii">
-0.00643562	-0.0160923	0.0125989	
0.00547008	-0.0125813	-0.0272781	
-0.00488004	0.0708464	0.0127825	
0.00438798	-0.00635755	-0.00748881	
0.00585174	0.00109377	-0.0109632	
0.0161268	0.0558978	-0.0271669	
0.0153918	0.08688	-0.02192	
0.00528994	0.019387	-0.0135659	
0.0180089	0.08403	-0.0270881	
0.00779849	0.033811	-0.0178574	
0.00594781	0.00492968	0.0445549	
0.00237164	-0.00421823	0.0029902	
-0.00756736	0.0400435	0.0151457	
0.00179132	-0.00164105	-0.000687226	
0.0131916	0.0743943	-0.0227343	
0.0184746	0.0851635	-0.0193591	
0.0184863	0.091232	-0.0198898	
0.00535729	0.0676143	-0.0141219	
0.00169835	0.0122617	0.0288869	
0.00653252	-0.00668511	0.010915	
-0.00561595	0.0329509	0.0226203	
-0.00140339	0.00178945	0.000114864	
0.00343973	-0.00432183	0.0100636	
-0.000403271	0.00232488	-0.0009434	
-0.00839735	0.048993	0.00940405	
-0.000539329	-0.0127263	0.0022536	
0.015316	0.0870905	-0.015707	
0.00919025	0.0419832	-0.00300469	
0.00961902	0.0862794	-0.00523417	
0.0025958	0.0491142	-0.00994925	
0.00339565	0.0542017	0.00158626	
0.019395	0.086939	-0.0177254	
-0.000402267	-0.000505445	0.000103156	
0.0165362	0.0851044	-0.0133052	
0.0226031	0.0761986	-0.0044767	
0.00782084	0.0203691	-0.00199216	
0.0168998	0.0583379	-0.00331116	
-0.00980649	-0.00534767	-0.0257451	
-0.00186364	-0.135146	0.0163087	
-0.00266973	-0.0180792	0.0484389	
0.0020632	0.0115423	-0.0134237	
0.00733333	-0.00995631	0.0538644	
0.0282278	-0.000926687	0.0618043	
-0.00627147	-0.039684	0.0449727	
0.016041	-0.0108429	0.052293	
0.0117303	-0.0144579	0.0370113	
0.0130248	-0.00110515	0.0153588	
0.0147186	-0.0128301	0.0543575	
0.0165377	0.0167371	-0.0026575	
0.0121379	-0.00790715	0.0469794	
0.00368523	-0.0119892	0.0252764	
0.0108998	-0.0050483	0.0536749	
0.00889497	-0.004956	0.0391543	
0.0153027	-0.015582	0.0460025	
0.00133138	-0.0175551	0.0291417	
0.00501783	-0.00749964	0.0176353	
0.015576	-0.0115612	0.0544509	
0.0249571	-0.00667155	-0.00624892	
0.0161493	-0.0128566	0.0154063	
0.00770196	-0.00403825	0.0176664	
0.0136173	-0.0144417	0.055968	
-0.00215684	0.00828227	-0.0205467	
0.0187993	0.0115783	0.0384135	
0.00759295	-0.0019982	0.030856	
0.00993306	0.0105839	0.0174615	
0.0374336	0.00566153	0.0679851	
0.00404021	-0.00998869	0.0393876	
0.00131293	-0.00576977	0.018049	
0.00698658	-0.0102191	0.0429413	
0.00265832	0.00924225	-0.0100445	
-8.59359e-05	0.00157395	-0.00459408	
0.00379012	-0.00719972	0.0237366	
0.0163017	-0.0160716	0.0515278	
0.0120259	-0.0128108	0.0491664	
0.0237503	-0.0525827	-0.0151365	
-0.0013203	0.0127082	-0.033135	
-0.00752099	-0.00142267	-0.031659	
0.00323715	-0.028584	-0.0329034	
-0.00741057	0.013825	-0.0122251	
-0.0118241	0.0106943	-0.0240075	
0.00193781	-0.0182324	-0.050011	
0.00613232	-0.0271608	-0.0508795	
0.00168176	-0.00931854	0.00298636	
0.000139458	-0.00726913	0.000925395	
-0.00048838	-7.6367e-05	-0.0035201	
0.000111354	0.00381621	0.00497212	
0.0104525	-0.0397616	-0.0552788	
-0.0129992	-0.00293886	-0.0490795	
-0.014796	-0.0155237	-0.0473593	
0.00964851	-0.0448354	-0.0547488	
0.000842484	-0.00480776	0.00122377	
0.000361587	-0.00599818	0.000205324	
0.000260267	-0.00549799	-0.000677858	
-0.0017798	0.00457043	-0.00521161	
-0.0020142	0.00208068	0.0021242	
-0.000828822	-0.00183516	-0.00230617	
-9.82739e-05	0.00277443	-0.000153532	
0.00154586	-0.00604406	-0.00886832	
-0.000896049	-0.0333433	-0.0370399	
0.0467536	-0.0736585	-0.00283549	
0.0114885	-0.046457	-0.0523659	
0.00518672	-0.0412552	-0.0552873	
-0.00195296	-0.00707338	-0.0339801	
0.000196745	-0.0392123	-0.0442011	
0.00906574	-0.0426362	-0.0524311	
0.011154	-0.0221331	-0.0339562	
0.0161641	-0.0433635	-0.0367237	
0.0106008	-0.0490862	-0.0597335	
0.000812255	-0.0116373	-0.0133354	
6.85921e-07	7.07707e-06	8.67067e-06	
0.00432231	-0.011633	-0.0184458	
-0.00272597	0.00246908	0.00638443	
0.000732496	-0.00669488	-0.0288964	
-0.00705626	0.00715717	0.032166	
0.00505976	0.00101915	-0.0101716	
0.00671335	0.00262249	-0.0123669	
0.0145731	0.00849391	-0.0193179	
0.00454158	0.0112093	-0.00736387	
0.00665399	0.00487519	-0.0115246	
0.00995194	0.0113481	-0.0131739	
0.00827647	0.00644007	-0.0132084	
0.0145598	0.00173259	0.0438824	
0.00138318	-0.00162137	0.00460499	
0.00297166	0.00437805	0.0272771	
0.00059842	0.000160672	0.00212474	
0.00742851	0.0107182	-0.0104549	
0.00399657	0.0110603	-0.0066299	
0.000861178	0.0105352	-0.00390658	
0.000109053	0.0101297	-0.00239797	
0.0100058	0.00350611	0.0311785	
0.00314361	-0.00266197	0.0123783	
0.00524175	0.00489042	0.0316488	
-6.29301e-05	0.000149178	-7.1552e-05	
0.00293404	-0.00133401	0.0116109	
-0.000201014	0.000307437	0.000173982	
-0.00225092	0.00622964	0.0232203	
7.07845e-06	0.000191806	-3.35166e-05	
-0.000403317	0.0108289	-0.00135603	
0.000494097	0.00545825	-0.00083886	
-0.00421036	0.00817658	0.00883837	
4.93099e-05	0.00794925	-0.00177874	
-0.00189328	0.00588061	0.0113	
0.00255049	0.00966602	-0.00587934	
0.000860452	0.00101535	-0.000267949	
0.000205028	0.00992358	-0.00178503	
0.00100815	0.00853428	-0.000827224	
0.000635125	0.00258262	-0.000670743	
0.000812449	0.00698256	-0.000861006	
-0.00512147	-0.0116291	-0.00453637	
-0.0181988	-0.109751	-0.111657	
-0.00550804	-0.00922787	0.00224995	
0.00279027	0.00601009	0.00176507	
-0.00234651	-0.00403167	0.0046185	
0.00629971	0.0125543	0.0153809	
-0.0146773	-0.0229257	-0.00595173	
0.00674857	0.00602992	0.00734769	
-0.000707062	-0.00805374	0.000504376	
-0.000681966	0.00379998	0.00577656	
8.46861e-05	0.00103422	0.00769784	
-0.00376784	-0.00863172	-0.00907984	
0.00725725	0.00634057	0.00745412	
-0.000518818	-0.0037272	0.00376221	
0.00607919	0.00675463	0.010296	
0.00649665	0.00609408	0.00651991	
-0.000282482	-0.00227064	0.00513207	
-0.00312867	-0.0160355	-0.00639938	
-0.00169987	-0.00557725	-0.000609235	
-0.000698633	-0.00109513	0.00677545	
-0.00103892	0.00146621	-0.00160768	
0.000941077	-0.00123672	0.00253873	
0.000515642	0.00167357	-0.00157449	
-0.000458264	-0.00168353	0.0059926	
-0.00015321	0.000549117	-0.00133561	
0.0147377	0.0180594	0.0172168	
0.00611624	0.00650753	0.00563423	
0.010353	0.0145763	0.00853555	
0.0159147	0.0221036	0.0191401	
-0.000154411	-0.00127187	0.00574325	
3.07615e-05	-0.000230023	0.000756988	
-0.000155357	-0.00138501	0.00672445	
0.00294814	0.00555427	0.00166138	
1.21303e-06	0.000301547	-0.000893764	
0.000594597	-0.00157239	0.00583629	
-0.000457004	-0.0018061	0.00573892	
-0.000181757	-0.00179295	0.00719651	
0.0235328	-0.0190436	0.0134129	
0.00159845	0.016692	-0.0190847	
-0.00668109	0.0187975	-0.011243	
0.0015054	-0.0050379	-0.00388902	
-0.00467053	0.0186395	-0.00914474	
-0.00735055	0.0240996	-0.0122716	
-0.00703916	0.00742462	-0.0142775	
-0.00585968	0.00378105	-0.0112274	
0.00157651	-0.00639	0.00488507	
-7.09975e-05	-0.00376765	0.00321408	
-0.000488309	0.00264894	-0.000477691	
-0.000645602	-0.00139543	0.00311164	
0.000349742	-0.0042704	-0.0069416	
-0.0201397	0.0226894	-0.0282364	
-0.0139799	0.0212878	-0.0151088	
0.00212815	-0.00686463	-0.00625642	
0.00107514	-0.0028789	0.00301591	
0.000551662	-0.00263533	0.00281577	
0.000379321	-0.00226916	0.00233605	
-0.00133113	0.00767691	-0.00316195	
0.00071244	0.000633639	0.000466775	
0.000392862	0.000636713	0.000742159	
-0.000303675	-0.000222929	0.000709847	
-6.0599e-05	0.000262196	0.000376696	
-0.000344278	-0.00366527	-0.00383741	
0.0423695	-0.0522438	0.0225926	
0.00393014	-0.00846773	-0.00545441	
-0.000692965	-0.00465277	-0.00790269	
-0.00570139	0.0141175	-0.00973457	
-0.000428552	-0.00192632	-0.00209733	
0.00101301	-0.00612652	-0.0072953	
0.000306177	-0.000896687	-0.0012189	
0.0104316	-0.0123483	-0.000146295	
0.000802905	-0.00454017	-0.00534318	
-5.98094e-05	-0.00290617	-0.00299009	
8.84453e-05	0.000790913	0.000968749	
2.84584e-05	-9.54861e-05	-0.000141898	
-0.00275178	0.00259101	0.0062672	
0.00193856	-0.00627659	-0.0272234	
-0.000991371	0.00326659	0.0340961	
0.00550239	0.000356974	-0.0101233	
0.00719179	0.000812525	-0.0121658	
0.0121406	0.00169765	-0.0203789	
0.00202744	0.0027769	-0.0069145	
0.00695752	0.00135923	-0.0111824	
0.00602348	0.00263807	-0.0140577	
0.00797248	0.00160968	-0.0129259	
0.0123368	9.02495e-05	0.0454313	
0.00164305	-0.0021964	0.00512985	
0.00192614	0.00235428	0.0284037	
0.000223653	9.55638e-06	0.00291324	
0.00502021	0.00254363	-0.0104901	
0.0013155	0.00268913	-0.00611011	
0.000166225	0.0027351	-0.0030265	
-0.000226154	0.00270458	-0.000736383	
0.00759447	0.00247434	0.0326319	
0.00364414	-0.00318086	0.0123352	
0.00311176	0.00221744	0.0332083	
4.06805e-05	0.000140393	-7.41014e-05	
0.00299816	-0.00207662	0.012206	
-5.71468e-05	0.000131004	7.10539e-05	
-0.00170512	0.00184214	0.0243638	
2.25143e-06	7.07023e-05	-1.17524e-05	
-0.000621091	0.00291534	0.000462715	
0.00018635	0.00167898	-0.000270946	
-0.000955624	0.00277065	0.0103803	
-0.000109551	0.00208547	-0.000526128	
-0.00102969	0.00194361	0.0122948	
0.000570838	0.00254876	-0.00564221	
0.000346413	0.000438306	-9.16794e-05	
-0.000295678	0.00270783	-0.000593961	
8.25859e-05	0.00239228	-0.000429734	
0.000277098	0.00115532	-0.000274394	
0.000153053	0.00206368	-0.000351993	
-0.00510548	-0.0120471	-0.0036084	
-0.0313833	-0.110921	-0.117981	
-0.00309609	-0.00766533	-0.00185966	
0.00301521	0.00545267	0.00277986	
-0.00133895	-0.00297629	0.000310884	
0.00591925	0.0132611	0.0101406	
-0.0105636	-0.0228349	-0.0100569	
0.00485885	0.0080629	0.00492715	
-0.00167491	-0.00712872	-0.00319499	
0.000930013	0.00412235	0.0044981	
0.00107982	0.00284167	0.00383232	
-0.00489038	-0.00637634	-0.0118326	
0.00588323	0.00821742	0.00532374	
-0.000638364	-0.00228911	0.000608563	
0.00469246	0.00921057	0.00720008	
0.00572911	0.00744901	0.00472949	
8.42e-05	-0.000530139	0.00166233	
-0.0037172	-0.0156108	-0.00935921	
-0.00163758	-0.00501282	-0.00269834	
-9.98815e-05	-0.000558752	0.00197183	
8.82911e-05	0.000447798	-0.000469082	
0.000242352	-0.00036488	0.000755357	
0.000667559	-3.30606e-05	-0.000271235	
9.92032e-06	-0.000472705	0.00180489	
-5.06294e-05	0.000171975	-0.000400943	
0.0109414	0.0205614	0.0141188	
0.00564922	0.00741836	0.00435208	
0.010342	0.0149733	0.00831543	
0.0102379	0.0246632	0.0156486	
-0.000163568	-0.000404866	0.00187373	
-2.45425e-06	4.89001e-05	-0.000170595	
-0.000158376	-0.000452935	0.00223385	
0.00312323	0.00519101	0.00257984	
6.43544e-06	0.000174539	-0.000520235	
7.91232e-05	-0.00050934	0.00198937	
1.57143e-05	-0.000489446	0.00162284	
-2.63e-05	-0.000574336	0.00235601	
0.0235899	-0.0170619	0.0162695	
0.00261996	0.0175892	-0.0214514	
-0.00565421	0.0195706	-0.0108846	
0.00148525	-0.0026874	-0.000538198	
-0.00555178	0.0180096	-0.00952645	
-0.00776804	0.0240956	-0.0122149	
-0.005344	0.0115716	-0.0111592	
-0.00496636	0.0082208	-0.00815136	
0.00163391	-0.00743609	0.00392154	
0.000126014	-0.00474073	0.00250358	
-0.000562358	0.00203099	-0.00144869	
0.000692164	-0.00267448	0.00260222	
-0.000368782	-0.000811887	-0.00228217	
-0.015251	0.0308746	-0.0256094	
-0.00938335	0.0239163	-0.015666	
0.000993519	-0.00289466	-0.00114462	
0.00091352	-0.00387907	0.00179168	
0.000450388	-0.00375875	0.00184529	
0.000112502	-0.0032165	0.00144208	
-0.00166856	0.00665801	-0.00390222	
-0.000176252	-0.000229167	-0.000100306	
-9.25105e-05	-0.000166138	-0.000198272	
0.000160977	0.000101577	-8.38099e-05	
4.49659e-05	-0.000199502	-0.000302104	
-0.000190127	-0.00116435	-0.00114106	
0.032546	-0.055319	0.0287291	
0.00259673	-0.00479014	-0.000262644	
-0.000796015	-0.00105218	-0.00282617	
-0.00429645	0.0150529	-0.0093968	
-0.000180899	-0.000592012	-0.00061925	
0.00014725	-0.00204191	-0.00226599	
0.000103242	-0.000400414	-0.000510539	
0.00885156	-0.00964546	0.004029	
0.000154217	-0.00148423	-0.00163664	
-7.76504e-05	-0.000769548	-0.000786898	
-2.2467e-05	-0.000239695	-0.000297997	
6.71726e-05	-0.000246252	-0.000381796	
-0.00274215	0.00274913	0.00602247	
0.00249685	-0.00669155	-0.0256138	
-0.00398039	0.00303947	0.0346652	
0.00574759	0.00051466	-0.0101796	
0.0073254	0.000859664	-0.0124662	
0.0102101	0.00143755	-0.0224599	
0.00163578	0.00314817	-0.00744963	
0.00682335	0.00122611	-0.0117401	
0.00474297	0.0027388	-0.0150383	
0.00742666	0.00139854	-0.0137842	
0.0127473	0.000219162	0.0462886	
0.00169556	-0.0023248	0.00576728	
0.00194943	0.00227572	0.028882	
-0.000391892	-2.6944e-05	0.00384248	
0.0039225	0.00263541	-0.0114435	
0.00127045	0.00322311	-0.00633177	
0.000602987	0.00334811	-0.00269573	
-0.000327572	0.00289305	-0.000799545	
0.00774417	0.00251753	0.0332297	
0.00362869	-0.00302591	0.0126088	
0.00306097	0.00218718	0.0337458	
0.000124386	6.0073e-05	-2.67187e-05	
0.00296775	-0.00203609	0.0127562	
-3.08006e-05	0.000143376	8.27729e-05	
-0.00164946	0.00175466	0.0250376	
8.08877e-06	0.000263149	-4.16784e-05	
-0.000526277	0.00355025	0.000397878	
0.000182749	0.00165042	-0.000263834	
-0.00220474	0.00323512	0.0104987	
-0.00017406	0.00206005	-0.000542546	
-0.0015307	0.00192088	0.0127756	
0.00137035	0.00334212	-0.00561581	
0.000341465	0.000444676	-8.82445e-05	
-6.18932e-05	0.00340442	-0.000640941	
0.000288522	0.0027704	-0.000417951	
0.000277516	0.00121111	-0.000281787	
0.000263974	0.00226788	-0.000320242	
-0.00539252	-0.0121374	-0.00352432	
-0.0255629	-0.113437	-0.125762	
-0.00287922	-0.00624462	-0.00132954	
0.00316344	0.00521296	0.00279877	
-0.00129148	-0.00287876	0.000367202	
0.00556533	0.0125756	0.00980657	
-0.00949122	-0.0225558	-0.0100457	
0.00451771	0.00842735	0.00545761	
-0.00182843	-0.00735307	-0.00339269	
0.000875004	0.00413822	0.00445227	
0.00132227	0.00332581	0.00427183	
-0.00369727	-0.00730078	-0.0115554	
0.00544535	0.00871444	0.00581542	
-0.00049405	-0.00191632	0.000529089	
0.00554651	0.00956857	0.00743077	
0.00534388	0.00794784	0.00512669	
0.000238664	-0.000157106	0.00197938	
-0.00396439	-0.0158028	-0.00959001	
-0.00163717	-0.0051131	-0.00269212	
-0.000277807	-0.00120971	0.00159835	
9.62971e-05	0.000472502	-0.000491066	
0.000256647	-0.000384263	0.000820792	
0.000689389	-6.44888e-05	-0.00025687	
3.19539e-05	-0.000484746	0.00179934	
-4.01963e-05	0.000131253	-0.000294176	
0.0116218	0.0201312	0.0142741	
0.00534546	0.00783167	0.00462191	
0.0102865	0.0153128	0.00849997	
0.0119025	0.023335	0.0152493	
-5.58296e-05	-0.000409865	0.00161584	
-1.0481e-06	3.38828e-05	-0.000119503	
-1.56334e-05	-0.000468798	0.00197331	
0.00327106	0.0051316	0.00262786	
5.58761e-06	0.000168399	-0.000505372	
8.03845e-05	-0.000452766	0.00157251	
4.04496e-05	-0.000524735	0.00169935	
7.22559e-05	-0.000586424	0.00223329	
0.0232219	-0.0182673	0.017266	
0.00222711	0.0177041	-0.019966	
-0.00673535	0.019903	-0.0106828	
0.00146264	-0.00283829	-0.000101759	
-0.00556509	0.0184514	-0.00947629	
-0.00832384	0.0244802	-0.0121145	
-0.00459108	0.0121827	-0.0111378	
-0.00425974	0.00875515	-0.00840999	
0.0015813	-0.00701399	0.00414013	
4.37588e-05	-0.00441265	0.00266377	
-0.000580123	0.00229738	-0.00122521	
-0.000276621	-0.00243425	0.00264808	
-0.000359401	-0.00086027	-0.00230501	
-0.0146316	0.0330502	-0.0252601	
-0.0114008	0.0238575	-0.0154049	
0.000587869	-0.00273193	-0.00123499	
0.0009309	-0.00349054	0.00208513	
0.000457738	-0.00339502	0.00210421	
0.000180035	-0.00289632	0.0016989	
-0.00163642	0.00702796	-0.00377216	
0.000114646	4.18723e-05	2.35638e-05	
3.75861e-05	6.71975e-05	7.93966e-05	
-5.35765e-05	-3.09026e-05	6.15165e-05	
1.62823e-05	-7.80726e-05	-0.000116845	
-0.000249392	-0.00112207	-0.00104937	
0.0346797	-0.0550202	0.0266216	
0.00208257	-0.00500432	-0.000127083	
-0.000342385	-0.00146891	-0.00234101	
-0.00528835	0.0152331	-0.00920114	
-0.000146532	-0.000691723	-0.000762908	
2.72049e-05	-0.00203923	-0.00219541	
0.000134228	-0.00041447	-0.000569853	
0.00771005	-0.0100539	0.00463313	
4.56039e-05	-0.00145657	-0.0015429	
-5.24206e-05	-0.000745463	-0.000834511	
4.74043e-06	4.75305e-05	5.86703e-05	
5.03269e-05	-0.00016989	-0.000270615	
-0.00284384	0.00250616	0.00597834	
0.00377173	-0.00655869	-0.024135	
-0.00406154	0.00309399	0.0354391	
0.00602687	0.00066299	-0.010507	
0.00741889	0.0011289	-0.0129086	
0.00984512	0.00190287	-0.0234399	
0.00242736	0.00309859	-0.00715921	
0.0067	0.00154488	-0.0124016	
0.00597128	0.00301461	-0.0146604	
0.00709983	0.0017607	-0.0145861	
0.013147	0.000486583	0.0471478	
0.00172152	-0.00243825	0.00636696	
0.00203967	0.00246133	0.0293411	
-0.000710446	0.000664655	0.00460208	
0.00430454	0.002779	-0.0113674	
0.00184041	0.00305875	-0.00609066	
0.00076228	0.00325782	-0.00300278	
-0.000259631	0.00309298	-0.000772503	
0.00804779	0.00264606	0.0338626	
0.00354075	-0.00290559	0.0128842	
0.00321559	0.00246748	0.034648	
0.000113599	-2.2007e-05	3.40765e-06	
0.0029426	-0.0020027	0.0133007	
-2.43463e-06	0.000128472	7.05019e-05	
-0.00163454	0.00197084	0.0257399	
3.59599e-06	0.000130223	-1.99601e-05	
-0.000471441	0.00319623	0.000540175	
0.000194303	0.00177879	-0.000290093	
-0.00227503	0.00332124	0.0107417	
-0.000204335	0.00248956	-0.000633907	
-0.00157521	0.00210416	0.0133194	
0.00148015	0.00313687	-0.005645	
0.000302739	0.000407286	-8.1047e-05	
-3.03966e-05	0.00310947	-0.000553209	
0.000318037	0.00298222	-0.000432456	
0.000257669	0.00117348	-0.000279466	
0.000287802	0.00246142	-0.000344476	
-0.00568639	-0.0121831	-0.00349483	
-0.0227186	-0.114655	-0.133541	
-0.00244761	-0.00531277	-0.00111436	
0.00329204	0.00507554	0.00290022	
-0.0012267	-0.00275685	0.000192904	
0.00537964	0.0123154	0.009432	
-0.0103123	-0.0214155	-0.0104435	
0.00498644	0.00839147	0.00534435	
-0.00186653	-0.00763214	-0.00373154	
0.000927733	0.00389806	0.00401268	
0.0013889	0.00362651	0.00427465	
-0.00122467	-0.00780559	-0.0112567	
0.00574166	0.00876615	0.00576792	
-0.00042502	-0.0015101	0.000379718	
0.00593463	0.0101732	0.00762489	
0.00544184	0.00809271	0.00517143	
0.000238503	-2.05765e-05	0.00179982	
-0.00384051	-0.0156664	-0.00973906	
-0.00157883	-0.00514426	-0.00273522	
-0.000316398	-0.00129258	0.00118213	
0.000436127	4.99915e-05	-6.86342e-05	
0.000228336	-0.000343088	0.000763174	
0.000514288	-0.00028161	0.00011979	
3.08304e-05	-0.00044142	0.00162684	
-3.55805e-05	0.000113363	-0.000248845	
0.0117637	0.0202672	0.0141587	
0.00534196	0.00797437	0.00476283	
0.0101916	0.0155317	0.00879235	
0.0117245	0.0229216	0.0149591	
-3.12138e-05	-0.000351979	0.00134731	
-1.99212e-07	2.1753e-06	-8.19351e-06	
-6.77365e-07	-0.000420379	0.00170848	
0.00336394	0.00504645	0.00284702	
1.50507e-06	9.14604e-05	-0.000274194	
7.76972e-05	-0.000390055	0.00126675	
4.01242e-05	-0.000490219	0.00159999	
6.75811e-05	-0.000493429	0.00186215	
0.0227525	-0.0189581	0.0183297	
0.00226599	0.0178901	-0.0198811	
-0.00679032	0.0201819	-0.0107264	
0.00156634	-0.00297476	0.000346682	
-0.00561727	0.0185157	-0.00963396	
-0.00837208	0.0246465	-0.0122931	
-0.00546746	0.0125466	-0.0106275	
-0.00496172	0.00894486	-0.00801652	
0.00158734	-0.00704992	0.00402299	
2.14223e-05	-0.00448973	0.00256216	
-0.000593482	0.00230454	-0.00131633	
-0.00045947	-0.00254643	0.0025301	
-0.000338746	-0.000635528	-0.00208978	
-0.016337	0.0341993	-0.0245448	
-0.0115139	0.0244506	-0.0152498	
0.00057513	-0.00242822	-0.00114292	
0.000913283	-0.00352275	0.00195358	
0.000451577	-0.00347684	0.00200433	
0.000154774	-0.00296252	0.00161698	
-0.00166867	0.00699988	-0.00385949	
-8.85306e-06	-2.60938e-07	1.59702e-07	
-3.80071e-06	-6.97778e-06	-8.24926e-06	
5.07223e-06	3.33049e-06	-3.21048e-06	
1.64817e-05	-8.32752e-05	-0.00012319	
-0.000214534	-0.000833576	-0.000769787	
0.0348243	-0.0543777	0.0263429	
0.00203247	-0.00474332	0.000201292	
-5.64661e-05	-0.00155801	-0.00177035	
-0.00532063	0.0154881	-0.00913589	
-9.25592e-05	-0.000472654	-0.000529231	
1.58804e-05	-0.00166953	-0.00182734	
8.53859e-05	-0.000275734	-0.000379004	
0.00700946	-0.010169	0.00504048	
5.2578e-06	-0.00129181	-0.00137044	
-3.7777e-05	-0.000674674	-0.000793484	
-3.15796e-06	-3.357e-05	-4.1398e-05	
3.71492e-05	-0.000134855	-0.000211626	
-0.00263618	0.00282924	0.00551956	
0.00402143	-0.00576847	-0.0236608	
-0.00360639	0.00187181	0.0363333	
0.00611551	0.00109095	-0.0107792	
0.00738457	0.00133865	-0.0132612	
0.0107961	0.00140976	-0.0233355	
0.00261778	0.0026148	-0.00743235	
0.0066207	0.00160322	-0.0125613	
0.00612354	0.00247726	-0.0147335	
0.00710139	0.00141644	-0.0146534	
0.0137886	0.000351882	0.0474722	
0.00175453	-0.00253863	0.00666319	
0.00236667	0.00177528	0.0300386	
-0.000995061	0.0013306	0.00474631	
0.00482139	0.00230102	-0.0113322	
0.00197884	0.00272467	-0.00642385	
0.000497721	0.00256252	-0.00178121	
-0.000124234	0.00216469	-0.000473477	
0.00846202	0.00228702	0.0342396	
0.0035422	-0.00292079	0.0130227	
0.00364893	0.00179572	0.0353103	
3.87856e-05	-3.784e-05	6.64026e-06	
0.00299862	-0.00209603	0.0136222	
2.37697e-06	5.87093e-05	2.94895e-05	
-0.00125634	0.00112898	0.0263403	
1.72422e-05	0.000605014	-9.09609e-05	
-0.000502185	0.00311837	0.000693047	
9.33967e-05	0.00092499	-0.00015647	
-0.00218901	0.00209517	0.0113733	
-0.000113198	0.00168035	-0.000398626	
-0.00146805	0.00111156	0.0139212	
0.00139118	0.00277338	-0.00539813	
0.000131964	0.000188739	-3.8143e-05	
-3.52346e-05	0.00294244	-0.000517372	
0.000169403	0.00173136	-0.000254013	
0.000103218	0.000512484	-0.000124367	
0.000144206	0.00134504	-0.000193919	
-0.00575159	-0.0122045	-0.00315083	
-0.0251284	-0.115308	-0.137659	
-0.0023216	-0.00505958	-0.00129202	
0.00343055	0.00499324	0.00328273	
-0.00121686	-0.00278898	-0.000188116	
0.00527783	0.0122586	0.00918285	
-0.0101814	-0.0214509	-0.010094	
0.00507737	0.00830943	0.00592475	
-0.00189595	-0.00778591	-0.00424727	
0.000879744	0.00372128	0.00364208	
0.00133906	0.00363661	0.00391735	
-0.0012246	-0.00755129	-0.0115666	
0.00590586	0.00857354	0.00642665	
-0.000322858	-0.00137764	0.000600622	
0.00600889	0.0103737	0.00785847	
0.00561828	0.00781685	0.00592727	
0.00012386	-0.000142006	0.00119475	
-0.0037097	-0.0155533	-0.010041	
-0.00158215	-0.00509091	-0.00297606	
-0.000261958	-0.00105185	0.000789781	
0.000299094	2.28827e-05	-3.89703e-05	
0.00015538	-0.000232657	0.00053665	
0.000235346	-0.000174051	0.000240678	
2.95242e-05	-0.000379601	0.00138312	
2.42784e-06	-7.508e-06	1.65628e-05	
0.0118148	0.020456	0.014223	
0.00553702	0.0077722	0.00570104	
0.0103318	0.0155351	0.00974907	
0.0116259	0.0229231	0.0150903	
-2.56383e-05	-0.000363273	0.00137813	
1.69833e-05	-0.00023768	0.00078076	
3.78995e-06	-0.000366871	0.00147607	
0.00343389	0.00496995	0.00338968	
7.32868e-07	-0.000132016	0.000389021	
7.95851e-05	-0.000396026	0.00128283	
3.40005e-05	-0.000388159	0.00126877	
5.47409e-05	-0.000400786	0.00149995	
0.0225052	-0.0202369	0.0189092	
0.00221368	0.0178394	-0.0195183	
-0.0068411	0.0203752	-0.0108328	
0.00155414	-0.00313628	0.000361945	
-0.00566577	0.0186324	-0.00974859	
-0.00846487	0.0247744	-0.0124513	
-0.00565562	0.0130845	-0.010193	
-0.00512767	0.0094573	-0.00757217	
0.0015791	-0.00693809	0.00401162	
2.52482e-06	-0.00441214	0.00258536	
-0.00060726	0.00236928	-0.00132371	
-0.000641929	-0.00243336	0.00253913	
-0.000415955	-0.000138322	-0.00167088	
-0.0167263	0.0352692	-0.0242798	
-0.0115323	0.0248074	-0.0152537	
0.000651457	-0.00201763	-0.000833884	
0.000907469	-0.00342994	0.00195267	
0.000455086	-0.00341483	0.00201836	
0.00016417	-0.00290553	0.00163912	
-0.00168571	0.0070771	-0.00388725	
3.03862e-05	-1.05203e-05	-1.1347e-05	
9.22486e-06	1.72998e-05	2.03325e-05	
-1.51093e-05	-9.58643e-06	1.57892e-05	
1.26897e-05	-6.84021e-05	-9.98127e-05	
-0.0002766	-0.00103792	-0.000978922	
0.034849	-0.0539358	0.0265763	
0.00222588	-0.00421968	0.000439129	
5.93294e-06	-0.00132848	-0.00146149	
-0.00530925	0.0155996	-0.00912424	
-6.5009e-05	-0.000358014	-0.000404261	
3.70681e-05	-0.00125546	-0.00143947	
6.25185e-05	-0.000216704	-0.000295766	
0.00679943	-0.0103126	0.00503784	
6.89807e-06	-0.00128932	-0.00140581	
-1.95078e-05	-0.000439492	-0.000523246	
-5.89998e-07	-6.45755e-06	-7.92465e-06	
2.97322e-05	-0.000114396	-0.000176789	
-0.00270138	0.00246204	0.00552743	
0.00287733	-0.00532344	-0.0233413	
-0.00321269	0.00105719	0.0367894	
0.00626935	0.000584853	-0.0108632	
0.00739249	0.000862991	-0.0131123	
0.0109328	0.000902217	-0.0235763	
0.00249648	0.00177309	-0.00698769	
0.00683014	0.000716035	-0.0125374	
0.00620989	0.00184174	-0.0149631	
0.00737505	0.000857981	-0.0146002	
0.0139739	0.000549978	0.0477361	
0.00167137	-0.00245382	0.00689008	
0.00254882	0.00145858	0.0303816	
-0.00104985	0.00213542	0.00464955	
0.00493781	0.00156232	-0.0114334	
0.00181589	0.00152838	-0.00584664	
0.000550706	0.000993838	-0.00132404	
-7.84847e-05	0.00143006	-0.000302545	
0.00864272	0.00230448	0.0344437	
0.00336986	-0.00275764	0.013173	
0.00384953	0.00162224	0.035607	
9.82778e-06	-4.88193e-05	4.38308e-06	
0.00293363	-0.00200351	0.013831	
4.54073e-06	5.28455e-05	2.38728e-05	
-0.00104262	0.000715838	0.0265007	
4.55697e-06	0.000152298	-2.23828e-05	
-0.000516411	0.00134912	0.00130536	
4.77077e-05	0.000513527	-8.91414e-05	
-0.00203282	0.00094899	0.0116889	
-5.63804e-05	0.00104429	-0.000227023	
-0.00138557	0.000571804	0.0141469	
0.00137109	0.00101785	-0.00499508	
8.93666e-05	0.000136156	-2.68503e-05	
-1.75794e-05	0.00110687	-0.000193479	
6.93543e-05	0.000788071	-0.00011753	
6.113e-05	0.00032832	-7.97579e-05	
6.03598e-05	0.000620435	-9.14515e-05	
-0.00611534	-0.012275	-0.00369529	
-0.028431	-0.116784	-0.13959	
-0.00158132	-0.00342463	-0.000933059	
0.0033425	0.0051611	0.00253206	
-0.00107444	-0.00248277	-0.000670225	
0.00477986	0.0113788	0.00796333	
-0.00998568	-0.0202425	-0.0112732	
0.0049581	0.00887932	0.00453214	
-0.00193482	-0.00777864	-0.00465731	
0.000947787	0.00405016	0.00367769	
0.00158837	0.00467034	0.00393457	
-0.00124397	-0.00755812	-0.0119826	
0.00594735	0.00915616	0.00496833	
-0.000268693	-0.000724846	-5.98448e-05	
0.00637001	0.0112918	0.00729014	
0.00572627	0.00841558	0.00440141	
0.000410154	0.000839034	0.00168848	
-0.00370957	-0.0160004	-0.0104518	
-0.00162847	-0.00514629	-0.00321611	
-0.000619446	-0.00218568	-0.000125072	
0.000226954	2.01138e-05	-2.57918e-05	
0.000107136	-0.000163044	0.000382786	
0.000187413	-0.000151022	0.000208915	
1.37867e-05	-0.000186046	0.000673768	
-6.82486e-05	0.000213509	-0.000470679	
0.0117696	0.020592	0.0136114	
0.00553835	0.00829774	0.00400503	
0.0103064	0.0159755	0.00834743	
0.0110854	0.0223044	0.0136464	
-7.13565e-06	-0.000148508	0.000556057	
-2.50429e-05	0.000255231	-0.000809831	
5.59852e-06	-0.000247984	0.000983777	
0.00341128	0.00529787	0.00238975	
-7.65629e-06	0.000289972	-0.00084663	
3.7341e-05	-0.000184759	0.000595346	
1.47839e-05	-0.00018071	0.000593999	
4.59226e-05	-0.000341148	0.00125976	
0.0223673	-0.0196312	0.0196774	
0.0023288	0.0178751	-0.0192972	
-0.00686327	0.0204893	-0.0108077	
0.00189984	-0.00280097	0.0011701	
-0.00567103	0.0186264	-0.00979204	
-0.00849596	0.0248419	-0.0125393	
-0.0057028	0.0134099	-0.00995495	
-0.00525964	0.00992999	-0.00735597	
0.00157336	-0.00689489	0.00397135	
6.89602e-06	-0.00439447	0.00257238	
-0.000616104	0.00240152	-0.00134384	
-0.000685543	-0.00236734	0.00257147	
-0.000333474	-0.000104424	-0.00133684	
-0.0168691	0.0360882	-0.0241525	
-0.0116004	0.0251778	-0.0151749	
0.000393716	-0.00124679	-0.000560428	
0.00089926	-0.00339161	0.00191781	
0.00045616	-0.00340917	0.00199534	
0.00016367	-0.00289741	0.00162646	
-0.00170065	0.00710666	-0.00392557	
8.27146e-06	-7.33709e-06	-7.87739e-06	
3.22095e-06	6.19375e-06	7.25214e-06	
-5.82718e-06	-3.78364e-06	6.29974e-06	
5.81338e-06	-3.36345e-05	-4.83033e-05	
-3.66416e-05	-0.000141715	-0.000139722	
0.034911	-0.0534626	0.0267748	
0.00219931	-0.00406632	0.000531071	
0.000572795	-0.00164437	-0.000624122	
-0.00531297	0.0157779	-0.00903421	
-3.62221e-05	-0.000220667	-0.000251305	
5.89079e-05	-0.00110322	-0.00134155	
2.94638e-05	-0.000109661	-0.000148468	
0.00670953	-0.00959074	0.00536379	
6.48267e-06	-0.000360836	-0.000409151	
-9.89651e-06	-0.00030913	-0.000371345	
-1.1754e-06	-1.33358e-05	-1.63432e-05	
1.36758e-05	-5.61523e-05	-8.52672e-05	
-0.00272222	0.00231662	0.00553948	
0.00168899	-0.0057359	-0.0229086	
-0.00315387	0.00104224	0.0370224	
0.00632622	0.000438811	-0.0110271	
0.00753795	0.000750283	-0.0133195	
0.0109891	0.00131359	-0.0241186	
0.00233388	0.00143547	-0.00658087	
0.00693046	0.00110366	-0.0127872	
0.006013	0.00155796	-0.0146402	
0.00743718	0.00121195	-0.0148853	
0.0140226	0.000943129	0.0477984	
0.00158762	-0.0023479	0.00722914	
0.00266975	0.00154105	0.0305255	
-0.000937043	0.00269372	0.00493552	
0.00494542	0.00187769	-0.0117189	
0.00170055	0.00119548	-0.00556992	
0.000525766	0.000925299	-0.00119712	
-9.45688e-05	0.00178089	-0.00036914	
0.0087667	0.00246298	0.0345591	
0.00317731	-0.00249149	0.0133531	
0.00395763	0.0017471	0.0358432	
-1.42788e-05	-3.50713e-05	1.1377e-06	
0.00282747	-0.00176619	0.0140077	
8.69289e-06	5.72023e-05	2.2928e-05	
-0.00100136	0.000805777	0.0266602	
1.33259e-06	4.67216e-05	-6.76311e-06	
-0.000532665	0.00111127	0.00148601	
4.16631e-05	0.000488207	-8.62718e-05	
-0.00202181	0.000892137	0.011794	
-6.80787e-05	0.00134238	-0.000282616	
-0.00138701	0.000624011	0.014202	
0.00133708	0.000939121	-0.00494689	
0.000103863	0.000168971	-3.27127e-05	
-1.60279e-05	0.000973414	-0.000167851	
6.13411e-05	0.000750794	-0.000112284	
5.63013e-05	0.00033192	-8.03119e-05	
5.44804e-05	0.000611802	-9.11615e-05	
-0.00592772	-0.0123791	-0.0030011	
-0.0300903	-0.121319	-0.140523	
-0.00161841	-0.00357627	-0.000542922	
0.00343949	0.00498968	0.00339329	
-0.0011227	-0.00257842	-6.64357e-05	
0.00480707	0.011284	0.00866582	
-0.00974595	-0.0209103	-0.00960757	
0.00518217	0.0084066	0.00652975	
-0.00201869	-0.00823306	-0.0044395	
0.000857312	0.00368673	0.00358856	
0.00167375	0.00462058	0.00466529	
-0.00136078	-0.00748346	-0.0117988	
0.00606553	0.00874367	0.00697467	
-6.57521e-05	-0.000960768	0.00108783	
0.00632021	0.0110219	0.00829988	
0.00580321	0.00803497	0.00636718	
0.000427551	0.000712063	0.00194682	
-0.00374816	-0.0159012	-0.0101715	
-0.00165284	-0.00528428	-0.00307118	
-0.00067993	-0.00241635	7.30934e-05	
0.000294908	-7.87136e-05	0.000115161	
0.000168258	-0.000258993	0.000616738	
0.000224242	-0.000205644	0.000280089	
3.60119e-05	-0.000387356	0.0013827	
2.015e-05	-6.40233e-05	0.000143062	
0.0117525	0.0204433	0.0142866	
0.00558819	0.00783708	0.00588478	
0.0104568	0.0156307	0.0101785	
0.0111995	0.0221814	0.0148927	
-7.32015e-06	-0.000390256	0.00143562	