<VTKFile type="UnstructuredGrid" version="0.1" byte_order="LittleEndian">
	<UnstructuredGrid>
		<Piece NumberOfPoints="3885" NumberOfCells="3885">
			<CellData Scalars="scalars">
				<DataArray type="Float64" Name="Strength" NumberOfComponents="3" Format="ascii">
-0.00691034	-0.0158088	0.012706	
-0.00123751	-0.0136657	-0.0273018	
-0.0178595	0.0693374	0.00958938	
0.00445338	-0.00660426	-0.00724998	
0.00593084	0.000799989	-0.0109469	
0.0144006	0.0559294	-0.0281186	
0.00637963	0.0873715	-0.0245813	
0.00464493	0.0190246	-0.014302	
0.0112194	0.0846127	-0.0290656	
0.00680425	0.0334502	-0.0189423	
0.0056168	0.00422607	0.0446827	
0.00312754	-0.00432394	0.00198559	
-0.0118146	0.0387743	0.0158191	
0.000503182	0.00103083	-0.00233392	
0.00788245	0.0744333	-0.0251266	
0.0088002	0.0864191	-0.0209087	
0.0062497	0.0930816	-0.0194053	
0.000333334	0.067134	-0.0173401	
0.000601665	0.0117929	0.0291327	
0.00812912	-0.0080389	0.00872465	
-0.00837357	0.0319269	0.0232687	
0.00146088	-0.00132937	0.00125221	
0.00444044	-0.00514273	0.00926206	
-0.00146321	0.00198988	0.000623245	
-0.0155015	0.0473513	0.00906341	
-0.000737007	-0.0126636	0.00258215	
0.00406025	0.0880435	-0.0177219	
0.00607207	0.0426939	0.000253682	
-0.00438017	0.086731	-0.0064198	
-0.000103519	0.0487069	-0.0122332	
-0.00360454	0.0541849	0.00311307	
0.00697669	0.0889334	-0.017575	
-0.000529205	-0.000352583	0.000156624	
0.00455973	0.0864532	-0.0146686	
0.011086	0.0789176	-0.000212951	
0.00889487	0.0200422	-0.000277685	
0.00962941	0.0601225	0.000765423	
-0.0104315	-0.00535361	-0.0255176	
0.025147	-0.125679	0.0465699	
-0.00934078	-0.0124276	0.0494039	
0.00162949	0.0114436	-0.0135882	
0.000968526	-0.00740989	0.0547809	
0.0241242	-0.00522618	0.0633446	
-0.010253	-0.037647	0.0459759	
0.014883	-0.0116144	0.0524635	
0.00642434	-0.0194002	0.0360725	
0.0136026	-0.00121379	0.0148635	
0.00744786	-0.0129575	0.0558195	
0.0155961	0.0145997	-0.010568	
0.0101814	-0.00772715	0.0474671	
0.0026964	-0.0118398	0.0254536	
0.00785268	-0.00350248	0.054311	
0.00732698	-0.00419884	0.0395648	
0.00959406	-0.0176382	0.046829	
-0.00225041	-0.0174096	0.0291848	
0.0060137	-0.00985353	0.0161251	
0.00913418	-0.0118526	0.0558625	
0.0248762	-0.00978337	0.000923153	
0.00953499	-0.0204424	0.0124778	
0.00670181	-0.000548366	0.0185167	
0.0053893	-0.013623	0.0575788	
-0.00292508	0.00817442	-0.020511	
0.0187075	0.0109376	0.038649	
0.00678747	-0.0012984	0.0310852	
0.0100247	0.010837	0.0172812	
0.0356194	0.00117134	0.0692038	
0.000643566	-0.00822225	0.0399788	
0.000751411	-0.00514383	0.0182728	
0.00322173	-0.00821549	0.0438061	
0.00261801	0.00907905	-0.0102182	
2.39852e-06	0.00144804	-0.00463807	
0.00261692	-0.00685702	0.0239746	
0.00949789	-0.0167632	0.0530226	
0.00577701	-0.0118624	0.0505378	
0.0222606	-0.0536545	-0.0138681	
0.000777533	0.020316	-0.0293048	
-0.00961267	-0.000730982	-0.0312207	
0.00037774	-0.0302908	-0.0315808	
-0.00766606	0.0141698	-0.0117592	
-0.0128843	0.0114209	-0.0232393	
-0.000371777	-0.0176636	-0.0503221	
0.0026864	-0.0261099	-0.0517971	
0.00180816	-0.00933856	0.00290664	
0.000719952	-0.00725036	0.000877889	
-0.000448693	2.97581e-05	-0.00353793	
-0.00174495	-0.00608788	-0.000970005	
0.0055513	-0.0390228	-0.0565993	
-0.0163173	-0.0044054	-0.0480774	
-0.021066	-0.0171325	-0.0445057	
0.00435722	-0.0451461	-0.0552856	
0.000829504	-0.00482452	0.00120168	
0.000472961	-0.00599922	0.000192718	
0.000854408	-0.00543814	-0.000722312	
-0.00181879	0.00465485	-0.00515195	
0.0020574	-0.00306838	0.0004232	
-0.000988842	-0.00192098	-0.00218091	
0.000746621	0.00162993	0.00214696	
0.00172163	-0.00556593	-0.0091681	
-0.00489085	-0.035851	-0.03438	
0.0452894	-0.0744002	-0.00700673	
0.00739851	-0.0471426	-0.0526031	
0.00125065	-0.0426991	-0.0545213	
-0.00470644	-0.00631239	-0.0339445	
-0.00681535	-0.0404268	-0.0426821	
0.00539776	-0.0436191	-0.052231	
0.00872265	-0.0202572	-0.0358369	
0.0144369	-0.0438705	-0.0369453	
0.00685531	-0.0506244	-0.0591127	
6.69698e-05	-0.01186	-0.0131954	
7.90821e-07	7.00585e-06	8.76204e-06	
0.00417144	-0.0103008	-0.0192931	
-0.00272955	0.00261922	0.00633007	
-0.00326704	-0.00944537	-0.0279438	
-0.00950658	0.00691	0.0315867	
0.00496869	0.000650127	-0.0102465	
0.00664743	0.00224543	-0.0124744	
0.0156173	0.00865667	-0.018402	
0.00443472	0.0112884	-0.00731373	
0.00664011	0.00465157	-0.01162	
0.0103526	0.0116997	-0.0125394	
0.00857898	0.00627369	-0.0130893	
0.0124994	0.000235519	0.0445591	
0.00207478	-0.00228082	0.00403175	
0.00252806	0.0032501	0.0274821	
0.000276535	0.00138279	0.00169406	
0.0075442	0.0108467	-0.0102347	
0.00402869	0.0111229	-0.00651293	
0.00124001	0.0105993	-0.00364736	
-0.000576144	0.0099411	-0.00306276	
0.00801115	0.00255678	0.0318497	
0.00475919	-0.00368616	0.011577	
0.00461639	0.00376592	0.031905	
0.000148044	-0.000116556	-7.23892e-07	
0.00419188	-0.00210806	0.0111013	
-0.000304072	0.000160021	0.000222728	
-0.00271584	0.00550545	0.0233547	
8.37043e-06	0.000190821	-3.94753e-05	
-0.000875627	0.010761	-0.00171386	
0.00116374	0.00539077	-0.000619171	
-0.00479865	0.00812356	0.00859478	
-0.000431198	0.00781475	-0.00228015	
-0.00195594	0.00559934	0.0114347	
0.00278602	0.00977932	-0.00558914	
0.00112892	0.000663553	-0.000362228	
-2.84664e-05	0.00990427	-0.00194971	
0.00168184	0.0084667	-0.000383003	
0.00110443	0.00243515	-0.000619482	
0.00151368	0.00690583	-0.000516073	
-0.00496067	-0.0117146	-0.00453478	
-0.0371382	-0.103617	-0.113006	
-0.00596124	-0.00886575	0.00262248	
0.00255895	0.00614431	0.00168423	
-0.00206127	-0.00400272	0.00478769	
0.00674126	0.0128125	0.0150033	
-0.0169898	-0.0216391	-0.00465083	
0.00743386	0.00562363	0.00702228	
-0.000425657	-0.00808595	0.000493261	
-0.000286678	0.00352135	0.00598461	
0.000518077	0.00115629	0.00766587	
-0.00510623	-0.00778469	-0.00920864	
0.00757539	0.00607149	0.00738583	
-0.000690984	-0.00357005	0.00388377	
0.00609153	0.0069811	0.0101501	
0.00665207	0.00598842	0.00648379	
0.000316644	-0.00229522	0.00512277	
-0.00407543	-0.0157509	-0.00663291	
-0.00135033	-0.0056381	-0.000927634	
-0.000141955	-0.000982563	0.00682983	
-0.00142219	0.00137829	-0.00138497	
0.00108257	-0.00146861	0.00235452	
2.22218e-05	0.00177401	-0.00153725	
-0.00022208	-0.00158888	0.00603438	
-0.000202529	0.000542494	-0.00133267	
0.0151946	0.0180348	0.0168815	
0.00629936	0.00645259	0.00552038	
0.0105892	0.014644	0.00818657	
0.0168362	0.0222295	0.0182574	
-0.000556189	-0.000896325	0.00578588	
1.61659e-06	-0.000192887	0.000767896	
-0.000462562	-0.000920497	0.00678827	
0.00280702	0.00566242	0.00157166	
2.90005e-05	0.000269079	-0.000903864	
0.000407261	-0.0013864	0.00589363	
1.7314e-05	-0.00180202	0.00576148	
-0.000190925	-0.00154637	0.00725484	
0.0248411	-0.018285	0.0121788	
-1.19977e-05	0.0149311	-0.0206457	
-0.00792178	0.0187967	-0.0105308	
0.00127096	-0.00521485	-0.00375018	
-0.0050298	0.0189252	-0.00846549	
-0.0082678	0.0244214	-0.0111596	
-0.008569	0.0065476	-0.0139113	
-0.00688744	0.00330732	-0.0108215	
0.00135047	-0.00639249	0.00498404	
0.000227387	-0.0037323	0.00326416	
-0.000545009	0.00265629	-0.000398297	
0.00101292	-0.00268544	0.0019923	
0.000103719	-0.00414553	-0.00703799	
-0.0235886	0.0203614	-0.0274631	
-0.0151901	0.0205835	-0.0150502	
0.00186387	-0.00683024	-0.00639342	
0.000974908	-0.00289562	0.00305293	
0.000543787	-0.00261131	0.0028547	
0.000450901	-0.00228564	0.00231926	
-0.0013533	0.00774977	-0.00301956	
-0.000189663	-0.000950823	-0.000623316	
0.000439653	0.000632411	0.000723804	
-0.000369779	-0.000334744	0.00063299	
-9.20655e-05	0.000236442	0.00038821	
-0.000810052	-0.00397807	-0.00344679	
0.0406255	-0.0541419	0.0216962	
0.00382926	-0.00841617	-0.00562495	
-0.00120811	-0.00497827	-0.00765437	
-0.00698126	0.0137976	-0.00944028	
-0.000598162	-0.00195873	-0.00203183	
0.000654064	-0.00631001	-0.00719488	
0.000434626	-0.000819288	-0.00123579	
0.0112339	-0.0116223	-0.000838572	
0.000567416	-0.00471263	-0.00523425	
-0.000231924	-0.00300809	-0.00288811	
9.04422e-05	0.000782704	0.000979557	
4.23089e-05	-8.3372e-05	-0.000146318	
-0.00280076	0.0027401	0.00618925	
-0.00110721	-0.00883898	-0.0265453	
-0.00136806	0.00282773	0.0341151	
0.00542063	-5.37857e-06	-0.0101741	
0.00714444	0.000405189	-0.012213	
0.0128172	0.000713294	-0.0200159	
0.00212809	0.00232719	-0.00704597	
0.00702208	0.00104265	-0.0111738	
0.00622712	0.00172663	-0.014105	
0.00830226	0.00117017	-0.0127622	
0.011378	-0.00132415	0.0456575	
0.00234637	-0.0028006	0.00452669	
0.00207391	0.00158283	0.0284401	
0.000358576	0.00180208	0.00227777	
0.0051425	0.00186996	-0.0105676	
0.00146977	0.00230419	-0.0062288	
0.000304203	0.00267605	-0.00306878	
-0.000309813	0.00262882	-0.000955237	
0.00638311	0.00176916	0.0329317	
0.00556619	-0.00438315	0.011197	
0.00313609	0.00127983	0.0332471	
6.046e-05	-0.00016345	2.59189e-05	
0.00451894	-0.0029208	0.0115453	
-6.96874e-05	0.000108417	9.41301e-05	
-0.00152134	0.00112256	0.0244126	
2.13037e-06	7.03027e-05	-1.41435e-05	
-0.000472976	0.0029641	0.000330762	
0.000328968	0.00166625	-0.000218245	
-0.000634292	0.00285241	0.0103814	
-0.000202599	0.00203148	-0.000689944	
-0.000844433	0.0016337	0.0123509	
0.00061778	0.00237966	-0.00570924	
0.000456401	0.000304617	-0.000141243	
-0.000129765	0.00269928	-0.000695664	
0.00037535	0.00237033	-0.000405573	
0.000442877	0.00110626	-0.000262387	
0.000400287	0.00203982	-0.000304232	
-0.00500941	-0.0120948	-0.00363514	
-0.0235903	-0.0985364	-0.130323	
-0.00308706	-0.0077807	-0.00142003	
0.00283155	0.00558522	0.00272943	
-0.00138729	-0.00295434	0.000374566	
0.00613604	0.0134729	0.00977394	
-0.0117218	-0.0228694	-0.00867694	
0.00518272	0.0081448	0.00446741	
-0.00172186	-0.0070744	-0.00331596	
0.000490794	0.00294572	0.00540708	
0.00112696	0.00289813	0.00378237	
-0.00524759	-0.00505482	-0.0123209	
0.00592448	0.00839934	0.00501622	
-0.000647444	-0.00225663	0.000716554	
0.00448371	0.0097348	0.0066473	
0.00568575	0.00765161	0.00448401	
0.000158233	-0.000569059	0.00164506	
-0.0039604	-0.0155129	-0.00946723	
-0.00166997	-0.00489068	-0.0029104	
-8.53336e-05	-0.000537509	0.0019796	
-6.6165e-05	0.000548613	-0.000354798	
0.000302629	-0.00041501	0.00070693	
0.000643103	3.98064e-05	-0.000322315	
-8.40829e-06	-0.000425253	0.00181761	
-6.3977e-05	0.000171421	-0.000399571	
0.0106295	0.0213533	0.0131886	
0.00566039	0.00757868	0.00408657	
0.010456	0.0151747	0.00786331	
0.00995399	0.0257782	0.0140407	
-0.000215049	-0.000288697	0.00188857	
3.53169e-06	3.83771e-05	-0.000173255	
-0.000182586	-0.000293181	0.00225807	
0.00297858	0.00531774	0.0025135	
2.75289e-05	0.000152141	-0.000526656	
9.35979e-05	-0.000428886	0.00200545	
3.51083e-05	-0.000502423	0.00161958	
-3.16567e-05	-0.0004783	0.00237803	
0.0247671	-0.0162374	0.0154521	
-0.000125074	0.0129401	-0.024772	
-0.00619933	0.0199178	-0.0100579	
0.00152833	-0.00267918	-0.000476051	
-0.00561594	0.0183924	-0.00886819	
-0.00789285	0.0246765	-0.0111058	
-0.00642035	0.0109584	-0.0112534	
-0.00551526	0.00791361	-0.00813703	
0.00153201	-0.00747276	0.0039376	
0.000433261	-0.00459758	0.00274758	
-0.000562849	0.00208147	-0.00138967	
-0.000158847	-0.000657631	0.00375509	
-0.000307431	-0.000788438	-0.00230447	
-0.0173793	0.0292093	-0.0263239	
-0.00935085	0.0236084	-0.0162646	
0.00101716	-0.00289921	-0.00112211	
0.000837519	-0.0039058	0.00179521	
0.000466125	-0.00375316	0.00187346	
0.000266914	-0.00323671	0.00139197	
-0.00167971	0.00676	-0.00376429	
1.0273e-05	0.000254085	0.000204641	
-0.000104822	-0.000166757	-0.000192687	
6.69174e-05	0.000188109	-6.01672e-05	
6.61272e-05	-0.000179123	-0.000311651	
-0.000329908	-0.00127137	-0.000988678	
0.0277402	-0.0565006	0.0316253	
0.00271054	-0.00473773	-0.000177358	
-0.00089485	-0.00120475	-0.00274106	
-0.00501044	0.0151065	-0.00904183	
-0.000214425	-0.000602319	-0.000600915	
0.000134864	-0.00212626	-0.00219407	
0.000170249	-0.000373146	-0.000514024	
0.00966327	-0.00892606	0.00388751	
0.000142649	-0.00155729	-0.00157258	
-7.76575e-05	-0.000795105	-0.000763835	
-2.67793e-05	-0.000235954	-0.000301929	
0.000104696	-0.000213822	-0.000393538	
-0.00283181	0.00288897	0.00592265	
-0.000387174	-0.00898886	-0.0250021	
-0.00485932	0.00237926	0.0345839	
0.00566388	0.000151289	-0.0102378	
0.00721695	0.000362205	-0.0125516	
0.0105024	-0.000234624	-0.0223632	
0.00164762	0.00265198	-0.0076326	
0.00678132	0.000699706	-0.0118044	
0.00469269	0.00164328	-0.0152041	
0.00756278	0.000607174	-0.013764	
0.0120645	-0.00156975	0.0464162	
0.00251315	-0.00295721	0.00514108	
0.00202682	0.00149795	0.0289084	
0.00128603	0.00202501	0.00304001	
0.00391079	0.00170994	-0.0116151	
0.00141453	0.00287942	-0.00646074	
0.000615635	0.00334626	-0.00269464	
-0.000353477	0.00281421	-0.00104048	
0.00660766	0.00167927	0.0335068	
0.00567528	-0.00435953	0.0113975	
0.00311992	0.00121839	0.0337657	
-7.91481e-05	-0.000126184	2.31774e-05	
0.0046698	-0.00298766	0.0120293	
-2.77923e-05	0.000118275	0.000116498	
-0.00145647	0.0009716	0.0250752	
6.76595e-06	0.000261706	-5.08097e-05	
-0.00046782	0.00357468	0.000262229	
0.00030827	0.00164049	-0.000211788	
-0.00227067	0.00318479	0.0104969	
-0.000226466	0.00200334	-0.000713215	
-0.00133529	0.00153724	0.0128418	
0.00134566	0.00330783	-0.00563755	
0.000454848	0.000310596	-0.000138641	
-5.80784e-05	0.00339329	-0.000709972	
0.000461715	0.0027586	-0.00034782	
0.000464189	0.00115425	-0.000278111	
0.000439018	0.00225226	-0.00023968	
-0.00541937	-0.012132	-0.00355787	
-0.0214947	-0.0986369	-0.138563	
-0.00305215	-0.00622493	-0.00110151	
0.00303701	0.00531095	0.00277444	
-0.0013568	-0.0028498	0.000415167	
0.0058087	0.0127332	0.00950491	
-0.0102999	-0.0227234	-0.00887068	
0.00472361	0.00860322	0.00501424	
-0.00195549	-0.00727625	-0.00351515	
0.000557308	0.00349245	0.00502569	
0.00139131	0.00335793	0.00423271	
-0.00374195	-0.00680572	-0.0118526	
0.00533517	0.00901926	0.00547096	
-0.000482599	-0.00189912	0.000600592	
0.00551153	0.0098693	0.00709021	
0.00517108	0.00828316	0.00479219	
0.000306095	-0.000210086	0.00196621	
-0.004294	-0.0156951	-0.00967401	
-0.001803	-0.00504781	-0.00272698	
-0.000290594	-0.00120319	0.00160391	
5.10992e-05	0.000558779	-0.000401438	
0.000322988	-0.000437173	0.000770214	
0.000653737	7.91933e-05	-0.000332684	
1.05976e-05	-0.000445376	0.00181064	
-4.85727e-05	0.000132253	-0.000292718	
0.011523	0.0205106	0.0138565	
0.00528692	0.00808887	0.00426473	
0.0103273	0.0156154	0.00795289	
0.0122214	0.0238227	0.0143195	
-0.000130167	-0.000328245	0.00162888	
2.09362e-06	2.62558e-05	-0.000121388	
-9.7076e-05	-0.000356937	0.00199391	
0.00315476	0.00523937	0.00257987	
2.83912e-05	0.000144482	-0.000512035	
8.28893e-05	-0.000411229	0.00158182	
3.02873e-05	-0.000543224	0.00169498	
2.8283e-05	-0.000510888	0.00225358	
0.0238952	-0.0174109	0.0173391	
0.000357586	0.014086	-0.0228755	
-0.00714871	0.020351	-0.00967886	
0.001497	-0.00282553	6.88712e-05	
-0.00557765	0.0188445	-0.00881993	
-0.0083449	0.0251203	-0.0109367	
-0.00537267	0.0118326	-0.01121	
-0.00448525	0.00864264	-0.00844342	
0.00144359	-0.00704919	0.00417653	
0.000404381	-0.00432203	0.00280219	
-0.00058349	0.00233939	-0.00115962	
0.00108088	-0.00152981	0.00311029	
-0.000246709	-0.000827205	-0.00233747	
-0.0163502	0.0318086	-0.0259373	
-0.0118226	0.0237265	-0.0154526	
0.000604476	-0.00275138	-0.00119162	
0.000848253	-0.00351854	0.00209772	
0.000490131	-0.00339386	0.0021196	
0.000293847	-0.00291629	0.00166455	
-0.00161858	0.00712945	-0.00363813	
-7.14063e-05	-9.08179e-05	-6.84356e-05	
4.23206e-05	6.68464e-05	7.77323e-05	
-4.74535e-05	-6.05094e-05	4.21029e-05	
2.45365e-05	-7.02445e-05	-0.000120615	
-0.000371264	-0.00122858	-0.000885461	
0.0306779	-0.0572481	0.0272056	
0.00212728	-0.00499308	6.54051e-05	
-0.000331356	-0.00158976	-0.00226902	
-0.00601903	0.0153597	-0.00863399	
-0.000218672	-0.000699025	-0.000741761	
7.86697e-05	-0.0021313	-0.00211213	
0.000185134	-0.000376842	-0.000582333	
0.00823031	-0.00944834	0.00504653	
7.18394e-05	-0.00154133	-0.00146203	
-5.90475e-05	-0.000760051	-0.000823517	
5.38472e-06	4.68075e-05	5.94485e-05	
7.13096e-05	-0.000146072	-0.000280187	
-0.00297608	0.00264486	0.00586048	
0.00124426	-0.00923063	-0.0234809	
-0.00507836	0.00235153	0.0353332	
0.00596004	0.000290727	-0.0105606	
0.0073165	0.000586876	-0.0129995	
0.0102407	0.000288222	-0.0233353	
0.0024799	0.00286103	-0.00723174	
0.00664646	0.000904922	-0.0124884	
0.00612316	0.00249456	-0.0146834	
0.00722913	0.00084302	-0.0145982	
0.0125503	-0.00148457	0.0472237	
0.00269534	-0.00311949	0.00568282	
0.00209427	0.00172022	0.0293555	
0.00161354	0.00208747	0.00390728	
0.00445184	0.00216776	-0.0114342	
0.00196156	0.00288172	-0.00613187	
0.000769833	0.0032726	-0.00298131	
-0.00030663	0.00302578	-0.000995401	
0.00689523	0.00176795	0.034129	
0.0056214	-0.00431756	0.0116695	
0.00317083	0.00153357	0.0346629	
-0.000111733	-5.65913e-05	8.73525e-06	
0.00475302	-0.00305761	0.0125313	
1.39865e-05	0.000108043	9.79862e-05	
-0.00150917	0.00121006	0.0257667	
2.51313e-06	0.000129494	-2.45703e-05	
-0.000520273	0.00320509	0.000456839	
0.000327297	0.00176848	-0.000235316	
-0.00241055	0.00322437	0.0107364	
-0.000254194	0.00242756	-0.00082986	
-0.00137513	0.00172992	0.0133829	
0.00145881	0.0031347	-0.00564459	
0.000408623	0.000286111	-0.000124754	
-4.10785e-05	0.0031027	-0.000599491	
0.000492891	0.00297166	-0.00034501	
0.000439901	0.00111902	-0.000277395	
0.000470851	0.00244576	-0.00025306	
-0.0058198	-0.0121312	-0.00351393	
-0.018729	-0.0984753	-0.146703	
-0.00259208	-0.00529664	-0.000924482	
0.0032136	0.00514211	0.00289076	
-0.0012816	-0.00273633	0.000236087	
0.00561014	0.012468	0.00914402	
-0.0112266	-0.021385	-0.0095979	
0.00525733	0.00842252	0.0050559	
-0.00200865	-0.00755528	-0.00384366	
0.000933404	0.00357363	0.00431209	
0.0014588	0.00365873	0.00423384	
-0.00120519	-0.00773595	-0.0113209	
0.00573549	0.0089227	0.00556266	
-0.000432335	-0.0014985	0.00041842	
0.00592139	0.0104442	0.00730664	
0.00536261	0.00831995	0.00491917	
0.000299039	-6.55779e-05	0.00179085	
-0.00411999	-0.0155743	-0.00982237	
-0.00181755	-0.00500824	-0.00285684	
-0.000326706	-0.00128721	0.00118913	
0.00043932	5.77999e-05	-3.74697e-05	
0.000292478	-0.000389102	0.000718756	
0.000577778	-0.000154397	1.44822e-05	
1.36267e-05	-0.000407366	0.00163688	
-4.18155e-05	0.000115074	-0.000247335	
0.0116976	0.0205877	0.0138075	
0.00532681	0.00819134	0.00443458	
0.0103021	0.0158126	0.00821662	
0.0120451	0.0233754	0.0140945	
-0.000101934	-0.00028433	0.00135871	
-5.86745e-08	1.60093e-06	-8.35232e-06	
-7.53804e-05	-0.00032604	0.00172719	
0.00327291	0.00513816	0.00281168	
1.357e-05	7.84799e-05	-0.000277901	
6.38802e-05	-0.000363406	0.00127378	
2.78515e-05	-0.000506791	0.00159636	
3.38893e-05	-0.000431805	0.00187897	
0.0231017	-0.0179934	0.018956	
0.000558847	0.0142731	-0.0228401	
-0.00718092	0.0206378	-0.00972938	
0.00157907	-0.00293645	0.000576356	
-0.005629	0.0189215	-0.00897606	
-0.00825714	0.0253039	-0.011208	
-0.00627186	0.0122764	-0.0105587	
-0.00529924	0.00890699	-0.00788808	
0.00146533	-0.00709343	0.00404308	
0.000386455	-0.00440369	0.00270512	
-0.000595485	0.00235082	-0.00125075	
0.001186	-0.00149351	0.00310595	
-0.000270584	-0.000582944	-0.00212046	
-0.0179896	0.0333567	-0.0247377	
-0.0119396	0.0243573	-0.0152554	
0.000563691	-0.00243881	-0.00113323	
0.000834316	-0.00355395	0.00195897	
0.000481441	-0.00348127	0.00201262	
0.000251679	-0.00299358	0.00156437	
-0.00165215	0.00710743	-0.00372349	
7.63048e-06	4.10573e-06	3.98328e-06	
-4.2845e-06	-6.91596e-06	-8.10444e-06	
3.26731e-06	5.94915e-06	-1.02698e-06	
2.52379e-05	-7.49578e-05	-0.000127308	
-0.00030487	-0.000913167	-0.000641926	
0.0308488	-0.0568287	0.026551	
0.00205091	-0.00473269	0.000355741	
-2.3341e-05	-0.00164053	-0.00170138	
-0.00605121	0.0156104	-0.00857829	
-0.000145534	-0.000476821	-0.000515514	
6.4493e-05	-0.00173658	-0.00176906	
0.000120903	-0.000250219	-0.000387433	
0.0073553	-0.00959297	0.00568071	
4.7958e-05	-0.0013672	-0.00129914	
-6.31965e-05	-0.000681245	-0.000788744	
-3.6967e-06	-3.30245e-05	-4.19632e-05	
5.35153e-05	-0.000116847	-0.000219144	
-0.00276106	0.00296221	0.005396	
0.00220332	-0.00834711	-0.0230514	
-0.00450095	0.00116031	0.0362191	
0.0060775	0.000727461	-0.0108285	
0.00730129	0.000766559	-0.0133486	
0.0114394	0.000376976	-0.0230569	
0.00267411	0.00239007	-0.00747875	
0.00662374	0.000991206	-0.0126173	
0.00627181	0.00201107	-0.0147292	
0.00732138	0.000589451	-0.0145959	
0.0134558	-0.0018933	0.0474152	
0.00284218	-0.0032596	0.00590655	
0.00254908	0.00102657	0.030007	
0.00142155	0.00167834	0.00453829	
0.00498297	0.00189344	-0.0113286	
0.00210466	0.00254979	-0.00644663	
0.00050081	0.00257117	-0.00176475	
-0.000194871	0.00212747	-0.000603888	
0.007426	0.00132095	0.0344574	
0.00565992	-0.00437159	0.0117654	
0.00360412	0.000861507	0.0352836	
-5.75823e-05	5.78419e-06	-9.65864e-06	
0.0048796	-0.00324289	0.0127859	
1.11017e-05	4.95447e-05	4.17307e-05	
-0.00109947	0.000395663	0.0263273	
1.15431e-05	0.000601573	-0.00011311	
-0.000544293	0.00313117	0.000615462	
0.000164602	0.000919487	-0.000130543	
-0.00230624	0.00199549	0.0113586	
-0.00015444	0.00164418	-0.000519147	
-0.00123534	0.000749727	0.0139486	
0.00136425	0.00277187	-0.00539705	
0.000181362	0.000135238	-5.79352e-05	
-3.8634e-05	0.00293639	-0.000558078	
0.000278448	0.00172453	-0.000205681	
0.000184485	0.000488972	-0.000125398	
0.000249236	0.00133619	-0.000148128	
-0.00592572	-0.012139	-0.0031459	
-0.0242099	-0.0992273	-0.150113	
-0.00244611	-0.00505939	-0.00111586	
0.0033874	0.00503835	0.00327872	
-0.00126231	-0.00277913	-0.000149153	
0.00549456	0.0124082	0.00890667	
-0.0110208	-0.0214553	-0.00924203	
0.00536684	0.00835073	0.00563214	
-0.00202136	-0.00770807	-0.00436008	
0.00107061	0.00348512	0.00383018	
0.00139958	0.00366521	0.00388054	
-0.000988825	-0.00755949	-0.0115974	
0.00590597	0.00869274	0.00629638	
-0.000313218	-0.00136565	0.000632334	
0.00597483	0.010662	0.00754103	
0.00554821	0.00798944	0.00579249	
0.00016535	-0.000171563	0.0011867	
-0.00388984	-0.0154753	-0.0101431	
-0.00169273	-0.00500432	-0.00307812	
-0.000267227	-0.0010489	0.000795639	
0.000301163	1.75782e-05	-2.54248e-05	
0.000201011	-0.000261836	0.000507866	
0.000322143	-0.000115748	0.000162611	
1.754e-05	-0.000352649	0.00139126	
2.82115e-06	-7.61445e-06	1.64687e-05	
0.0117403	0.0207837	0.0138782	
0.00555382	0.00793341	0.00549144	
0.0104894	0.0157984	0.00921594	
0.0119032	0.0233995	0.0142502	
-0.000100312	-0.000294141	0.0013901	
-3.6577e-06	-0.000194004	0.000792675	
-6.07143e-05	-0.000286167	0.00149254	
0.00336396	0.00505556	0.00335469	
-1.65963e-05	-0.00011445	0.000394222	
6.4101e-05	-0.000368498	0.00129016	
2.39491e-05	-0.000401283	0.00126601	
2.74319e-05	-0.000351386	0.00151367	
0.0227454	-0.0192301	0.0197524	
0.000735192	0.0147499	-0.0221619	
-0.00718549	0.0208409	-0.00986584	
0.00155717	-0.00310113	0.00060508	
-0.00565937	0.0190472	-0.00909897	
-0.00832779	0.0254458	-0.0113776	
-0.00647271	0.0127912	-0.0101514	
-0.00551778	0.00938952	-0.00743683	
0.00145714	-0.00698453	0.00402809	
0.000300139	-0.00437464	0.00265713	
-0.000608367	0.00241616	-0.00125713	
0.00133166	-0.00181226	0.0028061	
-0.00039041	-8.03487e-05	-0.00168627	
-0.018266	0.0345113	-0.0244832	
-0.0118854	0.0247514	-0.0152762	
0.00061087	-0.00202199	-0.000859616	
0.000829906	-0.00346336	0.00195492	
0.000469566	-0.00342297	0.00202469	
0.00023856	-0.0029422	0.00158122	
-0.00166079	0.00718812	-0.00375122	
-3.59507e-05	-2.71336e-06	-6.57705e-06	
1.04036e-05	1.70692e-05	2.00537e-05	
-1.51434e-05	-1.65208e-05	8.54183e-06	
1.98065e-05	-6.17276e-05	-0.000103216	
-0.000394349	-0.0011371	-0.00082047	
0.031037	-0.0564743	0.0265033	
0.00222256	-0.00422654	0.000459258	
2.88935e-05	-0.00138556	-0.00141279	
-0.00598966	0.0157269	-0.00860711	
-0.00010782	-0.000360835	-0.000394039	
5.76526e-05	-0.00129549	-0.00140785	
9.21824e-05	-0.000196958	-0.000302151	
0.00703751	-0.00982878	0.00568235	
4.76634e-05	-0.00135684	-0.00134524	
-4.00511e-05	-0.000442807	-0.00052088	
-6.97304e-07	-6.35335e-06	-8.03017e-06	
4.35089e-05	-9.94931e-05	-0.000183203	
-0.00283802	0.00260749	0.00539887	
0.00228596	-0.00774923	-0.0226182	
-0.00396853	0.000388659	0.0366777	
0.00629662	0.000226199	-0.0108597	
0.00740636	0.000357713	-0.0131254	
0.0115761	-6.67779e-05	-0.0232768	
0.00255032	0.00156059	-0.00701119	
0.00693907	0.00020826	-0.012494	
0.00635685	0.00137231	-0.0149409	
0.00770689	0.000244097	-0.0144482	
0.0137542	-0.00188911	0.0476001	
0.0028508	-0.00324499	0.00609097	
0.00269807	0.000742558	0.0303277	
0.0010326	0.000891346	0.00504926	
0.00510854	0.00115637	-0.0113991	
0.00192164	0.00136436	-0.00584605	
0.000551817	0.00099749	-0.0013182	
-0.000125867	0.00140703	-0.000384974	
0.00768075	0.00128299	0.0346226	
0.00549376	-0.00428219	0.0119286	
0.00374156	0.000683304	0.0355614	
-3.83772e-05	2.94322e-05	-2.43526e-05	
0.00480925	-0.00326007	0.0129794	
1.28172e-05	4.48308e-05	3.47307e-05	
-0.000887054	2.02061e-05	0.0264662	
3.23784e-06	0.000151452	-2.77697e-05	
-0.000544603	0.00137734	0.00126663	
8.72347e-05	0.000510668	-7.55138e-05	
-0.00212341	0.0008583	0.0116677	
-9.01152e-05	0.00102557	-0.000292606	
-0.00114337	0.000226719	0.0141548	
0.00135212	0.00101103	-0.00499468	
0.000125239	0.000100158	-3.93808e-05	
-1.53423e-05	0.00110468	-0.000207923	
0.000122397	0.000784679	-9.74734e-05	
0.000113041	0.000314054	-8.05664e-05	
0.000109965	0.000616464	-7.19159e-05	
-0.0063377	-0.012198	-0.0036333	
-0.0298066	-0.101562	-0.151092	
-0.00165513	-0.00343032	-0.000819312	
0.00334021	0.00518123	0.00251904	
-0.00110107	-0.00248694	-0.000637339	
0.00494283	0.0115227	0.00770604	
-0.0108059	-0.0203163	-0.0104225	
0.00520564	0.00890648	0.00422765	
-0.00205669	-0.00770649	-0.00475225	
0.00101966	0.00390339	0.00382385	
0.00163998	0.00470592	0.00388698	
-0.000957162	-0.00761356	-0.0119891	
0.0060023	0.00921711	0.00483033	
-0.000278943	-0.00072316	-3.72661e-05	
0.00638015	0.0115349	0.00696355	
0.00574579	0.00849642	0.00426176	
0.000449253	0.000804469	0.00169748	
-0.00383196	-0.0159417	-0.0105483	
-0.00173294	-0.00505826	-0.00331735	
-0.000624992	-0.00218974	-0.000113905	
0.00022763	2.02327e-05	-2.19555e-05	
0.000138749	-0.000182909	0.000363552	
0.000269908	-9.73238e-05	0.000138883	
9.21329e-06	-0.000173086	0.000677628	
-8.03399e-05	0.000217076	-0.000467736	
0.0117279	0.0208885	0.0132845	
0.00563571	0.00835631	0.00378748	
0.0105718	0.0160949	0.0078579	
0.0113339	0.0227267	0.0128613	
-3.77969e-05	-0.000121323	0.000560996	
-1.93465e-06	0.00021296	-0.000822211	
-3.72708e-05	-0.000195447	0.000994847	
0.00341289	0.00533207	0.00234087	
2.9766e-05	0.000252446	-0.000858239	
3.03249e-05	-0.000172125	0.000598679	
8.51979e-06	-0.000186218	0.000592884	
2.58354e-05	-0.000301086	0.00127094	
0.022782	-0.018672	0.0202237	
0.0010508	0.0150645	-0.0217762	
-0.00715438	0.0209552	-0.00987656	
0.00192521	-0.00271302	0.00133726	
-0.005648	0.0190443	-0.00915094	
-0.00833775	0.025521	-0.0114733	
-0.00646817	0.0131146	-0.00996416	
-0.00565336	0.0098482	-0.00723969	
0.00145944	-0.00694432	0.00397846	
0.000257035	-0.00437894	0.0026114	
-0.000615534	0.00244907	-0.00127714	
0.00130404	-0.00196353	0.00269659	
-0.000313805	-5.48668e-05	-0.00134932	
-0.0183161	0.0353516	-0.024441	
-0.0119002	0.0251439	-0.015221	
0.000364832	-0.00124786	-0.000580476	
0.000825695	-0.00342564	0.0019165	
0.000460161	-0.00342052	0.00199783	
0.000221453	-0.00293762	0.00156355	
-0.00167025	0.00722053	-0.00378756	
-1.39653e-05	3.81778e-06	1.29789e-06	
3.64016e-06	6.08867e-06	7.17519e-06	
-6.40309e-06	-5.99245e-06	3.44849e-06	
9.27589e-06	-3.04522e-05	-4.99676e-05	
-5.35296e-05	-0.000155148	-0.000119236	
0.0314072	-0.0560492	0.0263352	
0.00219392	-0.00407634	0.000536144	
0.000584399	-0.00165353	-0.0005945	
-0.00593799	0.0159026	-0.00855708	
-6.43339e-05	-0.000222217	-0.000245133	
5.17244e-05	-0.00112569	-0.00132749	
4.5252e-05	-9.99396e-05	-0.000151516	
0.00694892	-0.00915192	0.00584968	
1.52551e-05	-0.000377072	-0.000395556	
-2.55485e-05	-0.000311213	-0.000369911	
-1.40768e-06	-1.31117e-05	-1.65646e-05	
2.03893e-05	-4.90691e-05	-8.83963e-05	
-0.00285451	0.0024712	0.0054134	
0.00272447	-0.00789514	-0.022067	
-0.00385113	0.00041376	0.036918	
0.00640319	0.000110023	-0.0109911	
0.00762475	0.000335689	-0.0132866	
0.0115997	0.000336037	-0.0238615	
0.00238764	0.00123881	-0.00659511	
0.0070487	0.000670878	-0.0127517	
0.00616222	0.00111469	-0.0146109	
0.00775256	0.000620625	-0.0147588	
0.013884	-0.0016447	0.047628	
0.00280681	-0.0032339	0.00642479	
0.00281935	0.000856136	0.0304652	
0.000703579	0.000566752	0.00561741	
0.00509818	0.00146676	-0.0117057	
0.00179748	0.00104092	-0.00556473	
0.000526459	0.000929378	-0.00119142	
-0.000151425	0.0017537	-0.000467971	
0.00788451	0.00140944	0.0347135	
0.00525319	-0.00410688	0.0121719	
0.0037636	0.000847105	0.0358008	
-5.22294e-06	3.27011e-05	-2.41627e-05	
0.0046521	-0.00312694	0.0131886	
1.91807e-05	4.8969e-05	3.32327e-05	
-0.000895276	0.000143344	0.026624	
9.30653e-07	4.64568e-05	-8.36023e-06	
-0.00055576	0.00114323	0.00145514	
7.90597e-05	0.000485695	-7.38968e-05	
-0.00210111	0.00080571	0.0117749	
-0.000112469	0.00131982	-0.000363482	
-0.00115741	0.000293616	0.0142097	
0.00131997	0.000936179	-0.00494595	
0.000148628	0.000127588	-4.56015e-05	
-1.23991e-05	0.000971711	-0.000179101	
0.000112378	0.000747652	-9.39704e-05	
0.000108702	0.000318254	-8.16599e-05	
0.000102291	0.000608341	-7.29568e-05	
-0.00609312	-0.0123368	-0.0029105	
-0.0314986	-0.10734	-0.151543	
-0.00171164	-0.0035592	-0.000431242	
0.00344518	0.00502436	0.00335992	
-0.0011638	-0.00256819	-3.37215e-05	
0.00501915	0.0114111	0.00842351	
-0.0103749	-0.0210169	-0.00875923	
0.00544623	0.00849113	0.00623145	
-0.00217673	-0.00816193	-0.00452859	
0.000934197	0.00351529	0.00374649	
0.00176211	0.00464693	0.00462042	
-0.00110092	-0.00748401	-0.0118438	
0.00605731	0.00886835	0.00686256	
-1.59174e-05	-0.000945146	0.00110134	
0.00632033	0.0112811	0.00801016	
0.00573592	0.00819946	0.00625802	
0.000486454	0.000668326	0.00195046	
-0.00398205	-0.0158431	-0.0102276	
-0.0017135	-0.00520337	-0.00319516	
-0.000703614	-0.00241467	8.37885e-05	
0.000304743	-6.9959e-05	9.42867e-05	
0.000221273	-0.000290628	0.000585654	
0.000337873	-0.000138181	0.000194987	
2.74122e-05	-0.000363275	0.00138988	
2.41556e-05	-6.48606e-05	0.000142285	
0.0117283	0.020726	0.0139977	
0.00561092	0.0079874	0.00569897	
0.0106729	0.0158279	0.00972742	