<VTKFile type="UnstructuredGrid" version="0.1" byte_order="LittleEndian">
	<UnstructuredGrid>
		<Piece NumberOfPoints="11544" NumberOfCells="11544">
			<CellData Scalars="scalars">
				<DataArray type="Float64" Name="Strength" NumberOfComponents="3" Format="ascii">
-0.00772081	-0.0150536	0.013721	
-0.00378697	-0.0182954	-0.0251642	
0.00936466	0.0723574	-0.00559674	
0.00524793	-0.00682259	-0.00678046	
0.00613624	0.000290603	-0.0110892	
0.0115065	0.0540434	-0.0345957	
0.00968169	0.0851394	-0.0343085	
0.00087784	0.0163316	-0.0184159	
0.0106299	0.0834305	-0.0359289	
0.00193699	0.0294871	-0.0264236	
-0.000230355	0.0182421	0.0419431	
0.00462418	-0.00242525	-0.00246183	
-0.00310211	0.0434522	0.00640709	
0.00189756	-0.000502611	0.00184099	
0.005306	0.0710184	-0.0366578	
0.0106956	0.0865989	-0.0244864	
0.0235065	0.0936557	0.000927889	
-0.00642607	0.0600253	-0.0361473	
0.00250838	0.0188771	0.02545	
0.005424	-0.0112285	0.0074833	
-0.00539792	0.0381187	0.0136581	
0.00182651	-0.0025008	0.00224381	
0.00256585	-0.00509314	0.0101219	
0.00054948	0.00172452	-0.00184014	
0.000630525	0.051262	-0.00108839	
-0.000624166	-0.0126828	0.0034793	
0.00885534	0.0878067	-0.0228894	
0.0120207	0.0383665	0.0170201	
0.0183947	0.0862331	-0.00302437	
-0.00916665	0.0425757	-0.0265458	
0.00938451	0.0531104	0.0111712	
0.0173912	0.0901937	-0.0073953	
1.74436e-05	0.000659497	5.07494e-05	
0.0120819	0.0869405	-0.0148442	
0.00712757	0.0781101	0.0190642	
0.0182569	0.00571927	0.0112444	
0.0117202	0.05532	0.0246091	
-0.0120248	-0.00645486	-0.0250618	
0.0192921	-0.130988	-0.0540452	
-8.6322e-05	0.0140892	0.0504983	
0.00121367	0.0117957	-0.013696	
0.015764	-0.00781463	0.0530426	
0.0122812	-0.0276975	0.0617062	
-0.0154859	-0.0238149	0.0541363	
0.018208	-0.0130046	0.0519232	
0.0130842	-0.0174522	0.0357366	
0.012549	0.000923725	0.0160352	
0.00918131	-0.0121087	0.0563702	
-0.0191112	-0.0171795	-0.00602907	
0.0106215	-0.00341485	0.0486001	
0.00279738	-0.0105763	0.0263974	
0.0053521	0.00641743	0.0549962	
0.00585205	0.00279045	0.0405341	
0.020145	-0.0163209	0.0444477	
0.0235812	-0.0153259	0.0198083	
-0.00110829	-0.0168062	0.0108695	
0.0115089	-0.0191446	0.0539663	
0.024947	0.00137852	0.0116724	
-0.0113137	-0.022567	0.00641054	
0.000200495	0.00671975	0.018767	
0.00849038	-0.00910774	0.0587605	
-0.00521844	0.00816925	-0.0204314	
0.0221967	0.00751808	0.0382572	
0.00436632	0.004729	0.0316692	
0.00906707	0.0133303	0.0165388	
0.0245124	-0.0200884	0.0720965	
-0.00508217	0.00453026	0.0407412	
-0.00217045	-0.000494	0.0191565	
0.000883114	0.00543853	0.0448718	
0.00367554	0.00870549	-0.0105181	
0.000765312	0.00081632	-0.00480676	
0.00168916	-0.00464023	0.0249044	
0.0112019	-0.0204051	0.0520038	
0.00381249	-0.0052455	0.052439	
0.0143765	-0.0586888	-0.00624778	
0.000370915	0.00985791	-0.0356836	
-0.00688047	-0.000144027	-0.0323847	
-0.0104054	-0.039501	-0.017578	
-0.00966662	0.0141095	-0.0107337	
-0.0150271	0.00968119	-0.0232166	
0.00858622	-0.010004	-0.0524737	
0.0121623	-0.0171846	-0.0550337	
0.00253845	-0.00957819	0.00172043	
0.00166897	-0.00718562	0.00134593	
0.000114821	0.000599103	-0.00355757	
0.00143146	0.0049118	0.00550211	
0.0137392	-0.0291314	-0.0621599	
-0.0166285	-0.0112155	-0.0476539	
-0.022079	-0.0343825	-0.0335233	
0.0124418	-0.0422036	-0.0577501	
0.000987222	-0.00491873	0.000900185	
0.000456349	-0.00605304	-0.000456932	
0.00039757	-0.00528338	-0.00185459	
-0.00203037	0.00506092	-0.004795	
0.000624502	-0.00239414	0.0031035	
-0.00212997	-0.00219958	-0.000522332	
0.00162546	-0.000317508	-0.00230596	
0.005602	-0.00156955	-0.00933893	
-0.0203014	-0.044904	-0.012095	
0.0578311	-0.055818	-0.0373144	
0.0133603	-0.0465683	-0.0534197	
-0.000146244	-0.0503397	-0.0491391	
-0.0019696	-0.00243825	-0.035167	
-0.00811324	-0.0519319	-0.028891	
0.00694173	-0.0464011	-0.0510316	
0.00952	-0.00401635	-0.0413759	
0.00834959	-0.0494606	-0.0331003	
0.000934535	-0.0603318	-0.0515632	
0.00112134	-0.0116961	-0.0136313	
1.28383e-06	6.80866e-06	9.06567e-06	
0.0103672	0.00190556	-0.0199459	
-0.00199968	0.00317889	0.00649434	
0.00230391	-0.0225016	-0.0197196	
-0.0199992	-0.000869944	0.0276271	
0.00469464	-0.00019296	-0.0105966	
0.00675295	0.00116099	-0.0128245	
0.0203898	0.0115564	-0.0113016	
0.00552165	0.0129669	-0.00275553	
0.00682292	0.00369052	-0.0121183	
0.0127055	0.0156319	-0.00262089	
0.00978667	0.00571882	-0.0128267	
0.0189309	0.00833003	0.0419996	
0.00104997	-0.00335491	0.00373817	
-0.000684181	0.00124437	0.0280868	
0.000477147	0.00168089	0.00146609	
0.00964207	0.0128809	-0.00531816	
0.00480176	0.0127619	-0.00124032	
0.00167822	0.0110707	0.00227512	
-0.000978241	0.00833611	-0.00642635	
0.0118262	0.00764238	0.0302068	
0.00277129	-0.00625762	0.0112841	
0.00310584	0.00430376	0.0324107	
-0.000223912	-7.79256e-05	6.05799e-05	
0.00348454	-0.00317564	0.0112402	
-0.000203671	0.000285489	-0.00023056	
-0.0073544	0.000416344	0.0233013	
-1.28104e-06	0.000189659	-6.05984e-05	
-0.00165811	0.010844	-0.00159383	
0.00400722	0.00385509	0.00080497	
-0.00923398	0.00532476	0.00730977	
-0.00171771	0.00622053	-0.00518581	
-0.00360342	0.00220317	0.0123347	
0.0036664	0.0110897	0.00134274	
-0.000651357	-0.00117255	0.000295974	
-0.000721616	0.0102069	-0.00012202	
0.0029899	0.00679846	0.00463217	
0.00262234	0.000139584	-0.000903828	
0.00375223	0.0053809	0.00291974	
-0.00274906	-0.0125586	-0.00482503	
0.0167035	-0.0940201	-0.128018	
-0.0101939	-0.00365936	0.00265103	
0.00159262	0.00655692	0.00177928	
-0.00367433	-0.00399229	0.00384425	
0.0120854	0.00488111	0.0165944	
-0.0246166	-0.0139566	0.00115814	
0.0102711	0.00268446	0.00526243	
-8.67845e-05	-0.00820152	-0.00021179	
-0.0011374	0.000442639	0.00690615	
0.000724148	-0.000924465	0.00776014	
-0.00108756	-0.00431504	-0.0124666	
0.0100782	0.00327512	0.00641952	
-0.00116418	-0.00291453	0.00438439	
0.00888717	0.00483851	0.00955055	
0.00861677	0.00441334	0.00568665	
0.000665043	-0.00296597	0.00479341	
-0.00356434	-0.0154871	-0.00792162	
0.000924018	-0.00576034	-0.00110954	
-0.000570917	-0.00233411	0.00654229	
-0.00196424	0.00126914	-0.000716431	
0.00148949	-0.00179266	0.00189783	
-0.000177902	0.00227822	0.000649001	
-0.00126979	-0.0025523	0.00563132	
-0.000360883	0.000530258	-0.00132712	
0.020502	0.0147271	0.0150485	
0.00778956	0.00577017	0.0046304	
0.0114505	0.015294	0.00646884	
0.0269548	0.0104261	0.0174572	
-0.00138669	0.00108275	0.00568587	
-0.000143696	5.7783e-05	0.000788105	
-0.00086934	0.00109712	0.00680316	
0.00244354	0.00598513	0.00143308	
0.000212177	9.60272e-05	-0.000929523	
0.000105987	-0.000613322	0.0061129	
-0.000334291	-0.0028556	0.00537469	
-0.00117061	-0.00178786	0.00719475	
0.0290796	-0.016922	0.00282739	
0.00527555	-0.000380924	-0.0253271	
-0.0104408	0.0202502	-0.00469239	
0.000112338	-0.00631021	-0.00211002	
-0.00476694	0.0205825	-0.00446776	
-0.00905002	0.0266461	-0.00421348	
-0.0100426	0.0024378	-0.0145736	
-0.00805405	0.000681094	-0.0107496	
0.00140475	-0.00632906	0.00519669	
0.000127745	-0.00347834	0.00361318	
-0.000679674	0.00268863	-1.81935e-06	
-0.00178603	0.00155832	0.00277909	
0.000608272	-0.00223016	-0.00796196	
-0.032177	0.00573873	-0.026641	
-0.0216593	0.0190221	-0.00863165	
0.00276635	-0.00479814	-0.00794653	
0.00114307	-0.00298486	0.00297683	
0.0008416	-0.00252281	0.00292073	
0.000562384	-0.0024347	0.00219081	
-0.00116934	0.00818038	-0.00209141	
0.000653943	0.000952369	0.000689565	
0.000987177	0.000302897	0.000280521	
7.48258e-05	0.000694534	0.000422844	
-0.000275166	7.46814e-05	0.000373267	
-0.00223036	-0.00492544	-0.000269597	
0.0595421	-0.0393367	-0.0103446	
0.00519404	-0.00607104	-0.00755228	
-0.00184675	-0.0066201	-0.00634562	
-0.00878255	0.0150759	-0.00572087	
-0.00110714	-0.00210846	-0.00169666	
0.000754492	-0.00660109	-0.00712372	
0.000849889	-6.83708e-05	-0.00131342	
0.0126903	-0.00913142	-0.0051657	
5.87733e-05	-0.00566146	-0.00440994	
0.000131005	-0.0031928	-0.00278126	
0.000119693	0.000724471	0.00103839	
0.000111009	3.33264e-06	-0.000136452	
-0.00222583	0.00348262	0.0062025	
0.000824653	-0.0249512	-0.0133424	
-0.00161604	-0.00416121	0.0344049	
0.0056119	-0.000944975	-0.0102418	
0.00791696	-0.00058437	-0.0119934	
0.0183376	0.00059231	-0.0156727	
0.00332441	0.0030802	-0.00637841	
0.00810181	0.000304183	-0.0107272	
0.0100822	0.00320902	-0.0116385	
0.0104245	0.000349024	-0.0114751	
0.0130515	0.0122606	0.0441164	
0.0015641	-0.00287553	0.00488641	
0.00101588	0.00302707	0.0287275	
0.000486944	0.00234106	0.00182502	
0.00809636	0.00224133	-0.00866074	
0.00232336	0.00307717	-0.00571541	
0.000389757	0.00329154	-0.00247537	
-0.000651546	0.00215306	-0.00175974	
0.00916891	0.00994196	0.0311733	
0.00407395	-0.0068384	0.0107776	
0.00252621	0.00510277	0.0333331	
0.00019218	-8.90453e-06	7.54758e-05	
0.00506726	-0.0037571	0.0112307	
-0.00011749	0.000112643	-2.22317e-05	
-0.00259341	0.000113414	0.0246497	
-4.04861e-06	6.85378e-05	-2.46528e-05	
-0.00102933	0.00282661	0.000576008	
0.00128564	0.00115408	-0.000146782	
-0.00103233	0.000478245	0.0108616	
-0.000607643	0.00151777	-0.00145496	
-0.00069946	0.000135211	0.0126213	
0.000697258	0.00359968	-0.00512091	
-0.00011403	-0.000558195	5.84248e-05	
-0.000428238	0.00278362	-0.000274926	
0.00102302	0.00223933	0.000133247	
0.00117721	9.41908e-05	-0.000360157	
0.00120222	0.00175548	4.5032e-05	
-0.00298842	-0.0130113	-0.00355108	
-0.0157395	-0.0827964	-0.143977	
-0.00391638	-0.00762684	-0.00070121	
0.00214938	0.00601933	0.00271342	
-0.00169827	-0.00282624	0.000445527	
0.00708959	0.0140019	0.00872586	
-0.0143834	-0.0225257	-0.00658746	
0.00640776	0.00788254	0.0036675	
-0.0019993	-0.00682764	-0.00384808	
0.00241818	-0.000755757	0.00569471	
0.00132129	0.00290931	0.00377935	
-0.00168725	-0.00783279	-0.0120409	
0.00726036	0.00791141	0.00443905	
-0.000771876	-0.00220265	0.00086503	
0.00477082	0.0104615	0.00556073	
0.00691471	0.00731705	0.00364181	
0.000290719	-0.000681606	0.00160077	
-0.004714	-0.0153198	-0.00980999	
-0.00179634	-0.00501401	-0.00274326	
-0.000136969	-0.000503912	0.00200608	
-0.000403363	0.000496251	-0.000173246	
0.000435784	-0.000524483	0.000558935	
-0.00062286	0.000345884	0.000163886	
-0.000206939	-0.000244004	0.00185918	
-0.000113204	0.000161661	-0.000399837	
0.0116625	0.0220729	0.0118142	
0.00671177	0.00747433	0.00295856	
0.0110513	0.0161539	0.00564828	
0.0108332	0.0275091	0.0105544	
-0.000683563	0.000170786	0.00181333	
4.00187e-05	-2.47945e-05	-0.000174154	
-0.000673091	0.00031111	0.00218804	
0.00267717	0.00570471	0.00228795	
0.000145802	2.71554e-05	-0.00053744	
-0.000104038	-0.000244296	0.00206133	
6.39057e-05	-0.000530501	0.00162662	
-0.000368851	-0.000113853	0.0024223	
0.0305461	-0.0137187	0.00597665	
0.00895902	0.0010591	-0.0268182	
-0.00473341	0.0227149	-0.00349304	
0.00143362	-0.00281705	-0.000288992	
-0.0057983	0.019982	-0.0051572	
-0.00718382	0.0273896	-0.00363367	
-0.0071469	0.0114481	-0.0107008	
-0.00664886	0.00861025	-0.00676951	
0.00203317	-0.00754913	0.00377131	
0.000564609	-0.00478993	0.0024984	
-0.000512525	0.00231167	-0.00106311	
0.000268385	-0.00113344	0.00381555	
-0.000227578	-3.62859e-05	-0.00248082	
-0.0220819	0.0277662	-0.0253969	
-0.00911829	0.0256611	-0.0138591	
0.00140066	-0.00233832	-0.00190051	
0.00102599	-0.00397464	0.00166145	
0.000754693	-0.00377376	0.00184304	
0.000333376	-0.00340743	0.00101838	
-0.00188143	0.00719027	-0.00298458	
-4.78517e-05	0.000387259	-5.45535e-06	
-0.00024221	-0.000123426	-6.25928e-05	
0.000196851	7.20209e-05	-3.52973e-05	
0.000213026	-5.13809e-05	-0.000298356	
-0.000761575	-0.00148328	0.000119802	
0.0393803	-0.0565101	0.0188892	
0.00373448	-0.00389008	-0.00131558	
-0.00135017	-0.00168283	-0.00232926	
-0.00350916	0.0175584	-0.00484011	
-0.000425056	-0.000610394	-0.000487666	
7.36073e-05	-0.00214043	-0.00225019	
0.000409317	-0.000177004	-0.000495259	
0.0121709	-0.00678286	0.000821912	
-4.03032e-05	-0.00183607	-0.0013051	
-9.88826e-05	-0.000804101	-0.000774802	
-3.58189e-05	-0.000219674	-0.000318553	
0.000293973	-2.20685e-05	-0.000360861	
-0.00250741	0.00377804	0.00572006	
0.00394596	-0.0256145	-0.00716108	
-0.00587622	0.00102752	0.0349354	
0.00597494	-0.000951319	-0.0102395	
0.00783998	-0.00102053	-0.0124122	
0.0130203	-0.00338908	-0.0211512	
0.00141866	0.00191929	-0.00801132	
0.00746117	-0.000800128	-0.0116355	
0.00535712	0.000190974	-0.0153051	
0.00881685	-0.00142197	-0.0132257	
0.0145164	0.0108171	0.0450311	
0.00506892	-0.00243219	0.00331862	
0.0010524	0.00316664	0.0291757	
-0.00182462	0.00349793	0.00106029	
0.00422641	0.000335228	-0.0118078	
0.00126259	0.00244866	-0.00677282	
0.000966297	0.00342627	-0.00258155	
-0.00105799	0.00222578	-0.0018256	
0.00921279	0.00974744	0.0318824	
0.00381134	-0.00612618	0.0115384	
0.00267452	0.00543746	0.0337929	
0.000121966	4.3173e-05	-0.000110879	
0.0046781	-0.00432719	0.0117814	
-8.80112e-05	0.000102599	-0.000105343	
-0.00242182	0.000956085	0.0253093	
-2.08808e-05	0.000250956	-0.000100546	
-0.000962942	0.00353669	-0.000103555	
0.00122868	0.00116349	-0.000197723	
-0.00276845	0.00296187	0.0105929	
-0.000809194	0.00145739	-0.00139297	
-0.00151866	0.00103062	0.0130333	
0.00172409	0.00336558	-0.00560479	
-0.000137986	-0.000554446	5.50966e-05	
-0.000224932	0.0033735	-0.000966038	
0.00136071	0.00251026	-3.13545e-05	
0.00122863	0.00011976	-0.00037367	
0.00142422	0.00185303	2.06778e-05	
-0.00399663	-0.013082	-0.00291462	
-0.0178229	-0.0437774	-0.166512	
-0.00381828	-0.00599226	-0.00033533	
0.0026968	0.00569851	0.00262314	
-0.00165782	-0.00271761	0.000510312	
0.00660825	0.0132757	0.00855747	
-0.0105845	-0.0237527	-0.00676693	
0.0049886	0.00910399	0.00417483	
-0.00242413	-0.00693726	-0.00407949	
0.00364529	0.0010505	0.00572817	
0.00167842	0.00335918	0.00420599	
-0.00508863	-0.00668367	-0.0115697	
0.00548649	0.00954493	0.00479531	
-0.000439275	-0.0018908	0.000742645	
0.00559552	0.0110308	0.00544043	
0.0053588	0.00888943	0.00380228	
0.000534561	-0.000390155	0.00190697	
-0.00517146	-0.0157792	-0.00949093	
-0.0015004	-0.00519177	-0.00278115	
-0.000404974	-0.00117036	0.00162991	
-0.000496993	0.000265999	-0.000412177	
0.000702742	-0.000391428	0.000507793	
0.000363149	0.000394479	-0.000521624	
-0.000188587	-0.000274468	0.00185411	
-8.65058e-05	0.000121391	-0.000294118	
0.0123626	0.0215705	0.0121359	
0.00556294	0.00871027	0.00290629	
0.0104507	0.0170269	0.00534267	
0.0131048	0.0259145	0.0101098	
-0.000560616	0.000156379	0.0015824	
3.14763e-05	-1.82499e-05	-0.000120874	
-0.000603661	0.00031496	0.00193399	
0.00301835	0.00559617	0.0022642	
0.000150589	1.09464e-05	-0.000519713	
-9.97598e-05	-0.000243059	0.00163556	
6.92016e-05	-0.000593471	0.00169433	
-0.000316501	-0.000116748	0.00231134	
0.0298145	-0.0143442	0.0110961	
0.00848345	0.000890824	-0.0257946	
-0.00685188	0.0225421	-0.00431737	
0.001378	-0.00289048	0.000574163	
-0.00592939	0.0203841	-0.0049795	
-0.0085103	0.0274504	-0.00393502	
-0.00447587	0.0136774	-0.00981365	
-0.00433623	0.0104024	-0.00664666	
0.00176751	-0.00709886	0.00415358	
0.000377274	-0.00444219	0.00272012	
-0.000615641	0.00251562	-0.00078786	
-0.00133073	-0.000237771	0.00347422	
-8.93603e-06	-3.17754e-05	-0.00252869	
-0.0157986	0.0338128	-0.0248451	
-0.0122433	0.0241274	-0.0153291	
0.000701491	-0.0024539	-0.00177168	
0.0010012	-0.00359456	0.00199338	
0.000767063	-0.00339319	0.00212319	
0.000453971	-0.00307041	0.00140597	
-0.0017978	0.00756193	-0.00279645	
-8.61552e-05	0.000108749	-6.63101e-05	
9.89079e-05	4.57064e-05	2.72502e-05	
-5.45904e-05	1.62199e-05	6.84225e-05	
8.16148e-05	-2.09238e-05	-0.000116231	
-0.000861199	-0.00131668	0.00020255	
0.0380952	-0.0578015	0.0174844	
0.00251256	-0.00486972	-0.000629792	
-0.00057761	-0.00177286	-0.00213559	
-0.00536079	0.017065	-0.00600296	
-0.000431491	-0.000778809	-0.000569	
-6.94156e-05	-0.00215152	-0.00215993	
0.000456897	-0.000178969	-0.000537175	
0.0101668	-0.00818011	0.00431448	
-0.000147005	-0.00180998	-0.00116985	
-0.000140254	-0.000746521	-0.000847758	
6.88653e-06	4.33293e-05	6.29764e-05	
0.000208751	-4.7311e-06	-0.000253153	
-0.00293887	0.00360368	0.00551117	
0.00909218	-0.0238191	0.00125776	
-0.00649882	0.00101503	0.0356186	
0.00624824	-0.000999624	-0.010581	
0.00753814	-0.00114724	-0.0131107	
0.0108532	-0.0045453	-0.0230204	
0.00225281	0.00172606	-0.00777137	
0.00671905	-0.00135621	-0.0126594	
0.00619797	-6.89476e-05	-0.0150999	
0.00754028	-0.00228619	-0.0145657	
0.0142746	0.0114672	0.0459306	
0.00167151	-0.00268678	0.00639719	
0.00154431	0.00378929	0.029551	
-0.000551632	0.00431732	-0.00195594	
0.00443817	-0.000371423	-0.0118212	
0.00197395	0.00213125	-0.00653191	
0.0011786	0.00335675	-0.00284002	
-0.00123389	0.00229052	-0.00194612	
0.00921716	0.0104529	0.0323975	
0.00252874	-0.00581629	0.012263	
0.00313121	0.00609679	0.0345783	
-0.000117214	4.28017e-05	-0.000125388	
0.00437289	-0.00520901	0.0121259	
5.03021e-05	0.00010517	9.26073e-05	
-0.00239483	0.00141792	0.0260041	
-1.33302e-05	0.000122079	-5.34628e-05	
-0.000870729	0.00320982	5.87246e-05	
0.00132657	0.00124981	-0.0002261	
-0.00289864	0.00288574	0.0108653	
-0.00107633	0.0016901	-0.00168613	
-0.00153551	0.00133307	0.0135779	
0.00191691	0.00320999	-0.00556661	
-0.000133718	-0.000500022	4.60821e-05	
-0.000185203	0.00309386	-0.000816169	
0.00147708	0.00269377	2.14154e-05	
0.00120444	6.76936e-05	-0.000321599	
0.00154874	0.00200807	3.28297e-05	
-0.00501037	-0.0129969	-0.00242979	
-0.0292656	-0.0804039	-0.157733	
-0.00317906	-0.00514028	-0.000237289	
0.00312697	0.00547488	0.00262233	
-0.00155536	-0.00262579	0.000326862	
0.00630409	0.0130616	0.0081644	
-0.0117618	-0.0227	-0.00647099	
0.00547208	0.00909981	0.00389877	
-0.00252183	-0.00711187	-0.00454143	
0.000771014	0.00168845	0.00542155	
0.00173403	0.00368087	0.00419413	
-0.0042825	-0.00654812	-0.0114701	
0.0058067	0.00964797	0.00460842	
-0.000399476	-0.00147237	0.000595095	
0.00607958	0.0116381	0.00549155	
0.00528414	0.00915309	0.00380648	
0.000527813	-0.000245738	0.00173765	
-0.00520752	-0.0155698	-0.00968888	
-0.00350862	-0.00415714	-0.0027846	
-0.000445923	-0.00125618	0.00121258	
0.000398795	0.000159223	-0.000139394	
0.000550985	-0.00050364	0.000458169	
0.000479744	0.000265839	-0.000258615	
-0.000168113	-0.000250056	0.00167668	
-7.51067e-05	0.000103805	-0.000249147	
0.0124979	0.0218225	0.0117889	
0.00527585	0.00908188	0.00294274	
0.010087	0.0175216	0.00540519	
0.0128276	0.0255617	0.00976763	
-0.000468892	0.000150135	0.00131876	
1.57878e-06	-2.16655e-06	-8.42175e-06	
-0.000530901	0.000279219	0.00167431	
0.00317866	0.00552296	0.00243902	
8.32141e-05	3.18192e-06	-0.000281583	
-7.18799e-05	-0.000201885	0.00132496	
8.17894e-05	-0.00056058	0.00159256	
-0.000262991	-8.79648e-05	0.00192855	
0.0279174	-0.0152285	0.0158079	
0.00821094	0.0011211	-0.0259491	
-0.0070053	0.0228145	-0.0042171	
0.00133009	-0.00289258	0.00130797	
-0.00602792	0.0204926	-0.00505994	
-0.00851051	0.0276659	-0.00419995	
-0.00554096	0.0134582	-0.00993916	
-0.00514147	0.0100759	-0.0068464	
0.00179547	-0.00715496	0.00399113	
0.000423205	-0.00451343	0.00262408	
-0.000615826	0.00254688	-0.000869637	
-0.00143652	-0.000530205	0.00343319	
-7.53539e-06	4.76931e-05	-0.00224819	
-0.0185418	0.0336192	-0.0252106	
-0.0125989	0.0247229	-0.0150056	
0.000644149	-0.00221873	-0.00156571	
0.000967343	-0.0036265	0.00186124	
0.000770545	-0.00348871	0.00199907	
0.000425868	-0.0031538	0.00126244	
-0.00184154	0.00754986	-0.0028766	
7.23718e-06	-5.46654e-06	6.37927e-06	
-1.01082e-05	-4.94473e-06	-2.92062e-06	
6.01955e-06	1.95377e-06	-2.92351e-06	
8.74449e-05	-2.13178e-05	-0.000122241	
-0.000763009	-0.000882887	0.000157841	
0.0387567	-0.0564996	0.0181528	
0.00220879	-0.00476695	-3.91099e-05	
-0.000198094	-0.00178412	-0.00159563	
-0.00558714	0.0172685	-0.005827	
-0.000288496	-0.000526196	-0.000410373	
-8.17398e-05	-0.00180258	-0.00175814	
0.000299578	-0.00011857	-0.000360174	
0.00839703	-0.00859221	0.0063479	
-0.000199787	-0.00162936	-0.000991288	
-0.000115474	-0.000698573	-0.000787545	
-4.64492e-06	-3.05973e-05	-4.44455e-05	
0.000163577	-5.71202e-06	-0.000198575	
-0.00289348	0.00388761	0.00486605	
0.0121806	-0.0216631	0.00119541	
-0.00566795	-0.000759827	0.0365285	
0.00613051	-0.000743303	-0.0110311	
0.00715273	-0.00151501	-0.0136398	
0.0117779	-0.00527995	-0.0226977	
0.00255892	0.0012133	-0.0079137	
0.00620468	-0.00164078	-0.0130089	
0.00647563	-0.000583497	-0.0150043	
0.00725004	-0.00295842	-0.0146239	
0.0150278	0.0114246	0.0461802	
0.00234754	-0.00296312	0.00636349	
0.00248082	0.00309238	0.0302321	
-0.00101858	0.00494124	-0.000851661	
0.00489209	-0.000552665	-0.0116978	
0.00218375	0.00174475	-0.00678898	
0.000745006	0.0026233	-0.00167486	
-0.000863304	0.00157822	-0.00135872	
0.00953317	0.0104615	0.0327577	
0.00280458	-0.00575838	0.01236	
0.00384215	0.00557345	0.0352516	
2.63775e-05	-1.96063e-06	-7.38066e-05	
0.00474292	-0.00579405	0.012094	
8.87941e-06	4.98731e-05	4.33539e-05	
-0.00189789	0.000470893	0.0266011	
-6.95407e-05	0.000561392	-0.000260083	
-0.00087392	0.0031575	0.00022622	
0.000690981	0.000642847	-0.000145837	
-0.00269547	0.00154853	0.0114956	
-0.000755124	0.001107	-0.00113857	
-0.00165039	0.000429115	0.0140917	
0.00173025	0.00281255	-0.00536486	
-6.06656e-05	-0.000227868	1.01003e-05	
-0.000163363	0.00292816	-0.000767629	
0.000862422	0.00156009	-3.96404e-06	
0.000519893	2.73138e-05	-0.000157154	
0.000853656	0.00109088	-9.79443e-06	
-0.00554431	-0.0128351	-0.00184158	
0.00263379	-0.0657757	-0.170948	
-0.00294858	-0.00498611	-0.000393696	
0.00340473	0.00537357	0.00295492	
-0.0015047	-0.00270388	-4.84995e-05	
0.00609543	0.0130752	0.00785376	
-0.0115681	-0.0227316	-0.00602788	
0.00559206	0.00909997	0.0044884	
-0.00260906	-0.00733897	-0.00486342	
0.000384585	0.000481943	0.00530799	
0.00163589	0.00370927	0.00382968	
-0.00515107	-0.00469832	-0.0121388	
0.00574443	0.00962823	0.00539775	
-0.000264601	-0.00131151	0.000798976	
0.00602538	0.0120527	0.00546755	
0.00520797	0.00917799	0.00458342	
0.000322403	-0.000274486	0.00114507	
-0.00464863	-0.0154716	-0.0101986	
-0.00240716	-0.00466835	-0.00325368	
-0.000351471	-0.00102556	0.000818493	
0.000242824	0.000147933	-0.000115487	
0.000437514	-0.000356518	0.000234543	
0.000283537	-0.000231502	0.000115182	
-0.000134983	-0.000214363	0.00142701	
5.00895e-06	-6.62942e-06	1.67135e-05	
0.0123285	0.0222642	0.0116256	
0.00518437	0.00927462	0.00389687	
0.00993438	0.0179478	0.00622247	
0.0122997	0.0259286	0.00959486	
-0.000485711	0.000167712	0.00134558	
-0.000227902	0.000119084	0.000787661	
-0.00046522	0.000252577	0.00144309	
0.00318914	0.00556616	0.00293455	
-0.000120689	-4.22786e-06	0.000399433	
-8.20913e-05	-0.000185343	0.00134396	
7.00166e-05	-0.000444762	0.00126233	
-0.000217412	-5.85245e-05	0.00155381	
0.0253228	-0.0174682	0.0194344	
0.00733473	0.00175119	-0.0258672	
-0.00704918	0.0230752	-0.00407703	
0.0010751	-0.00301388	0.00161254	
-0.0060698	0.0206471	-0.0051224	
-0.00864731	0.0278231	-0.00437849	
-0.0060811	0.0137644	-0.00955954	
-0.00561352	0.0103879	-0.00631042	
0.00173159	-0.00704774	0.00399577	
0.000391107	-0.00442814	0.00266435	
-0.000638566	0.00261137	-0.000863908	
-0.00107552	0.000580125	0.00349447	
-0.000207999	0.000358192	-0.00170909	
-0.0192136	0.0348648	-0.0245591	
-0.0126291	0.0252356	-0.0147651	
0.000717228	-0.00187607	-0.00115406	
0.000943675	-0.0035356	0.00186812	
0.00076028	-0.00342663	0.00201716	
0.000445114	-0.00309564	0.00129526	
-0.00184765	0.00763899	-0.00288779	
-2.26256e-05	3.54833e-05	-2.76711e-06	
2.47047e-05	1.24117e-05	7.65353e-06	
-1.61866e-05	6.03622e-06	1.71802e-05	
7.06803e-05	-1.79285e-05	-9.96438e-05	
-0.00105504	-0.00102515	0.000184425	
0.0376867	-0.0567447	0.0187677	
0.00243132	-0.00421304	0.000329331	
-0.000106582	-0.00155101	-0.00127616	
-0.00568269	0.0174023	-0.00562863	
-0.000216925	-0.000393408	-0.000321829	
-2.84427e-05	-0.00139757	-0.00135181	
0.000232394	-9.12686e-05	-0.000282909	
0.00748526	-0.00871594	0.00725723	
-0.000240027	-0.00165166	-0.000995378	
-7.21328e-05	-0.00045079	-0.000523522	
-8.50512e-07	-5.9021e-06	-8.49521e-06	
0.000136204	-5.33479e-06	-0.000167234	
-0.00310097	0.00354883	0.00483635	
0.0123987	-0.0208269	0.00149469	
-0.00485988	-0.00181907	0.0369947	
0.00644032	-0.00136753	-0.0109316	
0.00721547	-0.00196447	-0.0133646	
0.0120721	-0.00591357	-0.022687	
0.00250675	0.000423144	-0.00729235	
0.00674544	-0.00238146	-0.0126311	
0.00661938	-0.00135657	-0.0150661	
0.00765778	-0.00346657	-0.0143438	
0.0149108	0.0111068	0.0465844	
0.00286337	-0.00329829	0.00615826	
0.00266655	0.00273137	0.0305834	
-0.00294304	0.00425403	0.00115609	
0.00517812	-0.00132366	-0.0115375	
0.00202403	0.000589015	-0.00602802	
0.000670555	0.00100573	-0.00128598	
-0.000573301	0.00103666	-0.000898383	
0.00960211	0.0103453	0.0330128	
0.00324551	-0.00548213	0.0124286	
0.00414709	0.00535918	0.0355472	
6.06865e-05	1.9638e-05	-2.84374e-05	
0.00503522	-0.00602288	0.0120504	
-4.07432e-06	4.68569e-05	3.54596e-05	
-0.00149439	4.97934e-05	0.0267621	
-1.98792e-05	0.000140528	-6.59727e-05	
-0.000725734	0.00148167	0.00108722	
0.000383805	0.00035481	-8.8789e-05	
-0.00237133	0.000403023	0.0117975	
-0.000473788	0.000682376	-0.000701335	
-0.00160835	-6.00976e-05	0.0142873	
0.0016249	0.000993529	-0.0049882	
-5.08015e-05	-0.000158875	6.43426e-06	
-5.71395e-05	0.00110102	-0.000290397	
0.000389756	0.000711031	-1.501e-05	
0.000331298	1.69661e-05	-0.000103406	
0.000393105	0.000503173	-1.2512e-05	
-0.00644398	-0.012767	-0.00211689	
-0.00482005	-0.0651711	-0.174259	
-0.00197145	-0.00340948	-0.000291271	
0.00346192	0.00542264	0.002108	
-0.00125991	-0.00247314	-0.00054693	
0.00543124	0.0121635	0.00666973	
-0.0116059	-0.0216744	-0.00724315	
0.00550048	0.00943757	0.00296797	
-0.00245161	-0.00725486	-0.00542642	
-0.000646135	0.000566339	0.00555151	
0.00188101	0.00477671	0.003806	
-0.00166596	-0.0035446	-0.0138319	
0.00610909	0.00983821	0.00384846	
-0.00028741	-0.000729932	6.19227e-05	
0.00659152	0.0127607	0.00465594	
0.00584404	0.00916985	0.00303855	
0.00067073	0.000673003	0.00170223	
-0.00535957	-0.0155726	-0.010812	
-0.00234124	-0.00442786	-0.00391446	
-0.000775211	-0.0021728	-7.96565e-05	
0.000180323	0.000122984	-8.09799e-05	
0.000234254	-0.000286495	0.000226214	
0.000277117	-0.000118621	0.000114842	
-6.07261e-05	-0.000106411	0.000695533	
-0.000144295	0.000195461	-0.000470792	
0.0122505	0.0223916	0.0109041	
0.00575638	0.00904699	0.00221098	
0.0104063	0.0177873	0.00476086	
0.0117842	0.0250289	0.00816758	
-0.000196939	6.79824e-05	0.000542842	
0.000234824	-0.000124835	-0.000820542	
-0.000314698	0.000169453	0.000961049	
0.00342602	0.00564491	0.00187461	
0.000259411	-4.23355e-07	-0.000871175	
-4.201e-05	-8.19989e-05	0.000624086	
3.10841e-05	-0.000207555	0.000590914	
-0.000175242	-5.26582e-05	0.00130709	
0.0237631	-0.0177559	0.0210621	
0.0063393	0.00207547	-0.0259696	
-0.00712952	0.0231757	-0.00396388	
0.00172023	-0.00243947	0.00209759	
-0.00608711	0.0206605	-0.00514987	
-0.00871518	0.0279172	-0.00439938	
-0.00639951	0.0140311	-0.00920256	
-0.00597335	0.0107583	-0.00595681	
0.00171112	-0.00700985	0.00395467	
0.000440933	-0.00442571	0.00261847	
-0.000652864	0.0026479	-0.000875203	
-0.00082542	0.00093375	0.00346314	
-0.000155588	0.000308667	-0.00136401	
-0.0194947	0.0358244	-0.0241891	
-0.0126993	0.0256285	-0.0146644	
0.000424641	-0.00115275	-0.000763148	
0.00092483	-0.00349911	0.00183519	
0.000749277	-0.00342576	0.00199096	
0.000441549	-0.00309336	0.00126795	
-0.00186032	0.00767544	-0.00292859	
-8.79465e-06	1.42769e-05	1.6355e-06	
8.7298e-06	4.51945e-06	2.81942e-06	
-6.28075e-06	3.14349e-06	6.51805e-06	
3.40388e-05	-9.33474e-06	-4.85812e-05	
-0.000155842	-0.000133783	2.20803e-05	
0.0369403	-0.0569436	0.0187568	
0.00237691	-0.00407365	0.000430838	
0.000530127	-0.00175923	-0.000410826	
-0.00585884	0.0175197	-0.00546999	
-0.000131677	-0.000241269	-0.000203195	
-2.61374e-05	-0.00125384	-0.00124784	
0.000116182	-4.63732e-05	-0.00014253	
0.00732122	-0.00777126	0.00762666	
-6.74726e-05	-0.000476752	-0.000277714	
-4.57878e-05	-0.00031338	-0.000375253	
-1.67921e-06	-1.2163e-05	-1.75615e-05	
6.54295e-05	-3.63488e-06	-8.14212e-05	
-0.00320359	0.00339605	0.00483106	
0.0122767	-0.0203857	0.00185261	
-0.00492507	-0.00183709	0.0372146	
0.00646217	-0.00160136	-0.011084	
0.00731005	-0.00219666	-0.0135655	
0.0119212	-0.0060235	-0.0233692	
0.00232655	9.64537e-05	-0.00682931	
0.00656493	-0.0023208	-0.0130722	
0.00628261	-0.00174252	-0.0147269	
0.00756386	-0.00342929	-0.0147575	
0.014648	0.0108286	0.0467949	
0.00309807	-0.00377011	0.00609563	
0.00277854	0.00272293	0.0307284	
-0.00178191	0.00527036	-0.00155241	
0.00499535	-0.0013458	-0.011953	
0.00187101	0.000257018	-0.0057133	
0.000629599	0.000935357	-0.0011639	
-0.000716896	0.00128451	-0.00112121	
0.00964043	0.0103069	0.0331662	
0.0037416	-0.00528778	0.0124484	
0.00434077	0.0054514	0.0357609	
-4.76686e-05	-2.13021e-06	1.14207e-05	
0.005351	-0.00626989	0.0119201	
-1.18543e-05	6.08431e-05	1.14363e-05	
-0.0013918	0.000166906	0.0269254	
-6.7748e-06	4.27132e-05	-2.05549e-05	
-0.000706828	0.00127807	0.00130486	
0.000362602	0.000338898	-8.72528e-05	
-0.00233747	0.000340881	0.0119081	
-0.000612349	0.000867282	-0.000905717	
-0.00156109	1.08069e-05	0.0143501	
0.00152979	0.000910575	-0.00496026	
-6.02268e-05	-0.000194115	6.3999e-06	
-4.65364e-05	0.000969089	-0.000251243	
0.000370766	0.000677265	-1.48502e-05	
0.000333329	2.05618e-05	-0.000105627	
0.000383379	0.000499044	-1.32658e-05	
-0.00623491	-0.012782	-0.00149853	
-0.0187526	-0.0521049	-0.181824	
-0.00214426	-0.00340902	9.37884e-05	
0.00350657	0.00536465	0.00298956	
-0.00140434	-0.00248706	6.87093e-05	
0.00555898	0.0120988	0.00739704	
-0.011075	-0.0221901	-0.00543625	
0.00564936	0.00936967	0.00501538	
-0.00285035	-0.00770175	-0.00514543	
-0.00145994	0.00175317	0.00476462	
0.00208299	0.00470771	0.00453513	
-0.00162437	-0.00311281	-0.0137492	
0.00568646	0.0100534	0.00584252	
6.09269e-05	-0.000829623	0.00121159	
0.00621382	0.0129214	0.00563431	
0.00525223	0.00960607	0.00490275	
0.000775803	0.000491764	0.00193022	
-0.00474369	-0.0154316	-0.0108978	
-0.00179983	-0.00460504	-0.0040798	
-0.000910127	-0.00237671	0.000129139	
0.000295425	-0.000105433	0.000111412	
0.000427144	-0.000403729	0.00037355	
0.000417702	1.95225e-05	1.89133e-05	
-0.000123041	-0.000221213	0.00142871	
4.31932e-05	-5.84533e-05	0.000143233	
0.0119582	0.0225237	0.0115314	
0.00516462	0.0094459	0.00402226	
0.0100127	0.0182206	0.00652851	