<VTKFile type="UnstructuredGrid" version="0.1" byte_order="LittleEndian">
	<UnstructuredGrid>
		<Piece NumberOfPoints="17094" NumberOfCells="17094">
			<CellData Scalars="scalars">
				<DataArray type="Float64" Name="Strength" NumberOfComponents="3" Format="ascii">
-0.00895046	-0.0141426	0.014555	
-0.0183771	-0.0151322	-0.0215048	
0.0233288	0.0676633	0.0194866	
0.00592833	-0.00730076	-0.00600181	
0.00634669	-0.000670914	-0.0112132	
0.0100477	0.0512062	-0.040799	
0.0189592	0.0832168	-0.0386412	
-0.00131667	0.0117507	-0.0220918	
0.0142183	0.0813467	-0.0424275	
9.49249e-05	0.0237019	-0.0326039	
0.00045894	0.0240895	0.0395158	
0.00513079	-0.00204271	-0.00190113	
0.00193445	0.043911	0.00747222	
0.000884098	-0.000701511	0.00249098	
0.00957531	0.0664635	-0.0458688	
0.0153092	0.0854309	-0.030462	
0.0184207	0.0946045	0.017382	
-0.00080641	0.0500205	-0.0510387	
0.00554201	0.0188366	0.0254761	
0.00316122	-0.0104006	0.00991129	
-0.00237779	0.0393468	0.0125088	
-0.000687171	0.0042625	0.000953671	
0.000266233	-0.0049876	0.0106376	
0.00107542	0.00184205	-0.0015073	
0.0105753	0.0502963	0.00753326	
-0.000576083	-0.0125273	0.0047386	
0.0186924	0.0868859	-0.0257227	
-0.000595497	0.0367657	0.0245733	
0.0220366	0.0844618	0.0196082	
-0.0105817	0.0327798	-0.0387422	
0.00378924	0.0519116	0.020153	
0.0206054	0.091167	0.000480053	
0.00060052	0.000217137	0.000201019	
0.0185892	0.0873364	-0.0135439	
0.00177988	0.0812431	0.00973833	
0.00861768	-0.0031468	0.0205006	
-0.0091147	0.0573399	0.0231849	
-0.0141399	-0.00711877	-0.0243385	
-0.129949	-0.0644032	-0.0358157	
0.0251803	0.00895395	0.0459327	
0.00104761	0.0117122	-0.014195	
0.0152083	-0.0255462	0.0481742	
-0.00455623	-0.0177905	0.067214	
-0.0139773	-0.00992532	0.0596559	
0.0176366	-0.0176453	0.0517203	
0.0218604	-0.0136008	0.0336789	
0.0107618	-0.00164159	0.0175128	
0.0161826	-0.0253013	0.0509424	
0.0253228	-0.0278145	-0.0334312	
0.0122767	-0.00208297	0.0491014	
0.00237259	-0.00944913	0.027317	
0.00764214	0.0145114	0.0539601	
0.0071124	0.0079735	0.0403144	
0.0344966	-0.0202571	0.0334564	
0.0125894	-0.0192778	0.0261266	
-0.00197826	-0.0204687	-0.000650171	
0.0129468	-0.0300904	0.0492498	
0.00892371	-0.000520482	0.0497367	
0.00970689	-0.0244513	0.00324865	
-0.00142831	-0.00140178	0.0200822	
0.0158134	-0.0168972	0.0562867	
-0.00742938	0.00771628	-0.0203585	
0.0221698	0.00423924	0.039515	
0.00399559	0.0098543	0.0310717	
0.00869848	0.0154935	0.0153664	
0.00276124	-0.0180929	0.0777049	
-0.00368395	0.0171473	0.0380406	
-0.00393559	0.00380435	0.0188273	
0.00828976	0.0122094	0.0433898	
0.00480134	0.00809939	-0.010882	
0.0014125	0.000138366	-0.00481689	
0.00157791	-0.00192305	0.0256407	
0.0202943	-0.0210052	0.0497722	
0.0107616	-0.00393162	0.0523072	
0.0107019	-0.0607379	0.00432211	
0.000906372	-0.00158832	-0.0378255	
-0.00508039	0.00199938	-0.0331245	
-0.00827282	-0.0444529	-0.00142231	
-0.0109051	0.014381	-0.00962964	
-0.0151679	0.0091557	-0.0238344	
0.00817003	0.00180292	-0.0542958	
0.0124538	-0.00302217	-0.0584544	
0.0029173	-0.00969373	0.00102471	
0.00217278	-0.00712337	0.00141177	
0.000481394	0.00116273	-0.00343173	
0.00294309	-0.00351452	0.00682332	
0.0150956	-0.0168325	-0.0674233	
-0.0122653	-0.0149224	-0.0488075	
-0.0121733	-0.0460328	-0.0246055	
0.0181979	-0.0370652	-0.0611278	
0.00108236	-0.00498922	0.000730295	
0.00016971	-0.0061236	-0.000626256	
-0.000404475	-0.00509828	-0.00250028	
-0.00205064	0.00538357	-0.00456681	
-1.59173e-05	0.000376998	0.00410825	
-0.00213332	-0.00227992	0.00034717	
-0.00188998	0.000810359	-0.00208172	
0.00695743	0.00256777	-0.0083251	
-0.0167298	-0.0468576	0.0137965	
0.0515629	-0.0455709	-0.057839	
0.0174998	-0.0453024	-0.0548732	
0.00221192	-0.0580676	-0.0416775	
-0.00415546	0.000815723	-0.0355557	
0.00344878	-0.0588737	-0.0149151	
0.00825038	-0.0503458	-0.0485814	
-0.00324516	0.00384703	-0.0429587	
0.00561792	-0.0535015	-0.0290114	
0.000768949	-0.0682982	-0.0429823	
0.00263226	-0.0108145	-0.0144818	
1.42408e-06	6.67024e-06	9.34113e-06	
0.0088865	0.0127644	-0.0167682	
-0.00132635	0.00361539	0.00659843	
0.0127414	-0.019198	-0.0198207	
-0.0223979	-0.00359667	0.0260965	
0.00443191	-0.00177549	-0.0107954	
0.00701871	-0.00049354	-0.0130207	
0.0193619	0.0167312	-0.00664921	
0.0035545	0.0141313	-0.000379441	
0.00725818	0.00237954	-0.0124896	
0.00691013	0.0193178	0.0021124	
0.0108036	0.0054786	-0.0125023	
0.026201	-0.000404118	0.0394736	
-0.00306081	-0.00265787	0.00325877	
-0.00178306	-0.00220961	0.0283344	
-4.9568e-05	0.0017241	0.00158818	
0.00720047	0.0153475	-0.00294176	
0.00260541	0.013529	0.00181043	
0.00240111	0.00887051	0.00705569	
0.000798221	0.00591605	-0.00892301	
0.0182937	0.00299848	0.0281828	
0.00508958	-0.00511684	0.01126	
0.00454448	0.00230613	0.0328574	
0.000301952	7.86744e-05	-2.71091e-05	
0.00306448	-0.00448598	0.0110718	
-0.000315845	-0.000277836	-4.51433e-05	
-0.00806523	-0.00400342	0.0230601	
-8.08496e-06	0.000184225	-8.55843e-05	
-0.000856613	0.0110991	-0.00160668	
0.00542666	0.000826277	0.00150111	
-0.00904069	0.00508532	0.00800866	
-0.00140266	0.00368209	-0.0074348	
-0.00352282	-0.00136984	0.0126577	
0.0030123	0.00954258	0.00648363	
-0.000865927	0.000907442	0.000599538	
-0.000579164	0.0102726	0.00137355	
0.00463355	0.00248247	0.00714796	
0.0017695	-0.00209069	-0.000637149	
0.00527648	0.00162717	0.00473968	
-0.00100756	-0.0126911	-0.00576184	
0.0249313	-0.104525	-0.12079	
-0.0108505	0.00108135	0.00298306	
0.000640399	0.00690274	0.00154205	
-0.00410445	-0.00395485	0.00359398	
0.0136524	0.000384392	0.0164583	
-0.0275626	-0.00477467	0.00669793	
0.0114073	-0.000260411	0.00383874	
0.00220159	-0.00798965	-0.000537697	
-0.0023575	0.0009258	0.00662926	
0.00102868	-0.00191198	0.00764802	
-0.00246578	-0.00541482	-0.0120067	
0.0109856	0.000595358	0.00612335	
-0.00136931	-0.0019984	0.00490811	
0.0100093	0.0036075	0.00926433	
0.0096083	0.00264711	0.00555747	
0.000163806	-0.00299807	0.00489861	
-0.00392108	-0.0154688	-0.00825457	
0.00299713	-0.00443727	-0.00273208	
-0.00044024	-0.00305883	0.00634635	
-0.00216441	0.000972006	-0.000721014	
0.00213103	-0.0018551	0.00112514	
0.000201031	0.00225423	0.000816135	
-0.00164484	-0.00275133	0.00553566	
-0.00049997	0.000487154	-0.00132609	
0.0235351	0.0113984	0.014323	
0.00888991	0.00471918	0.00423414	
0.0125805	0.0154787	0.00481563	
0.0297125	0.000830867	0.0169745	
-0.00142952	0.00337529	0.00479591	
-0.000217535	0.000303147	0.000725987	
-0.000120053	0.00342835	0.0061489	
0.00214221	0.00630549	0.0010386	
0.000365601	-8.80847e-05	-0.000899628	
0.000218644	0.00038968	0.0062192	
-0.000288455	-0.00313036	0.00531156	
-0.00154565	-0.00115987	0.0073588	
0.0263734	-0.0207867	-0.00733057	
0.00966797	-0.0119745	-0.0211954	
-0.0139803	0.0189962	-0.000376394	
0.000547087	-0.00673618	-0.000388826	
-0.00545145	0.0211875	-0.000301458	
-0.0122325	0.0259417	0.00305544	
-0.00798348	-0.00175503	-0.0161955	
-0.00627764	-0.00124083	-0.0120683	
0.00122727	-0.0059561	0.0058048	
0.000308106	-0.00302586	0.00406065	
-0.000859069	0.0026514	0.000346828	
-0.00259254	7.77642e-05	0.00276275	
0.000902213	0.00015481	-0.0083725	
-0.0294489	-0.0131068	-0.0281794	
-0.0235182	0.0179396	-0.00751259	
0.00283925	-0.00279009	-0.00900311	
0.00115602	-0.00297591	0.00305658	
0.000815948	-0.00227166	0.00318506	
0.000484664	-0.00234941	0.00235435	
-0.00107246	0.00846686	-0.00128398	
-0.000282334	-0.000206091	0.00149508	
0.00107963	-3.15193e-05	-7.04562e-05	
7.29985e-05	-6.45506e-05	0.000821858	
-0.000397895	-6.71113e-05	0.000252568	
-0.0010751	-0.00461963	0.00280034	
0.0530071	-0.034341	-0.0369184	
0.0048707	-0.00413915	-0.00916685	
-0.00132402	-0.0082294	-0.00457583	
-0.0104014	0.0151408	-0.00305534	
-0.00146164	-0.00235639	-0.00105205	
0.000927835	-0.00716203	-0.00677294	
0.00121726	0.000483042	-0.000898619	
0.0112709	-0.00759219	-0.00979108	
0.000330733	-0.00640385	-0.00347973	
0.000999577	-0.003043	-0.00286848	
0.000131062	0.000696515	0.00107456	
0.000149153	7.76542e-05	-5.94385e-05	
-0.00168892	0.00402372	0.00621298	
0.0120703	-0.0250718	-0.00683624	
0.000533972	-0.0118919	0.0330905	
0.00580417	-0.0023957	-0.0101468	
0.00873284	-0.00197412	-0.0115862	
0.0213922	0.000194158	-0.0120022	
0.00371422	0.00238427	-0.0066055	
0.00909435	-0.000574944	-0.0102082	
0.0115303	0.00215858	-0.0108442	
0.0120755	-0.000187927	-0.0101484	
0.0141555	0.0131042	0.0441626	
0.000627671	-0.0028696	0.00517476	
0.000171643	-0.000496313	0.0292709	
-0.00110418	0.0026492	0.00121738	
0.00950257	0.00139267	-0.00761814	
0.00241683	0.00256002	-0.00604911	
0.000361048	0.00359582	-0.00213073	
-0.000620026	0.00118581	-0.00257456	
0.00990356	0.00806358	0.0319383	
0.00613319	-0.00492393	0.0110447	
0.00231402	0.00302199	0.0340315	
0.00024138	1.47144e-05	-1.79773e-05	
0.00502591	-0.00547117	0.0107119	
-2.22381e-05	-1.25626e-05	-0.000166957	
-0.00190485	-0.00460383	0.0246127	
-8.16746e-06	6.47347e-05	-3.55036e-05	
-0.0011157	0.00285819	0.000501061	
0.00172722	0.000317377	-3.69114e-05	
-0.000309257	-0.000957731	0.0110271	
-0.000625115	0.000641263	-0.00203669	
-2.50398e-05	-0.00305331	0.0124404	
0.000359405	0.00395421	-0.0050052	
-0.000546409	-0.000127993	0.000145286	
-0.000487313	0.00282086	-0.000221458	
0.00172817	0.0017711	0.000354347	
0.000889353	-0.000868823	-0.000132384	
0.00186275	0.00107205	0.000185876	
-0.00127569	-0.013292	-0.00440651	
-0.0166148	-0.109605	-0.127278	
-0.00442945	-0.00749343	0.000537915	
0.00144706	0.00645432	0.00249081	
-0.00192239	-0.00270372	0.000605936	
0.00780092	0.0147222	0.0073335	
-0.015901	-0.0227798	-0.00315136	
0.00705585	0.00807422	0.00234116	
-0.00193762	-0.00656149	-0.0045014	
0.00229337	-0.000472325	0.00586415	
0.00146426	0.00305019	0.00370141	
-0.00272238	-0.0106649	-0.00965537	
0.00794572	0.00801553	0.003482	
-0.000825116	-0.00210176	0.00113523	
0.00482587	0.0115848	0.00320796	
0.00775266	0.00719444	0.00257472	
0.000346066	-0.000745867	0.00158605	
-0.00623587	-0.0145426	-0.0105565	
-0.00147806	-0.00416994	-0.00414918	
-0.00016512	-0.000435892	0.00204766	
-0.000461929	0.000418637	-0.000246209	
0.000632105	-0.000555227	0.000297151	
-0.000631768	0.00032956	0.000200073	
-0.000366605	-7.65384e-08	0.00187672	
-0.00015637	0.000148157	-0.000399078	
0.0123807	0.0235606	0.00877346	
0.00767804	0.00719557	0.00162837	
0.0122073	0.0164607	0.0030946	
0.0113404	0.0294698	0.0039794	
-0.00102809	0.000750429	0.00150838	
5.80112e-05	-8.89996e-05	-0.000149746	
-0.00105088	0.00101811	0.00182937	
0.00245524	0.00609997	0.00182878	
0.0002412	-0.000105198	-0.000502739	
-0.000201184	6.17999e-05	0.00209881	
7.00201e-05	-0.000543789	0.00164537	
-0.000654027	0.000403212	0.00236508	
0.0294452	-0.017759	-0.00410381	
0.0143182	-0.00470325	-0.02434	
-0.00520026	0.0227947	0.00440303	
0.00163479	-0.00278326	0.000114368	
-0.00577214	0.0209207	-0.000861878	
-0.00695143	0.0275798	0.00533745	
-0.0078635	0.0109327	-0.0111629	
-0.00689059	0.00893443	-0.00649076	
0.00233304	-0.00754702	0.00383936	
4.65927e-05	-0.00483929	0.00259826	
-0.000452863	0.00249361	-0.000697381	
-0.0023983	-0.000321341	0.00338876	
5.10166e-05	0.000671946	-0.00244029	
-0.0290136	0.0187318	-0.0277572	
-0.00852305	0.0264024	-0.0138081	
0.00156349	-0.00195902	-0.00226425	
0.0010989	-0.00402762	0.00162931	
0.000877584	-0.00373935	0.00197102	
0.000370528	-0.00348679	0.000869903	
-0.00194133	0.00752795	-0.00230899	
0.000103975	0.000413342	1.16653e-05	
-0.000267022	-8.43414e-05	3.49271e-05	
-0.000197238	3.11586e-05	8.2202e-05	
0.000313942	3.93469e-05	-0.000201717	
-0.00040521	-0.00116026	0.00117673	
0.0449192	-0.0550686	0.0141935	
0.00413798	-0.0034155	-0.00175028	
-0.00145184	-0.00229988	-0.00173984	
-0.00318993	0.0185369	-9.76758e-05	
-0.0005859	-0.000637522	-0.000253423	
6.92155e-05	-0.00237492	-0.00208126	
0.000609688	-3.7755e-05	-0.000289423	
0.0131549	-0.00508338	-0.00167327	
3.41871e-05	-0.00210529	-0.000903265	
8.37659e-05	-0.000870621	-0.000727928	
-4.28621e-05	-0.000206102	-0.000332301	
0.000428128	9.97112e-05	-0.000173103	
-0.00216797	0.00437491	0.00560915	
0.00981152	-0.0253959	-0.00154379	
-0.00565337	-0.00193185	0.0354303	
0.0064057	-0.00245852	-0.00998343	
0.00879763	-0.00299252	-0.0117542	
0.0149486	-0.00883176	-0.0186615	
0.00109003	0.000149666	-0.00841733	
0.00849141	-0.00290592	-0.0108662	
0.0053065	-0.00349645	-0.0152012	
0.0103103	-0.00412179	-0.0118464	
0.017607	0.00902156	0.0449651	
0.00409506	-0.000649606	0.005189	
0.000405918	0.000656709	0.029735	
-0.00139627	0.0033167	-0.00252416	
0.00438079	-0.00301575	-0.0115892	
0.00112922	0.0013446	-0.00721237	
0.00113267	0.00354233	-0.00246126	
-0.00143532	0.00111265	-0.00253395	
0.0111492	0.00899121	0.0319508	
0.00352165	-0.00244391	0.0130853	
0.003554	0.0038816	0.0343671	
-3.52302e-05	-0.00010492	-0.000127429	
0.00434215	-0.00623872	0.0112244	
0.000126442	0.000113241	4.42554e-05	
-0.00270338	-0.00275038	0.0254907	
-3.82315e-05	0.000230879	-0.000146612	
-0.00119535	0.00348136	-0.000554183	
0.00165535	0.000485098	-6.2093e-05	
-0.00301345	0.00267148	0.0107732	
-0.00102497	0.00053146	-0.00188333	
-0.00131747	-0.00107643	0.0132308	
0.00196632	0.00334183	-0.00565832	
-0.000541868	-2.29313e-05	0.000208284	
-0.000339484	0.00332144	-0.00125958	
0.00204833	0.00202583	0.000288058	
0.00101887	-0.000802716	-0.000153907	
0.0020538	0.00115682	0.000240127	
-0.00267597	-0.0135829	-0.00333088	
-0.0245356	-0.0236203	-0.171764	
-0.00441557	-0.00569677	0.000314633	
0.00236794	0.00608225	0.00239102	
-0.00188552	-0.00258564	0.000661377	
0.00738145	0.0138895	0.0073369	
-0.010099	-0.0250999	-0.00363007	
0.00506179	0.00978623	0.00281697	
-0.00291549	-0.00641232	-0.00477549	
0.00479907	0.0026389	0.00428468	
0.0018887	0.00344302	0.00414978	
-0.00652012	-0.00586302	-0.0115043	
0.00548645	0.0103522	0.00343657	
-0.000309755	-0.00186544	0.000937277	
0.00594114	0.0117428	0.00383191	
0.00566571	0.00946365	0.00217822	
0.000703911	-0.000521391	0.00184652	
-0.00563521	-0.0155354	-0.0100884	
0.000144089	-0.00374832	-0.00487428	
-0.000489277	-0.00113538	0.00166518	
-0.000703711	1.53046e-05	-6.60814e-05	
0.000872733	-0.000215549	0.00034502	
0.000395322	0.000616707	-0.000191422	
-0.000343048	-8.26167e-05	0.00187657	
-0.000120902	0.000113353	-0.000291711	
0.0128731	0.0223634	0.0110675	
0.00617335	0.00894947	0.0010213	
0.0114921	0.0175096	0.00206164	
0.0144542	0.0269545	0.00605878	
-0.000863208	0.000602366	0.00134873	
4.78477e-05	-6.37682e-05	-0.000100746	
-0.000930257	0.000913163	0.00161987	
0.00300368	0.00591422	0.00179729	
0.000247025	-0.000132058	-0.000474455	
-0.000221991	-3.89461e-05	0.00166637	
9.50859e-05	-0.000602248	0.00171443	
-0.000553152	0.000318454	0.00228073	
0.0319236	-0.0150272	0.0041996	
0.0120543	-0.0081041	-0.02333	
-0.00824166	0.0227737	0.0018464	
0.00158729	-0.00254536	0.00140293	
-0.00616685	0.0211904	-0.00102846	
-0.00940224	0.0275579	0.00410318	
-0.00384916	0.0152073	-0.00818109	
-0.00390253	0.011702	-0.00495512	
0.00193684	-0.00703381	0.00438754	
0.000641438	-0.00422308	0.00310777	
-0.000626116	0.00263766	-0.000409602	
-0.000800537	0.00179914	0.00324994	
0.000360414	0.000613162	-0.00246967	
-0.0168948	0.0335724	-0.0257053	
-0.0133886	0.023754	-0.0158538	
0.00067166	-0.00232984	-0.00202447	
0.00105077	-0.00363871	0.0019973	
0.000848488	-0.00331978	0.00229464	
0.000532698	-0.00311671	0.00137218	
-0.00181936	0.00789291	-0.00208668	
1.29962e-05	-0.000145619	8.34328e-05	
0.000109352	2.69296e-05	-1.51317e-05	
5.83784e-05	2.75622e-07	-6.89792e-05	
0.000117817	1.81141e-05	-8.34558e-05	
-0.000676612	-0.000766512	0.00125076	
0.0386696	-0.0595734	0.0143355	
0.00253058	-0.00497751	-0.000530026	
-0.000712908	-0.0021634	-0.00176925	
-0.00568805	0.0180505	-0.00281071	
-0.000577937	-0.000857087	-0.000283466	
-0.000155019	-0.00242175	-0.00193182	
0.00065642	1.76678e-05	-0.000336585	
0.0114523	-0.00653249	0.00467283	
-0.000174132	-0.00208446	-0.000673532	
-9.37382e-05	-0.000819269	-0.000809557	
8.61883e-06	4.06172e-05	6.56761e-05	
0.000291117	8.83655e-05	-0.0001347	
-0.00282768	0.0042635	0.00527409	
0.0226187	-0.0110265	0.00596307	
-0.00720349	-0.00204952	0.0359538	
0.0068731	-0.00260533	-0.0101845	
0.00849523	-0.00376702	-0.0123366	
0.0122934	-0.0100849	-0.0209405	
0.00230216	0.000510155	-0.0080656	
0.00773563	-0.00422625	-0.0117095	
0.00682651	-0.0023872	-0.0149277	
0.00888498	-0.0056852	-0.0131432	
0.0155022	0.0119434	0.0460663	
0.00515875	-0.00071671	0.00497935	
0.000976781	0.00224073	0.0301216	
-0.0048155	0.000736623	-0.000569877	
0.00491021	-0.00268498	-0.0115596	
0.00216605	0.00134396	-0.00679595	
0.00141612	0.00349492	-0.00266462	
-0.00173747	0.00116061	-0.00255947	
0.0107197	0.0101474	0.0325091	
0.0054657	-0.0053714	0.0116783	
0.00396622	0.00505416	0.0351187	
-3.84873e-05	2.01136e-05	-0.000167687	
0.00411286	-0.00436634	0.0127247	
0.000145006	-6.43388e-06	-4.03364e-05	
-0.00311459	-0.00162668	0.026269	
-2.21465e-05	0.000110036	-7.74176e-05	
-0.00109839	0.00317386	-0.000352988	
0.00178655	0.0005175	-5.76652e-05	
-0.0032625	0.00245816	0.0110424	
-0.00144258	0.00057474	-0.00216413	
-0.0015224	-0.000587055	0.0138212	
0.0022079	0.00323082	-0.00556591	
-0.000499984	-3.67551e-05	0.000158969	
-0.000256013	0.0030589	-0.00107621	
0.00221019	0.00215437	0.000421722	
0.000975709	-0.00080083	-7.3613e-05	
0.00221654	0.00125464	0.000351514	
-0.00409691	-0.0135964	-0.00237772	
-0.0039905	-0.112613	-0.142418	
-0.00368711	-0.00489275	0.000332498	
0.00308113	0.00576332	0.00237066	
-0.00174941	-0.00252824	0.000473807	
0.00697024	0.0136976	0.006961	
-0.0121831	-0.0236294	-0.00334563	
0.00583378	0.00952936	0.00271291	
-0.00312976	-0.00656296	-0.00516499	
0.000677666	0.00088469	0.00569599	
0.00194271	0.00378598	0.004117	
-0.00891468	-0.00212093	-0.0106537	
0.00610712	0.0100917	0.00373379	
-0.000320593	-0.00144861	0.000751299	
0.00661071	0.0122859	0.00372193	
0.00562787	0.00965436	0.00238501	
0.000731376	-0.000388923	0.00166062	
-0.00570252	-0.0150941	-0.0105903	
-0.00496628	-0.00262517	-0.00258271	
-0.000532371	-0.00122252	0.0012469	
0.000445149	6.63345e-05	8.71478e-05	
0.000658205	-0.000530195	0.00026808	
-0.000381057	0.000394702	0.000277673	
-0.000306836	-7.62657e-05	0.00169732	
-0.00010666	9.95901e-05	-0.000245007	
0.0133762	0.0226857	0.0100516	
0.00578797	0.00939617	0.0011721	
0.0110169	0.0181068	0.00212227	
0.0140434	0.0266791	0.00553892	
-0.000706025	0.000549009	0.00111387	
2.34755e-06	-5.53755e-06	-6.91885e-06	
-0.000816195	0.000804377	0.00139322	
0.00327537	0.00580897	0.00195173	
0.000136512	-7.64536e-05	-0.000254735	
-0.000154136	-3.55941e-05	0.00135335	
7.54434e-05	-0.000612971	0.00159671	
-0.000469246	0.000278129	0.00189878	
0.0320342	-0.0118819	0.011856	
0.0121314	-0.0075806	-0.0235652	
-0.00826594	0.0230725	0.00186483	
0.0014604	-0.00224695	0.00225787	
-0.00625571	0.0213157	-0.00111111	
-0.0093986	0.0278957	0.00354389	
-0.00420803	0.0148808	-0.00901905	
-0.00494997	0.0111165	-0.00569437	
0.00203238	-0.00713002	0.00413359	
0.000522558	-0.004378	0.00293842	
-0.000617081	0.00268669	-0.000469921	
-0.000901323	0.00200428	0.00316052	
0.000216624	0.000607226	-0.00219266	
-0.0175104	0.0344541	-0.0261283	
-0.0138793	0.024524	-0.0151581	
0.000655557	-0.00210612	-0.00178562	
0.00103485	-0.00367504	0.00184572	
0.000884789	-0.00343399	0.00214169	
0.000467772	-0.00320899	0.00121639	
-0.00188055	0.00789549	-0.00213095	
-1.12039e-05	-6.14374e-07	-4.60445e-06	
-1.12181e-05	-3.17518e-06	1.55485e-06	
9.7153e-08	-4.9353e-06	5.07942e-06	
0.000125199	2.0301e-05	-8.7111e-05	
-0.000711785	-0.000342035	0.000902834	
0.0415322	-0.0573203	0.0127644	
0.00221622	-0.00486136	8.43338e-05	
-0.000318287	-0.00205108	-0.00129056	
-0.00592108	0.0182072	-0.00265438	
-0.000385988	-0.00058553	-0.000228326	
-0.000169496	-0.00202485	-0.00156213	
0.000431101	6.71206e-06	-0.00023315	
0.00932908	-0.00683661	0.00758618	
-0.000272938	-0.00184709	-0.000567565	
-0.000128391	-0.000749317	-0.000760384	
-5.75144e-06	-2.85654e-05	-4.64462e-05	
0.000227117	6.84152e-05	-0.000108695	
-0.00288371	0.00450066	0.00451819	
0.0235522	0.00107648	0.00888073	
-0.00590125	-0.00467065	0.0367283	
0.00684033	-0.0024917	-0.0106267	
0.00818284	-0.00425288	-0.0127819	
0.0134455	-0.00941666	-0.0208857	
0.00270385	-2.18991e-05	-0.0080987	
0.00715502	-0.0046045	-0.0120732	
0.00720181	-0.00286451	-0.0147015	
0.00851278	-0.00598712	-0.0132962	
0.0151414	0.013724	0.046183	
0.00210419	-0.00319569	0.00643809	
0.00203013	0.0012874	0.030794	
-0.00492359	0.000500964	-0.00152108	
0.00538821	-0.00272585	-0.0114057	
0.00237942	0.000899087	-0.00700943	
0.000871137	0.00271491	-0.00155194	
-0.00121598	0.000827012	-0.00175901	
0.0103145	0.010556	0.0329771	
0.00687256	-0.00483878	0.0113049	
0.00472161	0.0045399	0.0357611	
-6.70939e-05	-4.49856e-05	-6.19802e-06	
0.0054492	-0.0054674	0.0121486	
4.86276e-05	4.12506e-05	-2.20265e-05	
-0.00229801	-0.00272684	0.0267956	
-0.000109944	0.000500085	-0.00037446	
-0.00108494	0.003148	-0.000180001	
0.000929069	0.000257737	-8.25801e-05	
-0.00294657	0.000983598	0.0116713	
-0.00103077	0.000386465	-0.00141001	
-0.00155368	-0.00152849	0.0142224	
0.00198418	0.00282087	-0.00538247	
-0.000222523	-5.91405e-05	6.37419e-05	
-0.000222489	0.00289998	-0.00100399	
0.00129828	0.00124234	0.000196414	
0.000426592	-0.000345069	-4.82649e-05	
0.00122501	0.000672848	0.000137252	
-0.00493255	-0.0134021	-0.00153148	
0.00987218	-0.027953	-0.18296	
-0.00336367	-0.0048306	0.000209351	
0.00351524	0.00560874	0.00268184	
-0.0016758	-0.00264967	9.14499e-05	
0.00668701	0.0137466	0.00660212	
-0.0118757	-0.0236626	-0.00286691	
0.00599251	0.00957846	0.00332262	
-0.00303271	-0.00673182	-0.00565506	
0.00275465	-0.00291273	0.00362005	
0.001834	0.00381041	0.00374807	
-0.00945479	-0.00343119	-0.0099769	
0.0059521	0.010189	0.00457005	
-0.00016713	-0.00126873	0.000931233	
0.00654035	0.0127852	0.00338794	
0.00543821	0.00980097	0.00337238	
0.000461174	-0.000366185	0.00108735	
-0.00489666	-0.0152595	-0.0108396	
-0.000440889	-0.00558375	-0.00278189	
-0.000413407	-0.00100805	0.000840941	
0.000200686	0.000197037	-0.000131754	
0.000547304	-0.000282804	-5.67067e-05	
0.000297422	-0.0001857	-0.000166764	
-0.00024214	-6.29256e-05	0.00144749	
7.16108e-06	-6.43003e-06	1.63959e-05	
0.0132006	0.0232563	0.00956138	
0.00555631	0.00981694	0.00232527	
0.0106916	0.0187697	0.00310531	
0.0133146	0.0272124	0.00497497	
-0.000730804	0.000585729	0.00112241	
-0.000360844	0.000376505	0.000662939	
-0.000720172	0.00071042	0.00118682	
0.00329206	0.00590632	0.00242562	
-0.000198884	0.000106841	0.000360229	
-0.000177283	-6.42426e-06	0.00136845	
7.99259e-05	-0.000491179	0.00126312	
-0.000376377	0.000243881	0.00152764	
0.0303599	-0.0106928	0.0183793	
0.0107887	-0.00758033	-0.0238487	
-0.00815793	0.0233259	0.00227588	
0.00116536	-0.00227606	0.00260256	
-0.00631045	0.0214803	-0.00112296	
-0.00944868	0.0281206	0.00349118	
-0.00509866	0.014764	-0.00916534	
-0.00563528	0.0111834	-0.00531626	
0.00196947	-0.00701392	0.00415219	
0.000676151	-0.0042326	0.00301909	
-0.000641869	0.00275234	-0.00044037	
-0.000322171	0.00116976	0.00358012	
-6.93919e-05	0.000771685	-0.00161077	
-0.0193356	0.0346211	-0.0261685	
-0.0138303	0.0252265	-0.0147038	
0.000727229	-0.00175382	-0.00139435	
0.00101707	-0.0035809	0.00185545	
0.000879545	-0.0033642	0.00216599	
0.00051919	-0.00314697	0.00124755	
-0.00188264	0.00799176	-0.0021197	
2.84564e-05	-2.4611e-05	2.78052e-05	
2.76832e-05	8.02851e-06	-3.43901e-06	
1.50538e-05	2.38414e-06	-1.94927e-05	
0.000102078	1.61938e-05	-7.06151e-05	
-0.0010288	-0.000254559	0.0010764	
0.0418988	-0.0567958	0.0126722	
0.00257958	-0.00422532	0.000295179	
-0.000205476	-0.00174549	-0.00105022	
-0.00581473	0.018383	-0.00234102	
-0.000295123	-0.000436467	-0.000191695	
-8.97954e-05	-0.00153993	-0.00123919	
0.000335376	4.86228e-06	-0.000184434	
0.0083286	-0.0071654	0.00840863	
-0.000358351	-0.00184367	-0.000622104	
-9.44051e-05	-0.000486103	-0.000502134	
-1.05559e-06	-5.5225e-06	-8.87673e-06	
0.000190381	5.71998e-05	-9.13667e-05	
-0.00325868	0.00413834	0.00443114	
0.0226289	-0.00377383	0.00889849	
-0.00465106	-0.00617364	0.0370853	
0.00735146	-0.00278595	-0.0103584	
0.0083205	-0.00426261	-0.0124896	
0.0138124	-0.00991873	-0.0207579	
0.00268135	-0.000725277	-0.00733837	
0.00784089	-0.00456681	-0.0116691	
0.00739885	-0.00365007	-0.0146152	
0.00899173	-0.00583078	-0.0130995	
0.0144571	0.0138686	0.0466612	
0.00228773	-0.00258071	0.0068179	
0.00224435	0.000889439	0.0311328	
-0.00456829	0.00176307	-0.00229468	
0.00578075	-0.00342469	-0.0110478	
0.00220063	-0.000194908	-0.0060988	
0.000740336	0.00105378	-0.00124382	
-0.000803793	0.000546121	-0.00115866	
0.0101786	0.0106835	0.0332269	
0.00743762	-0.00682925	0.00989389	
0.00503766	0.00435288	0.0360477	
-1.86612e-05	-6.23629e-05	-3.05533e-05	
0.00545277	-0.00621279	0.0119779	
2.38784e-05	4.27854e-05	3.39589e-05	
-0.00174033	-0.00318041	0.026925	
-3.08564e-05	0.000124561	-9.45575e-05	
-0.000857803	0.00157529	0.000899588	
0.000515763	0.000138658	-5.89909e-05	
-0.00249472	-0.000217846	0.0119527	
-0.000647189	0.000247069	-0.000862463	
-0.00139869	-0.00200601	0.014368	
0.00183223	0.000954591	-0.00500942	
-0.000158952	-2.09483e-05	5.34831e-05	
-7.97004e-05	0.00109086	-0.000378228	
0.000591218	0.000568456	6.22377e-05	
0.000272294	-0.000220506	-3.35016e-05	
0.000568203	0.000307821	4.08309e-05	
-0.00616382	-0.0132886	-0.00152246	
0.00428703	-0.0511501	-0.181288	
-0.00224233	-0.00331648	0.000176566	
0.00373701	0.00550069	0.00181922	
-0.00137172	-0.00248323	-0.000415946	
0.00588499	0.0128002	0.00544887	
-0.0120388	-0.0227199	-0.00414121	
0.00587075	0.00974051	0.00175389	
-0.00285767	-0.00678232	-0.00601793	
-0.00151159	-0.00308462	0.00452517	
0.00205694	0.00491654	0.00367882	
-0.00281276	-0.00304154	-0.0139537	
0.00657719	0.0100716	0.00306055	
-0.000272693	-0.000736215	0.000149641	
0.00726492	0.0132501	0.00253294	
0.00639707	0.00931909	0.0020563	
0.000894552	0.000567205	0.00166668	
-0.00550424	-0.0145652	-0.0124726	
-0.000160219	-0.004202	-0.00487222	
-0.000878017	-0.00216744	-3.94703e-05	
0.000190981	8.94886e-05	-0.000105211	
0.000356498	-0.000249314	6.03222e-05	
0.000317252	-7.68718e-05	2.35277e-05	
-0.00011235	-2.915e-05	0.000706445	
-0.000209631	0.000200298	-0.000454989	
0.0132934	0.0232482	0.00875422	
0.00644059	0.00904801	0.000933575	
0.0114069	0.0181457	0.00214022	
0.0127253	0.0260939	0.00373787	
-0.000297634	0.000235176	0.000452019	
0.000372685	-0.000385085	-0.000696154	
-0.000489391	0.000471703	0.000787828	
0.00371195	0.00574608	0.00143879	
0.000429061	-0.000236157	-0.000785737	
-8.95501e-05	3.89097e-06	0.000634188	
4.13697e-05	-0.000234844	0.00058884	
-0.000311416	0.000201386	0.0012862	
0.0289911	-0.0112633	0.0201566	
0.0103996	-0.00751464	-0.0238947	
-0.0081636	0.0234134	0.0024611	
0.00199967	-0.00194989	0.00244996	
-0.00632486	0.0215043	-0.00108488	
-0.00938626	0.0282839	0.00335133	
-0.00543869	0.0150099	-0.00882903	
-0.00605367	0.0114871	-0.00494023	
0.00197743	-0.00698107	0.00409037	
0.000779272	-0.00423395	0.00295461	
-0.000658055	0.00279188	-0.000437171	
-0.00030248	0.000760477	0.00367852	
-3.7987e-05	0.000648052	-0.00127458	
-0.0196825	0.0357421	-0.0256063	
-0.0139065	0.0257132	-0.0144474	
0.000435995	-0.00106533	-0.000915418	
0.00100808	-0.00354358	0.00181876	
0.000842162	-0.00337023	0.00214247	
0.000526973	-0.00314438	0.00121535	
-0.00190265	0.00803509	-0.00214657	
1.61756e-05	-1.52515e-06	9.45716e-06	
9.83517e-06	2.98914e-06	-1.20419e-06	
6.54604e-06	1.61776e-06	-7.02818e-06	
4.93974e-05	7.16732e-06	-3.48663e-05	
-0.000152308	-2.41554e-05	0.000143439	
0.0415955	-0.0566628	0.0129291	
0.0025258	-0.00408511	0.00038285	
0.000503466	-0.00183497	-0.000231934	
-0.00584611	0.0185112	-0.00224139	
-0.000180342	-0.000268782	-0.000124525	
-7.84208e-05	-0.00137461	-0.00116017	
0.000168042	1.49897e-06	-9.36977e-05	
0.00832609	-0.00664897	0.00805937	
-0.000101653	-0.000522968	-0.000191204	
-6.4736e-05	-0.000339275	-0.000359491	
-2.05154e-06	-1.13445e-05	-1.83806e-05	
9.21851e-05	2.67651e-05	-4.49011e-05	
-0.00345985	0.0039395	0.00440773	
0.0174668	-0.012543	0.0109832	
-0.00471339	-0.00621627	0.0373091	
0.00748532	-0.00284953	-0.0104641	
0.0084516	-0.00424261	-0.0127314	
0.0136138	-0.0103893	-0.0213816	
0.00249041	-0.000980832	-0.0068257	
0.00759617	-0.00453286	-0.0122207	
0.00703243	-0.00401731	-0.0142287	
0.00883417	-0.00595585	-0.0135554	
0.0130225	0.0146396	0.0469132	
0.0030136	-0.00256599	0.00683904	
0.00227894	0.00112311	0.0312825	
-0.00460255	0.0029686	-0.00207013	
0.00556008	-0.00361677	-0.0114673	
0.0020183	-0.000503023	-0.00574818	
0.000694568	0.000976165	-0.00112616	
-0.00100673	0.000669407	-0.0014419	
0.0108575	0.0105801	0.0332046	
0.00753536	-0.0068558	0.0098984	
0.00534108	0.00483334	0.0362014	
2.19412e-05	1.36148e-05	4.18594e-05	
0.00569624	-0.0058597	0.0121787	
3.61839e-06	5.73602e-05	2.76958e-05	
-0.00164377	-0.00294332	0.0271201	
-1.06664e-05	3.76731e-05	-2.89632e-05	
-0.000819421	0.00139727	0.00115471	
0.000489529	0.00013339	-5.87989e-05	
-0.00243778	-0.000305812	0.0120692	
-0.000831104	0.000313261	-0.00110854	
-0.00143557	-0.00187291	0.0144433	
0.00172116	0.000866438	-0.00499039	
-0.000193639	6.76116e-06	6.96491e-05	
-6.42155e-05	0.000961969	-0.000325313	
0.000562401	0.000542176	5.82631e-05	
0.000275291	-0.000221701	-3.14837e-05	
0.000557467	0.000308522	3.79261e-05	
-0.00594958	-0.0132625	-0.000988726	
-0.0246	-0.0174781	-0.190352	
-0.00248594	-0.0032068	0.000499215	
0.0037689	0.00551047	0.00270384	
-0.00156984	-0.00242596	0.000197009	
0.0060604	0.0127593	0.00625099	
-0.0111917	-0.0231229	-0.00236462	
0.00599942	0.00994611	0.00384982	
-0.00316817	-0.00722149	-0.00584554	
0.000460573	-0.000588795	0.0052892	
0.00233445	0.00481975	0.00443419	
-0.000320846	-0.0029003	-0.0140671	
0.00584993	0.0107371	0.00488547	
0.000187678	-0.000737665	0.00128414	
0.00673025	0.0136951	0.0034178	
0.0054785	0.0103158	0.00355897	
0.000983008	0.000341576	0.00189883	
-0.00488349	-0.014675	-0.0122445	
-0.00115254	-0.00320526	-0.00552495	
-0.00105376	-0.00235078	0.000176804	
0.0003206	-9.74131e-05	-2.70965e-05	
0.000574526	-0.000407599	3.93061e-05	
0.000340903	-6.4422e-05	-0.000244027	
-0.000229159	-6.70678e-05	0.00145161	
6.29294e-05	-6.09232e-05	0.000138141	
0.0128396	0.0235521	0.00937103	
0.00554478	0.0100216	0.00240148	
0.0107213	0.019084	0.00369895	
0.0126222	0.0265728	0.00513904	
-0.000775962	0.000603039	0.00116721	