<VTKFile type="UnstructuredGrid" version="0.1" byte_order="LittleEndian">
	<UnstructuredGrid>
		<Piece NumberOfPoints="8436" NumberOfCells="8436">
			<CellData Scalars="scalars">
				<DataArray type="Float64" Name="Strength" NumberOfComponents="3" Format="ascii">
-0.00745208	-0.0153572	0.013246	
0.0139404	-0.00944096	-0.0258875	
-0.0122101	0.0716715	-0.0025568	
0.00467727	-0.00686971	-0.00700747	
0.00584537	9.73275e-05	-0.0111367	
0.015699	0.0531304	-0.0334741	
0.0100982	0.0850429	-0.0327135	
0.00223874	0.0167648	-0.0176505	
0.0143463	0.082789	-0.0345163	
0.00438364	0.0300941	-0.0249733	
0.00233732	0.0089469	0.0445611	
0.00420185	-0.0036918	-0.00131263	
-0.0104471	0.040849	0.0118378	
-0.000221655	-0.00221584	0.00158006	
0.00949278	0.0713884	-0.0337841	
0.0113137	0.0859626	-0.0242278	
0.0132961	0.0948439	-0.00639761	
-0.00168705	0.0626494	-0.0309085	
8.19917e-05	0.0135936	0.0285578	
0.00584631	-0.0104118	0.00818072	
-0.0112776	0.0337526	0.0196183	
0.00164944	0.00238587	0.000625905	
0.00409552	-0.004678	0.00975049	
0.00183995	0.000223765	0.0018051	
-0.013171	0.0491644	0.00306396	
-0.000705997	-0.0126591	0.00314024	
0.00711051	0.0875901	-0.021951	
0.00839199	0.0401656	0.0141992	
0.00157236	0.0874877	-0.0059939	
-0.00451117	0.0447932	-0.0231827	
-0.00159189	0.0538018	0.0101447	
0.0103349	0.0904047	-0.0103586	
-0.000506179	0.000377863	0.000186923	
0.00740396	0.0867864	-0.0154061	
0.00325169	0.0781322	0.0181161	
0.0167387	0.0120643	0.00783923	
0.00751037	0.0572617	0.0206445	
-0.0117443	-0.00546787	-0.02517	
-0.0426773	-0.128388	-0.0415604	
-0.00394411	0.00564222	0.0516468	
0.00104751	0.0118639	-0.0134641	
0.0104758	-0.00770027	0.0540242	
0.0226586	-0.0247578	0.0595569	
-0.0130576	-0.0293336	0.0515503	
0.0184014	-0.0119408	0.0516863	
0.0172905	-0.0252468	0.0282343	
0.0117234	0.000530853	0.0165401	
0.00785091	-0.017234	0.0548912	
-0.0149781	-0.0109198	-0.0185606	
0.0107426	-0.0043285	0.0481332	
0.00356349	-0.0111427	0.0258649	
0.00916341	0.00235593	0.0544745	
0.0064354	0.000826216	0.0402295	
0.0138135	-0.031694	0.0377316	
0.0275944	-0.0130147	0.0154735	
-0.00489296	-0.0187294	0.00478042	
0.0131764	-0.0212695	0.0524347	
0.023014	0.00236737	0.0147249	
0.00517137	-0.0248087	0.00543414	
-0.00855539	-0.0137227	0.0116109	
0.00639296	-0.0119907	0.0581579	
-0.00473152	0.00857163	-0.0201888	
0.0227216	0.00864101	0.0373779	
0.00553419	0.00303774	0.0314515	
0.00940765	0.0127688	0.0165465	
0.0370659	-0.0160709	0.0670573	
-0.00178387	-0.000797891	0.0410121	
-0.0009957	-0.00187381	0.0190242	
0.00340056	0.000308256	0.0448056	
0.00321633	0.00884179	-0.010409	
0.00051377	0.000974321	-0.00477234	
0.00252144	-0.00566298	0.0244565	
0.0131534	-0.0255049	0.0488829	
0.00613197	-0.00925716	0.0513361	
0.0157307	-0.0578506	-0.00624605	
0.00070738	0.0229898	-0.0284982	
-0.00999413	-0.000280089	-0.0313622	
-0.00620698	-0.0382361	-0.0211711	
-0.00918327	0.0143441	-0.0106384	
-0.0156925	0.0108448	-0.0220197	
0.00476517	-0.0121154	-0.0521473	
0.00699083	-0.0202073	-0.0544845	
0.00236579	-0.00946293	0.00223374	
-0.00269027	-0.00686298	0.000801334	
-0.000126977	0.000410693	-0.00356447	
-0.000358612	-0.00709876	0.00133658	
0.00839161	-0.0332095	-0.0605123	
-0.0162558	-0.0075838	-0.048132	
-0.0253371	-0.0289223	-0.0358065	
0.00710671	-0.0440522	-0.0566324	
0.000889649	-0.00489005	0.0010066	
0.000579606	-0.00602819	-0.000137162	
0.000530734	-0.00538904	-0.00137379	
-0.00191465	0.00496023	-0.00489011	
0.00278681	-0.00101019	0.00258626	
-0.00187847	-0.00202447	-0.0013892	
0.00122633	-0.00253634	-0.000271285	
0.00392797	-0.00316695	-0.00970588	
-0.0157749	-0.0439426	-0.0188872	
0.0553667	-0.0630545	-0.0266865	
0.0101857	-0.0475572	-0.0525651	
0.00155412	-0.0484073	-0.0503423	
-0.0044465	-0.00393943	-0.0345965	
-0.0121395	-0.0479192	-0.0333344	
0.00655532	-0.0461836	-0.0506206	
0.00980132	-0.00993306	-0.0400323	
0.0124445	-0.0485391	-0.0323811	
0.00503632	-0.0583812	-0.0526906	
0.00102313	-0.011457	-0.0136883	
1.00325e-06	6.78079e-06	9.03485e-06	
0.00773782	-0.00290494	-0.0208477	
-0.00212858	0.00297242	0.00648067	
0.00418554	-0.0215332	-0.020237	
-0.0182772	-0.0016661	0.0285225	
0.00446331	-0.000206945	-0.0105962	
0.00655073	0.000942096	-0.0128185	
0.0197619	0.00898207	-0.0139994	
0.005774	0.0121383	-0.0047756	
0.00684817	0.00330744	-0.0120838	
0.013195	0.0136451	-0.00683273	
0.00977557	0.00493213	-0.0129897	
0.0174916	-0.00346583	0.0430299	
0.000938396	-0.00396878	0.0030758	
0.000920673	-0.00291635	0.0278037	
-0.000563667	0.00200703	0.000845	
0.00961574	0.0115206	-0.00761976	
0.00535518	0.0120526	-0.00332981	
0.00239772	0.0110613	0.000962273	
-0.000989073	0.00878815	-0.00565894	
0.0116213	-0.000835581	0.0310423	
0.00492114	-0.00676715	0.0101229	
0.00426303	-0.00186409	0.032336	
-0.000144524	0.000136898	-0.000123453	
0.00463454	-0.00429887	0.0103522	
0.000402119	-2.65902e-05	-0.000108527	
-0.00591743	-0.000974339	0.023549	
2.67526e-06	0.000189504	-5.45316e-05	
-0.00125527	0.0108513	-0.0014145	
0.00313102	0.0045334	0.000928142	
-0.00784793	0.0058056	0.00835441	
-0.00124322	0.00670836	-0.00458416	
-0.00327676	0.00183132	0.0124082	
0.00423347	0.0108691	-0.000708352	
0.00063489	-0.00110314	-0.000497937	
-0.000172872	0.0101594	-0.000419035	
0.00308335	0.00709887	0.00397993	
0.00232304	0.00132981	-0.000681833	
0.00325559	0.00572961	0.00274468	
-0.00358621	-0.0121902	-0.0049062	
-0.00953349	-0.0741222	-0.139888	
-0.00878014	-0.00630584	0.00244526	
0.00176149	0.00645373	0.00178413	
-0.00281454	-0.00456246	0.00387212	
0.0100245	0.00809556	0.0165534	
-0.0219822	-0.0175442	-0.000496035	
0.00945414	0.00403496	0.00572183	
-0.000856988	-0.00811673	-0.000130628	
-0.00103264	0.000570161	0.00687859	
0.000841776	-0.000846096	0.00771405	
0.000936461	-0.00257919	-0.0128847	
0.00927325	0.00454251	0.00667987	
-0.00081134	-0.00325412	0.00417756	
0.00792177	0.00593594	0.00965642	
0.00793133	0.0051797	0.00586794	
0.000782708	-0.0028988	0.00478198	
-0.00429956	-0.0150972	-0.00810682	
-0.00135549	-0.00567565	-0.000900569	
-0.000111299	-0.00248951	0.00646886	
-0.00209497	0.000873097	-0.000876595	
0.000933806	-0.00171171	0.00226639	
-0.000483583	0.00231007	0.000191761	
-0.00074536	-0.00261752	0.00565584	
-0.000322578	0.000552659	-0.00131559	
0.0191284	0.0159291	0.0152714	
0.00732233	0.00613432	0.00473512	
0.0112488	0.0152065	0.00654472	
0.0235169	0.0158187	0.0179656	
-0.001197	0.000397412	0.00578003	
-9.35662e-05	-6.53927e-06	0.000791841	
-0.000996828	0.000406839	0.00681958	
0.00246899	0.00591743	0.00143246	
0.00015641	0.000133335	-0.000928488	
0.000324319	-0.000963034	0.00602092	
0.000189853	-0.00291116	0.00531528	
-0.000727745	-0.00201493	0.00714728	
0.0277135	-0.0167579	0.00855028	
0.00422021	0.00589631	-0.0246303	
-0.0107309	0.0197072	-0.00558715	
0.0005411	-0.00614533	-0.00236102	
-0.00530699	0.0201157	-0.00532813	
-0.00998754	0.0259231	-0.00535188	
-0.0101217	0.00423339	-0.0139514	
-0.00811272	0.00180674	-0.01046	
0.00118289	-0.00631515	0.0052033	
0.000185258	-0.00345031	0.0036043	
-0.000668521	0.00267466	-8.35708e-05	
0.000567626	-0.000365584	0.00350201	
0.000477143	-0.00275199	-0.00774718	
-0.0302784	0.0117846	-0.0264342	
-0.0195882	0.0197359	-0.0110209	
0.00248593	-0.0054951	-0.00749361	
0.00101388	-0.00294941	0.00302675	
0.000625385	-0.00254048	0.00293376	
0.000341254	-0.00233563	0.0023167	
-0.00129857	0.00804694	-0.00233677	
0.00107312	-0.000738652	0.000143444	
0.000824794	0.000444461	0.000505638	
0.000547585	-0.000499922	0.000341317	
-0.000212508	0.0001115	0.000400614	
-0.00192711	-0.00488237	-0.00115055	
0.0519753	-0.0492569	0.00241349	
0.0048274	-0.00702743	-0.00681802	
-0.00166998	-0.00611584	-0.00678943	
-0.00892993	0.0146014	-0.00634055	
-0.00108752	-0.00200256	-0.00180402	
0.000646626	-0.00656221	-0.00707743	
0.000793774	-0.000246676	-0.00131598	
0.0128151	-0.00972313	-0.00288376	
0.000313112	-0.00545939	-0.00456883	
-3.81118e-06	-0.0030696	-0.0028796	
0.000119851	0.000744302	0.00101616	
8.92931e-05	-1.35226e-05	-0.000149755	
-0.00233109	0.00327508	0.0062032	
0.00563913	-0.0218884	-0.0168066	
-0.00123421	-0.00503956	0.0340998	
0.0053241	-0.0010807	-0.0102753	
0.00758426	-0.00097588	-0.012047	
0.0163982	-0.000537597	-0.0174507	
0.00262956	0.00281846	-0.00674753	
0.00781549	-0.000218116	-0.0108114	
0.00831004	0.0024695	-0.012991	
0.00979766	-0.000306149	-0.0118624	
0.0123303	-0.00113347	0.0457243	
0.00110754	-0.00402093	0.00410984	
0.00124426	0.000200818	0.0287192	
4.00949e-05	0.00289064	0.000751832	
0.00677459	0.00174215	-0.00972727	
0.00186427	0.0028863	-0.00592343	
0.000428752	0.00326201	-0.0024661	
-0.00064303	0.00227906	-0.00156138	
0.00835689	0.00172098	0.0327117	
0.00492197	-0.00754743	0.00983058	
0.00247303	0.000271024	0.0335436	
0.000176685	1.02349e-05	-9.21185e-05	
0.00451263	-0.0045695	0.0110952	
0.000158405	-3.50812e-05	1.94618e-05	
-0.00234503	-0.00101083	0.024512	
-1.85656e-06	6.87307e-05	-2.25821e-05	
-0.000670055	0.00289161	0.000670022	
0.000913158	0.00145887	-9.73973e-05	
-0.000506643	0.000363553	0.0108384	
-0.000513208	0.00166116	-0.00130331	
-0.000799664	-0.000226566	0.0125413	
0.000613938	0.00354106	-0.00512369	
0.000366397	-0.000391933	-0.000191696	
-0.000189466	0.00279495	-0.000240376	
0.000896178	0.00227651	0.000150038	
0.00100223	0.000628354	-0.000329044	
0.000986504	0.00186822	0.000110379	
-0.00378306	-0.0126367	-0.0037125	
-0.043607	-0.0737414	-0.141951	
-0.00337375	-0.00778768	-0.00103876	
0.00226785	0.00592686	0.00268048	
-0.00154153	-0.00289885	0.00040688	
0.00653113	0.0139034	0.00909525	
-0.0126597	-0.0229814	-0.00767178	
0.00572878	0.00811248	0.00404487	
-0.00193422	-0.006857	-0.00373835	
0.00236614	-0.000956989	0.00564714	
0.00119521	0.0028866	0.00380239	
0.000518314	-0.00705657	-0.0125574	
0.00657864	0.00820663	0.00473138	
-0.000616799	-0.0022699	0.000763203	
0.00426763	0.0103261	0.00602566	
0.00635592	0.00753878	0.00395494	
0.000242728	-0.00066816	0.00160405	
-0.00429381	-0.0151192	-0.0101258	
-0.00198659	-0.00476698	-0.00297466	
-0.000114832	-0.000534726	0.00198778	
-0.000330782	0.000505119	-0.000264609	
0.000371839	-0.00049322	0.000622759	
-0.000534985	0.000492548	5.54482e-07	
-0.000137919	-0.000326322	0.00184196	
-0.000100335	0.00016677	-0.000397418	
0.010927	0.0218153	0.0125677	
0.00632455	0.00758516	0.00323376	
0.0109657	0.0159444	0.00583825	
0.00951007	0.027132	0.0121282	
-0.000625099	1.41554e-05	0.00182963	
3.04561e-05	-9.13507e-06	-0.000176111	
-0.000611075	0.000101374	0.00221121	
0.00272436	0.00563134	0.00225961	
0.00011213	5.10704e-05	-0.000539357	
-3.11637e-05	-0.000348003	0.00203548	
5.44141e-05	-0.000538131	0.00161471	
-0.000271365	-0.000259569	0.00240931	
0.0286566	-0.0133811	0.0117582	
0.00709199	0.00568445	-0.0266244	
-0.00631705	0.0218764	-0.00505191	
0.00147517	-0.00277747	-0.000180485	
-0.00595651	0.019465	-0.0063298	
-0.00825254	0.0265447	-0.00573464	
-0.00723599	0.0117558	-0.0101074	
-0.0064392	0.00866133	-0.00674459	
0.00179409	-0.00749917	0.00389048	
0.000386811	-0.00478015	0.0024939	
-0.000553611	0.00223566	-0.00116661	
-0.00167837	-0.000372764	0.00351869	
-0.000178528	-0.000173556	-0.00246237	
-0.0208922	0.0291999	-0.0242753	
-0.00891212	0.0250224	-0.0147338	
0.0012959	-0.00250165	-0.00171751	
0.000897299	-0.00395065	0.00173215	
0.000628932	-0.00375562	0.00187829	
9.06782e-05	-0.00337334	0.00111664	
-0.00184962	0.00704657	-0.00322586	
-0.000292718	0.000125159	0.000182548	
-0.000201305	-0.000138472	-0.000131675	
-9.65491e-05	-0.000184045	-3.96279e-05	
0.000159753	-8.88327e-05	-0.000319419	
-0.000693717	-0.00149869	-0.000158517	
0.0294276	-0.0604998	0.0226162	
0.00337672	-0.00424926	-0.000955821	
-0.0011772	-0.00149387	-0.002514	
-0.0046805	0.016878	-0.0057588	
-0.000406085	-0.000580304	-0.000528949	
0.00010445	-0.00210728	-0.00224995	
0.000352791	-0.000215472	-0.000517537	
0.0115289	-0.00729648	0.00239406	
3.04198e-05	-0.00176596	-0.00137252	
-0.000126631	-0.000771357	-0.000793408	
-3.46887e-05	-0.00022532	-0.000312236	
0.000234126	-6.0133e-05	-0.000395089	
-0.0025496	0.00356867	0.00575826	
0.00735983	-0.0215374	-0.0140325	
-0.0055519	-0.000518399	0.0347911	
0.00573174	-0.00113308	-0.010248	
0.00765319	-0.00134755	-0.0123591	
0.0117107	-0.00313435	-0.0217312	
0.0011926	0.00219637	-0.00791652	
0.00728532	-0.00105684	-0.0115995	
0.00445518	0.00057807	-0.0154636	
0.00844729	-0.00153538	-0.0133073	
0.0129944	-0.00208334	0.0464599	
0.00108375	-0.00350495	0.00534621	
0.00152349	2.27772e-05	0.0291663	
0.000589939	0.00324047	0.00216283	
0.00364655	0.000653898	-0.0118945	
0.00113741	0.0026378	-0.00666942	
0.000787794	0.00343947	-0.00257842	
-0.000945874	0.00239891	-0.00162033	
0.00859635	0.00111018	0.0333011	
0.00443551	-0.00742055	0.0104249	
0.00250545	5.07341e-05	0.0340565	
-8.47237e-05	-9.26011e-05	0.000107687	
0.0047157	-0.00455687	0.0116059	
0.000148358	-6.03561e-05	5.98609e-05	
-0.00218624	-0.000713172	0.0251929	
-1.22902e-05	0.00025218	-9.27701e-05	
-0.000728169	0.00356843	6.65634e-05	
0.000866818	0.00145081	-0.000111662	
-0.00259793	0.00266107	0.010643	
-0.000684094	0.00159708	-0.00127747	
-0.00155721	0.000471327	0.0129844	
0.00149231	0.00340854	-0.00559334	
0.000360395	-0.000399899	-0.000190593	
-0.000149018	0.00338435	-0.000852829	
0.00107104	0.00262853	-2.20465e-05	
0.0010463	0.000660263	-0.000338377	
0.00109014	0.00205067	6.45766e-05	
-0.00461852	-0.0126799	-0.00321939	
-0.0242549	-0.0519496	-0.162311	
-0.00351622	-0.00611536	-0.000479587	
0.00275481	0.00562668	0.00257766	
-0.00151969	-0.00278181	0.000478313	
0.00620311	0.0131942	0.00878267	
-0.00968745	-0.023603	-0.00781757	
0.00464231	0.00901667	0.00453386	
-0.00231854	-0.00701841	-0.00390758	
0.000985675	0.00110154	0.00598659	
0.00155162	0.00335717	0.00421371	
-0.0049274	-0.00406953	-0.0127034	
0.00519097	0.00943384	0.00511049	
-0.000365218	-0.00192175	0.000660404	
0.00550938	0.0107517	0.00586468	
0.00512132	0.0087576	0.00417401	
0.000455952	-0.000330706	0.00192701	
-0.00499455	-0.0157167	-0.00949147	
-0.00224015	-0.00514295	-0.0022541	
-0.000362312	-0.00118708	0.00161374	
-0.000218904	0.000562836	-0.000341029	
0.000400405	-0.00051381	0.000686196	
0.000514315	0.000428377	-0.000323879	
-0.000110671	-0.000339526	0.0018386	
-7.5809e-05	0.000124001	-0.000293124	
0.0118286	0.021369	0.0126156	
0.00538416	0.008571	0.00332255	
0.0105296	0.0166683	0.00569031	
0.012682	0.0254785	0.0111405	
-0.000442037	1.19025e-05	0.00161639	
2.49797e-05	-7.76158e-06	-0.000122464	
-0.000447274	0.000119805	0.0019848	
0.0030484	0.00553078	0.00222645	
0.000119921	3.40956e-05	-0.000522339	
-4.19636e-05	-0.000325075	0.0016129	
3.48863e-05	-0.00058054	0.00168956	
-0.000180919	-0.000245883	0.00230193	
0.0277045	-0.0138327	0.0154724	
0.00551216	0.00623687	-0.0257134	
-0.00792392	0.0217289	-0.00565592	
0.00136884	-0.00287053	0.000556162	
-0.00593864	0.0199335	-0.00612775	
-0.0090851	0.026724	-0.00591099	
-0.00486086	0.0135558	-0.00959021	
-0.00443996	0.0101482	-0.00679574	
0.001582	-0.0070514	0.00422337	
0.000410385	-0.00433154	0.00284247	
-0.000619233	0.00246181	-0.000897642	
0.000233607	6.88634e-05	0.00366874	
-1.26525e-05	-0.000175497	-0.00250584	
-0.0156901	0.0341802	-0.0238526	
-0.0123077	0.0237149	-0.0155423	
0.000665356	-0.00250583	-0.00167184	
0.000904725	-0.00356511	0.00204621	
0.000638055	-0.00337816	0.00215102	
0.000132339	-0.00302205	0.00153172	
-0.00175589	0.00742497	-0.0030517	
6.55791e-06	-0.000128814	-7.423e-05	
8.21517e-05	5.36628e-05	5.34601e-05	
8.52844e-05	2.44141e-05	5.92146e-06	
6.042e-05	-3.63076e-05	-0.000124075	
-0.00078321	-0.0013647	-4.04509e-05	
0.0310534	-0.0603658	0.0206358	
0.0022754	-0.00495548	-0.000506858	
-0.000498236	-0.0016801	-0.00220253	
-0.00624012	0.0164224	-0.00656496	
-0.000421516	-0.000740581	-0.000613862	
-2.22857e-05	-0.00209481	-0.00218556	
0.000383198	-0.000226956	-0.000569577	
0.00942556	-0.00853509	0.00493546	
-9.99605e-05	-0.00173415	-0.00125705	
-0.000153697	-0.000727257	-0.000852228	
6.92747e-06	4.45257e-05	6.16426e-05	
0.000159113	-4.30268e-05	-0.000281459	
-0.00291399	0.003388	0.00558174	
0.00733007	-0.0203805	-0.0133091	
-0.00599363	-0.000496621	0.0354999	
0.00608051	-0.00117991	-0.010543	
0.00754333	-0.00133166	-0.0129501	
0.0102212	-0.00371772	-0.0232453	
0.00226625	0.00195061	-0.00765202	
0.00667187	-0.00129091	-0.012565	
0.00604752	0.000392625	-0.0150314	
0.00733483	-0.00198279	-0.0145723	
0.0134272	-0.00195256	0.0472844	
0.00144961	-0.00318887	0.00613434	
0.00152495	0.000312003	0.0296286	
6.77642e-05	0.00410873	0.00239101	
0.00430507	0.00013012	-0.0117805	
0.00193005	0.0022671	-0.00644504	
0.000978808	0.00336493	-0.00286072	
-0.00100101	0.00253847	-0.00172089	
0.0088941	0.0013161	0.033912	
0.00406287	-0.00738356	0.0108498	
0.00257812	0.000519585	0.0349621	
4.04914e-05	-6.61033e-05	0.000133079	
0.00485921	-0.00476521	0.0120451	
6.34205e-05	3.26163e-05	0.000129613	
-0.00221283	-0.000395012	0.0259058	
-9.19364e-06	0.000123155	-4.91274e-05	
-0.00071489	0.00322127	0.000169028	
0.000938351	0.0015612	-0.000125841	
-0.00275195	0.00265443	0.0108868	
-0.000876563	0.00191504	-0.00152396	
-0.00157313	0.00069311	0.013542	
0.00168671	0.00320468	-0.00559213	
0.000326706	-0.000361988	-0.000171754	
-0.000120576	0.0030928	-0.000746525	
0.0011489	0.00282899	1.91471e-05	
0.0010376	0.000604249	-0.000315875	
0.00117245	0.00223051	7.57167e-05	
-0.00543431	-0.012609	-0.00286504	
0.00284694	-0.0533579	-0.170318	
-0.00294455	-0.00522804	-0.000373215	
0.00313504	0.00541776	0.00259061	
-0.00142344	-0.00268308	0.000298125	
0.00592201	0.01296	0.00840815	
-0.0111973	-0.0224651	-0.0074718	
0.00530941	0.00894956	0.00422284	
-0.0023335	-0.00727222	-0.00429083	
0.000364902	0.0019694	0.005338	
0.0016081	0.00367235	0.00420598	
-0.00329605	-0.00694404	-0.0114791	
0.00576608	0.00943787	0.00484982	
-0.000368901	-0.00149152	0.000534169	
0.00603355	0.0113599	0.00588093	
0.00521339	0.00893455	0.00415612	
0.000447721	-0.000179482	0.00175759	
-0.00460787	-0.0154497	-0.0099867	
-0.00259463	-0.00460295	-0.00299965	
-0.000399543	-0.00127062	0.00119895	
0.000367442	0.000209652	-0.000149593	
0.000320213	-0.000490979	0.00064441	
0.000535794	0.000197479	-0.000194655	
-9.69979e-05	-0.000309226	0.00166248	
-6.4895e-05	0.00010546	-0.000248866	
0.0121021	0.0215437	0.0122846	
0.00522969	0.00885378	0.00337786	
0.0102094	0.0170898	0.00590627	
0.0125567	0.025088	0.0107277	
-0.000362601	2.84139e-05	0.0013509	
1.29334e-06	-1.15281e-06	-8.51338e-06	
-0.000381186	0.000108108	0.00172274	
0.00321872	0.00544733	0.00240564	
6.64552e-05	1.59307e-05	-0.000283228	
-2.62809e-05	-0.000254741	0.00130868	
3.73686e-05	-0.00054033	0.00159145	
-0.000145058	-0.00020289	0.00192078	
0.0263249	-0.0144417	0.0184249	
0.00568192	0.00632673	-0.0257295	
-0.00794218	0.0220565	-0.00554254	
0.00135991	-0.00289933	0.00118796	
-0.00602633	0.0200421	-0.00620299	
-0.00904967	0.0269294	-0.00619709	
-0.00592919	0.0131538	-0.00991396	
-0.00533462	0.00976369	-0.00697796	
0.00164889	-0.00709829	0.00406529	
0.000401854	-0.00441205	0.00274595	
-0.000623655	0.00248792	-0.000980457	
0.000190738	0.000203911	0.00369422	
-8.3392e-05	-0.000118469	-0.00222885	
-0.0184481	0.0337064	-0.0245982	
-0.0125104	0.0243878	-0.0152235	
0.0005739	-0.00227634	-0.00147235	
0.000892114	-0.00359536	0.00191034	
0.000650487	-0.00346733	0.00203677	
9.23238e-05	-0.00309876	0.00141224	
-0.00180079	0.00741068	-0.00312752	
1.00953e-07	9.02277e-06	5.73697e-06	
-8.4215e-06	-5.64379e-06	-5.57068e-06	
-5.06885e-06	-4.76571e-06	1.42853e-07	
6.41527e-05	-3.82931e-05	-0.000131093	
-0.000682415	-0.000948233	3.31961e-06	
0.0330293	-0.0586641	0.0206845	
0.00204957	-0.004797	6.00281e-06	
-0.000153632	-0.00171801	-0.001646	
-0.00625882	0.016702	-0.00639208	
-0.000281655	-0.000505325	-0.000432879	
-4.82572e-05	-0.00174617	-0.00179011	
0.000252447	-0.00015106	-0.000379525	
0.00790431	-0.0089193	0.00631071	
-0.000157622	-0.0015499	-0.00109352	
-0.000129654	-0.000687464	-0.000785858	
-4.72664e-06	-3.14216e-05	-4.35066e-05	
0.000124927	-3.54117e-05	-0.000220369	
-0.00280041	0.00368498	0.00499477	
0.00588243	-0.0201301	-0.0131562	
-0.00504155	-0.00215093	0.0363392	
0.00609099	-0.000875284	-0.0109238	
0.00722076	-0.0015056	-0.013464	
0.0115516	-0.00437133	-0.0227867	
0.0025679	0.00140045	-0.00781688	
0.00637934	-0.00142961	-0.012822	
0.00639299	-0.000236023	-0.0149231	
0.00718404	-0.00246276	-0.0146037	
0.0143482	-0.00230079	0.0474583	
0.00183457	-0.00325675	0.00635027	
0.00211345	-0.00038598	0.0302469	
-0.00121277	0.00393257	0.00293225	
0.00489756	-0.000174094	-0.0116092	
0.00211787	0.00187116	-0.00672099	
0.000619048	0.00262809	-0.00168004	
-0.000654545	0.00176697	-0.00120798	
0.009441	0.00104469	0.0342017	
0.00393373	-0.00752066	0.0109495	
0.00317492	-0.00011774	0.0355599	
-3.31127e-06	-4.05574e-05	6.00802e-05	
0.00500087	-0.0049491	0.0122818	
2.61572e-05	3.25909e-05	5.14708e-05	
-0.00160845	-0.00133964	0.026438	
-5.06945e-05	0.000566833	-0.000239796	
-0.000732372	0.00316154	0.000327178	
0.000487986	0.000810199	-8.2125e-05	
-0.00255545	0.00132635	0.0114788	
-0.000586314	0.00128532	-0.00102518	
-0.0015361	-0.000282023	0.0140253	
0.00153314	0.00282082	-0.00537233	
0.000150128	-0.000158394	-8.66031e-05	
-0.000114003	0.00292597	-0.00070305	
0.000668998	0.00164025	1.66297e-06	
0.000444729	0.000267733	-0.000151478	
0.000646546	0.00121538	2.35565e-05	
-0.00579846	-0.0125111	-0.0023578	
-0.00346528	-0.0529046	-0.174412	
-0.00273588	-0.00505049	-0.00055238	
0.00339435	0.00531319	0.0029443	
-0.00138293	-0.00274759	-7.83178e-05	
0.00574219	0.0129517	0.00811689	
-0.0109224	-0.0225422	-0.00707198	
0.00541457	0.00894116	0.00480048	
-0.00236951	-0.00740324	-0.00479462	
0.000102153	0.00147888	0.00509749	
0.0015239	0.00369682	0.00384205	
-0.00273652	-0.00535252	-0.0125615	
0.00579015	0.00936477	0.0055972	
-0.000240869	-0.00133837	0.000739584	
0.00603091	0.0117061	0.0059511	
0.00532461	0.00883887	0.00488685	
0.000266107	-0.000245961	0.00115881	
-0.00454887	-0.0154347	-0.0101092	
-0.00268748	-0.0044435	-0.00328634	
-0.000318623	-0.00103557	0.000806921	
0.000245142	0.000145903	-0.000109044	
0.000231984	-0.000355995	0.000434449	
0.00036739	-7.4956e-05	7.05862e-05	
-7.59084e-05	-0.00026454	0.00141448	
4.3307e-06	-6.81508e-06	1.66558e-05	
0.0120651	0.0218709	0.0121962	
0.00531939	0.0089097	0.00429275	
0.0101419	0.0174142	0.00680386	
0.0121831	0.0253216	0.0107089	
-0.000370602	3.77622e-05	0.00138203	
-0.000166923	4.18283e-05	0.000803932	
-0.000332702	0.000100682	0.00148763	
0.00324321	0.00546057	0.00294067	
-9.58498e-05	-2.37404e-05	0.000402056	
-3.32533e-05	-0.000245775	0.00132734	
3.12902e-05	-0.000429123	0.00126154	
-0.000120895	-0.000153598	0.00154844	
0.0248794	-0.0163908	0.020378	
0.0055055	0.00694845	-0.0252864	
-0.00789799	0.0223411	-0.00548451	
0.00118123	-0.00305291	0.00138897	
-0.00605586	0.0202046	-0.00624268	
-0.00905243	0.0271277	-0.00632244	
-0.00622671	0.0135662	-0.00952734	
-0.00566051	0.010142	-0.00647522	
0.00163232	-0.00698386	0.00406147	
0.000406105	-0.00430099	0.00281598	
-0.000641878	0.00255457	-0.000974012	
0.000486173	-0.000503379	0.00360128	
-0.000268019	0.00023686	-0.00170974	
-0.0189059	0.0347956	-0.0242972	
-0.0124123	0.0249127	-0.0150708	
0.000658927	-0.00192566	-0.0010711	
0.000890177	-0.00350169	0.00191082	
0.00064692	-0.00340223	0.00205668	
0.000117226	-0.00303371	0.00145842	
-0.00181039	0.0075005	-0.00313327	
-1.17359e-05	-3.58332e-05	-1.69001e-05	
2.06308e-05	1.40543e-05	1.38291e-05	
2.40808e-05	3.26783e-06	-1.03646e-06	
5.1878e-05	-3.15728e-05	-0.000106643	
-0.00093539	-0.00113506	5.88197e-06	
0.032997	-0.0583875	0.0207541	
0.00231596	-0.00423503	0.000360333	
-8.25716e-05	-0.001492	-0.0013241	
-0.00617049	0.0168832	-0.00626591	
-0.000209986	-0.000381252	-0.000334929	
-1.75024e-05	-0.0013569	-0.00137317	
0.00019574	-0.00011867	-0.000296909	
0.00731024	-0.00902524	0.00685489	
-0.000171904	-0.00156769	-0.00111006	
-8.41824e-05	-0.000447941	-0.000518118	
-8.82855e-07	-6.04738e-06	-8.32257e-06	
0.000104174	-3.04476e-05	-0.000184938	
-0.00298087	0.00335596	0.00496746	
0.00588425	-0.0201117	-0.0120336	
-0.00421895	-0.00316817	0.036751	
0.00639539	-0.00142813	-0.0108263	
0.00733075	-0.00191471	-0.0131659	
0.0119183	-0.00506766	-0.0227456	
0.00249816	0.000609281	-0.00722474	
0.00689678	-0.00216713	-0.0124541	
0.00656757	-0.000982011	-0.0149907	
0.00772655	-0.00296233	-0.0142709	
0.0145954	-0.00252731	0.0476441	
0.00182047	-0.00335116	0.00647586	
0.0022826	-0.000855791	0.0305517	
-0.00133718	0.00446301	0.00242306	
0.00516747	-0.00095867	-0.0114781	
0.00193385	0.000724141	-0.00599608	
0.000609876	0.00102441	-0.001286	
-0.000430226	0.00116269	-0.000801285	
0.00972838	0.000912087	0.0343485	
0.0036745	-0.00758374	0.0110522	
0.00336013	-0.000476174	0.035828	
2.52666e-05	-3.04355e-05	5.73913e-05	
0.0048639	-0.00513873	0.0124392	
1.26709e-05	4.48357e-05	3.56003e-05	
-0.00131889	-0.00187203	0.0265502	
-1.4977e-05	0.000142035	-6.09516e-05	
-0.000641854	0.00146449	0.0011376	
0.000270924	0.000449421	-4.86435e-05	
-0.00226954	0.00017469	0.0117457	
-0.000356633	0.000799326	-0.000631324	
-0.00148751	-0.000849099	0.0141897	
0.00148117	0.00103236	-0.00498781	
0.000107737	-0.000109985	-6.21112e-05	
-4.25902e-05	0.00110058	-0.000263835	
0.000300585	0.00074762	-8.18278e-06	
0.000281721	0.000173798	-9.89704e-05	
0.000293296	0.000562878	4.78342e-06	
-0.00649909	-0.0124893	-0.00273183	
-0.011131	-0.0475628	-0.178636	
-0.00184092	-0.00344246	-0.000403723	
0.00343755	0.00536087	0.0021342	
-0.0011735	-0.00249086	-0.000573385	
0.00510953	0.012044	0.00693632	
-0.010826	-0.0214866	-0.00830557	
0.00526681	0.00935458	0.00332472	
-0.00238009	-0.00737913	-0.0051981	
-0.000475238	0.00119469	0.00543303	
0.00175236	0.00475999	0.00382719	
-0.00205962	-0.00445717	-0.0134111	
0.00611611	0.00964078	0.00404756	
-0.000264332	-0.000735161	2.73691e-05	
0.00658514	0.0124485	0.00517227	
0.00589709	0.0089449	0.00327958	
0.000578397	0.000715682	0.00170627	
-0.00434128	-0.015768	-0.0107958	
-0.00258035	-0.00427561	-0.00388036	
-0.000712799	-0.00217997	-9.30302e-05	
0.000179531	0.000123152	-7.92004e-05	
0.000170367	-0.00025587	0.000302663	
0.000311449	-3.98208e-05	6.74199e-05	
-3.51895e-05	-0.000129377	0.000689238	
-0.000123363	0.000199527	-0.000470392	
0.0121039	0.0219607	0.0114724	
0.00581266	0.00882445	0.00252313	
0.0105557	0.0173372	0.00532884	
0.0116479	0.0244789	0.00931181	
-0.000147711	1.52759e-05	0.000558416	
0.000165546	-4.17854e-05	-0.000838651	
-0.000221845	6.6805e-05	0.000992405	
0.00344427	0.00556021	0.00189681	
0.000200659	4.77072e-05	-0.000878051	
-1.74763e-05	-0.000111704	0.000616484	
9.19357e-06	-0.000198443	0.00059114	
-9.89287e-05	-0.000131534	0.00130162	
0.0241769	-0.0165448	0.0210765	
0.00544788	0.00763378	-0.0249629	
-0.00787289	0.022483	-0.00537074	
0.00182434	-0.00248142	0.0019028	
-0.00604326	0.0202369	-0.00622642	
-0.00910236	0.0272362	-0.00630415	
-0.00629101	0.0138969	-0.00924694	
-0.00588785	0.0105554	-0.00618888	
0.00165412	-0.00693636	0.00401947	
0.000411798	-0.00428075	0.0028061	
-0.000651502	0.00259319	-0.000981903	
0.000535665	-0.000940491	0.00349023	
-0.000209048	0.000205587	-0.00136656	
-0.0189165	0.0357663	-0.0241004	
-0.0124311	0.025337	-0.0149615	
0.000392848	-0.00118539	-0.000708775	
0.000889807	-0.00346252	0.00187418	
0.000645153	-0.00339785	0.00203326	
0.000122282	-0.0030218	0.00145259	
-0.00182434	0.00753845	-0.00316526	
-7.03657e-06	-1.37077e-05	-6.22169e-06	
7.29679e-06	5.0754e-06	4.94765e-06	
9.52426e-06	-5.89844e-08	-7.57907e-07	
2.49594e-05	-1.57729e-05	-5.18576e-05	
-0.000135978	-0.000153242	-2.29653e-06	
0.0333506	-0.0579101	0.0207013	
0.00228378	-0.0040841	0.000461762	
0.000532335	-0.00173229	-0.000455473	
-0.00615197	0.0170631	-0.0061357	
-0.000126387	-0.000235837	-0.000209244	
-1.13797e-05	-0.00121714	-0.00126608	
9.75803e-05	-6.07856e-05	-0.000149263	
0.00726348	-0.00809332	0.0071601	
-4.32817e-05	-0.000450415	-0.000315517	
-5.42719e-05	-0.00031305	-0.000370135	
-1.76761e-06	-1.24689e-05	-1.7196e-05	
5.00805e-05	-1.54783e-05	-8.96724e-05	
-0.00305656	0.00320548	0.00497439	
0.0062228	-0.0203298	-0.0105233	
-0.00412866	-0.00319136	0.036986	
0.00646455	-0.00159912	-0.0109568	
0.00752538	-0.002076	-0.013319	
0.0119151	-0.0050048	-0.0233797	
0.00232415	0.000313148	-0.00677055	
0.006891	-0.00200942	-0.0128193	
0.00630341	-0.00127864	-0.014642	
0.00775948	-0.00285077	-0.0146267	
0.014644	-0.00250574	0.0476873	
0.00183492	-0.00341979	0.00673251	
0.00238068	-0.000859895	0.0306956	
-0.00116646	0.00492761	0.00268017	
0.00505803	-0.000854381	-0.0118702	
0.00179236	0.000410143	-0.00568566	
0.000578214	0.000953705	-0.00116111	
-0.000540281	0.0014439	-0.000997476	
0.00984458	0.00096304	0.0344558	
0.0033537	-0.00761798	0.0112122	
0.00340743	-0.000413219	0.0360694	
-3.92462e-05	-1.8965e-05	2.57681e-05	
0.00473333	-0.00527575	0.0125585	
-5.0171e-06	6.13263e-05	1.22325e-05	
-0.00130154	-0.00179885	0.0267125	
-5.18461e-06	4.3357e-05	-1.8819e-05	
-0.000633054	0.00125068	0.00134856	
0.000255041	0.000428503	-4.7526e-05	
-0.00225342	0.000113093	0.011849	
-0.000456902	0.00102279	-0.000814762	
-0.00147864	-0.000790712	0.0142502	
0.00142013	0.00095557	-0.0049476	
0.000134576	-0.000131124	-7.47077e-05	
-3.55224e-05	0.000968511	-0.000227765	
0.000284411	0.00071259	-8.90183e-06	
0.000281026	0.000180044	-9.93932e-05	
0.000285242	0.000556702	2.61141e-06	
-0.00622322	-0.01257	-0.00212624	
-0.00631482	-0.0596137	-0.179296	
-0.00197416	-0.00348295	-1.0076e-05	
0.00347926	0.00527655	0.00304553	
-0.00128174	-0.00253452	3.85519e-05	
0.00521048	0.0119817	0.00764947	
-0.0102391	-0.0220756	-0.00659724	
0.00545219	0.00917686	0.00537096	
-0.00245937	-0.00782544	-0.00506177	
-0.000519247	0.00165081	0.00495485	
0.0019295	0.00469836	0.0045536	
-0.00154173	-0.00444954	-0.0132907	
0.00586849	0.00968872	0.00606404	
6.18516e-05	-0.000870971	0.0011699	
0.00634411	0.0124883	0.00617495	
0.00552006	0.00918045	0.00519171	
0.000656632	0.000543025	0.00194753	
-0.00442578	-0.0156375	-0.0105491	
-0.00250255	-0.00451654	-0.00374037	
-0.000822487	-0.00239417	0.000112584	
0.000327352	3.45461e-05	5.15463e-06	
0.000266212	-0.00040482	0.000494869	
0.000345012	-0.000161547	0.000167373	
-6.53721e-05	-0.000270992	0.00141535	
3.71339e-05	-6.0157e-05	0.000142829	
0.0119821	0.0219831	0.0120966	
0.00542038	0.00902295	0.00438606	