<VTKFile type="UnstructuredGrid" version="0.1" byte_order="LittleEndian">
	<UnstructuredGrid>
		<Piece NumberOfPoints="7770" NumberOfCells="7770">
			<CellData Scalars="scalars">
				<DataArray type="Float64" Name="Strength" NumberOfComponents="3" Format="ascii">
-0.00700558	-0.015521	0.0132426	
0.0152639	-0.00889448	-0.0252688	
-0.00619954	0.0723969	0.000466781	
0.00476366	-0.00684126	-0.00694965	
0.00586975	8.23034e-05	-0.0111014	
0.0159918	0.0528811	-0.033547	
0.0141827	0.0846928	-0.0317136	
0.00253951	0.0169486	-0.0173802	
0.0174403	0.0821871	-0.0341788	
0.00458467	0.0304062	-0.0244605	
0.00190226	0.00786259	0.0447392	
0.0035935	-0.00432337	-0.0011533	
-0.00847953	0.0408223	0.0132484	
-0.000284565	-0.00172892	-0.00205326	
0.0113348	0.0713884	-0.0329428	
0.0170697	0.0850046	-0.0237297	
0.0224402	0.0928952	-0.00740904	
-0.000285583	0.0634972	-0.0289366	
0.000519042	0.0126902	0.0289296	
0.00417314	-0.010567	0.00894493	
-0.00969072	0.0335243	0.0207403	
0.000123996	-0.00206628	0.00190018	
0.0024988	-0.00478712	0.0102123	
0.00048171	-0.0015652	0.00197547	
-0.00930626	0.049831	0.00495832	
-0.00043119	-0.0126485	0.00314688	
0.0137621	0.0869318	-0.0208259	
0.0119053	0.0394338	0.013587	
0.00946363	0.0869418	-0.00493892	
-0.00374098	0.0455014	-0.0217287	
0.00392487	0.0535558	0.0104746	
0.0190239	0.0888521	-0.0103694	
-0.000572108	0.000290859	0.000144395	
0.0145636	0.0858949	-0.0145438	
0.0144865	0.0767967	0.0178868	
0.0167915	0.0125284	0.00687391	
0.0153713	0.0560426	0.019393	
-0.0112439	-0.00532174	-0.025382	
-0.00272537	-0.124119	-0.0646155	
-0.00436058	0.00162911	0.0518368	
0.00143205	0.0117551	-0.0134883	
0.012291	-0.00835753	0.0534715	
0.0287838	-0.0217427	0.057954	
-0.0112558	-0.0311939	0.0507853	
0.0188538	-0.011173	0.0516121	
0.0175399	-0.0246466	0.0285444	
0.012053	0.000368605	0.0162828	
0.0120961	-0.0185983	0.0535811	
-0.0111795	-0.00734491	-0.0225732	
0.0115228	-0.0044092	0.0478748	
0.00406286	-0.0110653	0.0257839	
0.00981804	0.00182674	0.0543143	
0.0069996	0.000372909	0.0400848	
0.0162171	-0.031584	0.036782	
0.0279538	-0.0102174	0.0168158	
-0.00203665	-0.019525	0.00339615	
0.0168861	-0.0213727	0.0512365	
0.0234759	0.0121885	0.00754073	
0.00836622	-0.0228798	0.00876897	
-0.00403036	-0.0190103	0.00415867	
0.00988766	-0.0137382	0.0571945	
-0.00412419	0.00857563	-0.0202841	
0.0225999	0.0101111	0.0370136	
0.005826	0.00265078	0.0313886	
0.00936736	0.0126134	0.0166406	
0.0405506	-0.0115462	0.0658475	
-0.000744738	-0.00206214	0.04095	
-0.000784666	-0.00228619	0.0189618	
0.00403399	-0.00110169	0.0446883	
0.00330095	0.00878155	-0.0104054	
0.000466487	0.00101433	-0.0047614	
0.00304985	-0.00568205	0.024359	
0.01578	-0.0270243	0.0471638	
0.00890872	-0.0105129	0.0506127	
0.015894	-0.0576834	-0.00648583	
0.000352456	0.0226176	-0.0287611	
-0.00847573	-5.39468e-05	-0.0317674	
-0.00516292	-0.0372998	-0.0229133	
-0.00906212	0.0142835	-0.0107815	
-0.015042	0.0108535	-0.0224234	
0.00705722	-0.0128529	-0.0516383	
0.0100379	-0.0207536	-0.0537139	
0.00227862	-0.00944461	0.00235462	
-0.00243045	-0.00695323	0.000785288	
-0.00015523	0.000371386	-0.00356383	
-0.00247459	-0.0029179	0.00604943	
0.0122477	-0.0336867	-0.0594751	
-0.0147562	-0.0067591	-0.0486633	
-0.0226776	-0.0273877	-0.0385963	
0.010508	-0.0441052	-0.055933	
0.000891279	-0.00487958	0.00103043	
0.000508254	-0.00602987	-7.26206e-05	
0.000145603	-0.00543105	-0.00127572	
-0.00189673	0.00493886	-0.0049076	
-0.000909971	-0.00333869	0.00177425	
-0.00185423	-0.00192264	-0.00154997	
-0.000125863	-0.00282213	0.000150947	
0.00387607	-0.00338753	-0.00963721	
-0.0143787	-0.0431411	-0.0214716	
0.0565798	-0.0636481	-0.0219211	
0.0128662	-0.0475845	-0.0518086	
0.00336115	-0.0476682	-0.0508138	
-0.00232609	-0.0038117	-0.0347748	
-0.0085029	-0.0469634	-0.0356083	
0.0088656	-0.0459846	-0.0503129	
0.0125275	-0.0108789	-0.0389536	
0.0132834	-0.0481404	-0.0324804	
0.00668261	-0.0574212	-0.053382	
0.000969709	-0.0115653	-0.0135694	
1.02256e-06	6.78601e-06	9.01186e-06	
0.00822781	-0.00365874	-0.0205086	
-0.00218675	0.00289561	0.00648257	
0.0031118	-0.0198106	-0.0220754	
-0.0162252	-0.00142288	0.0297042	
0.00460101	-0.000190007	-0.0105178	
0.00662853	0.000905827	-0.0127553	
0.0192928	0.00789565	-0.015187	
0.00606349	0.0116592	-0.0054958	
0.0068308	0.00323336	-0.0120879	
0.0134576	0.0125652	-0.00817393	
0.00954166	0.00472015	-0.0132065	
0.0173222	-0.00336725	0.0430553	
8.84172e-05	-0.00385568	0.00334259	
0.00117655	-0.00269881	0.0277852	
0.000615723	0.00174468	0.00129709	
0.00975628	0.0108048	-0.00839718	
0.00561926	0.0116482	-0.00415566	
0.00233062	0.0111016	0.000202716	
-0.000751828	0.0089497	-0.0054096	
0.012181	-0.000678055	0.0307932	
0.00322091	-0.00648922	0.0109391	
0.00443615	-0.00175001	0.0322833	
0.000226063	3.445e-05	-4.21965e-05	
0.0035265	-0.00415106	0.0108245	
0.000312319	-0.000257177	0.000101102	
-0.00535926	-0.00070216	0.023664	
-1.60969e-07	0.000189306	-5.39113e-05	
-0.000925393	0.0108449	-0.00159611	
0.00277438	0.00477109	0.000827781	
-0.00736348	0.00595375	0.00866112	
-0.0010728	0.00688484	-0.00433643	
-0.00301294	0.00208481	0.0124197	
0.00428394	0.0107409	-0.0015821	
0.000880999	-0.00090506	-0.00051792	
7.57318e-05	0.010126	-0.000785721	
0.00294195	0.00744252	0.00339491	
0.00213165	0.00162225	-0.000662064	
0.00303537	0.00600793	0.00235401	
-0.00364862	-0.0121207	-0.00497551	
-0.010522	-0.0694124	-0.142036	
-0.00847859	-0.00660753	0.00264568	
0.00195135	0.00639486	0.00175805	
-0.0029916	-0.00435847	0.0039603	
0.00958058	0.0089154	0.0163611	
-0.0208315	-0.0187967	-0.00138386	
0.00908327	0.00449238	0.00594412	
-0.000623534	-0.00813014	-6.46115e-05	
-0.00108057	0.000628368	0.00685982	
0.000520764	-0.00053657	0.00776055	
-0.00131556	-0.00249225	-0.0128348	
0.00910714	0.00493782	0.0065958	
-0.000713667	-0.00332281	0.00413215	
0.00786817	0.00635534	0.00940631	
0.00784555	0.00543195	0.00572371	
0.000569882	-0.00285944	0.00482817	
-0.00409919	-0.0151346	-0.0081035	
-0.00143472	-0.00564495	-0.000933262	
-0.000457746	-0.00225695	0.00653003	
-0.00203047	0.000852744	-0.00103011	
0.000880664	-0.00175898	0.00224731	
-0.000881945	0.00217716	-0.000223216	
-0.000878493	-0.00236703	0.00573818	
-0.000284048	0.000554716	-0.00132142	
0.0186126	0.0168702	0.0148213	
0.00720435	0.00629875	0.00466634	
0.0111367	0.0152175	0.00661904	
0.0230276	0.0171642	0.0172752	
-0.000960774	0.000257391	0.0058246	
-7.75383e-05	-2.77985e-05	0.000792065	
-0.000815044	0.000347737	0.00683898	
0.00259238	0.00585777	0.00141315	
0.000137084	0.000144451	-0.00092846	
0.000426357	-0.00098992	0.0060022	
-0.000136793	-0.00277544	0.00538121	
-0.000738312	-0.00177759	0.00719961	
0.0271831	-0.0167568	0.00993457	
0.00495401	0.00701038	-0.0241572	
-0.00960621	0.020117	-0.00603436	
0.0006477	-0.00606874	-0.00250068	
-0.00500935	0.020102	-0.00556389	
-0.0092162	0.0260603	-0.00586642	
-0.00916177	0.0050753	-0.014301	
-0.00753975	0.00229441	-0.0107663	
0.00142209	-0.00625943	0.00519761	
0.000246924	-0.00337413	0.00366552	
-0.000629928	0.00268015	-0.000104422	
-0.000470191	-0.00133164	0.00324592	
0.000672458	-0.00296398	-0.00764173	
-0.0279109	0.0142543	-0.027708	
-0.0190522	0.0199251	-0.011506	
0.0026805	-0.00572055	-0.00723592	
0.00111598	-0.00290924	0.00302357	
0.000679618	-0.00252064	0.00293381	
0.000414424	-0.0022661	0.00236871	
-0.00129859	0.00802178	-0.00239002	
-0.000943154	-0.000867397	-0.000186522	
0.000798607	0.000483856	0.000509378	
0.000261697	-0.000744206	0.000196794	
-0.000196438	0.000126699	0.000403631	
-0.00178762	-0.00483113	-0.001501	
0.0530004	-0.0476384	0.00644412	
0.00495765	-0.00727759	-0.00642503	
-0.00146142	-0.00598739	-0.00693192	
-0.0079611	0.0150132	-0.00659801	
-0.000964975	-0.00205247	-0.00181194	
0.000875664	-0.00659319	-0.00700442	
0.000724493	-0.000357171	-0.00132817	
0.0126487	-0.0100906	-0.00210792	
0.000399671	-0.00539369	-0.00462351	
4.76193e-05	-0.00305883	-0.00288261	
0.000120373	0.000750457	0.00101002	
8.41747e-05	-2.30432e-05	-0.000151291	
-0.00236834	0.003175	0.00622697	
0.00421228	-0.0199754	-0.0193713	
-0.000334466	-0.00430994	0.0341794	
0.00543849	-0.00109178	-0.0101928	
0.00764735	-0.00109361	-0.0119703	
0.016022	-0.00113778	-0.0177203	
0.00264913	0.00257539	-0.00682401	
0.00778714	-0.000393007	-0.0108013	
0.00832025	0.0019685	-0.0130437	
0.00962468	-0.000519788	-0.0119656	
0.0125536	-0.00171448	0.0455962	
6.37997e-05	-0.00397392	0.00429147	
0.00106222	6.53055e-05	0.0286955	
0.000824012	0.00168273	0.00231249	
0.00671772	0.00138303	-0.00980314	
0.00177745	0.00269634	-0.00602796	
0.000296943	0.00318525	-0.00257489	
-0.000574376	0.00229621	-0.00155588	
0.00891934	0.00135797	0.0325434	
0.00319249	-0.00738795	0.0106161	
0.00245793	4.05734e-05	0.0335091	
0.000105216	-0.000140689	9.96529e-05	
0.00307317	-0.00450707	0.0115861	
9.16003e-05	-0.000129318	3.83814e-05	
-0.00243244	-0.00104424	0.0244745	
-2.29688e-06	6.87706e-05	-2.20471e-05	
-0.000770833	0.00288885	0.000543914	
0.00083508	0.0015031	-9.05503e-05	
-0.000532502	0.00068755	0.0108081	
-0.000455939	0.00170366	-0.00126376	
-0.000851611	-0.000132773	0.0125251	
0.000563251	0.00334477	-0.00525069	
0.000431656	-0.000322043	-0.000183967	
-0.00030753	0.00276744	-0.000363725	
0.000742327	0.00233151	8.19109e-05	
0.000928188	0.00073297	-0.00032487	
0.000864311	0.00192711	6.96216e-05	
-0.00379736	-0.0125692	-0.00385023	
-0.0383719	-0.0756821	-0.142244	
-0.0035216	-0.00771166	-0.00103088	
0.00242774	0.00586251	0.00265556	
-0.00152822	-0.00290285	0.000396431	
0.00647737	0.013854	0.00916593	
-0.0122143	-0.0230267	-0.00811821	
0.00561513	0.00812478	0.0041399	
-0.00175529	-0.00689337	-0.00374183	
0.00175052	-0.000821373	0.0058836	
0.00117888	0.00288495	0.0038014	
-0.00420366	-0.00553771	-0.0125711	
0.00664102	0.00819525	0.00462404	
-0.000633276	-0.00226697	0.00074812	
0.00472915	0.0101948	0.00587007	
0.00646089	0.00751392	0.00378912	
0.000231035	-0.000656446	0.00160855	
-0.00417061	-0.0150999	-0.010171	
-0.00203048	-0.00476302	-0.00293996	
-0.000124484	-0.000532045	0.00198556	
-0.00028428	0.000532333	-0.000263285	
0.000348311	-0.000498998	0.000630394	
-0.000458093	0.000553196	-0.000122292	
-0.000133372	-0.000335501	0.00183838	
-9.05766e-05	0.000168286	-0.000398443	
0.0113238	0.0217328	0.0122796	
0.00637475	0.00756997	0.00312288	
0.0109843	0.0158818	0.00586979	
0.0104291	0.0267907	0.0120375	
-0.000553502	2.10936e-05	0.0018501	
2.56788e-05	-4.75837e-06	-0.00017678	
-0.000558515	0.000108201	0.00222208	
0.00284616	0.00557099	0.0022286	
9.64622e-05	5.91979e-05	-0.000540718	
-3.45296e-05	-0.000342485	0.00203368	
4.13533e-05	-0.000534593	0.0016143	
-0.00025729	-0.000275389	0.00240612	
0.0280575	-0.0130839	0.0132803	
0.00637532	0.0074244	-0.0263474	
-0.00564994	0.0219129	-0.00552732	
0.00150028	-0.00276001	-0.000156404	
-0.00591375	0.019384	-0.00653433	
-0.00799573	0.026471	-0.00624789	
-0.00633541	0.0121141	-0.0102489	
-0.00590656	0.00888049	-0.00691156	
0.00189725	-0.00744418	0.00392714	
0.000347177	-0.00469281	0.00264876	
-0.000552205	0.00222378	-0.00118354	
0.000515857	7.04416e-05	0.00387521	
-0.000207795	-0.00027202	-0.00244782	
-0.0189882	0.0300415	-0.0247031	
-0.00900091	0.0248344	-0.0149197	
0.0012559	-0.00257979	-0.0016194	
0.000958854	-0.00392612	0.00174329	
0.000639551	-0.00373566	0.00190453	
8.42081e-05	-0.00332078	0.00125458	
-0.00183871	0.00702014	-0.0032684	
6.36036e-05	0.00028766	0.000223391	
-0.000195113	-0.000143277	-0.000135224	
-0.000200046	-6.75627e-05	-3.33161e-06	
0.000147513	-9.88884e-05	-0.000321823	
-0.000641516	-0.00150447	-0.000263115	
0.0332672	-0.0579332	0.0237079	
0.00329809	-0.0043324	-0.0007955	
-0.00114629	-0.00148521	-0.00252752	
-0.00399851	0.0169295	-0.00604051	
-0.000372357	-0.000606928	-0.000522105	
0.000105765	-0.00214843	-0.00220423	
0.000314757	-0.000246119	-0.000527236	
0.0112988	-0.00746317	0.00281801	
2.52227e-05	-0.00176003	-0.00137477	
-0.000112986	-0.000779544	-0.00078542	
-3.25674e-05	-0.000226654	-0.00031103	
0.000216117	-7.9407e-05	-0.000401221	
-0.00256811	0.003443	0.00581159	
0.00534859	-0.0198739	-0.0170351	
-0.00485514	-0.000547232	0.0348528	
0.00586205	-0.00116679	-0.0101483	
0.00779887	-0.00148403	-0.0122238	
0.0120005	-0.00321347	-0.0215202	
0.00129426	0.00216566	-0.00789763	
0.00740912	-0.00118003	-0.0114828	
0.00483233	0.000492927	-0.0153297	
0.00854625	-0.00160994	-0.0132059	
0.0129584	-0.00248787	0.0463995	
-0.00011055	-0.00356658	0.00540304	
0.00125186	-4.85585e-05	0.0291476	
-3.11571e-05	0.00226002	0.00318634	
0.00396778	0.000571418	-0.0117773	
0.00114414	0.00261431	-0.00666717	
0.000776125	0.00342864	-0.00258723	
-0.000882561	0.00240683	-0.00163629	
0.00907829	0.000851301	0.0331437	
0.00266564	-0.00726513	0.0110977	
0.00249171	-0.000131043	0.0340212	
-0.000160994	2.24288e-05	-2.47017e-05	
0.00308606	-0.00448158	0.0121531	
0.000106053	-0.000110102	7.3774e-05	
-0.00222222	-0.000769656	0.02516	
-1.19948e-05	0.000252936	-8.94931e-05	
-0.000747132	0.00355942	7.72868e-05	
0.000798015	0.00148822	-0.000103391	
-0.00252203	0.00267137	0.0106436	
-0.000613005	0.00163454	-0.00126064	
-0.00159025	0.000482257	0.012965	
0.00150614	0.00338844	-0.00559193	
0.000429693	-0.000329541	-0.000179279	
-0.000167604	0.00338142	-0.000843167	
0.000970627	0.00266301	-5.74258e-05	
0.000970056	0.000767371	-0.000334479	
0.000993437	0.00209689	3.76392e-05	
-0.00455345	-0.0126231	-0.00344199	
-0.0344844	-0.0617682	-0.156774	
-0.00343819	-0.00614569	-0.000528616	
0.00287344	0.00556559	0.00255396	
-0.00148821	-0.00279697	0.000463957	
0.00608058	0.0131776	0.00885453	
-0.00952889	-0.0234742	-0.00826963	
0.0046235	0.00894971	0.0046484	
-0.00204907	-0.00707134	-0.00394369	
0.00101928	0.00120756	0.00595474	
0.00150904	0.00336307	0.00421596	
-0.00498745	-0.0041166	-0.0126496	
0.00540497	0.00932223	0.00505483	
-0.000406786	-0.00191703	0.000641389	
0.00564006	0.0106434	0.00590081	
0.00539166	0.00862054	0.00407651	
0.000430035	-0.00032049	0.00193244	
-0.00480896	-0.0157359	-0.0095178	
-0.0019598	-0.00504413	-0.00268309	
-0.000352958	-0.00118983	0.00161102	
-0.000236012	0.000563436	-0.000326595	
0.00038455	-0.000522012	0.000687669	
0.000534967	0.000411072	-0.000311062	
-0.000103757	-0.000349714	0.00183486	
-7.02506e-05	0.000125755	-0.00029325	
0.0120717	0.0212212	0.0125584	
0.00558312	0.00844108	0.0032778	
0.0106898	0.0165155	0.00572618	
0.0126976	0.0253197	0.0113865	
-0.000386336	-1.67676e-05	0.00162851	
2.13584e-05	-5.00255e-06	-0.000123109	
-0.000393735	6.95184e-05	0.00199613	
0.00315588	0.00547451	0.00218383	
0.000101961	4.23634e-05	-0.000524726	
-4.79512e-05	-0.000331229	0.00160935	
3.12283e-05	-0.000575802	0.00168924	
-0.00016056	-0.000273535	0.00229758	
0.0272576	-0.0131491	0.0166894	
0.00533382	0.00838349	-0.0251018	
-0.00741839	0.0217722	-0.00604256	
0.00143263	-0.00283684	0.000539993	
-0.00590482	0.0198516	-0.00633732	
-0.00899262	0.026601	-0.00641754	
-0.00406236	0.0137226	-0.00968117	
-0.00403777	0.0101841	-0.00695605	
0.00171873	-0.00699526	0.0042454	
0.000421494	-0.00424552	0.00295827	
-0.000614463	0.00245236	-0.000917908	
0.000166293	-0.00181317	0.00318151	
-7.83258e-05	-0.000275217	-0.00249212	
-0.0146866	0.0345073	-0.0239072	
-0.012035	0.0238026	-0.0155464	
0.000636532	-0.002557	-0.00159536	
0.000974704	-0.00353594	0.00205552	
0.000666534	-0.0033555	0.00216972	
0.000172144	-0.00296055	0.00163647	
-0.00176759	0.00739171	-0.00310092	
-0.000135246	-5.47092e-05	-3.25912e-05	
7.94539e-05	5.64728e-05	5.43975e-05	
8.03161e-05	-3.64574e-05	-8.21861e-06	
5.59025e-05	-3.998e-05	-0.000124863	
-0.000711942	-0.00139555	-0.000124264	
0.0348	-0.0579077	0.0213785	
0.00224705	-0.00496831	-0.000406264	
-0.000514998	-0.00171012	-0.00216981	
-0.00563227	0.0165644	-0.00669281	
-0.00036862	-0.00075327	-0.000630164	
-5.48271e-05	-0.00213662	-0.0021376	
0.000352349	-0.000253763	-0.000576988	
0.0094125	-0.00849644	0.00496944	
-0.000108658	-0.00173325	-0.0012522	
-0.00014876	-0.000738813	-0.000841134	
6.55998e-06	4.48629e-05	6.13424e-05	
0.0001495	-5.41377e-05	-0.000284339	
-0.00291034	0.00324129	0.00565522	
0.00326422	-0.0196586	-0.0157126	
-0.00521851	-0.000544307	0.0355791	
0.00623965	-0.00122085	-0.0104216	
0.00780027	-0.00143626	-0.0127571	
0.0106576	-0.00343841	-0.023052	
0.00229469	0.00202787	-0.00761208	
0.00693943	-0.00128831	-0.0123935	
0.00611783	0.00055541	-0.0149744	
0.00761198	-0.0018579	-0.0144176	
0.0132665	-0.00223201	0.0472658	
0.000406508	-0.00338901	0.00617804	
0.00130707	0.000248819	0.0296075	
-0.00129002	0.00337474	0.00305203	
0.00438454	0.000316443	-0.011729	
0.00188867	0.00232851	-0.00642538	
0.000978946	0.00335114	-0.00286832	
-0.00094336	0.00257691	-0.00168777	
0.00928266	0.00111562	0.0337775	
0.0023946	-0.00731446	0.0113634	
0.00262594	0.00034011	0.0349242	
-0.000141129	3.43792e-05	2.50605e-06	
0.00315323	-0.00468271	0.0126138	
7.26224e-05	3.84982e-05	0.000122797	
-0.00226959	-0.000449171	0.0258715	
-8.30929e-06	0.000123826	-4.70138e-05	
-0.000699335	0.00321868	0.000199246	
0.000865085	0.00160106	-0.000120322	
-0.00263973	0.00267586	0.0108942	
-0.000810329	0.00196359	-0.00149212	
-0.00156659	0.000705428	0.0135265	
0.0017005	0.00318391	-0.00559027	
0.000389182	-0.000298745	-0.00016111	
-0.00012682	0.00309179	-0.000732924	
0.0010433	0.00286556	-2.2152e-05	
0.000966815	0.000710835	-0.000313382	
0.00107973	0.00227441	4.44505e-05	
-0.00531293	-0.01257	-0.00315093	
-0.0254379	-0.0609548	-0.165598	
-0.00289658	-0.00524312	-0.000418542	
0.00321321	0.00536995	0.00256857	
-0.00139682	-0.00269462	0.000284483	
0.00580905	0.0129385	0.00848328	
-0.0108742	-0.0223673	-0.00810003	
0.00521658	0.0088946	0.00441117	
-0.00208203	-0.00732542	-0.0043106	
0.000543875	0.00185144	0.00536117	
0.0015662	0.00367734	0.00420845	
-0.00222212	-0.00702254	-0.0116714	
0.00584454	0.009354	0.00487716	
-0.000383085	-0.00149531	0.000506673	
0.00612285	0.0112581	0.00594348	
0.00541899	0.00879669	0.0041436	
0.000423589	-0.000170315	0.00176245	
-0.00441953	-0.0154715	-0.0100016	
-0.00260094	-0.00467012	-0.00287631	
-0.000389587	-0.0012734	0.00119636	
0.000370781	0.000200618	-0.000152493	
0.000307452	-0.000494825	0.000646422	
0.000563	0.00014602	-0.00015939	
-9.11695e-05	-0.000318229	0.00165922	
-6.13118e-05	0.000107378	-0.000248521	
0.012288	0.0214054	0.0122639	
0.00542683	0.00870576	0.00340118	
0.0104293	0.0168766	0.00602459	
0.012544	0.0249335	0.0109979	
-0.000312221	-3.59357e-06	0.00136203	
1.11491e-06	-8.83428e-07	-8.541e-06	
-0.000333551	6.09457e-05	0.00173289	
0.00331785	0.00539476	0.00235925	
5.70515e-05	2.0912e-05	-0.000284516	
-1.74894e-05	-0.000268293	0.00130437	
3.97003e-05	-0.000537544	0.00159046	
-0.000130167	-0.000226779	0.00191697	
0.0262406	-0.0133659	0.0192302	
0.00527862	0.00856429	-0.0251295	
-0.00741986	0.0221073	-0.00592818	
0.00147956	-0.00285512	0.00113606	
-0.0059708	0.0199631	-0.00642382	
-0.00891224	0.0268116	-0.0067308	
-0.00527531	0.0134322	-0.00986781	
-0.00499165	0.00987381	-0.00704154	
0.00176162	-0.00704476	0.00409287	
0.000419325	-0.00432776	0.00286458	
-0.000619616	0.00247701	-0.00100213	
0.000310324	-0.00192749	0.00313222	
-0.000110967	-0.000182742	-0.00222015	
-0.0174312	0.034329	-0.0243621	
-0.012217	0.0245009	-0.0152004	
0.000578113	-0.00230294	-0.00142063	
0.000953662	-0.0035687	0.00192096	
0.000675915	-0.00344486	0.00205798	
0.000134688	-0.00303954	0.00152437	
-0.00180767	0.0073768	-0.0031803	
9.85433e-06	3.02543e-06	3.05047e-06	
-8.13204e-06	-5.93876e-06	-5.66933e-06	
-6.81949e-06	-2.6962e-07	1.18508e-06	
5.89304e-05	-4.22908e-05	-0.000132109	
-0.000613302	-0.000991056	-4.84154e-05	
0.0360082	-0.0564325	0.0215913	
0.00206114	-0.00478288	5.8785e-05	
-0.000178866	-0.00173116	-0.00162425	
-0.00564683	0.0168484	-0.00650928	
-0.000242821	-0.000513371	-0.000445338	
-7.75563e-05	-0.00176563	-0.00176443	
0.000230483	-0.000168992	-0.000385143	
0.00809341	-0.00883825	0.0061393	
-0.000164543	-0.00154258	-0.00109791	
-0.00011359	-0.000688557	-0.000785577	
-4.3982e-06	-3.16487e-05	-4.33106e-05	
0.000117262	-4.45299e-05	-0.000222574	
-0.00280438	0.00354158	0.00507991	
0.00280522	-0.0193538	-0.0151672	
-0.00437583	-0.00213453	0.0363827	
0.00628673	-0.000890929	-0.0107872	
0.00752747	-0.00151597	-0.0132654	
0.0116548	-0.00384916	-0.0227874	
0.00260142	0.00148459	-0.00777909	
0.00668171	-0.00132967	-0.0126529	
0.00644886	-7.04148e-05	-0.0148778	
0.00746642	-0.00221147	-0.0144738	
0.0140613	-0.00244514	0.0474847	
0.000475776	-0.00349756	0.00645827	
0.00187653	-0.000447631	0.0302296	
-0.000990081	0.00429532	0.00247187	
0.00495105	1.30265e-05	-0.0115694	
0.00208093	0.00193707	-0.00670402	
0.000621515	0.00261987	-0.00168483	
-0.000608278	0.00181453	-0.00115505	
0.0097107	0.000906436	0.0340925	
0.00235782	-0.00747493	0.0114062	
0.00322605	-0.000297766	0.0355171	
-6.09505e-05	2.79244e-05	-1.18971e-05	
0.00330373	-0.00486109	0.0128588	
3.69161e-05	3.00688e-05	4.60978e-05	
-0.00170165	-0.00138284	0.0264014	
-4.46285e-05	0.000571004	-0.000228327	
-0.00071969	0.00315693	0.000357298	
0.000448961	0.000831691	-7.78203e-05	
-0.00246271	0.00135078	0.0114814	
-0.000544988	0.00132917	-0.000987197	
-0.00155346	-0.000265052	0.014008	
0.00155755	0.00280431	-0.00536528	
0.000176966	-0.000132337	-7.85182e-05	
-0.000120555	0.00292512	-0.000689536	
0.000600551	0.00166412	-2.01343e-05	
0.000413283	0.000314609	-0.000148392	
0.000590997	0.00124174	9.13211e-06	
-0.00564919	-0.0124931	-0.00267407	
-0.0271214	-0.0611612	-0.169377	
-0.00270016	-0.0050565	-0.000599606	
0.00345429	0.00527231	0.00292399	
-0.00136024	-0.00275482	-9.23622e-05	
0.00564408	0.0129226	0.00819532	
-0.0106789	-0.0224063	-0.00772217	
0.00532667	0.00886723	0.00499568	
-0.00212354	-0.00744402	-0.00482836	
-6.64862e-05	0.0015943	0.00505794	
0.00148914	0.00369853	0.00384543	
-0.00251136	-0.00517233	-0.0126694	
0.00588066	0.00926814	0.00562592	
-0.000265303	-0.00134463	0.000715454	
0.00612744	0.0115918	0.00603518	
0.00548851	0.00870544	0.00490585	
0.000250147	-0.000241171	0.00116199	
-0.0043722	-0.0154493	-0.0101281	
-0.00265212	-0.00449972	-0.00322629	
-0.000312392	-0.00103711	0.000804917	
0.000243056	0.000145481	-0.000113349	
0.000209072	-0.000351487	0.000448603	
0.000337093	-0.000144414	0.0001039	
-7.14315e-05	-0.000272497	0.00141167	
4.13307e-06	-6.97159e-06	1.66113e-05	
0.0122598	0.02172	0.0121932	
0.00545931	0.00876339	0.00437386	
0.0103663	0.0171622	0.00700302	
0.0122435	0.0251239	0.0110006	
-0.000318147	2.63046e-06	0.00139387	
-0.000148221	1.7458e-05	0.000807294	
-0.000290027	5.85695e-05	0.00149709	
0.0033418	0.00540383	0.00290885	
-8.21544e-05	-3.13741e-05	0.000403935	
-2.23561e-05	-0.000261961	0.00132278	
3.46027e-05	-0.000426682	0.0012608	
-0.000106754	-0.000173897	0.00154559	
0.0253379	-0.015062	0.0207317	
0.00532616	0.00855241	-0.0247944	
-0.00738521	0.0223846	-0.00588239	
0.00133634	-0.00302406	0.0012945	
-0.00600545	0.0201205	-0.00647696	
-0.00898566	0.0269823	-0.0068687	
-0.00557834	0.013881	-0.00942854	
-0.00530874	0.0102809	-0.00651544	
0.00173652	-0.00693149	0.00409017	
0.000439543	-0.00422834	0.00290955	
-0.000637995	0.00254345	-0.000996954	
-0.000192449	-0.00206509	0.00299813	
-0.000274797	0.000195296	-0.00171146	
-0.017811	0.0354603	-0.0240381	
-0.0121546	0.024999	-0.0150589	
0.000681108	-0.00193327	-0.00103545	
0.000947962	-0.00347515	0.00192241	
0.000674516	-0.00337946	0.00207699	
0.000173988	-0.00297487	0.00156204	
-0.00181846	0.00746534	-0.00318903	
-4.05462e-05	3.29531e-06	-8.6036e-06	
1.98622e-05	1.48601e-05	1.405e-05	
2.04155e-05	-1.16995e-05	-5.69873e-06	
4.75802e-05	-3.48988e-05	-0.000107449	
-0.000839986	-0.00120339	-5.48845e-05	
0.0358393	-0.0561957	0.0217555	
0.00232556	-0.00421937	0.000380326	
-9.5804e-05	-0.00148907	-0.00132192	
-0.00559617	0.0170121	-0.00638851	
-0.000178329	-0.000387016	-0.000345473	
-2.80366e-05	-0.00135693	-0.00136878	
0.000177368	-0.00013281	-0.000301856	
0.00755344	-0.00901107	0.00656398	
-0.000173844	-0.00155019	-0.00112902	
-6.91794e-05	-0.00044762	-0.000519406	
-8.10603e-07	-6.09041e-06	-8.28631e-06	
9.74265e-05	-3.83864e-05	-0.000186843	
-0.00297263	0.00320558	0.0050555	
0.00344733	-0.0199413	-0.0131631	
-0.00367308	-0.00313179	0.03677	
0.00657573	-0.001417	-0.0106947	
0.00761215	-0.00187517	-0.012983	
0.0120033	-0.00450883	-0.0227771	
0.00253622	0.000693924	-0.00719375	
0.00713275	-0.00203746	-0.0123172	
0.00663751	-0.000802895	-0.0149476	
0.00788792	-0.00262433	-0.01422	
0.0142174	-0.00248991	0.0477092	
0.000485997	-0.00357467	0.00658278	
0.00205129	-0.000897852	0.0305347	
4.26017e-06	0.00452504	0.00270749	
0.00522027	-0.000761377	-0.0114508	
0.00192332	0.000793134	-0.00598273	
0.000612765	0.00102116	-0.00128446	
-0.00039705	0.00119695	-0.00076346	
0.00986157	0.000876443	0.0342738	
0.00223284	-0.0075229	0.0114534	
0.00343904	-0.000639278	0.0357805	
-5.7446e-05	1.44974e-05	-2.81611e-05	
0.00323906	-0.00500704	0.0129915	
2.4386e-05	4.34066e-05	3.09244e-05	
-0.00141855	-0.00190619	0.0265134	
-1.30863e-05	0.00014327	-5.78155e-05	
-0.000636772	0.001453	0.00115091	
0.00024891	0.000461586	-4.60868e-05	
-0.00220264	0.000188244	0.0117442	
-0.000329479	0.000831233	-0.000601599	
-0.00150469	-0.000835839	0.0141726	
0.00150289	0.00102281	-0.00497665	
0.000126119	-9.19463e-05	-5.60135e-05	
-4.5872e-05	0.00110038	-0.000258211	
0.000267172	0.000759067	-1.60188e-05	
0.000261293	0.000203901	-9.6308e-05	
0.000266249	0.000575355	-5.82543e-07	
-0.00631588	-0.0124777	-0.00308095	
-0.020927	-0.0696309	-0.170022	
-0.00182091	-0.00344409	-0.000434109	
0.00346415	0.00533486	0.00212576	
-0.00115955	-0.00249181	-0.000582976	
0.00504927	0.0120083	0.00700678	
-0.0106112	-0.0212935	-0.00895348	
0.00521779	0.00928868	0.00353028	
-0.00216219	-0.00741943	-0.00521839	
-0.000393303	0.00150825	0.0053581	
0.00172952	0.00475809	0.00382844	
-0.00193064	-0.00453241	-0.0133916	
0.00617476	0.00957015	0.00407528	
-0.000267789	-0.000733344	1.00641e-05	
0.00665104	0.0123512	0.00526867	
0.00598942	0.0088598	0.00328611	
0.000568118	0.000717526	0.00170662	
-0.00426044	-0.015787	-0.0107635	
-0.00276419	-0.00431749	-0.00369208	
-0.00070785	-0.00217893	-9.4125e-05	
0.000179228	0.000122659	-7.99901e-05	
0.00015586	-0.00025277	0.000312266	
0.000282266	-0.000119849	9.39406e-05	
-3.29514e-05	-0.000132766	0.000687952	
-0.000117634	0.000203505	-0.000469328	
0.0122739	0.0218222	0.0114742	
0.00588059	0.00873775	0.00259715	
0.0106867	0.0171359	0.00558717	
0.0117113	0.0242961	0.00960015	
-0.000126698	6.99558e-07	0.000563079	
0.000145902	-1.28288e-05	-0.000841959	
-0.000192951	3.80251e-05	0.000998718	
0.00349846	0.00552117	0.00187419	
0.000172356	6.71234e-05	-0.000881445	
-1.20022e-05	-0.000119816	0.000614312	
1.26256e-05	-0.000197803	0.000590606	
-8.81253e-05	-0.000148072	0.00129913	
0.0249409	-0.0151965	0.0211012	
0.00546356	0.00886976	-0.0245142	
-0.00735278	0.0225293	-0.00577205	
0.00193752	-0.00246322	0.00180159	
-0.00600626	0.0201432	-0.00647944	
-0.00900682	0.0270961	-0.00687248	
-0.00568448	0.0142114	-0.00911229	
-0.00553786	0.0107055	-0.00621178	
0.00174269	-0.00688656	0.00405015	
0.000449864	-0.00420806	0.00289921	
-0.000647158	0.00258149	-0.00100666	
-0.000456821	-0.00200661	0.00299791	
-0.000214465	0.000171659	-0.00136844	
-0.0179128	0.036414	-0.0237688	
-0.0121877	0.0254235	-0.0149329	
0.000409198	-0.00119056	-0.000686081	
0.000941528	-0.00343648	0.00188772	
0.000672529	-0.00337565	0.00205308	
0.000187086	-0.00296489	0.00155147	
-0.00183109	0.00750245	-0.00322279	
-1.57736e-05	4.88727e-06	-2.65982e-06	
7.00043e-06	5.38143e-06	5.0305e-06	
7.37966e-06	-5.27579e-06	-2.86334e-06	
2.28681e-05	-1.74017e-05	-5.22228e-05	
-0.000122471	-0.000163444	-1.15647e-05	
0.0359537	-0.0557582	0.021911	
0.00229299	-0.00406827	0.000481243	
0.000531171	-0.00172455	-0.000473663	
-0.00560953	0.0171844	-0.006247	
-0.000105636	-0.000238881	-0.000216553	
-8.93627e-06	-0.00120879	-0.00127045	
8.78198e-05	-6.77726e-05	-0.000152005	
0.00746132	-0.00816013	0.00683794	
-4.23333e-05	-0.000441716	-0.000326297	
-4.265e-05	-0.000312654	-0.000371159	
-1.60258e-06	-1.25592e-05	-1.7121e-05	
4.66944e-05	-1.9407e-05	-9.05933e-05	
-0.00305474	0.00305225	0.00505605	
0.00516395	-0.0191215	-0.013061	
-0.003654	-0.00315156	0.0369957	
0.0066417	-0.00154057	-0.0108341	
0.00777497	-0.00199061	-0.0131594	
0.0120436	-0.00437488	-0.0233977	
0.00236576	0.000407222	-0.00674202	
0.00711377	-0.00181951	-0.0126999	
0.00637863	-0.00106623	-0.0146045	
0.00792727	-0.0024686	-0.0145777	
0.0141897	-0.00226441	0.0477859	
0.000514279	-0.00360488	0.00685469	
0.00218881	-0.000867188	0.0306776	
0.00078225	0.00476026	0.00310861	
0.00513363	-0.000614034	-0.0118346	
0.00179108	0.000486879	-0.00567266	
0.000580992	0.000950051	-0.00116018	
-0.000495237	0.00148969	-0.000947844	
0.0098712	0.00104067	0.0344083	
0.00207852	-0.00750143	0.0115757	
0.00352986	-0.000529833	0.0360195	
6.00088e-07	2.56909e-05	-4.1392e-05	
0.0032135	-0.00504701	0.0131033	
1.01985e-05	6.00339e-05	1.52736e-05	
-0.00138476	-0.00181349	0.0266788	
-4.56782e-06	4.37869e-05	-1.77916e-05	
-0.000632853	0.00123569	0.00135901	
0.000234055	0.000439891	-4.56771e-05	
-0.0021852	0.000125642	0.011848	
-0.000419282	0.001067	-0.000773891	
-0.00148364	-0.000772319	0.0142348	
0.00144283	0.000946353	-0.00493647	
0.000155963	-0.000109503	-6.6921e-05	
-3.86688e-05	0.000968328	-0.000222771	
0.000252183	0.000723553	-1.59655e-05	
0.000259621	0.000210424	-9.66621e-05	
0.000257758	0.000569138	-2.50984e-06	
-0.00607482	-0.0125588	-0.0024532	
-0.0252742	-0.0706686	-0.173289	
-0.00194499	-0.00349346	-4.39012e-05	
0.00351124	0.00524347	0.0030421	
-0.00126325	-0.00254048	2.38485e-05	
0.00512263	0.0119442	0.00773218	
-0.0101763	-0.0218659	-0.00724019	
0.00540574	0.00906114	0.00557471	
-0.00226133	-0.00785901	-0.00508218	
-0.00051288	0.00235726	0.00465294	
0.00187991	0.00469903	0.00456232	
-0.00162543	-0.0040059	-0.0134073	
0.00598074	0.00957312	0.00609942	
1.97511e-05	-0.000884951	0.00115861	
0.00641416	0.0123682	0.00629782	
0.00567969	0.00904263	0.00522085	
0.000638693	0.000546468	0.00195006	
-0.0044991	-0.0157142	-0.0103649	
-0.00266568	-0.00455408	-0.00356648	
-0.000808488	-0.00239622	0.000107273	
0.000322571	6.36597e-05	3.57743e-06	
0.000246683	-0.000399234	0.000508286	
0.000342633	-0.000160173	0.000172456	
-6.20822e-05	-0.000279138	0.00141234	
3.5227e-05	-6.13325e-05	0.000142561	
0.0121359	0.0218393	0.0121238	