<VTKFile type="UnstructuredGrid" version="0.1" byte_order="LittleEndian">
	<UnstructuredGrid>
		<Piece NumberOfPoints="18981" NumberOfCells="18981">
			<CellData Scalars="scalars">
				<DataArray type="Float64" Name="Strength" NumberOfComponents="3" Format="ascii">
-0.0101162	-0.0136354	0.0144857	
-0.0142156	-0.0206104	-0.0204875	
0.00590827	0.0686391	0.0283781	
0.00564519	-0.00742146	-0.00624752	
0.00622947	-0.000729985	-0.011362	
0.0110244	0.0501307	-0.0424446	
0.0132904	0.0854768	-0.0372568	
-0.00127249	0.0101131	-0.0230504	
0.0106834	0.0815122	-0.0442131	
0.00130365	0.0212586	-0.0344944	
0.00408012	0.0259882	0.0383164	
0.00536915	-0.00180094	-0.0015219	
-0.00168013	0.0444551	0.00506767	
0.00176961	0.0013945	-0.00159987	
0.0108642	0.0652825	-0.0480109	
0.00585839	0.0868135	-0.0312747	
-0.00843691	0.0959713	0.0200974	
0.00570171	0.0461955	-0.0547371	
0.00688102	0.0197236	0.0246372	
0.00262643	-0.0128292	0.00683557	
-0.00626917	0.0400405	0.0090713	
-0.000145083	0.00473684	-0.000451283	
0.000759916	-0.00644264	0.00985568	
0.000926432	0.00146754	-0.00196625	
0.00340816	0.0514187	0.00815937	
-0.00130038	-0.0125831	0.00468167	
0.00602571	0.0895563	-0.0243228	
-0.00872891	0.0376969	0.0217959	
-0.00116436	0.08596	0.0262586	
-0.00751927	0.028179	-0.0432077	
-0.00674216	0.0516671	0.0206827	
-0.00332457	0.0938325	0.00300713	
0.000628731	-2.10376e-05	0.000237586	
5.70049e-05	0.0898674	-0.0127968	
-0.0110369	0.0810503	0.00838889	
0.00382733	-0.00195456	0.0221381	
-0.0221515	0.0552748	0.0199094	
-0.0156855	-0.00755488	-0.0234505	
-0.142155	0.00124088	-0.0477074	
0.0290555	-0.0038809	0.0446113	
0.000156951	0.0120507	-0.0140954	
0.00660492	-0.0269455	0.0496444	
-0.00508336	-0.00481309	0.0696429	
-0.0140006	-0.00480271	0.0606118	
0.0143285	-0.0195999	0.0523761	
0.0223998	-0.0152225	0.0328534	
0.011219	-0.00402863	0.0169282	
0.0109766	-0.0264639	0.052031	
0.0443787	-0.0174469	-0.0166736	
0.0120608	-0.00203054	0.0494403	
0.000555059	-0.00941177	0.0275841	
0.0116531	0.0156732	0.0531818	
0.00786278	0.00924186	0.0401452	
0.0321803	-0.0240904	0.0335825	
0.00958534	-0.0208958	0.0263477	
-0.00124184	-0.0169944	0.0117164	
0.00747431	-0.0201925	0.0553869	
-0.0141842	0.0107625	0.0473925	
0.00739225	-0.0253141	0.00372772	
0.00240917	-0.00349045	0.0198145	
0.0110677	-0.0196324	0.0568278	
-0.00907485	0.00763434	-0.0198725	
0.0210204	0.000710246	0.040603	
0.00469103	0.0113945	0.0306396	
0.00882984	0.016115	0.0148507	
-0.00313754	-0.00776451	0.0797719	
0.000322615	0.0208525	0.0365499	
-0.00407671	0.00540997	0.0185189	
0.0141999	0.0112881	0.0423099	
0.00472544	0.0083076	-0.0108743	
0.00154923	-1.67437e-05	-0.00480803	
0.0010766	-0.0016567	0.0258131	
0.0209482	-0.0173029	0.0512119	
0.011171	-0.00490251	0.0523896	
0.0116422	-0.0608199	0.00568629	
-0.00192892	-0.00963577	-0.0368537	
-0.00767196	0.00230151	-0.0327583	
-0.00650267	-0.0447253	0.00522356	
-0.0109467	0.0144124	-0.00972307	
-0.0147012	0.00969647	-0.0240769	
-0.000370295	0.00444663	-0.0550374	
0.00229471	-0.000646233	-0.0601056	
0.00293757	-0.00975692	0.000723664	
0.00183807	-0.00729211	0.00115148	
0.000574774	0.00127416	-0.00339423	
0.00521958	0.00139195	0.00654039	
0.00534515	-0.0142001	-0.069857	
-0.0133788	-0.0146379	-0.0488901	
-0.0111763	-0.0476731	-0.0223963	
0.0116192	-0.0343792	-0.0646729	
0.00112115	-0.00500846	0.00068272	
4.93136e-05	-0.00614377	-0.000684496	
-0.000133536	-0.00470189	-0.00323566	
-0.00206955	0.00541502	-0.00457026	
0.00164015	0.00184249	0.00344347	
-0.00189109	-0.00245361	0.000591954	
-0.000670041	-0.00285766	-0.000113271	
0.00727048	0.00308363	-0.00793816	
-0.0122469	-0.045547	0.0217262	
0.049413	-0.0393194	-0.064578	
0.0110339	-0.0436699	-0.0583015	
0.000676117	-0.0599752	-0.0396758	
-0.00915498	0.00058746	-0.0347778	
0.00501237	-0.0592556	-0.0140943	
0.00386304	-0.0509887	-0.0490221	
-0.0121074	0.0034939	-0.0415821	
0.0021814	-0.0556591	-0.0259994	
-0.00179345	-0.0712342	-0.0388494	
0.00389028	-0.00998149	-0.0149064	
1.2411e-06	6.69977e-06	9.40988e-06	
0.00777064	0.0142575	-0.0162482	
-0.00112769	0.00373175	0.00662546	
0.0240862	-0.0140415	-0.0123352	
-0.0252621	-0.00202907	0.0237586	
0.00400543	-0.00199725	-0.0110002	
0.00698708	-0.000679749	-0.0131299	
0.0165999	0.0203085	-0.00436511	
0.00181506	0.0144771	0.00134167	
0.00758224	0.00221587	-0.0124285	
0.00229432	0.0202286	0.0039389	
0.0112117	0.00604661	-0.0120142	
0.0250394	-0.00596267	0.0400154	
-0.00332091	-0.00221395	0.00336803	
-0.00245555	-0.00130999	0.0284649	
-0.00172186	0.000865954	0.00136735	
0.00409151	0.0167255	-0.00169329	
0.00091897	0.013444	0.00367047	
0.00210389	0.00777244	0.00840635	
0.00164204	0.00573264	-0.00899765	
0.018637	-0.00169899	0.0282366	
0.0115938	0.00469719	0.00507256	
0.00356947	0.00328696	0.0330391	
9.3432e-05	-8.7394e-05	0.000294597	
0.00345921	-0.00413203	0.011151	
-0.000314697	-0.000284632	2.00736e-05	
-0.00908856	-0.00319076	0.0229256	
-9.1609e-07	0.000185353	-8.71059e-05	
-0.000632041	0.0112704	-0.000592202	
0.00544556	-0.000384309	0.00169323	
-0.00950319	0.00584755	0.00699045	
-0.000784322	0.00274962	-0.00796412	
-0.00418276	-0.00133677	0.0125219	
0.00214465	0.00845706	0.00821101	
-8.67764e-05	0.00134497	0.000364437	
-0.000723158	0.0100976	0.00251535	
0.00400169	0.00127582	0.00786105	
0.000759061	-0.0026983	-0.000346686	
0.00521678	0.000735198	0.00506687	
-0.000983884	-0.0127461	-0.00584545	
0.0276859	-0.104017	-0.121589	
-0.0107008	0.00234096	0.00300594	
8.11027e-05	0.00695895	0.00161889	
-0.00378496	-0.0040072	0.0039289	
0.015217	-0.00230469	0.0149968	
-0.027525	-0.000173213	0.0088604	
0.0115762	-0.00156606	0.0031711	
0.0029545	-0.00771328	-0.00115555	
-0.00114772	0.00175169	0.00681495	
0.00189269	-0.00219622	0.0074411	
-0.00474041	-0.00560791	-0.0112817	
0.0110001	-0.000506335	0.00624815	
-0.00161246	-0.0016222	0.00500374	
0.00960729	0.0016341	0.010294	
0.00958881	0.00170733	0.0060688	
0.000285041	-0.00296504	0.00494246	
-0.00364537	-0.015816	-0.00787016	
0.00291912	-0.00446216	-0.00283275	
0.000161337	-0.00305499	0.00639672	
-0.00176054	-0.00139915	0.00107428	
0.00263731	-0.00133982	0.000761122	
0.000351629	0.0022309	0.000860209	
-0.00110222	-0.00312577	0.0055052	
-0.000604207	0.0004734	-0.00129713	
0.0241984	0.00681554	0.016302	
0.00916134	0.00395409	0.0045869	
0.0130378	0.0153607	0.00448071	
0.028565	-0.00535052	0.0183881	
-0.0012144	0.00397718	0.00441522	
-0.000234531	0.000380259	0.000688581	
0.000307099	0.00348836	0.00614645	
0.00182094	0.00645101	0.00102636	
0.000412834	-0.00013249	-0.000879918	
0.000151868	0.00058543	0.0062374	
0.000141983	-0.00297142	0.00543945	
-0.00125445	-0.00179627	0.00732371	
0.0246843	-0.0220083	-0.0100859	
0.0158369	-0.0115485	-0.0175704	
-0.0165863	0.0169093	0.000682064	
0.00040378	-0.00679433	0.00018079	
-0.00594462	0.0211537	0.000221651	
-0.013156	0.0254399	0.0043559	
-0.00887222	-0.00332263	-0.0155815	
-0.00633573	-0.00219574	-0.0119833	
0.000672174	-0.00605936	0.00583728	
-0.000126541	-0.00324077	0.00392773	
-0.000955307	0.00262751	0.000371382	
-0.00355252	0.000947126	0.00138153	
0.000480414	0.000842911	-0.0084113	
-0.02906	-0.0188489	-0.025532	
-0.0244986	0.0168212	-0.00756037	
0.00244448	-0.00184	-0.00941205	
0.000907175	-0.00308218	0.00306069	
0.000557077	-0.00237917	0.00318211	
0.000161705	-0.00245348	0.00231098	
-0.00120599	0.00850153	-0.00117075	
0.000181916	0.00150152	0.000208074	
0.00106402	-0.000184438	-0.000119728	
0.000493208	0.000638954	0.000219765	
-0.000413397	-8.52677e-05	0.000224557	
-0.0003141	-0.00421575	0.00357977	
0.0453953	-0.0317325	-0.0483297	
0.00415126	-0.00305649	-0.00998426	
-0.00115742	-0.0084337	-0.00435712	
-0.0127509	0.0135077	-0.00222702	
-0.00163854	-0.00226565	-0.00103042	
0.00070852	-0.00690484	-0.00713759	
0.0012122	0.000763056	-0.000702915	
0.00939893	-0.00797129	-0.0114868	
0.000247159	-0.00652652	-0.00334445	
0.00127764	-0.00281808	-0.00301628	
0.000126303	0.000684117	0.00108928	
0.000145374	9.48482e-05	-4.42004e-05	
-0.00148704	0.00423011	0.00618595	
0.0130279	-0.0207505	-0.0150833	
-0.00310589	-0.0125781	0.0328711	
0.00554175	-0.00259257	-0.0103308	
0.00882724	-0.00179603	-0.0116568	
0.0217411	0.00298747	-0.0112749	
0.00360561	0.00290625	-0.00650808	
0.00931386	-0.00018247	-0.0101354	
0.0113956	0.00324482	-0.0108456	
0.0124335	0.000739922	-0.0098333	
0.0130622	0.0145098	0.0442846	
-0.00098294	-0.00411129	0.00422375	
0.000763486	1.98695e-05	0.0293956	
-0.00167577	0.00262466	4.66084e-05	
0.00945321	0.0024881	-0.00751066	
0.00257249	0.00294902	-0.00584787	
0.000726903	0.0036818	-0.00192117	
-0.000710935	0.00109264	-0.00261048	
0.00939638	0.00871388	0.0320794	
0.00626344	-0.00258716	0.0118081	
0.0035416	0.00370284	0.0340088	
-0.000232782	3.31117e-05	-4.43723e-05	
0.00412083	-0.00524484	0.0112619	
-5.59393e-05	-6.31709e-05	0.000148481	
-0.00130095	-0.00444507	0.0247982	
-7.31442e-06	6.45165e-05	-3.70468e-05	
-0.000780776	0.00290737	0.000838209	
0.00176241	-3.82568e-05	-7.87196e-05	
-0.00072601	-0.00144888	0.0110083	
-0.000617849	0.000373299	-0.00211813	
-0.000118198	-0.00320932	0.0124615	
0.00078904	0.00432707	-0.00467804	
-0.000559524	0.000141551	7.43609e-05	
-0.000136481	0.00288094	9.88003e-05	
0.00197755	0.00147431	0.000472526	
0.00055142	-0.00112828	4.53458e-06	
0.00202431	0.00075059	0.000187511	
-0.00126744	-0.0133946	-0.0043691	
-0.0317732	-0.116653	-0.118878	
-0.00403101	-0.00776276	0.000537809	
0.0009228	0.00658042	0.00253324	
-0.00194824	-0.0026991	0.000630436	
0.00780025	0.0149334	0.00711876	
-0.0165	-0.0226879	-0.00175455	
0.0071076	0.00822758	0.00189195	
-0.00212025	-0.00665279	-0.00434513	
0.00243067	-0.000630997	0.00582564	
0.00153102	0.00301016	0.00373816	
-0.00393965	-0.0114502	-0.00836659	
0.00773895	0.00824834	0.00362799	
-0.000826849	-0.00210487	0.00115739	
0.00360436	0.0119704	0.00362773	
0.00760777	0.00729266	0.00296603	
0.000367762	-0.000748155	0.00158891	
-0.00622884	-0.0147406	-0.0104328	
-0.00130748	-0.00418907	-0.00422167	
-0.000120167	-0.000464915	0.00205422	
-0.000439575	0.000435143	-0.00026529	
0.00066043	-0.000547906	0.000257782	
-0.000630389	0.000338051	0.000202915	
-0.0003954	2.94029e-05	0.00187973	
-0.000183719	0.000141113	-0.000392983	
0.0122337	0.0234987	0.00956161	
0.00778986	0.00708379	0.00196187	
0.0124632	0.0164827	0.00277734	
0.008463	0.0305661	0.00409856	
-0.00123366	0.00073479	0.00136823	
6.75844e-05	-0.00010369	-0.000137129	
-0.00130753	0.000960911	0.0017051	
0.00213428	0.00627024	0.00181415	
0.000279275	-0.000134957	-0.000479303	
-0.000214788	5.61533e-05	0.00210853	
9.15002e-05	-0.000579721	0.00164043	
-0.000735957	0.000453079	0.00234447	
0.0277463	-0.0195688	-0.00781796	
0.0142001	-0.00315533	-0.0248	
-0.00723896	0.0219804	0.00597192	
0.00141994	-0.00291901	0.000143713	
-0.00622621	0.020905	-0.000230639	
-0.00760626	0.0272047	0.00685243	
-0.0102367	0.0094827	-0.0107033	
-0.00828376	0.00787874	-0.00637105	
0.00209268	-0.00768603	0.00378276	
2.83998e-05	-0.00485681	0.00261204	
-0.00047741	0.00251736	-0.000634884	
-0.00298148	0.00036284	0.00289776	
0.000108728	0.000914384	-0.00237268	
-0.0345655	0.0127177	-0.0250464	
-0.00826681	0.026775	-0.0135783	
0.00174737	-0.00166606	-0.00238875	
0.000968445	-0.00408911	0.00160857	
0.00084537	-0.00377501	0.00195513	
0.000188462	-0.00355044	0.000717317	
-0.00199278	0.00757176	-0.00223932	
0.000215365	-8.05761e-05	0.000394067	
-0.000267775	-7.43725e-05	5.50631e-05	
-7.25375e-05	-9.23867e-05	-0.000182697	
0.00033177	5.56015e-05	-0.000169911	
-0.000176956	-0.00096154	0.00140458	
0.0429565	-0.0585073	0.00591974	
0.00436371	-0.00303973	-0.00198321	
-0.0014495	-0.00228808	-0.00179216	
-0.005082	0.0181645	0.00115631	
-0.000659326	-0.000568717	-0.000252044	
0.000131584	-0.00223613	-0.00225246	
0.000650421	4.58202e-05	-0.000189862	
0.0127905	-0.00577409	-0.00267959	
-5.24443e-06	-0.0021234	-0.000896096	
0.000125229	-0.000849541	-0.000755343	
-4.21247e-05	-0.000203383	-0.000335951	
0.000441516	0.00012527	-0.000120622	
-0.00198491	0.00467312	0.00549837	
0.00318258	-0.027054	-0.00278307	
-0.00745322	-0.0011624	0.0353054	
0.00622731	-0.00261182	-0.0101492	
0.00878571	-0.00282769	-0.0119219	
0.0140813	-0.00896428	-0.0194638	
0.000631299	2.73891e-05	-0.00851267	
0.00855429	-0.00278683	-0.0109601	
0.00403078	-0.00369354	-0.0156409	
0.0103082	-0.00405955	-0.0120044	
0.0183173	0.00888881	0.044935	
0.00615154	0.00251332	0.000110317	
0.000585541	0.00143383	0.0298368	
0.00235773	0.00353214	-0.00119327	
0.00329705	-0.00319418	-0.0119742	
0.00108796	0.00118845	-0.00728764	
0.00116485	0.00356304	-0.00245719	
-0.00173658	0.000964267	-0.00242595	
0.0113615	0.00915391	0.0319949	
0.00446943	0.000112359	0.0130833	
0.00358847	0.00465095	0.0344215	
-6.64692e-05	-6.47081e-05	-0.000141909	
0.00306117	-0.00615557	0.0117458	
-4.70872e-05	0.000170271	3.74909e-06	
-0.0028782	-0.00201919	0.0256594	
-4.05644e-05	0.000225877	-0.000156705	
-0.00114736	0.00350913	-0.000611298	
0.00171688	0.000236872	-4.72172e-05	
-0.0031497	0.00275651	0.0107736	
-0.0011939	0.000264801	-0.00185523	
-0.00135898	-0.000798859	0.0133083	
0.00199291	0.00337019	-0.00567496	
-0.0005006	0.000255085	0.000156837	
-0.000289951	0.00332634	-0.00131107	
0.00225717	0.0017972	0.000372791	
0.000770017	-0.00106148	-3.41574e-05	
0.00219751	0.000872838	0.000274354	
-0.00277933	-0.0137295	-0.00299808	
-0.0240089	-0.023676	-0.172564	
-0.00459041	-0.00559527	0.000424298	
0.00194639	0.00626526	0.00242432	
-0.00194913	-0.00254443	0.00070931	
0.00762577	0.0139778	0.00710959	
-0.00986841	-0.0254789	-0.00256519	
0.00483881	0.0100756	0.00241467	
-0.00294911	-0.00652412	-0.00466727	
0.00498703	0.00268231	0.00408658	
0.00200124	0.00343237	0.00414183	
-0.00716758	-0.00598318	-0.0111338	
0.00494043	0.0107491	0.00329078	
-0.000170547	-0.00188783	0.000952762	
0.00568455	0.0120203	0.00359442	
0.00507638	0.00986994	0.00216538	
0.000700086	-0.000523351	0.00185726	
-0.00625532	-0.0155453	-0.00986183	
-0.000254433	-0.00405387	-0.00465043	
-0.000504685	-0.0011279	0.0016773	
-0.000706391	1.75417e-05	-6.68262e-05	
0.000882711	-0.000189776	0.000346346	
0.0003934	0.000619829	-0.000198179	
-0.000375348	-4.12933e-05	0.00188078	
-0.000137565	0.000106068	-0.000289415	
0.0122156	0.0228475	0.0111847	
0.00582908	0.00925049	0.00105178	
0.0114014	0.0177603	0.00171063	
0.0145396	0.0272538	0.0052313	
-0.000994292	0.000675556	0.00122923	
5.85895e-05	-7.1646e-05	-9.02347e-05	
-0.00105472	0.00104282	0.00147138	
0.00271977	0.00609084	0.00182516	
0.000292072	-0.000161376	-0.000442695	
-0.000198847	-4.33972e-05	0.00167785	
0.000107737	-0.000606016	0.00172085	
-0.000617917	0.000424041	0.00225863	
0.0316504	-0.0166283	-0.000227032	
0.0166202	-0.00628278	-0.0211014	
-0.00906822	0.0224845	0.00275481	
0.00134639	-0.00262716	0.00154497	
-0.00628437	0.0212754	-0.000483002	
-0.00936873	0.0274852	0.00540828	
-0.00665476	0.0145932	-0.00769401	
-0.00542438	0.0113125	-0.00461345	
0.00158139	-0.00716366	0.00438764	
0.000140061	-0.00451108	0.00278467	
-0.000652977	0.00265023	-0.000362172	
-0.00138267	0.000943449	0.00343768	
0.000501251	0.000837401	-0.00239262	
-0.022174	0.0317937	-0.0243562	
-0.0137452	0.023337	-0.016457	
0.000750692	-0.00219472	-0.00217025	
0.000877362	-0.00371096	0.00198543	
0.000777272	-0.00335325	0.00230138	
0.000320547	-0.00319481	0.00129098	
-0.00181337	0.00795504	-0.00199494	
0.000104309	0.000139114	-7.09807e-06	
0.000110378	1.77196e-05	-2.27469e-05	
7.78654e-05	1.67256e-05	-4.38144e-05	
0.00012566	2.21542e-05	-7.12787e-05	
-0.000505783	-0.000488784	0.00146512	
0.0307832	-0.0652784	0.00963167	
0.00257381	-0.00496899	-0.00071152	
-0.000658138	-0.00212677	-0.00186102	
-0.00672543	0.0178451	-0.00241512	
-0.000669887	-0.000815259	-0.00021598	
-6.72053e-05	-0.00231343	-0.00209227	
0.000683046	9.26711e-05	-0.000272995	
0.0109371	-0.00741112	0.0048501	
-0.000248012	-0.00210583	-0.000625794	
-9.65569e-05	-0.000794977	-0.000841312	
8.54468e-06	3.98143e-05	6.65516e-05	
0.000305792	9.23897e-05	-9.82886e-05	
-0.00271781	0.00464396	0.00507291	
0.0200362	-0.0079153	0.0145133	
-0.0090846	-0.00123005	0.0357451	
0.00668587	-0.00273048	-0.0103734	
0.00829551	-0.00377368	-0.0125905	
0.0110428	-0.0116072	-0.0210462	
0.00220614	0.000182239	-0.00815479	
0.00740997	-0.00450097	-0.0119301	
0.00657636	-0.00305282	-0.015023	
0.00834451	-0.00636477	-0.013318	
0.0170667	0.0125137	0.0455878	
0.00540595	-0.000799403	0.0047433	
0.00133299	0.00290937	0.0301847	
-0.00257203	0.00133271	-0.00398117	
0.00461784	-0.00345929	-0.0115566	
0.00224137	0.00112354	-0.00685445	
0.00142989	0.0035245	-0.00265922	
-0.00196516	0.000869828	-0.00253479	
0.0107742	0.0102978	0.0326101	
0.00744158	-0.00301751	0.0115044	
0.00337446	0.0060076	0.0351881	
-0.000112627	-3.93472e-05	-0.000126606	
0.00391902	-0.00398307	0.0129725	
0.000148607	-2.40389e-05	-1.39687e-05	
-0.00316875	-0.000877756	0.0264202	
-2.51984e-05	0.000105435	-8.40874e-05	
-0.00113462	0.00316826	-0.000450584	
0.00184994	0.000264472	-3.88646e-05	
-0.00340835	0.00252768	0.0110456	
-0.0016741	0.000242275	-0.00207803	
-0.0016892	-0.000325746	0.0138752	
0.00221521	0.00326321	-0.00558718	
-0.000472031	0.000205982	0.000117241	
-0.000247239	0.00305823	-0.0011314	
0.00242963	0.00190061	0.000532403	
0.000720527	-0.00104537	2.77088e-05	
0.00234913	0.000989351	0.000418381	
-0.00431072	-0.0137203	-0.00173695	
-0.0203339	-0.11847	-0.137086	
-0.00382916	-0.00481269	0.000433433	
0.00277147	0.00595525	0.0024049	
-0.00180766	-0.002496	0.000517634	
0.00717245	0.0138141	0.00671377	
-0.0124571	-0.0238307	-0.00162321	
0.00590437	0.00971929	0.00208402	
-0.00326912	-0.00645481	-0.00528003	
0.000610354	0.000761078	0.0057446	
0.00201701	0.00378319	0.00412251	
-0.00863966	-0.00142176	-0.0110654	
0.00588297	0.0103973	0.00348253	
-0.000255904	-0.00143921	0.000811071	
0.00657666	0.0124643	0.00345431	
0.00513929	0.0100433	0.00219674	
0.000771088	-0.000418235	0.00164442	
-0.00643994	-0.0148084	-0.0107221	
-0.00493185	-0.00274687	-0.00258191	
-0.000563531	-0.00121094	0.00125644	
0.000422561	9.46946e-05	0.000152089	
0.000736958	-0.000463071	0.000190138	
-0.000379756	0.000278968	0.000397395	
-0.000336248	-3.76802e-05	0.00170114	
-0.000117892	9.21123e-05	-0.000244828	
0.0131331	0.0230363	0.00997318	
0.00535324	0.00974976	0.000959875	
0.0105655	0.0185849	0.00153641	
0.0141736	0.026959	0.00459568	
-0.000816507	0.000641338	0.000991313	
3.00184e-06	-6.2787e-06	-6.1633e-06	
-0.000922124	0.000930809	0.00125256	
0.00301324	0.00598369	0.00200247	
0.000162761	-9.23871e-05	-0.000235488	
-0.00017693	7.5859e-06	0.00135806	
9.90586e-05	-0.000620259	0.00160063	
-0.000519214	0.000369565	0.00187987	
0.0329497	-0.0134946	0.00753196	
0.0160174	-0.00577336	-0.021813	
-0.00922487	0.022742	0.00272911	
0.00117735	-0.00224621	0.00244987	
-0.00642753	0.0213886	-0.000526329	
-0.00944162	0.0278368	0.00479629	
-0.00631055	0.0142875	-0.00894852	
-0.00594906	0.0107608	-0.00559529	
0.00170614	-0.00727027	0.00410837	
5.50232e-05	-0.00463044	0.00261727	
-0.000641526	0.00270284	-0.000412389	
-0.00119149	0.00118582	0.00349148	
0.000246863	0.000740445	-0.00216153	
-0.0207985	0.0326667	-0.0264644	
-0.0142948	0.0240587	-0.0158303	
0.000579494	-0.00207665	-0.00187013	
0.000880881	-0.00374441	0.00182614	
0.000820531	-0.00347181	0.00213874	
0.000280281	-0.00327149	0.00114535	
-0.00187601	0.00796215	-0.00202375	
8.13334e-06	-8.23161e-06	4.63326e-06	
-1.13408e-05	-2.25379e-06	2.40129e-06	
-3.87219e-06	-5.79984e-06	-1.2763e-06	
0.000133066	2.49837e-05	-7.45347e-05	
-0.000613791	-6.9083e-05	0.00103687	
0.03502	-0.0625304	0.00940447	
0.00216683	-0.00491824	1.1339e-05	
-0.000303973	-0.00206362	-0.00130228	
-0.00709515	0.0179258	-0.00234695	
-0.000451358	-0.000560066	-0.00017841	
-0.000123801	-0.00200364	-0.00161787	
0.000450804	5.43244e-05	-0.000190699	
0.00856953	-0.00731363	0.00817141	
-0.000370915	-0.00187009	-0.000469335	
-0.000137688	-0.00073486	-0.000780472	
-5.90806e-06	-2.80067e-05	-4.70323e-05	
0.00023778	7.30473e-05	-8.25931e-05	
-0.00278274	0.00487606	0.00425479	
0.0231616	0.00172147	0.0100559	
-0.00768449	-0.00422838	0.0366375	
0.00654378	-0.00270942	-0.0108584	
0.00777034	-0.00448374	-0.0130817	
0.0128806	-0.0113257	-0.0204923	
0.00260787	-0.000364788	-0.00817204	
0.00660207	-0.00522504	-0.0122487	
0.0070776	-0.0034912	-0.0147335	
0.00788666	-0.00707437	-0.0132824	
0.0140059	0.0152871	0.0462827	
0.00252013	-0.00235733	0.0066826	
0.00212356	0.00199065	0.0308878	
-0.00511637	-0.000548281	-0.0008516	
0.00520433	-0.00348374	-0.0113692	
0.00243855	0.000656921	-0.00706016	
0.000880601	0.00273247	-0.00155055	
-0.00134381	0.000552167	-0.001791	
0.0107522	0.0106572	0.0329725	
0.00714391	-0.00548349	0.0109079	
0.0042005	0.00550724	0.0358512	
-1.25152e-06	7.85953e-05	-2.33511e-05	
0.00663	-0.00486708	0.011885	
6.04515e-05	2.94057e-05	-8.22252e-06	
-0.00236728	-0.00212676	0.0269684	
-0.000129885	0.000470817	-0.000411152	
-0.00111608	0.00314965	-0.000273546	
0.00096278	0.000104741	-8.33855e-05	
-0.00306108	0.00103096	0.0117012	
-0.00116153	0.000125035	-0.00136883	
-0.00160147	-0.00135689	0.0143022	
0.00197236	0.00283566	-0.00541823	
-0.000238931	-9.71637e-06	1.83976e-05	
-0.000210627	0.00289906	-0.00105803	
0.00143887	0.00108019	0.000249995	
0.000324167	-0.000448158	-1.06351e-05	
0.00130454	0.000511391	0.00016555	
-0.00522124	-0.0134584	-0.000682947	
0.0252971	-0.0112186	-0.184032	
-0.00348349	-0.00477365	0.00033045	
0.00327631	0.00579459	0.00270724	
-0.00172691	-0.00263214	0.000135446	
0.0068384	0.0138943	0.00633098	
-0.0119416	-0.0239365	-0.00114073	
0.00607039	0.00980639	0.00269098	
-0.00313967	-0.00668284	-0.00572136	
0.0026758	-0.00287025	0.0037447	
0.00188127	0.00381879	0.00375474	
-0.0101044	-0.0041171	-0.0091273	
0.00569958	0.0105216	0.0043339	
-9.01021e-05	-0.00124826	0.000982321	
0.00648484	0.0129954	0.00298752	
0.00510747	0.010158	0.00306043	
0.000488354	-0.000389544	0.00107348	
-0.00491609	-0.0153339	-0.0108758	
-0.000406401	-0.00561638	-0.00277807	
-0.000427034	-0.00100451	0.000848482	
9.83263e-05	0.000265329	-0.000131316	
0.000586571	-0.000202395	3.05629e-05	
0.000300929	-0.000121582	-0.000215901	
-0.000262007	-2.98918e-05	0.00145202	
7.74442e-06	-5.86236e-06	1.64757e-05	
0.0129557	0.0236758	0.00929442	
0.00523368	0.0101706	0.00185242	
0.0100791	0.019382	0.00222971	
0.013391	0.0275261	0.00384822	
-0.000846603	0.000685629	0.000985596	
-0.000425375	0.000435148	0.000591514	
-0.000816389	0.000820423	0.00105637	
0.00301401	0.00610116	0.00244015	
-0.000236802	0.000128692	0.000332293	
-0.000205383	4.80511e-05	0.00137091	
9.44626e-05	-0.000504873	0.00126316	
-0.000418906	0.000319984	0.00151029	
0.0315265	-0.0125757	0.0154753	
0.0159896	-0.00525814	-0.0215697	
-0.00927115	0.022926	0.00316628	
0.000884466	-0.00212428	0.00286128	
-0.00650414	0.0215477	-0.000513816	
-0.00953385	0.028056	0.00472422	
-0.00697911	0.014034	-0.00927026	
-0.00663533	0.0107211	-0.00530742	
0.001627	-0.00715408	0.00413151	
8.91394e-05	-0.00451372	0.0027072	
-0.000664028	0.00276866	-0.000380308	
-0.00132182	0.000106525	0.00356621	
-5.86661e-05	0.000864988	-0.00157457	
-0.0221512	0.0323226	-0.0273212	
-0.0141103	0.0248873	-0.0153492	
0.000660936	-0.00173792	-0.00146836	
0.00086685	-0.00365014	0.00183558	
0.000807898	-0.00340225	0.00216624	
0.000294488	-0.00321464	0.00118481	
-0.00186073	0.00806359	-0.0020072	
-5.07335e-06	4.70387e-05	-7.17752e-06	
2.80667e-05	5.44862e-06	-5.64991e-06	
2.23618e-05	3.41938e-06	-1.03599e-05	
0.000108474	2.05475e-05	-6.01662e-05	
-0.000925926	0.000145554	0.0011968	
0.0360127	-0.0618798	0.00821463	
0.00255181	-0.00427823	0.000266275	
-0.000201557	-0.00178916	-0.00100092	
-0.00701256	0.018103	-0.00199095	
-0.000345294	-0.000418202	-0.000152693	
-9.43441e-05	-0.00156828	-0.00122234	
0.000354377	4.07257e-05	-0.000143848	
0.00766443	-0.00721397	0.00911256	
-0.000456279	-0.00187789	-0.000478424	
-0.000107329	-0.000487553	-0.000503254	
-1.14411e-06	-5.42067e-06	-8.9811e-06	
0.00019916	6.246e-05	-6.88123e-05	
-0.003208	0.0045405	0.00413478	
0.0238443	-0.00524911	0.00379612	
-0.00629067	-0.00590646	0.0370774	
0.0070035	-0.00299324	-0.0106442	
0.00776623	-0.0045813	-0.012855	
0.013399	-0.0118777	-0.0202016	
0.00257695	-0.0010618	-0.00738228	
0.00733984	-0.0052138	-0.0118416	
0.00728035	-0.00433119	-0.0145989	
0.00854815	-0.00701902	-0.0129501	
0.012873	0.0162157	0.0466044	
0.00365272	-0.00198158	0.00645415	
0.00232845	0.00167407	0.0312361	
-0.00469116	0.00027943	-0.00278208	
0.00563922	-0.00417057	-0.0109529	
0.00219768	-0.000442445	-0.00612519	
0.000744944	0.00105423	-0.00125383	
-0.000893503	0.000350179	-0.00118021	
0.0108585	0.0109898	0.0330794	
0.0058012	-0.00924623	0.00907252	
0.00431626	0.00574255	0.0361122	
-2.50858e-05	-4.62819e-05	4.962e-05	
0.00617992	-0.00575493	0.0119285	
2.54807e-05	3.41642e-05	4.20136e-05	
-0.00179313	-0.00264612	0.0271059	
-3.71031e-05	0.00011598	-0.000104414	
-0.000864272	0.00160637	0.000862194	
0.000533953	5.19332e-05	-5.97314e-05	
-0.00257711	-0.000171813	0.0119996	
-0.000721767	6.66831e-05	-0.000844544	
-0.00148416	-0.00182549	0.014453	
0.00180807	0.000946225	-0.0050504	
-0.000163044	2.8094e-05	3.75417e-05	
-7.11728e-05	0.00109036	-0.000399739	
0.000659276	0.000492416	7.8666e-05	
0.000214137	-0.00028122	-6.97275e-06	
0.000607401	0.000228565	4.56045e-05	
-0.00652237	-0.0132979	-0.000510648	
0.0190606	-0.0570841	-0.17934	
-0.00230758	-0.00328965	0.000264755	
0.00362302	0.00562689	0.00182681	
-0.00139775	-0.00248909	-0.000384922	
0.00593239	0.01297	0.00518887	
-0.0120813	-0.0231103	-0.00238266	
0.00586271	0.00991424	0.00112315	
-0.00292844	-0.00684498	-0.00597898	
-0.00256836	-0.0037316	0.00347191	
0.00206047	0.004945	0.00369041	
-0.00278311	-0.00204506	-0.0142003	
0.00644907	0.0102929	0.00288627	
-0.000256468	-0.000736414	0.000193522	
0.00730443	0.0133955	0.00207467	
0.00624235	0.00953568	0.0019205	
0.000976361	0.000533303	0.00164212	
-0.00651077	-0.0138557	-0.0129262	
-0.000903368	-0.00308665	-0.00560647	
-0.000873663	-0.00218057	-3.82294e-05	
0.000205991	2.3159e-05	-0.000114311	
0.000353069	-0.000252019	7.95854e-05	
0.000299077	0.000132192	-2.82632e-05	
-0.000124574	-1.4124e-05	0.000708229	
-0.000226603	0.000186015	-0.000456888	
0.0131167	0.0236268	0.00846589	
0.00636398	0.00921289	0.000616774	
0.0110385	0.0186183	0.00115418	
0.012882	0.0263204	0.00258454	
-0.000343058	0.000278031	0.000395868	
0.000433274	-0.000458442	-0.000619345	
-0.000553929	0.000546439	0.000698608	
0.00355567	0.00588766	0.00147707	
0.000509755	-0.000289421	-0.000724167	
-0.000106476	3.08391e-05	0.000634198	
4.45189e-05	-0.000240515	0.000589366	
-0.000354651	0.000268278	0.00126936	
0.0290148	-0.0141123	0.0187237	
0.0159569	-0.00524247	-0.0214389	
-0.00935961	0.0229809	0.00332341	
0.00179304	-0.00195203	0.00263766	
-0.00655681	0.0215606	-0.000476748	
-0.00950101	0.0282098	0.00463798	
-0.00723481	0.0142633	-0.00898602	
-0.0070536	0.0109702	-0.0050077	
0.00166121	-0.00711978	0.00406348	
0.00014844	-0.00452393	0.00264579	
-0.000679303	0.00280849	-0.000377732	
-0.00147247	-0.000189347	0.00348694	
-3.09684e-05	0.00072427	-0.0012425	
-0.0226387	0.0333213	-0.0268924	
-0.0141813	0.0254155	-0.0150634	
0.000386722	-0.0010527	-0.000964836	
0.000871479	-0.00361198	0.00179415	
0.000771295	-0.00340532	0.00214621	
0.000298757	-0.00320885	0.00116246	
-0.00187969	0.0081071	-0.00203872	
-1.34359e-05	1.35859e-05	-5.35092e-07	
9.98516e-06	2.01412e-06	-2.05494e-06	
7.77177e-06	2.38254e-06	-5.42231e-06	
5.25504e-05	9.41324e-06	-2.98457e-05	
-0.000138928	3.63294e-05	0.000155971	
0.0359571	-0.0616709	0.00798742	
0.0024958	-0.00414024	0.00035032	
0.000497856	-0.00185799	-0.000142003	
-0.00706476	0.0182193	-0.00193331	
-0.000213503	-0.000257168	-9.87038e-05	
-8.99262e-05	-0.00140362	-0.00114154	
0.000178732	1.90212e-05	-7.12485e-05	
0.0080074	-0.00640357	0.00869818	
-0.000127203	-0.000537298	-0.000139931	
-8.17325e-05	-0.000342239	-0.00035679	
-2.26647e-06	-1.1137e-05	-1.85904e-05	
9.64892e-05	2.96176e-05	-3.38647e-05	
-0.00340882	0.00435203	0.00412086	
0.0164641	-0.0130244	0.0121303	
-0.00616757	-0.00594764	0.0373349	
0.00707189	-0.00310382	-0.0107835	
0.00786792	-0.00473633	-0.0130567	
0.0132553	-0.0125165	-0.0206695	
0.00237408	-0.00133624	-0.00685166	
0.00715209	-0.00538324	-0.0122623	
0.0068915	-0.00479711	-0.0141652	
0.00846006	-0.007277	-0.0132846	
0.0132046	0.0162391	0.0465729	
0.00293366	-0.00384534	0.00629318	
0.0024186	0.00191925	0.0313779	
-0.00290594	0.00279009	-0.00430054	
0.00535567	-0.00450454	-0.0113398	
0.00197987	-0.000765085	-0.00576918	
0.000697415	0.000978599	-0.00113481	
-0.00112687	0.000414102	-0.00146339	
0.0115548	0.0103804	0.0332037	
0.00535561	-0.0107078	0.00775516	
0.00446851	0.00615002	0.0362895	
2.52918e-05	-6.684e-06	4.19545e-05	
0.00555926	-0.00652486	0.0119773	
1.24268e-05	5.04121e-05	3.74907e-05	
-0.0016994	-0.0024621	0.027294	
-1.29832e-05	3.48079e-05	-3.19418e-05	
-0.000815477	0.00143966	0.00112402	
0.000507346	5.0405e-05	-5.81283e-05	
-0.00250369	-0.000265151	0.0121224	
-0.000929643	6.72659e-05	-0.00108331	
-0.00152207	-0.0016985	0.014527	
0.0016906	0.000855116	-0.00503306	
-0.000173443	9.52164e-05	5.98607e-05	
-5.61566e-05	0.000961494	-0.000344704	
0.000626026	0.000472509	6.83789e-05	
0.00021667	-0.000283014	-3.65597e-06	
0.00059711	0.000230273	4.23865e-05	
-0.00625337	-0.0132616	-5.97417e-05	
0.027938	-0.0109987	-0.191208	
-0.00257508	-0.00314841	0.000579117	
0.00364728	0.00565502	0.00269264	
-0.00160777	-0.00241313	0.000242159	
0.00615004	0.0129396	0.00597033	
-0.0108682	-0.0235446	-0.000659453	
0.00594774	0.0102742	0.00324184	
-0.00325625	-0.00711674	-0.0059964	
-0.000132001	-0.00186681	0.00502792	
0.00241536	0.00483206	0.00442745	
-0.00256802	-0.00405323	-0.0136094	
0.00555831	0.0111097	0.00459375	
0.000293997	-0.000696646	0.00129637	
0.00673709	0.0139153	0.00282494	
0.00519096	0.0106661	0.00319379	
0.001068	0.00032946	0.00186572	
-0.00497972	-0.0146126	-0.0124218	
-0.000561615	-0.00364381	-0.00537671	
-0.00106577	-0.0023584	0.000175184	
0.000325242	-8.2157e-05	-3.70382e-05	
0.000586027	-0.00039833	5.27284e-06	
0.000348266	-4.85593e-05	-0.000241129	
-0.00025185	-3.29045e-05	0.00145601	
6.82343e-05	-5.68633e-05	0.000138554	
0.0126835	0.0239659	0.00897269	
0.0053451	0.010327	0.00185501	
0.0102612	0.0196881	0.00249	
0.0126837	0.0269225	0.00389269	
-0.000889155	0.000720715	0.00102068	