<VTKFile type="UnstructuredGrid" version="0.1" byte_order="LittleEndian">
	<UnstructuredGrid>
		<Piece NumberOfPoints="12099" NumberOfCells="12099">
			<CellData Scalars="scalars">
				<DataArray type="Float64" Name="Strength" NumberOfComponents="3" Format="ascii">
-0.00777059	-0.0148732	0.0139473	
-0.0074301	-0.0167625	-0.0254433	
0.0126265	0.0719833	-0.00503851	
0.00531553	-0.00684574	-0.00673603	
0.00622705	0.000275286	-0.0110645	
0.0143042	0.0535791	-0.0344723	
0.0156214	0.0841813	-0.0348187	
0.00103498	0.0161641	-0.0186109	
0.0159529	0.0825612	-0.0362865	
0.00276332	0.0292867	-0.0266717	
-0.00119633	0.0194227	0.0414483	
0.00431423	-0.00284233	-0.00259076	
-0.00311745	0.0436068	0.00567593	
0.00178736	0.000919546	0.00178785	
0.00993748	0.0702653	-0.0373933	
0.0157464	0.08581	-0.0249679	
0.0251319	0.0933156	0.00294378	
-0.00266494	0.0594523	-0.0377451	
0.00275104	0.0191509	0.0252638	
0.004245	-0.0111885	0.00829071	
-0.00621069	0.0383456	0.0127986	
0.00286671	0.00277182	0.000138847	
0.00197413	-0.00489305	0.010363	
0.000708833	0.00180383	-0.00170928	
0.00163167	0.0512958	-0.00129039	
-0.000584798	-0.0126597	0.00365231	
0.014234	0.0869934	-0.0237235	
0.00988829	0.0383732	0.0184648	
0.0209484	0.0857982	-0.00150668	
-0.00755344	0.042352	-0.0275579	
0.00813817	0.0531718	0.0121546	
0.0210356	0.089579	-0.00674537	
6.62861e-05	0.000657542	4.44278e-05	
0.0167084	0.0862507	-0.0150234	
0.00474243	0.0786705	0.0179301	
0.0174235	0.00463659	0.0129821	
0.00784226	0.0556902	0.025514	
-0.0121216	-0.00677775	-0.0249839	
-0.0325868	-0.133607	-0.0386751	
0.00619689	0.0155244	0.0497605	
0.00129223	0.0117141	-0.0137976	
0.0200435	-0.00823398	0.0515801	
0.0137137	-0.0273848	0.0616378	
-0.0141344	-0.022316	0.0552336	
0.0197759	-0.0134371	0.0513277	
0.0144499	-0.0156653	0.036087	
0.0125652	0.000918417	0.0160515	
0.013004	-0.0107589	0.0559573	
-0.0173492	-0.0173725	-0.010925	
0.0119907	-0.00346014	0.0483545	
0.00340741	-0.0104033	0.0264382	
0.00840638	0.00722413	0.0545862	
0.00693043	0.00310084	0.0404036	
0.0229269	-0.0159502	0.043285	
0.021928	-0.0177594	0.019739	
-1.45276e-05	-0.018187	0.00850669	
0.0138601	-0.017876	0.0539195	
0.0268285	9.08428e-05	0.00740859	
-0.0117689	-0.0221363	0.00717406	
0.00206905	0.00581102	0.0189744	
0.0131468	-0.0083521	0.0580823	
-0.00536301	0.00792335	-0.020532	
0.0236108	0.00681246	0.0376096	
0.00501117	0.0050349	0.0315773	
0.00914992	0.0134425	0.0164529	
0.0271419	-0.0208435	0.0710351	
-0.0034628	0.00578975	0.0408073	
-0.00202919	-0.00021429	0.0192077	
0.00404797	0.0064622	0.0446209	
0.00385945	0.00864194	-0.0105354	
0.000830362	0.000773489	-0.00481119	
0.00220115	-0.00437212	0.0249482	
0.0142022	-0.0181869	0.0521616	
0.00797998	-0.00421036	0.0521235	
0.0152911	-0.0586167	-0.00572699	
0.00439915	0.0120746	-0.0348013	
-0.00712984	-0.000189891	-0.0323758	
-0.00880694	-0.0402247	-0.0169846	
-0.00998112	0.0141019	-0.0105008	
-0.0157219	0.00941598	-0.022911	
0.00937503	-0.00918554	-0.0525658	
0.0129664	-0.0158528	-0.0553355	
0.0026108	-0.0095877	0.00162195	
0.00134898	-0.00722967	0.00150133	
0.000143497	0.000653754	-0.00355137	
-4.57456e-05	-0.000426095	0.00769193	
0.0145536	-0.0277017	-0.0627344	
-0.0160312	-0.012395	-0.047645	
-0.0203812	-0.0364143	-0.0325446	
0.0140498	-0.0414586	-0.0580511	
0.000982876	-0.00492937	0.000879423	
0.000507624	-0.00604878	-0.000541928	
0.000593596	-0.00527945	-0.00183108	
-0.00201373	0.00509976	-0.00477403	
0.000446121	-0.000365975	0.00396917	
-0.00208254	-0.00225983	-0.000474074	
0.00162324	-0.000547814	-0.00226811	
0.00565858	-0.0011264	-0.00938494	
-0.0189142	-0.0459607	-0.0106486	
0.0580788	-0.0538388	-0.0400196	
0.0152472	-0.0460815	-0.0534791	
0.00237407	-0.050896	-0.04866	
-0.0019491	-0.00212018	-0.0352353	
-0.00615331	-0.0531598	-0.0272537	
0.00882916	-0.0464611	-0.0508285	
0.00881615	-0.0023251	-0.0417171	
0.0106812	-0.0490786	-0.0331726	
0.00388667	-0.0606571	-0.051233	
0.00132888	-0.0117269	-0.0136189	
1.27339e-06	6.79922e-06	9.09427e-06	
0.0100129	0.00324301	-0.0199873	
-0.00184423	0.00325606	0.00651711	
0.00705101	-0.0209372	-0.0203721	
-0.0194772	-9.72564e-05	0.028063	
0.00468295	-0.000239567	-0.0106234	
0.00692189	0.00116484	-0.0127626	
0.0210323	0.0116497	-0.0100591	
0.00549443	0.0130604	-0.00245572	
0.00709045	0.00369682	-0.0119914	
0.0125453	0.0159254	-0.00169355	
0.0102737	0.00568892	-0.0124934	
0.0206137	0.0080711	0.0413095	
0.000738106	-0.00329806	0.0038684	
-0.000138682	0.00143726	0.0281191	
-0.000391588	0.00192042	0.00120861	
0.00983717	0.0130056	-0.0046989	
0.00471325	0.0128364	-0.00098735	
0.00185923	0.0109954	0.00255468	
-0.000577148	0.00818079	-0.00669515	
0.013531	0.00783822	0.0294716	
0.00185426	-0.00636835	0.0114232	
0.0039844	0.00482055	0.0322804	
-1.05817e-05	-0.000131735	0.000207533	
0.00290946	-0.00318951	0.0114118	
-0.000326204	7.641e-05	-0.000255442	
-0.00691494	0.000463564	0.0234663	
-2.62104e-06	0.000189302	-6.29058e-05	
-0.00162889	0.0108401	-0.0017435	
0.00424439	0.00361698	0.000742324	
-0.00893374	0.00552921	0.00755687	
-0.00148983	0.00612936	-0.00538303	
-0.00334485	0.00213945	0.0124357	
0.00366548	0.0110647	0.00164464	
-0.000835479	-0.00103103	0.000359779	
-0.000716593	0.01022	-0.00014686	
0.00348618	0.00652547	0.004699	
0.00260006	-0.000167703	-0.000972017	
0.00412667	0.00510373	0.00293528	
-0.00242762	-0.0126499	-0.00482553	
0.00335085	-0.085162	-0.135208	
-0.010394	-0.00326098	0.00244128	
0.00146526	0.00660283	0.00176489	
-0.00371678	-0.00406314	0.00374151	
0.0116367	0.00487171	0.0169462	
-0.0248438	-0.0135084	0.00220238	
0.0104528	0.00253706	0.00501327	
-4.60736e-05	-0.00821022	-0.000228999	
-0.00120235	0.000405246	0.00690516	
0.000505399	-0.000902093	0.00778897	
-0.00123767	-0.00449637	-0.0124034	
0.010265	0.00294299	0.00632063	
-0.00107308	-0.00281254	0.00448256	
0.0091504	0.0045135	0.00948653	
0.00885251	0.00409263	0.00559784	
0.000667307	-0.0029844	0.00478873	
-0.00351468	-0.0155277	-0.00790433	
0.00130056	-0.00569039	-0.00112216	
-0.000711543	-0.00236569	0.00652519	
-0.00203805	0.00121304	-0.000610038	
0.0016197	-0.00180168	0.00178478	
-0.000180501	0.00226345	0.000709905	
-0.00140992	-0.0025579	0.00560389	
-0.000369412	0.000515418	-0.00133322	
0.0214408	0.0139675	0.014535	
0.0080456	0.0055423	0.00450825	
0.0116541	0.0152312	0.00635264	
0.0271733	0.00938241	0.0177855	
-0.00131192	0.00131538	0.00566272	
-0.000141022	7.4159e-05	0.000788443	
-0.000869077	0.00133361	0.00676965	
0.0024208	0.00600541	0.00143629	
0.000228111	8.46944e-05	-0.000928451	
0.000240521	-0.000498529	0.00612782	
-0.000403561	-0.00290433	0.00535125	
-0.00139577	-0.00171527	0.00718148	
0.0296615	-0.0161742	0.0015902	
0.00764924	-0.00246488	-0.0246008	
-0.0104874	0.0202084	-0.0049147	
0.000286232	-0.00633254	-0.00206014	
-0.00473286	0.0206765	-0.0041937	
-0.0092968	0.0266467	-0.00391074	
-0.009727	0.00151138	-0.0149386	
-0.00777707	0.00017344	-0.0109941	
0.00138204	-0.00632484	0.00522291	
3.47865e-05	-0.00346909	0.00363134	
-0.000690068	0.00268938	2.37756e-05	
-0.00171578	-0.00135591	0.00295423	
0.000729052	-0.00209619	-0.00799992	
-0.0321168	0.00285419	-0.0272661	
-0.0213851	0.0192958	-0.00884344	
0.00281373	-0.0046554	-0.00803122	
0.00115282	-0.00300171	0.00296349	
0.000797968	-0.00251577	0.00294495	
0.000500621	-0.00243345	0.00221252	
-0.00111167	0.00821684	-0.00202088	
-0.000996627	0.000679194	0.000661587	
0.00101484	0.000243854	0.000240859	
0.000134069	0.000606726	0.000533326	
-0.00029354	6.11871e-05	0.000362322	
-0.00205637	-0.00501711	-7.32589e-05	
0.0596167	-0.0379581	-0.0147759	
0.00526729	-0.00586777	-0.00768483	
-0.00168168	-0.00681204	-0.00620782	
-0.00846874	0.0151337	-0.00610346	
-0.00120187	-0.00212088	-0.00162153	
0.000867955	-0.00666552	-0.00707033	
0.000942708	-4.33481e-05	-0.00125225	
0.0129555	-0.00861726	-0.00546637	
0.000223301	-0.00570919	-0.00436099	
0.000261183	-0.00322752	-0.00274062	
0.000126269	0.000720627	0.0010421	
0.000119681	9.67216e-06	-0.000128909	
-0.00207835	0.00355537	0.00622831	
0.00391742	-0.024425	-0.0138627	
-0.000217895	-0.00405486	0.0344978	
0.00570173	-0.000922176	-0.010218	
0.00818271	-0.00049503	-0.011848	
0.0187988	0.000763903	-0.015173	
0.00311033	0.00304399	-0.00651623	
0.00838707	0.00039651	-0.0105319	
0.00997317	0.00333607	-0.011728	
0.0107503	0.000430242	-0.0112043	
0.0131158	0.0125496	0.0440724	
0.00143339	-0.00251921	0.00512457	
0.000970625	0.00280295	0.028787	
0.000274568	0.00292264	0.000770054	
0.00814549	0.00233235	-0.00861664	
0.00206413	0.00299739	-0.0058672	
0.000265275	0.00327491	-0.00252208	
-0.000683837	0.00208421	-0.001836	
0.00981685	0.0100458	0.0309836	
0.00321252	-0.00665443	0.0111933	
0.00270606	0.00524412	0.0333376	
0.00014489	3.65251e-05	-0.000148831	
0.00438325	-0.00387498	0.0114911	
-0.000162867	1.76379e-05	3.15088e-05	
-0.00217592	-0.000111968	0.024721	
-4.7122e-06	6.83853e-05	-2.53082e-05	
-0.00105036	0.00282525	0.000566386	
0.00134149	0.00109326	-0.000137792	
-0.00062594	0.000558044	0.0109025	
-0.00060498	0.0014741	-0.00150557	
-0.000404407	1.222e-05	0.0126506	
0.000428045	0.00353132	-0.00520733	
-0.000189563	-0.000536101	7.27782e-05	
-0.000479127	0.00277544	-0.000309083	
0.00110695	0.00220503	8.49975e-05	
0.00118503	-9.35539e-06	-0.000351764	
0.00128666	0.00169875	3.52446e-06	
-0.00266478	-0.0131051	-0.00355737	
-0.0120055	-0.0852798	-0.143012	
-0.00390816	-0.00764769	-0.000645681	
0.00206132	0.00605505	0.00273237	
-0.0017036	-0.00282424	0.000466492	
0.0070899	0.0140934	0.00862165	
-0.01393	-0.0230067	-0.0060489	
0.00631436	0.00803372	0.00354904	
-0.00207156	-0.00678343	-0.00390601	
0.00218541	-0.000547686	0.0058191	
0.0013161	0.0029443	0.00376162	
-0.000965456	-0.00860077	-0.0116126	
0.00730126	0.0078995	0.00444123	
-0.00071854	-0.00220275	0.000919431	
0.00472205	0.0105286	0.00551356	
0.00707149	0.00719482	0.00363461	
0.000299422	-0.00068259	0.00160088	
-0.0046403	-0.0153506	-0.00983486	
-0.00138237	-0.00504034	-0.00294554	
-0.000137722	-0.000488551	0.00201224	
-0.000397688	0.000500514	-0.000176839	
0.000426248	-0.000546599	0.000546407	
-0.000632392	0.000322591	0.000177412	
-0.000224621	-0.000219552	0.00186238	
-0.000115916	0.000158897	-0.000400973	
0.01174	0.02222	0.0115449	
0.00690116	0.00734591	0.00290231	
0.0112642	0.0160841	0.00554306	
0.0106493	0.0277231	0.0102902	
-0.000748699	0.000232554	0.00178333	
4.12358e-05	-2.92018e-05	-0.000173491	
-0.000756804	0.00037311	0.00215377	
0.00267843	0.00570959	0.00230647	
0.000155405	1.88992e-05	-0.000536058	
-0.000114512	-0.000198524	0.00206854	
6.91573e-05	-0.000522666	0.00163094	
-0.000403234	-7.47596e-05	0.00242136	
0.0312236	-0.0129138	0.00439913	
0.0107439	-0.00133263	-0.02618	
-0.00437482	0.0228652	-0.00316471	
0.00145781	-0.00280971	-0.000296866	
-0.00567912	0.020136	-0.00479293	
-0.00695874	0.0275629	-0.00299841	
-0.00674324	0.011112	-0.0113361	
-0.0063633	0.00853932	-0.00715649	
0.00209558	-0.00756302	0.00373131	
0.000452506	-0.00484814	0.00242012	
-0.000493055	0.00233564	-0.00102724	
1.75622e-05	0.00150205	0.00371388	
-0.000178295	-1.0768e-05	-0.00248863	
-0.0220678	0.0264857	-0.0268434	
-0.00855799	0.0258367	-0.0139775	
0.00137357	-0.00235904	-0.0019031	
0.00104178	-0.0039867	0.00163599	
0.000753148	-0.00377546	0.00185111	
0.000234517	-0.00341845	0.0010224	
-0.0018596	0.0072409	-0.00290114	
-0.000360048	0.000106169	0.000132424	
-0.000249044	-0.000114669	-5.29839e-05	
0.000149054	0.000150664	2.0992e-05	
0.00022657	-4.18414e-05	-0.000290365	
-0.000725027	-0.0014964	0.000197877	
0.0399186	-0.0565015	0.0181218	
0.003721	-0.00391782	-0.00130679	
-0.00137376	-0.00173986	-0.00227967	
-0.00294594	0.0177095	-0.00475167	
-0.000467189	-0.000608944	-0.000451701	
5.08391e-05	-0.00218555	-0.00221352	
0.000444351	-0.000173573	-0.000466704	
0.0122699	-0.00666762	0.000660026	
-4.33316e-05	-0.00186026	-0.00127652	
-9.44606e-05	-0.000829399	-0.000750573	
-3.81837e-05	-0.000217509	-0.000320319	
0.000315606	-1.15462e-05	-0.000343476	
-0.0023788	0.00384391	0.00574805	
0.00398594	-0.0249319	-0.00930436	
-0.00545926	0.00115564	0.0350448	
0.00613014	-0.000884336	-0.0101778	
0.00815327	-0.00091775	-0.0122476	
0.0130888	-0.0035146	-0.0211386	
0.00122986	0.00176944	-0.0080893	
0.00773837	-0.000729191	-0.0114866	
0.00509746	-3.50352e-05	-0.0154208	
0.00904742	-0.00139357	-0.0131041	
0.0151991	0.0112197	0.0447649	
0.00538632	-0.00216468	0.00299247	
0.000818589	0.00308515	0.0292283	
0.000374867	0.0026222	0.00308006	
0.00403712	0.000145258	-0.0118991	
0.00114226	0.00233739	-0.0068443	
0.00097592	0.00342931	-0.00258341	
-0.0011536	0.00213986	-0.00187791	
0.00990156	0.0100408	0.031626	
0.0030685	-0.00555127	0.0120549	
0.00272141	0.00564413	0.0337969	
7.03882e-05	0.000152923	-9.65748e-06	
0.00398981	-0.00417384	0.0121012	
-9.25655e-05	0.000133461	-5.62959e-05	
-0.00243711	0.000731871	0.0253477	
-2.34289e-05	0.000250473	-0.000102425	
-0.00097673	0.00353673	-0.000145291	
0.00128395	0.0011077	-0.000185265	
-0.00276043	0.00300697	0.0105976	
-0.000851278	0.00140386	-0.00142812	
-0.00154644	0.000899468	0.0130568	
0.00175736	0.00335018	-0.00561451	
-0.000205849	-0.000531468	7.27095e-05	
-0.000222185	0.0033682	-0.00100174	
0.00144664	0.00246589	-2.96979e-05	
0.00123874	2.153e-05	-0.000364199	
0.00150496	0.00179207	2.86701e-05	
-0.00369685	-0.0131979	-0.00290616	
-0.00943539	-0.0423531	-0.167713	
-0.00386927	-0.00597259	-0.000296637	
0.00267208	0.00570522	0.00266437	
-0.00166711	-0.00271239	0.000531344	
0.00666762	0.0133289	0.00847033	
-0.00994926	-0.0241961	-0.00630738	
0.00483399	0.0092629	0.00405238	
-0.00235557	-0.00694239	-0.00412993	
0.00384531	0.00128103	0.00555709	
0.00169898	0.00337738	0.00419195	
-0.0061461	-0.00694659	-0.0109131	
0.00546427	0.00959979	0.00475881	
-0.000382363	-0.00189285	0.00077671	
0.00572077	0.0110173	0.00538172	
0.00542819	0.00888656	0.00376287	
0.000537725	-0.000405583	0.00190528	
-0.005195	-0.0157817	-0.00951643	
-0.00147165	-0.00526837	-0.00266457	
-0.000411468	-0.00116481	0.00163525	
-0.000521687	0.000250685	-0.000392308	
0.000697824	-0.000428202	0.000486346	
0.0002856	0.000384187	-0.000575378	
-0.000199594	-0.000256924	0.00185778	
-8.89894e-05	0.000120886	-0.000294215	
0.0125339	0.021542	0.0120979	
0.00566872	0.00868379	0.00284279	
0.01063	0.0169865	0.00524352	
0.013313	0.0259376	0.00989564	
-0.000597444	0.000194176	0.00156715	
3.31895e-05	-2.12924e-05	-0.000120131	
-0.0006304	0.000357317	0.0019208	
0.00306093	0.00557507	0.00229286	
0.000160353	2.05694e-06	-0.000517837	
-0.000116017	-0.000214087	0.00164089	
7.21926e-05	-0.000592373	0.00169677	
-0.000330652	-8.91703e-05	0.00231358	
0.030758	-0.0135807	0.00956437	
0.00944858	0.000127031	-0.0254964	
-0.00681718	0.0226646	-0.0038768	
0.00136304	-0.00289967	0.00059357	
-0.00582896	0.0205351	-0.00458653	
-0.00847326	0.0276035	-0.00314841	
-0.00370223	0.0135863	-0.010293	
-0.00393694	0.0104316	-0.00688203	
0.00181357	-0.00711024	0.00413368	
0.000326383	-0.00445152	0.00272242	
-0.000600761	0.00253418	-0.000750626	
-0.000913865	-0.00105527	0.00344479	
4.14971e-05	-1.43121e-05	-0.00253222	
-0.0145248	0.0333121	-0.0263677	
-0.0121054	0.0241836	-0.0154303	
0.000644706	-0.00248217	-0.00176188	
0.00101854	-0.00360717	0.0019722	
0.000734714	-0.0033986	0.00213478	
0.000378723	-0.0030793	0.00141801	
-0.00176537	0.00761198	-0.00271001	
-0.000101625	-6.98337e-05	-9.63734e-05	
0.000102073	4.1305e-05	2.2739e-05	
-7.57039e-05	-1.00518e-05	4.64315e-05	
8.60895e-05	-1.65614e-05	-0.000113915	
-0.000848056	-0.00131125	0.000293886	
0.0386532	-0.0578373	0.0164988	
0.00241497	-0.00493749	-0.000552243	
-0.00061713	-0.00181242	-0.00209683	
-0.00510233	0.0172077	-0.0058941	
-0.000461182	-0.000790152	-0.000531418	
-0.000116359	-0.00219944	-0.00211585	
0.000492074	-0.000162216	-0.000512167	
0.0101198	-0.00826983	0.00432404	
-0.000182422	-0.00183377	-0.00113343	
-0.000157008	-0.000769466	-0.000826182	
7.50759e-06	4.29271e-05	6.32942e-05	
0.000219788	6.32287e-06	-0.00024417	
-0.0028265	0.00366796	0.00554472	
0.00945024	-0.0236884	0.00157194	
-0.00622553	0.00109643	0.0357131	
0.00645088	-0.000907688	-0.0104926	
0.0078587	-0.00106046	-0.0129595	
0.0107337	-0.00475732	-0.0230819	
0.00226349	0.00166249	-0.00779539	
0.00694407	-0.00133397	-0.0125688	
0.00627171	-0.0001674	-0.0150967	
0.0076526	-0.00231177	-0.0145348	
0.0149642	0.0122904	0.045556	
-0.000163082	-0.00400349	0.00589396	
0.00172639	0.00388889	0.0295653	
-0.00207416	0.00412012	-0.00133147	
0.00445217	-0.000483133	-0.0118336	
0.00198159	0.0020766	-0.00655856	
0.00120365	0.00336603	-0.00282806	
-0.00131063	0.00222312	-0.00198261	
0.00988124	0.0109733	0.0320719	
0.00167712	-0.0056953	0.0124779	
0.0030903	0.00647782	0.034556	
-0.000157531	-2.28607e-06	7.82914e-05	
0.00319592	-0.00517301	0.0125177	
4.2712e-05	0.000119251	7.853e-05	
-0.00259057	0.0012422	0.0260288	
-1.45076e-05	0.000121876	-5.41785e-05	
-0.000876797	0.00321341	3.19998e-05	
0.00138634	0.00118985	-0.000209601	
-0.00292923	0.00290073	0.0108691	
-0.00113524	0.0016306	-0.00171252	
-0.00158405	0.00122539	0.0136011	
0.00195003	0.00321807	-0.00556145	
-0.000193623	-0.000478638	6.29924e-05	
-0.000180147	0.00309301	-0.000837922	
0.00157383	0.00264291	3.33877e-05	
0.0012115	-2.51587e-05	-0.000306868	
0.00163905	0.00193899	5.47815e-05	
-0.00475074	-0.0131273	-0.00239797	
-0.0346615	-0.0798109	-0.157141	
-0.00321351	-0.00513003	-0.000201586	
0.00314708	0.0054558	0.00266918	
-0.00156114	-0.00262439	0.000344521	
0.0063454	0.0131193	0.0080827	
-0.0114057	-0.0230342	-0.00607799	
0.0054106	0.00920539	0.00378621	
-0.00242247	-0.0071272	-0.00459124	
0.000696394	0.00165163	0.00544986	
0.00175077	0.00369877	0.00418098	
-0.00476727	-0.00602379	-0.0115884	
0.00587412	0.00964642	0.00457742	
-0.000365077	-0.00147639	0.000613532	
0.00622699	0.0116093	0.00543747	
0.00536418	0.00914691	0.00376272	
0.000530792	-0.000257173	0.00173737	
-0.00540449	-0.0155116	-0.00971697	
-0.00374057	-0.00373573	-0.00307726	
-0.000453621	-0.00125148	0.00121772	
0.000417539	0.000121663	-0.000122041	
0.000537325	-0.000518261	0.000459925	
0.000447106	0.000306987	-0.000273839	
-0.000179043	-0.000235205	0.00167982	
-7.7765e-05	0.000104467	-0.000248608	
0.0127468	0.0217443	0.0117574	
0.00535473	0.0090765	0.00288341	
0.0101925	0.0175269	0.00531729	
0.013007	0.0255964	0.00956506	
-0.00049213	0.000181367	0.00130839	
1.66936e-06	-2.38858e-06	-8.37565e-06	
-0.000553664	0.000315566	0.00166296	
0.00324474	0.00548595	0.00246796	
8.8442e-05	-1.73037e-06	-0.000280505	
-7.91067e-05	-0.000189713	0.00132824	
8.21765e-05	-0.000560268	0.00159481	
-0.000275513	-6.47667e-05	0.0019303	
0.0290648	-0.0145123	0.0144935	
0.00923308	0.00065614	-0.02565	
-0.00699021	0.0229289	-0.00377522	
0.00131031	-0.00289525	0.00133635	
-0.00591864	0.0206467	-0.00466848	
-0.0085061	0.0278142	-0.00341686	
-0.00487525	0.0134488	-0.0103373	
-0.00489217	0.0101222	-0.00699675	
0.00186271	-0.00716415	0.00396453	
0.000379453	-0.00452476	0.00262265	
-0.000598985	0.00256718	-0.000831865	
-0.000637385	-0.00117019	0.00350974	
1.17467e-05	8.50457e-05	-0.00225041	
-0.0174639	0.0333609	-0.0264151	
-0.0124698	0.0247904	-0.0150871	
0.000609721	-0.00222572	-0.00157704	
0.000993055	-0.00363712	0.0018382	
0.000770218	-0.00348945	0.00200755	
0.000355879	-0.00316034	0.00127807	
-0.0018142	0.00760055	-0.00278875	
6.1055e-06	7.94666e-06	5.20506e-06	
-1.04485e-05	-4.51973e-06	-2.41799e-06	
5.97011e-06	3.6383e-06	2.21731e-08	
9.21767e-05	-1.67608e-05	-0.000119692	
-0.000764427	-0.000867606	0.000232795	
0.040298	-0.0560279	0.0165595	
0.00214971	-0.00480277	9.94339e-06	
-0.000230767	-0.00181294	-0.00156405	
-0.00531074	0.0174159	-0.00572284	
-0.000308038	-0.000534728	-0.000386137	
-0.000115669	-0.00183551	-0.00172753	
0.000321837	-0.00010857	-0.000344661	
0.00829668	-0.00867459	0.00641471	
-0.000238313	-0.00164647	-0.000959936	
-0.000130449	-0.00071056	-0.000776429	
-5.04071e-06	-3.03034e-05	-4.46802e-05	
0.000172119	3.27609e-06	-0.000191719	
-0.00279285	0.00394228	0.00489858	
0.0132762	-0.0209082	0.00272501	
-0.00527802	-0.000708203	0.036636	
0.00634916	-0.000653384	-0.0109383	
0.00744951	-0.00145152	-0.0135184	
0.011793	-0.00539861	-0.0227133	
0.00258087	0.00117174	-0.00792659	
0.00639832	-0.00163096	-0.0129448	
0.00658416	-0.000628633	-0.014984	
0.00731216	-0.00297797	-0.0146207	
0.0156462	0.0125285	0.0457485	
0.00198611	-0.00324151	0.00636029	
0.00267374	0.0032357	0.0302397	
-0.00204523	0.00392262	-0.00258006	
0.00493938	-0.00060716	-0.0116979	
0.00218598	0.00169893	-0.00681198	
0.000756142	0.0026295	-0.00166823	
-0.000896207	0.0015464	-0.00137994	
0.0102024	0.0111773	0.0323622	
0.0021975	-0.005463	0.0126301	
0.00376249	0.00610299	0.0352178	
-8.6279e-06	-2.03607e-05	-7.46566e-05	
0.00364082	-0.00582262	0.0124728	
4.75811e-06	5.52793e-05	3.71088e-05	
-0.00204082	0.000356478	0.0266274	
-7.43678e-05	0.000560752	-0.000262775	
-0.0008827	0.00316154	0.000203442	
0.000722465	0.00061039	-0.000140758	
-0.00270088	0.00155821	0.011509	
-0.00078949	0.00107495	-0.00115031	
-0.00168331	0.000334725	0.0141095	
0.00175616	0.00282018	-0.00536267	
-8.62614e-05	-0.000219271	1.69634e-05	
-0.000161446	0.00292784	-0.000785931	
0.000916648	0.00153165	-3.18715e-06	
0.000523153	-1.29484e-05	-0.000150403	
0.00090256	0.00105324	-4.62708e-06	
-0.00531599	-0.012966	-0.00179157	
0.000778874	-0.0629696	-0.172239	
-0.00298636	-0.00497574	-0.00035932	
0.00345016	0.00533787	0.00299601	
-0.00150771	-0.00270684	-3.46691e-05	
0.00612243	0.0131369	0.00777489	
-0.0111658	-0.0230655	-0.00567735	
0.00552485	0.00920971	0.0043924	
-0.00249499	-0.00736889	-0.00489898	
0.000649117	-0.000680373	0.00526498	
0.00164577	0.00372587	0.00381919	
-0.00582007	-0.00413812	-0.0120608	
0.00580142	0.00963017	0.00537825	
-0.00023163	-0.00131117	0.000813979	
0.00616292	0.0120433	0.00538822	
0.0053076	0.00915974	0.00455309	
0.000324825	-0.000281185	0.00114439	
-0.00457004	-0.0155223	-0.0101987	
-0.00261806	-0.00449026	-0.00335386	
-0.000356919	-0.00102333	0.00082165	
0.000243266	0.00014777	-0.00011569	
0.000441466	-0.000373476	0.000199981	
0.000251882	-0.000284904	5.61559e-05	
-0.000144979	-0.000202716	0.00142959	
5.21404e-06	-6.69795e-06	1.66611e-05	
0.0125901	0.0221975	0.0115647	
0.00526644	0.00927258	0.00384628	
0.00998828	0.0179857	0.00614737	
0.012466	0.0259827	0.009367	
-0.000507953	0.000200856	0.00133487	
-0.000239427	0.000132774	0.00078346	
-0.000485065	0.000284953	0.00143275	
0.00325474	0.00553402	0.00295253	
-0.000127676	2.33754e-06	0.000398008	
-8.88196e-05	-0.000172448	0.00134718	
7.04893e-05	-0.000444753	0.00126408	
-0.0002287	-4.00222e-05	0.00155489	
0.0265772	-0.0167959	0.018445	
0.0088516	0.000431669	-0.0254597	
-0.00696	0.0232088	-0.00363998	
0.00105302	-0.00300949	0.00164787	
-0.00597093	0.0207978	-0.00473614	
-0.00862752	0.0279728	-0.00365571	
-0.00544423	0.0137854	-0.0099528	
-0.00536802	0.0104436	-0.00647229	
0.00181029	-0.0070533	0.00397063	
0.000319769	-0.00444552	0.00265575	
-0.000621995	0.00263158	-0.000825285	
-0.00135904	-0.00109905	0.00325681	
-0.000195367	0.000387363	-0.0017069	
-0.0183456	0.03471	-0.0255516	
-0.0124918	0.0253327	-0.0148049	
0.000706208	-0.00186934	-0.00117869	
0.000975844	-0.00354452	0.00184515	
0.000764238	-0.00342663	0.00202494	
0.000387598	-0.0031012	0.00131038	
-0.00182316	0.00768911	-0.00279849	
-3.13426e-05	-2.00354e-06	-2.93009e-05	
2.55921e-05	1.13954e-05	6.32093e-06	
-2.04988e-05	-1.79524e-06	1.31916e-05	
7.45651e-05	-1.43132e-05	-9.75778e-05	
-0.00106167	-0.00100005	0.000279756	
0.03955	-0.0560605	0.0172867	
0.00244275	-0.00421577	0.000322151	
-0.000121262	-0.00156896	-0.00125779	
-0.00533505	0.0175719	-0.00552355	
-0.000231035	-0.000400321	-0.000304291	
-3.73223e-05	-0.00141151	-0.00134146	
0.00024877	-8.49085e-05	-0.000271419	
0.00739454	-0.0087743	0.00732159	
-0.000272382	-0.00166438	-0.000971771	
-8.15316e-05	-0.000457032	-0.000518018	
-9.27501e-07	-5.84971e-06	-8.53792e-06	
0.000143436	2.08636e-06	-0.000161513	
-0.0030176	0.00359741	0.00487093	
0.0122417	-0.0207575	0.00329341	
-0.0043735	-0.00178864	0.0371063	
0.00666766	-0.00126529	-0.010834	
0.00750274	-0.00188993	-0.0132479	
0.0120921	-0.0059782	-0.0227125	
0.00252545	0.000388121	-0.00730082	
0.0069575	-0.00232198	-0.0125557	
0.00672942	-0.00139252	-0.0150433	
0.00774976	-0.00344188	-0.0143331	
0.0154692	0.0124687	0.0461182	
0.00237736	-0.00373035	0.00612859	
0.00283838	0.00296822	0.0305858	
-0.000904945	0.0052604	0.000122133	
0.00522704	-0.00136257	-0.0115341	
0.00201693	0.000549603	-0.00604479	
0.000677118	0.00100802	-0.00128411	
-0.00059559	0.00101669	-0.000910679	
0.010235	0.0112412	0.0325736	
0.00277844	-0.00514661	0.0126991	
0.00399649	0.00604005	0.0355023	
3.20991e-05	-4.32596e-05	-4.52639e-05	
0.00405759	-0.00612256	0.0123818	
-6.54022e-06	4.86325e-05	3.2697e-05	
-0.00164863	-8.44486e-06	0.0267885	
-2.10502e-05	0.000140408	-6.6515e-05	
-0.000731401	0.00148881	0.00107904	
0.000401341	0.000336366	-8.72654e-05	
-0.00234646	0.000415722	0.0118184	
-0.000493487	0.000664875	-0.000707301	
-0.00164417	-0.000124137	0.0143022	
0.00165165	0.00099485	-0.00498733	
-7.04382e-05	-0.000151171	9.92363e-06	
-5.82016e-05	0.00110082	-0.000297294	
0.000413643	0.000698664	-1.66233e-05	
0.00033358	-8.70097e-06	-9.849e-05	
0.000415346	0.000486092	-1.21002e-05	
-0.00624473	-0.0129088	-0.00203395	
-0.00588544	-0.0628528	-0.175303	
-0.00199569	-0.00340369	-0.00026888	
0.00352857	0.00538349	0.00213613	
-0.00126007	-0.00247935	-0.000537076	
0.00543684	0.0122225	0.00660142	
-0.0112103	-0.0220231	-0.00694106	
0.00541678	0.00953271	0.00288141	
-0.0023069	-0.00729267	-0.00545835	
-0.000639907	-0.00059342	0.00555565	
0.00188494	0.00479452	0.00379522	
-0.00222392	-0.0028654	-0.0139227	
0.00618871	0.00981959	0.00383052	
-0.000273495	-0.000735692	7.04805e-05	
0.00674502	0.0127376	0.00456764	
0.00597974	0.00911068	0.00302229	
0.000678904	0.000663852	0.00170533	
-0.00546416	-0.0155659	-0.0108119	
-0.0024195	-0.00435514	-0.00396017	
-0.000784836	-0.00217256	-7.56704e-05	
0.000180684	0.000122906	-8.10644e-05	
0.00024152	-0.000295637	0.000206931	
0.000255755	-0.000174611	9.34477e-05	
-6.63918e-05	-0.000100976	0.000696755	
-0.000150977	0.000197781	-0.000468775	
0.0125336	0.022316	0.0108338	
0.00586591	0.00900645	0.00218079	
0.0104739	0.0178039	0.00470993	
0.0119493	0.0250685	0.0079467	
-0.000205563	8.12693e-05	0.000538637	
0.000245308	-0.000137371	-0.000817039	
-0.000327991	0.00019079	0.00095414	
0.00351033	0.00560398	0.00188509	
0.000272603	-1.35281e-05	-0.000868655	
-4.55244e-05	-7.58569e-05	0.000625489	
2.86411e-05	-0.000208658	0.000591485	
-0.000185575	-3.73801e-05	0.001308	
0.0249713	-0.0172073	0.020212	
0.0087054	0.000566224	-0.0253741	
-0.00698572	0.0233215	-0.00354349	
0.00173844	-0.00244329	0.00208864	
-0.00596479	0.020819	-0.00475999	
-0.00867922	0.028075	-0.00365894	
-0.00572871	0.0140913	-0.00959515	
-0.00571407	0.0108323	-0.0061207	
0.00180237	-0.00701314	0.00392785	
0.000352333	-0.00444488	0.00261053	
-0.000636832	0.0026684	-0.000835597	
-0.0014755	-0.000870948	0.00327056	
-0.000144828	0.000332965	-0.00136166	
-0.0185775	0.0357725	-0.0251081	
-0.0125545	0.025737	-0.0146944	
0.000420522	-0.00114659	-0.000778825	
0.000963473	-0.00350601	0.00181267	
0.000737606	-0.0034303	0.00199674	
0.000393191	-0.00309745	0.00128402	
-0.00183793	0.00772599	-0.00283855	
-1.36264e-05	1.78026e-06	-1.02662e-05	
9.0583e-06	4.17494e-06	2.30993e-06	
-7.50779e-06	-1.89694e-07	5.97638e-06	
3.58306e-05	-7.73277e-06	-4.76625e-05	
-0.000157118	-0.000130168	3.45498e-05	
0.0390623	-0.0560996	0.0173031	
0.00239258	-0.00407457	0.00041777	
0.000528109	-0.00176582	-0.000399027	
-0.00544854	0.0177083	-0.0053747	
-0.000139417	-0.000245929	-0.000192979	
-3.18267e-05	-0.00126333	-0.00124216	
0.000123955	-4.37455e-05	-0.000137057	
0.00726348	-0.00783922	0.0076498	
-7.2778e-05	-0.000479021	-0.00027428	
-5.22426e-05	-0.000317806	-0.000371578	
-1.82545e-06	-1.20553e-05	-1.76519e-05	
6.88488e-05	-2.40286e-07	-7.88182e-05	
-0.00312708	0.00343869	0.004869	
0.01157	-0.0203298	0.00479074	
-0.00442569	-0.00180392	0.0373297	
0.00669518	-0.0015046	-0.0109865	
0.00759284	-0.00210936	-0.0134557	
0.0119194	-0.00608641	-0.0234076	
0.00233811	6.11323e-05	-0.00683819	
0.00677611	-0.00225866	-0.0130046	
0.00638644	-0.00178514	-0.0147063	
0.00764588	-0.00339111	-0.0147574	
0.015138	0.0124254	0.0463016	
0.00242552	-0.00410716	0.00619274	
0.00291731	0.00304312	0.0307262	
-0.00299563	0.00492893	-0.000216158	
0.00502992	-0.00139605	-0.0119566	
0.00185582	0.000220215	-0.00572983	
0.000636261	0.000936938	-0.00116216	
-0.000746092	0.00125908	-0.00113591	
0.0106504	0.0113219	0.0325684	
0.00331739	-0.00496721	0.0127151	
0.00416531	0.00621071	0.0357049	
-3.36242e-05	1.78233e-05	3.08369e-05	
0.00447772	-0.00633971	0.0122567	
-1.32034e-05	6.08466e-05	1.02799e-05	
-0.0015727	0.000159453	0.0269506	
-7.18748e-06	4.26619e-05	-2.07039e-05	
-0.000709635	0.00128591	0.00130008	
0.000379537	0.000321089	-8.63989e-05	
-0.00231341	0.000351438	0.0119298	
-0.000637819	0.000845595	-0.000912243	
-0.00163825	-3.66618e-05	0.0143608	
0.00155715	0.000911935	-0.00495969	
-8.63846e-05	-0.000183901	1.16823e-05	
-4.81692e-05	0.000969072	-0.000256734	
0.000392846	0.000665924	-1.65261e-05	
0.000336088	-5.74179e-06	-0.000100096	
0.000405005	0.000482783	-1.33327e-05	
-0.00601654	-0.0129243	-0.00141442	
-0.0205755	-0.0322286	-0.186613	
-0.00217373	-0.00339657	0.000112712	
0.00356283	0.00533778	0.00300075	
-0.00140689	-0.00248969	7.88645e-05	
0.00555934	0.0121624	0.00733585	
-0.0106336	-0.0225084	-0.00517481	
0.00555861	0.00948302	0.00494746	
-0.00269152	-0.00774555	-0.0051868	
-0.00193933	0.000853498	0.0048426	
0.00209308	0.00472494	0.00452602	
-0.00129022	-0.00191564	-0.0140119	
0.00574656	0.0100598	0.00581881	
8.21001e-05	-0.000819437	0.00121977	
0.0063484	0.012926	0.00553463	
0.00536678	0.00958421	0.00487065	
0.00079091	0.000477968	0.00193043	
-0.00466461	-0.0154658	-0.0109226	
-0.00187328	-0.00453191	-0.00413912	
-0.000921086	-0.00237577	0.000133552	
0.000321992	-8.04447e-05	2.54695e-05	
0.000450041	-0.000393267	0.000359032	
0.000402091	0.000119782	2.39914e-05	
-0.000133729	-0.000210885	0.00143129	
4.5216e-05	-5.89816e-05	0.000142708	
0.0122362	0.0224678	0.0114427	
0.00525209	0.00943972	0.00397989	
0.0100532	0.0182607	0.00648042	
0.0118759	0.0253512	0.00919492	