<VTKFile type="UnstructuredGrid" version="0.1" byte_order="LittleEndian">
	<UnstructuredGrid>
		<Piece NumberOfPoints="6105" NumberOfCells="6105">
			<CellData Scalars="scalars">
				<DataArray type="Float64" Name="Strength" NumberOfComponents="3" Format="ascii">
-0.00671327	-0.0157794	0.0129573	
0.00254588	-0.0118387	-0.0281901	
-0.00971773	0.0710931	0.0101816	
0.00483965	-0.00683934	-0.00683622	
0.00595456	0.000224137	-0.0110046	
0.0104199	0.054605	-0.0325809	
0.00233709	0.0865228	-0.0290361	
0.00295279	0.0177717	-0.0163466	
0.00660408	0.0838823	-0.0332016	
0.00386434	0.0317863	-0.0225487	
0.00327259	0.00646249	0.0447795	
0.00378393	-0.00428348	-0.000363905	
-0.00562408	0.0397958	0.0169928	
-0.00245982	-0.000835298	0.000305648	
0.00277318	0.0730893	-0.0304059	
0.00574962	0.0864094	-0.0231829	
0.0147584	0.0935869	-0.0128813	
-0.00579035	0.0650983	-0.0238505	
0.00201843	0.0117042	0.0291972	
0.00446621	-0.0102172	0.00915669	
-0.00475848	0.0324411	0.023763	
0.00160241	-0.00162473	0.0009422	
0.00186271	-0.00479934	0.010312	
-0.00241895	-0.000760446	0.000267678	
-0.00742764	0.0490834	0.0107842	
-0.000338047	-0.0126205	0.00307153	
0.00248396	0.0881783	-0.0188536	
0.0151739	0.0397509	0.00781058	
0.00358239	0.0872593	-0.00268145	
-0.00512476	0.0468762	-0.0177742	
0.00599527	0.0534668	0.00909585	
0.010906	0.0896025	-0.013174	
-0.000631875	0.000115407	0.000135054	
0.00504858	0.0868339	-0.0139851	
0.0190128	0.0768743	0.0109685	
0.0152391	0.0156383	0.00266216	
0.019249	0.0569757	0.0107185	
-0.010701	-0.00496531	-0.0255806	
0.0537602	-0.127172	0.00386328	
-0.0146094	-0.00666339	0.0493635	
0.00163854	0.0114649	-0.0136395	
0.00175976	-0.0092468	0.0545692	
0.0215955	-0.0129155	0.063268	
-0.0129874	-0.0347879	0.047731	
0.0146262	-0.0109323	0.0528297	
0.0118604	-0.0222762	0.0329354	
0.012735	0.00138629	0.0156361	
0.00719354	-0.0179436	0.0545319	
0.00787706	-0.00551823	-0.0222858	
0.0092318	-0.00543291	0.0481053	
0.00218381	-0.0113021	0.0258173	
0.00417793	0.000246445	0.0549238	
0.00581891	-0.00135012	0.0401221	
0.0129582	-0.0284477	0.0403018	
0.0136974	-0.00985574	0.0296713	
0.00934471	-0.0166988	0.005405	
0.0107372	-0.0187925	0.0537007	
0.0230787	0.0142118	-0.0027453	
0.00670227	-0.0196023	0.0153975	
0.0153878	-0.0124855	0.000893068	
0.00246081	-0.0154603	0.0574077	
-0.00334859	0.00846693	-0.0203932	
0.018134	0.0121901	0.0386522	
0.00524432	0.00117151	0.0314767	
0.0094797	0.0118801	0.0170018	
0.0309892	-0.00282679	0.0714984	
-0.0029088	-0.00466434	0.0405291	
-0.000615531	-0.00345891	0.0187275	
-0.00109145	-0.00418682	0.044557	
0.00302305	0.00875421	-0.010452	
0.000266778	0.00116534	-0.00472556	
0.00180566	-0.00596187	0.0243415	
0.0100555	-0.025304	0.0494735	
0.00121666	-0.0118788	0.0509443	
0.016495	-0.0569435	-0.00894724	
0.00670503	0.0261401	-0.0241316	
-0.00719308	0.00102087	-0.0319789	
-0.0055606	-0.0342602	-0.0269183	
-0.00794746	0.0144737	-0.0113005	
-0.0124527	0.0120806	-0.0232705	
0.0031505	-0.0151078	-0.051245	
0.00708795	-0.0233048	-0.0529346	
0.00196759	-0.00939447	0.00270528	
-0.000295005	-0.00730009	0.000878422	
-0.000216352	0.000246891	-0.00356299	
-1.95817e-05	-0.00672627	-0.00213628	
0.010463	-0.0365297	-0.0578518	
-0.0163551	-0.00462619	-0.0482426	
-0.0217018	-0.0200659	-0.0431907	
0.00763185	-0.0450957	-0.0553019	
0.000894018	-0.00484555	0.00112329	
0.000354718	-0.00602453	0.000146403	
0.000352212	-0.00545469	-0.00105968	
-0.00188916	0.00482681	-0.00499572	
0.00022889	-0.00358662	0.00128406	
-0.00169558	-0.00195632	-0.00167043	
-0.00267134	-0.000469881	0.000779346	
0.00340954	-0.00432581	-0.00940365	
-0.0128954	-0.0401006	-0.0271293	
0.0503505	-0.0708504	-0.0114856	
0.00877831	-0.0482785	-0.0516903	
-0.000789897	-0.0455102	-0.0525385	
-0.00219889	-0.00389956	-0.0346801	
-0.00702025	-0.0428351	-0.0405253	
0.0049388	-0.0455819	-0.0508943	
0.0117687	-0.0156159	-0.0374201	
0.0100416	-0.0471414	-0.0346525	
0.00215582	-0.0547911	-0.0560528	
0.000118402	-0.0118472	-0.0132879	
1.03214e-06	6.87433e-06	8.90187e-06	
0.00771618	-0.00669617	-0.0198662	
-0.00260421	0.00272888	0.00636798	
-0.00602914	-0.0141487	-0.0254811	
-0.0139313	0.00196053	0.0307222	
0.00490784	-5.44709e-05	-0.0103352	
0.00659979	0.00117762	-0.0126918	
0.0166486	0.00794433	-0.0179061	
0.00489579	0.0112362	-0.00718126	
0.00650991	0.00362823	-0.0120956	
0.011494	0.0117572	-0.0115369	
0.00863899	0.0052613	-0.0135463	
0.0131617	0.00086037	0.0445026	
0.000152856	-0.00273475	0.00429463	
0.000798188	8.25232e-05	0.0278597	
0.000683769	0.00171946	0.00123602	
0.00808949	0.0105351	-0.0102164	
0.00453874	0.011214	-0.00609443	
0.00195867	0.0109386	-0.00212999	
-0.00118421	0.00935559	-0.00451	
0.00900914	0.00209441	0.0317183	
0.00275933	-0.00430836	0.0120483	
0.00321344	0.000899501	0.0323808	
0.000185686	6.14625e-05	-8.25786e-05	
0.00311416	-0.00243588	0.0114244	
-0.000199072	-0.0001934	0.000306359	
-0.00482344	0.00200474	0.0236456	
9.49429e-07	0.000189357	-5.03986e-05	
-0.00106189	0.0107337	-0.00199704	
0.00195137	0.00520622	0.000260496	
-0.00660065	0.00701638	0.00842656	
-0.0011337	0.00729503	-0.00352319	
-0.00286802	0.00373207	0.0120289	
0.00390425	0.0101874	-0.0040573	
0.00124563	-0.000337214	-0.000435179	
1.81521e-05	0.00997506	-0.00175555	
0.00202335	0.0083023	0.00145628	
0.00157051	0.0021919	-0.000551457	
0.00209839	0.00671897	0.00100757	
-0.0043511	-0.0118461	-0.00494427	
-0.0369768	-0.0880295	-0.125872	
-0.00731877	-0.00759553	0.00325936	
0.00236404	0.00626483	0.00162264	
-0.00269378	-0.00373564	0.00471223	
0.00942981	0.0114971	0.0146776	
-0.0192483	-0.0199795	-0.00378167	
0.00816653	0.00512781	0.00664025	
-0.000367076	-0.00812446	8.71339e-05	
-0.00190266	0.00167643	0.00647758	
0.00088868	0.000628371	0.00770096	
-0.0033458	-0.00467267	-0.0117896	
0.00828388	0.0058306	0.00686804	
-0.000950629	-0.00341156	0.00398967	
0.00689786	0.00734174	0.00939272	
0.00714507	0.0060579	0.00593348	
0.000432671	-0.00263696	0.00495167	
-0.00370573	-0.0154356	-0.00761325	
-0.00149769	-0.00563034	-0.000830201	
-0.000264209	-0.00132129	0.00677538	
-0.00170138	0.00127146	-0.00116609	
0.00106115	-0.00162684	0.00225975	
-0.000120691	0.00204108	-0.00116863	
-0.000455223	-0.00161045	0.00602552	
-0.000234352	0.000553878	-0.00132665	
0.0158919	0.0187167	0.0155812	
0.00662774	0.00663359	0.00496321	
0.0108301	0.0150778	0.00720152	
0.0204566	0.0209703	0.0160812	
-0.000803643	-0.000151534	0.00583626	
-5.31951e-05	-9.39548e-05	0.000786534	
-0.000602958	5.22705e-05	0.00685179	
0.00276364	0.00576614	0.00135887	
8.04623e-05	0.000189509	-0.000923792	
0.000195303	-0.00109729	0.00597773	
-0.000174778	-0.00215922	0.00564042	
-0.000292493	-0.00121957	0.00732677	
0.0256487	-0.0178389	0.011554	
0.000953714	0.011083	-0.0230254	
-0.00875274	0.0199815	-0.00738812	
0.000601786	-0.00579645	-0.00303892	
-0.00493932	0.0197703	-0.00651861	
-0.0083368	0.0258144	-0.00763374	
-0.00890061	0.00678152	-0.0136764	
-0.00722703	0.00338814	-0.0106391	
0.00157295	-0.00619403	0.00520128	
0.00052757	-0.00338189	0.00361224	
-0.000580745	0.00267878	-0.000198119	
0.000459065	-0.00224407	0.00268364	
0.000486843	-0.00361575	-0.00734104	
-0.0251516	0.0197391	-0.0267708	
-0.0180392	0.0195392	-0.013424	
0.00239028	-0.00645358	-0.00665483	
0.0011163	-0.00284116	0.0030732	
0.00078593	-0.00247493	0.0029338	
0.000665146	-0.00216925	0.00239131	
-0.00138644	0.00791432	-0.00261387	
0.00108255	-0.000604018	-0.000165358	
0.000661421	0.000609767	0.000562811	
0.000164273	-0.000794803	1.91684e-05	
-0.000141175	0.000171939	0.000408564	
-0.00161197	-0.00451567	-0.00236384	
0.0473357	-0.0498758	0.0190178	
0.00434969	-0.00810451	-0.00577802	
-0.00158589	-0.00554487	-0.00722415	
-0.0077498	0.014695	-0.00737962	
-0.000575818	-0.00208356	-0.00192547	
0.000608866	-0.0066081	-0.00697333	
0.000512672	-0.000604591	-0.00133199	
0.0116085	-0.0112789	-0.00150054	
0.000142134	-0.00515839	-0.00486311	
-0.000145821	-0.00302997	-0.00289181	
8.87093e-05	0.000767825	0.000996549	
5.92406e-05	-4.96634e-05	-0.000156086	
-0.00274716	0.00290959	0.00616783	
-0.00632179	-0.0140526	-0.023477	
-0.0028124	-0.00104355	0.0342291	
0.00548944	-0.000932201	-0.0101342	
0.00734669	-0.000918532	-0.0121131	
0.014488	-0.00151221	-0.0188716	
0.00283718	0.00189873	-0.00694549	
0.0073074	-0.000213123	-0.0110811	
0.00792912	0.000635416	-0.0133645	
0.0088915	-0.000257003	-0.0124633	
0.0111839	0.000687627	0.0458584	
0.000350416	-0.00293908	0.00503084	
0.00126447	0.000726604	0.0286061	
0.00107596	0.00199212	0.00188295	
0.00618636	0.000734049	-0.0101737	
0.00205597	0.00206391	-0.00616682	
0.000567143	0.00284283	-0.00289383	
-0.000423102	0.00240213	-0.0014229	
0.007326	0.00258821	0.0327796	
0.0031406	-0.00549243	0.011689	
0.00292663	0.000698292	0.0333806	
0.000162165	5.2979e-05	-0.000105847	
0.00307981	-0.00299969	0.0120305	
1.98921e-05	-3.31754e-05	0.000157227	
-0.00220299	-0.000357677	0.0244551	
-1.02008e-06	6.9257e-05	-1.96468e-05	
-0.000665623	0.00295002	0.000188595	
0.000644521	0.00158653	-0.000132192	
-0.00149584	0.001973	0.0105276	
-0.000360051	0.00183886	-0.00107958	
-0.00122502	0.000531574	0.0124514	
0.00111942	0.00261823	-0.00554656	
0.000528179	-0.000113641	-0.000174996	
-0.000181045	0.0027011	-0.000715387	
0.000486165	0.0023891	-0.000127624	
0.000702228	0.000955421	-0.000302148	
0.00059777	0.00201974	-6.28157e-05	
-0.00444613	-0.0122557	-0.00399338	
-0.0350275	-0.0858837	-0.136768	
-0.00366341	-0.0076459	-0.000804919	
0.00270272	0.00574967	0.00257435	
-0.00150374	-0.00290377	0.000411508	
0.00644866	0.0137641	0.00922646	
-0.0131388	-0.0223381	-0.00830135	
0.00574305	0.00800199	0.00411156	
-0.00172097	-0.00693798	-0.00362883	
0.00142978	0.00135302	0.00585577	
0.00122335	0.00289801	0.00376087	
-0.00439942	-0.00521129	-0.0125915	
0.00653786	0.00837092	0.00434931	
-0.000785269	-0.00220971	0.000751096	
0.00513888	0.0101551	0.00550552	
0.00618659	0.0077719	0.00361826	
0.000228927	-0.000631038	0.00161458	
-0.00379741	-0.0151896	-0.0100968	
-0.00199281	-0.00476021	-0.00294267	
-9.71639e-05	-0.000526416	0.00198369	
-0.000263038	0.000497443	-0.00033896	
0.000332769	-0.000472274	0.000655957	
0.000441599	0.000403898	-0.000411768	
-8.07989e-05	-0.000352839	0.00183361	
-7.61993e-05	0.000171344	-0.00039866	
0.0115182	0.0218732	0.0116547	
0.00605568	0.00775782	0.00317511	
0.0107321	0.0157355	0.00645015	
0.0116575	0.0264623	0.011388	
-0.000319431	-4.98339e-05	0.00189884	
1.52155e-05	1.12804e-05	-0.000177057	
-0.000293108	4.15281e-05	0.00226881	
0.00294596	0.00549892	0.00220833	
5.68608e-05	9.37688e-05	-0.000539579	
1.4387e-05	-0.000340029	0.00202853	
5.61491e-05	-0.000523556	0.00161335	
-0.000143993	-0.000309413	0.00240522	
0.0260548	-0.0143882	0.0154902	
0.00289149	0.010299	-0.0259203	
-0.0059886	0.0213024	-0.00707665	
0.0014924	-0.00274528	-0.000235283	
-0.00579605	0.0190498	-0.0073889	
-0.0078911	0.0259061	-0.00812366	
-0.00679417	0.0119075	-0.0101081	
-0.00598681	0.00855696	-0.00717182	
0.00176639	-0.0073985	0.00402789	
0.00062673	-0.0044357	0.00299239	
-0.000554513	0.0021739	-0.00125862	
-0.000495465	-0.000351217	0.00382681	
-0.00026566	-0.000579065	-0.00238012	
-0.0186506	0.0303741	-0.0243213	
-0.0103842	0.0236814	-0.0157087	
0.0012229	-0.00276184	-0.00128698	
0.000947669	-0.00389108	0.00180066	
0.000654126	-0.00370016	0.00194563	
0.000382875	-0.00319128	0.00148903	
-0.00178249	0.00692047	-0.00345879	
-0.000323217	-0.000180693	5.43681e-05	
-0.00016364	-0.000165737	-0.000149276	
-6.75362e-05	0.000115458	0.000160606	
0.000113464	-0.000131671	-0.000322779	
-0.000549282	-0.00144818	-0.000569857	
0.0337895	-0.0537249	0.0311184	
0.00311717	-0.00449959	-0.000315655	
-0.00105764	-0.00143727	-0.00257995	
-0.00480632	0.0162828	-0.00700275	
-0.000215185	-0.000641264	-0.000563734	
0.000126181	-0.00221781	-0.00211791	
0.000213858	-0.000304465	-0.000544674	
0.0106909	-0.00799926	0.00339889	
3.28105e-05	-0.00171122	-0.0014227	
-6.01448e-05	-0.00079225	-0.000773859	
-2.55765e-05	-0.000230862	-0.000307482	
0.000157835	-0.000133933	-0.00041228	
-0.00287569	0.00310598	0.00582317	
-0.00676992	-0.0150648	-0.0208961	
-0.00518129	0.00017316	0.034718	
0.00578922	-0.00096872	-0.0101626	
0.00747175	-0.00128783	-0.0123885	
0.0121226	-0.00312836	-0.0213715	
0.00189555	0.00205839	-0.00778031	
0.00710441	-0.000955475	-0.0116385	
0.00569003	0.000150512	-0.0149917	
0.00830249	-0.00125698	-0.0133351	
0.0117607	6.93879e-05	0.0466587	
0.000382274	-0.00281278	0.00580609	
0.00147285	0.000650086	0.029057	
0.00194558	0.00211327	0.00264541	
0.00464349	0.000412747	-0.0114953	
0.00160296	0.0025164	-0.00658864	
0.000773994	0.00337881	-0.00263421	
-0.000556513	0.00254426	-0.00155194	
0.00744782	0.0022773	0.0333921	
0.00303055	-0.00568882	0.0118607	
0.00315713	0.000606581	0.0338756	
0.000118666	-0.00011323	2.37256e-06	
0.00326773	-0.00310308	0.0124959	
8.62005e-05	5.03551e-05	0.000137551	
-0.00179663	-0.00026041	0.0251422	
-5.29731e-06	0.000256535	-7.60339e-05	
-0.000684526	0.00356119	6.88499e-05	
0.000615309	0.00156499	-0.000142968	
-0.00246371	0.00281472	0.0105895	
-0.000412982	0.00178607	-0.0011159	
-0.00141137	0.000815297	0.0129364	
0.00152342	0.00330732	-0.0056153	
0.000525715	-0.000126487	-0.000177932	
-0.000150209	0.00337835	-0.000817374	
0.000688286	0.00273791	-0.000153895	
0.000737434	0.000995518	-0.000314953	
0.000719515	0.00219909	-5.03018e-05	
-0.00501541	-0.0122829	-0.00381172	
-0.0295446	-0.0815226	-0.148036	
-0.00330426	-0.00618108	-0.000684875	
0.00297675	0.00548699	0.00254364	
-0.00145896	-0.0028062	0.000443524	
0.0059504	0.01306	0.00902633	
-0.0111448	-0.0225303	-0.00859233	
0.00506098	0.00863922	0.00469208	
-0.00195807	-0.00710579	-0.00388145	
0.000796162	0.00178459	0.00582799	
0.0014534	0.00337293	0.00420863	
-0.00414769	-0.00510959	-0.0125566	
0.00570263	0.00920483	0.0048419	
-0.000573466	-0.00187241	0.000626095	
0.0056245	0.0104358	0.00619366	
0.00553303	0.00855981	0.00390757	
0.000402388	-0.000299958	0.00193697	
-0.0046099	-0.0154932	-0.0099107	
-0.00216559	-0.00496543	-0.00263698	
-0.000327723	-0.00119494	0.00160684	
-0.000244468	0.000555368	-0.000330963	
0.00035086	-0.000512185	0.000709729	
0.000675958	0.000111478	-0.00028323	
-7.10164e-05	-0.000374353	0.00182712	
-5.93798e-05	0.000130405	-0.000292483	
0.0119573	0.0211272	0.0126495	
0.00563065	0.00834898	0.00330963	
0.0106481	0.016244	0.00628696	
0.012624	0.0248561	0.0122268	
-0.000245576	-0.000129534	0.0016462	
1.13433e-05	6.36434e-06	-0.000123926	
-0.000261291	-8.44263e-05	0.00201211	
0.00315233	0.00543971	0.00220383	
5.90134e-05	8.02721e-05	-0.000525076	
1.18565e-06	-0.000351039	0.0016013	
4.789e-05	-0.000570009	0.00168661	
-0.000110598	-0.000346692	0.00228486	
0.0251238	-0.0142439	0.0187302	
0.000689467	0.0109994	-0.0245852	
-0.00683421	0.0215386	-0.00720299	
0.00154797	-0.00278056	0.000429428	
-0.0058216	0.0194934	-0.007268	
-0.00842381	0.0262179	-0.0081824	
-0.0054639	0.0130574	-0.00981724	
-0.00466823	0.00955593	-0.0073664	
0.00164147	-0.00695399	0.00430502	
0.00074214	-0.00409073	0.0030889	
-0.000606646	0.00241144	-0.00100727	
0.00122879	-0.00105245	0.00326852	
-0.000180935	-0.000584991	-0.00242458	
-0.0172529	0.0333835	-0.0235408	
-0.0119506	0.0238404	-0.015389	
0.000724466	-0.00266963	-0.0013312	
0.000950357	-0.00349811	0.00211077	
0.000703986	-0.00332127	0.00219276	
0.000483718	-0.0028471	0.00175444	
-0.00174339	0.00728191	-0.00331411	
0.000137706	-3.62315e-05	-4.76873e-05	
6.51399e-05	6.66809e-05	6.09512e-05	
5.41574e-06	-7.33583e-05	-4.81182e-05	
4.35845e-05	-5.21453e-05	-0.000124852	
-0.000563177	-0.00139586	-0.000430247	
0.0344325	-0.0554834	0.0269974	
0.00239846	-0.00489222	-2.48451e-05	
-0.000409314	-0.00175638	-0.00214249	
-0.00567692	0.0163387	-0.00705762	
-0.000228747	-0.000738802	-0.000704424	
4.88554e-05	-0.00221784	-0.00203791	
0.000243428	-0.000309802	-0.000602723	
0.00934148	-0.00837006	0.00517048	
-1.04327e-05	-0.00169935	-0.00128958	
-6.2285e-05	-0.000755439	-0.000832781	
4.89401e-06	4.58066e-05	6.05799e-05	
0.000116894	-9.16096e-05	-0.00028896	
-0.00313708	0.00286153	0.00570397	
-0.00454669	-0.0150108	-0.0198732	
-0.00533614	0.000127536	0.0354726	
0.00613607	-0.000967508	-0.0104591	
0.00761047	-0.0011512	-0.0128392	
0.0115212	-0.00258211	-0.0226539	
0.00242894	0.00230378	-0.00746659	
0.00697339	-0.000891026	-0.0123526	
0.00625618	0.00116816	-0.0148325	
0.00788011	-0.00122292	-0.0142777	
0.0119858	0.000160443	0.0475295	
0.000429395	-0.002922	0.00639459	
0.00168453	0.000901005	0.0295009	
0.002825	0.00188148	0.00325848	
0.00463706	0.000944683	-0.0115586	
0.00193598	0.00253298	-0.00631181	
0.000920643	0.00330902	-0.0029181	
-0.000636383	0.00275825	-0.00151687	
0.00746092	0.00242119	0.0340671	
0.00311863	-0.00586388	0.0119765	
0.00336538	0.000978712	0.0347606	
6.00774e-05	-0.000106208	6.65844e-05	
0.00349804	-0.00331804	0.0129155	
7.7846e-05	5.17407e-05	0.000114093	
-0.00170104	6.63071e-05	0.0258546	
-4.00709e-06	0.000126428	-3.86431e-05	
-0.000670034	0.00320835	0.000284303	
0.000656864	0.00168857	-0.000164749	
-0.0025585	0.00283879	0.0108408	
-0.000537143	0.00216429	-0.00131195	
-0.00129055	0.00103593	0.0135004	
0.00161207	0.00312919	-0.00562723	
0.000473674	-0.000119915	-0.00016387	
-0.000119106	0.0030922	-0.000692188	
0.000728601	0.00294973	-0.00013527	
0.000751761	0.000937658	-0.000294236	
0.000777064	0.00238759	-5.37632e-05	
-0.00560548	-0.0122381	-0.00368154	
-0.0189784	-0.0824592	-0.156334	
-0.00280369	-0.00526085	-0.000564966	
0.00319812	0.00532356	0.00262079	
-0.00137787	-0.00269723	0.000268154	
0.00573288	0.0127936	0.00866521	
-0.0116662	-0.0214384	-0.00916858	
0.00537858	0.00855354	0.0047812	
-0.00206299	-0.00736013	-0.00421331	
0.00014377	0.00335301	0.00458462	
0.00152029	0.00368106	0.00420184	
-0.00169919	-0.00708588	-0.0116856	
0.00587605	0.00919523	0.00503484	
-0.000473788	-0.00148117	0.000453358	
0.00601847	0.011049	0.00633517	
0.00556841	0.00862866	0.00419261	
0.000396694	-0.000150539	0.00176622	
-0.00445646	-0.0153473	-0.0100862	
-0.00240003	-0.00477875	-0.00284178	
-0.0003629	-0.0012794	0.00119243	
0.000392448	0.00017516	-0.000124143	
0.000298733	-0.000470193	0.000666031	
0.00057072	-0.000187359	-6.94827e-07	
-6.00327e-05	-0.000341753	0.00165195	
-5.15414e-05	0.000112795	-0.000247349	
0.0119958	0.0212913	0.0125636	
0.00558264	0.0084933	0.00355907	
0.0106507	0.0164127	0.00663227	
0.0123891	0.0244468	0.0119926	
-0.00020366	-0.000112575	0.00137419	
5.19259e-07	6.92253e-08	-8.5694e-06	
-0.000224721	-8.59108e-05	0.00174492	
0.00327118	0.00536829	0.00241466	
3.34199e-05	4.25782e-05	-0.000284867	
1.40355e-05	-0.000306244	0.00129231	
4.9175e-05	-0.000533922	0.00158763	
-8.79464e-05	-0.000291806	0.00190582	
0.0243298	-0.0139387	0.0209991	
0.000278773	0.0111321	-0.0246083	
-0.00687813	0.0218481	-0.00714812	
0.0016809	-0.00278152	0.0009892	
-0.0058726	0.0195941	-0.00738824	
-0.00835547	0.0263889	-0.00854015	
-0.00616582	0.0132612	-0.009481	
-0.00525085	0.00966341	-0.00706922	
0.00162039	-0.00702104	0.0041522	
0.000763584	-0.00416385	0.00301066	
-0.00061325	0.00243142	-0.00109472	
0.00135486	-0.000935998	0.00327833	
-0.000171067	-0.000378051	-0.00218457	
-0.0185015	0.0344373	-0.0231351	
-0.0121918	0.0245196	-0.0150154	
0.000651923	-0.00237106	-0.00124783	
0.000914482	-0.00353948	0.00197264	
0.000696525	-0.00341458	0.00208282	
0.000454539	-0.00293211	0.00164986	
-0.001765	0.00726755	-0.00339673	
-8.8525e-06	4.12814e-06	4.68196e-06	
-6.5997e-06	-6.95244e-06	-6.40876e-06	
-1.27281e-06	3.72903e-06	5.63424e-06	
4.55707e-05	-5.55149e-05	-0.000132051	
-0.000456212	-0.00103112	-0.000280157	
0.0336953	-0.0552788	0.0269909	
0.00224219	-0.00467145	0.000296698	
-8.14764e-05	-0.00174973	-0.0015996	
-0.00579843	0.0165783	-0.00690864	
-0.00015055	-0.000501008	-0.000494266	
8.80751e-06	-0.00180534	-0.00171303	
0.000157523	-0.000205289	-0.000402164	
0.00846192	-0.00849406	0.00601224	
-4.04214e-05	-0.00150591	-0.00114714	
-4.94221e-05	-0.000679825	-0.000795772	
-3.35537e-06	-3.22769e-05	-4.2791e-05	
9.09272e-05	-7.45995e-05	-0.000226017	
-0.00299257	0.00317738	0.00517722	
-0.00346872	-0.0140566	-0.019988	
-0.00486877	-0.00121235	0.0362681	
0.00625504	-0.000545114	-0.0107772	
0.00753039	-0.00106168	-0.0132463	
0.012137	-0.00214688	-0.022666	
0.00267387	0.0018021	-0.00766227	
0.00689711	-0.000748857	-0.012528	
0.00642469	0.000631238	-0.0148251	
0.00788224	-0.00128597	-0.0143011	
0.0126109	-0.000328692	0.0478201	
0.00062616	-0.00309156	0.00663274	
0.00218466	0.000134541	0.0301348	
0.00275424	0.0027398	0.00321299	
0.00506054	0.000712899	-0.0114598	
0.00210869	0.00217246	-0.00660114	
0.000598862	0.00259311	-0.00171888	
-0.000443563	0.0019584	-0.00096564	
0.00759919	0.00200355	0.0344832	
0.00352392	-0.00610234	0.0118769	
0.00382862	0.000231782	0.0353656	
-2.75044e-06	-5.68417e-05	3.51455e-05	
0.00386761	-0.00358494	0.0130811	
3.39652e-05	2.5593e-05	5.05232e-05	
-0.00122145	-0.000844104	0.0263845	
-2.13507e-05	0.000585811	-0.000183841	
-0.000686997	0.00314291	0.000444824	
0.000338437	0.000878157	-9.61507e-05	
-0.00245827	0.00156597	0.0114232	
-0.000377103	0.00147583	-0.000835281	
-0.00127412	7.70073e-05	0.0140035	
0.00148729	0.00276222	-0.00538864	
0.000213302	-5.18141e-05	-8.13176e-05	
-0.000104823	0.00292688	-0.000646092	
0.000420371	0.00171162	-8.2841e-05	
0.000323311	0.000409387	-0.000135231	
0.000425619	0.00130325	-4.05743e-05	
-0.00585689	-0.0121984	-0.00325946	
-0.0184523	-0.0819286	-0.161012	
-0.00263223	-0.00505285	-0.000756944	
0.00338855	0.00523047	0.00301569	
-0.00134961	-0.00275043	-0.000110209	
0.00561483	0.0127424	0.00840498	
-0.011584	-0.0214549	-0.0087676	
0.00550108	0.00849101	0.00535917	
-0.00211328	-0.00748556	-0.00472331	
-0.000137048	0.00305168	0.00432168	
0.0014584	0.00369155	0.0038433	
-0.00155706	-0.00634066	-0.0122543	
0.00592945	0.00905988	0.00581769	
-0.00035544	-0.00134358	0.000667164	
0.00603786	0.0113339	0.00649987	
0.00556038	0.00847246	0.00513417	
0.000233788	-0.00022838	0.00116522	
-0.00429861	-0.0152116	-0.0104269	
-0.00253443	-0.00458603	-0.00317232	
-0.000292047	-0.00104167	0.000801572	
0.000249183	0.000144858	-9.79211e-05	
0.000192736	-0.0003199	0.000477015	
0.000309856	-0.000143343	0.000166682	
-4.36818e-05	-0.000295713	0.00140469	
3.45305e-06	-7.40914e-06	1.65035e-05	
0.011959	0.0215604	0.0125806	
0.00559	0.00843196	0.00474074	
0.0107541	0.0165078	0.00772263	
0.012198	0.0245429	0.0120758	
-0.000207027	-0.000114876	0.00140624	
-8.48654e-05	-6.62181e-05	0.000811157	
-0.000192333	-7.45166e-05	0.00150833	
0.00333322	0.00532976	0.00299288	
-4.82073e-05	-6.35708e-05	0.000404224	
1.1653e-05	-0.000305963	0.00130972	
4.20399e-05	-0.0004236	0.00125864	
-6.68837e-05	-0.000233044	0.00153621	
0.0240554	-0.015083	0.0219576	
-0.000256481	0.0113909	-0.024149	
-0.00695894	0.0220645	-0.00719167	
0.00163127	-0.00295602	0.00105213	
-0.00589783	0.0197388	-0.00748149	
-0.0084561	0.0265286	-0.00872515	
-0.0065276	0.0136938	-0.00898304	
-0.00556535	0.010089	-0.00651795	
0.00156898	-0.00692034	0.00413824	
0.000717247	-0.00410257	0.00301099	
-0.000629202	0.00249741	-0.00109441	
0.00142665	-0.00140071	0.00302855	
-0.000303546	7.29965e-05	-0.00171082	
-0.0187563	0.0356005	-0.0228141	
-0.0122194	0.0249348	-0.0149333	
0.000685469	-0.00197553	-0.000930123	
0.000891715	-0.00345156	0.001971	
0.000687919	-0.00335418	0.00209552	
0.000478047	-0.00287684	0.00166191	
-0.00176857	0.00735359	-0.00341517	
2.06004e-05	-2.74755e-05	-2.36374e-05	
1.58786e-05	1.72766e-05	1.60755e-05	
1.89293e-06	-1.99943e-05	-1.33187e-05	
3.65026e-05	-4.58666e-05	-0.000107285	
-0.000606185	-0.00128253	-0.000356102	
0.0328076	-0.0554897	0.0270758	
0.00231043	-0.0042001	0.000463848	
-3.42065e-05	-0.00147234	-0.00133287	
-0.00590147	0.0166611	-0.00686496	
-0.000111266	-0.000376709	-0.000380765	
1.36852e-05	-0.0013514	-0.00136522	
0.000121261	-0.000160837	-0.000314354	
0.0080166	-0.00878326	0.00620534	
-5.30243e-05	-0.00149562	-0.00120025	
-2.77402e-05	-0.000440034	-0.000527119	
-6.22212e-07	-6.20663e-06	-8.18971e-06	
7.50161e-05	-6.39484e-05	-0.000189489	
-0.00312245	0.00283384	0.00515169	
-0.00344742	-0.013054	-0.0199397	
-0.0044686	-0.00207449	0.0366589	
0.00652642	-0.00103698	-0.0107152	
0.0076533	-0.00134629	-0.0129625	
0.0123496	-0.00266129	-0.0227879	
0.00260063	0.000999307	-0.00711187	
0.0072552	-0.00137919	-0.0122784	
0.00656804	-5.82748e-05	-0.014949	
0.00818275	-0.00148449	-0.0141529	
0.0127955	-0.000525834	0.0480366	
0.000849464	-0.00319343	0.00672253	
0.00242858	-0.000312743	0.0304397	
0.00178153	0.00349594	0.00349119	
0.00528406	-3.7634e-05	-0.0114059	
0.00198737	0.00101431	-0.00590964	
0.000597813	0.00100567	-0.00129779	
-0.000285348	0.00129786	-0.000626918	
0.007583	0.00186231	0.0347131	
0.00386133	-0.00614096	0.0118035	
0.00405669	-0.00014225	0.0356275	
-3.97395e-05	-3.84805e-05	2.62981e-05	
0.00414305	-0.00372712	0.0131257	
3.47521e-05	1.81017e-05	4.33093e-05	
-0.000938044	-0.00132537	0.026503	
-6.13945e-06	0.000147431	-4.58191e-05	
-0.000623509	0.00142223	0.00118613	
0.000185215	0.00048824	-5.57276e-05	
-0.00227403	0.000408193	0.0116924	
-0.000231402	0.000926799	-0.000491092	
-0.00121267	-0.000480313	0.0141809	
0.00143066	0.000993102	-0.00498967	
0.000150754	-3.31175e-05	-5.98272e-05	
-3.60503e-05	0.00110135	-0.000240738	
0.000189449	0.000778834	-4.17142e-05	
0.000204468	0.000263046	-8.68753e-05	
0.000194663	0.000601154	-2.2649e-05	
-0.00643714	-0.0121833	-0.00370287	
-0.0243092	-0.083813	-0.162577	
-0.00177089	-0.00343979	-0.000557105	
0.0033555	0.00532301	0.00224961	
-0.00116119	-0.00247989	-0.000594185	
0.00508922	0.0118219	0.00720501	
-0.0115046	-0.0202906	-0.00989822	
0.00543716	0.00896402	0.00389988	
-0.00216849	-0.00747137	-0.00509773	
-0.000531347	0.00330881	0.0044439	
0.00172041	0.00474237	0.00382458	
-0.00134934	-0.00620547	-0.012745	
0.00611742	0.0094561	0.00429843	
-0.000303921	-0.000716434	-1.79276e-05	
0.00649872	0.0121387	0.00580552	
0.00587729	0.00878506	0.00354425	
0.000540153	0.000732125	0.00170428	
-0.00423209	-0.0156729	-0.0108513	
-0.00268844	-0.00451799	-0.00347759	
-0.000675135	-0.00218309	-9.57223e-05	
0.000185547	0.000117893	-7.12074e-05	
0.000135129	-0.000229471	0.000337727	
0.000260736	-0.000117994	0.000142131	
-1.7431e-05	-0.000144465	0.000684498	
-9.76004e-05	0.000214454	-0.000467152	
0.0119075	0.0216696	0.0119441	
0.00582743	0.00859733	0.0029923	
0.0109275	0.016578	0.00644787	
0.0116538	0.0237568	0.0107098	
-8.24609e-05	-4.84974e-05	0.000567669	
8.38032e-05	8.16567e-05	-0.000843626	
-0.000126713	-5.39017e-05	0.001006	
0.00343164	0.00549504	0.00198096	
0.000103135	0.000141333	-0.000880419	
5.25939e-06	-0.000141965	0.000607954	
1.72083e-05	-0.00019669	0.000589482	
-5.10719e-05	-0.000199919	0.00129092	
0.0241755	-0.0148169	0.0219925	
-0.000446233	0.0116564	-0.0238781	
-0.00702308	0.0221695	-0.00712965	
0.002096	-0.00244522	0.00160901	
-0.00589182	0.0197513	-0.00751092	
-0.00844957	0.0266323	-0.00878326	
-0.00674895	0.0139376	-0.00869534	
-0.00581882	0.010492	-0.00622829	
0.0015388	-0.00689057	0.00408719	
0.000716615	-0.00410027	0.00297744	
-0.000637399	0.00253327	-0.00110932	
0.00133547	-0.00167669	0.00291558	
-0.000241167	7.26861e-05	-0.00136853	
-0.0190984	0.03636	-0.0226269	
-0.0123067	0.0253313	-0.0148065	
0.000405622	-0.00121981	-0.000623839	
0.000868268	-0.00341866	0.00193423	
0.000679494	-0.00335438	0.0020673	
0.00047663	-0.0028789	0.00163222	
-0.00177271	0.00739172	-0.00344891	
3.02818e-06	-1.29411e-05	-1.01258e-05	
5.51269e-06	6.19887e-06	5.82773e-06	
1.00433e-06	-8.28289e-06	-4.49876e-06	
1.74359e-05	-2.27648e-05	-5.20649e-05	
-8.73861e-05	-0.000175447	-5.54999e-05	
0.0320258	-0.0555774	0.0272094	
0.00225722	-0.00406113	0.000547249	
0.000559322	-0.00169369	-0.000522896	
-0.00603677	0.0167826	-0.00675861	
-6.68038e-05	-0.000230909	-0.000238109	
1.59897e-05	-0.00118041	-0.00128866	
6.02218e-05	-8.13274e-05	-0.000157986	
0.00781144	-0.00818367	0.00630031	
-1.55435e-05	-0.000416516	-0.000356917	
-1.54508e-05	-0.000307879	-0.000375455	
-1.25359e-06	-1.27896e-05	-1.69201e-05	
3.57066e-05	-3.18474e-05	-9.17272e-05	
-0.00319261	0.00269324	0.00513982	
-0.00377366	-0.0135791	-0.0189821	
-0.00451279	-0.00205333	0.03688	
0.00665516	-0.00109672	-0.0108248	
0.00781378	-0.00131978	-0.0131572	
0.0124219	-0.00238022	-0.0233901	
0.00244499	0.00071776	-0.006666	
0.00724505	-0.000961308	-0.0126606	
0.0063589	-0.000267261	-0.0145997	
0.00821279	-0.00119902	-0.0145133	
0.0128683	-0.000482777	0.0480711	
0.00105968	-0.00324178	0.00695364	
0.00266918	-0.000280203	0.0305699	
0.00108964	0.0035649	0.00432844	
0.00525261	0.000203832	-0.0117548	
0.00187864	0.00071135	-0.00560257	
0.000563001	0.000936327	-0.0011745	
-0.000348134	0.00162073	-0.000769884	
0.00749572	0.00191384	0.0348681	
0.00420962	-0.00609216	0.0117859	
0.00415604	-5.28285e-05	0.0358601	
-4.4816e-05	-2.98502e-06	7.28196e-06	
0.00441871	-0.00373476	0.0131522	
4.72941e-05	8.36825e-06	3.99282e-05	
-0.000866144	-0.00122152	0.0266663	
-2.15915e-06	4.51825e-05	-1.39499e-05	
-0.000629452	0.00119796	0.00138577	
0.000172119	0.000465309	-5.49681e-05	
-0.00223836	0.000350525	0.0118	
-0.000289834	0.00119519	-0.000622645	
-0.00117333	-0.00041647	0.014242	
0.00136586	0.000921554	-0.00494858	
0.000184366	-3.45481e-05	-7.39663e-05	
-2.90795e-05	0.000969159	-0.000206959	
0.000178566	0.000741991	-4.06025e-05	
0.000203293	0.000267134	-8.80168e-05	
0.000187753	0.00059366	-2.46896e-05	
-0.00625272	-0.012297	-0.00298034	
-0.0207653	-0.0860973	-0.166279	
-0.00187686	-0.00351356	-0.000178039	
0.00346115	0.00518514	0.00313951	
-0.00125621	-0.0025357	4.49088e-06	
0.00517027	0.0117207	0.00795706	
-0.0112286	-0.0209257	-0.0081263	
0.00565238	0.00863707	0.00590771	
-0.0023437	-0.00789975	-0.00493397	
-0.000128488	0.00335436	0.00400864	
0.00184541	0.00467969	0.00457003	
-0.00139261	-0.00656673	-0.0123494	
0.00603727	0.00931729	0.00634206	
-4.77752e-05	-0.000914609	0.00112936	
0.00632357	0.0120341	0.00690332	
0.00569482	0.00877906	0.00554696	
0.0005978	0.000567841	0.00195165	
-0.00452038	-0.0155308	-0.0105413	
-0.00256507	-0.00474954	-0.00335324	
-0.000767787	-0.00240321	9.79771e-05	
0.000326873	-3.15013e-05	5.96364e-06	
0.000213548	-0.000369283	0.000543003	
0.000348759	-0.000152385	0.000164617	
-3.30738e-05	-0.000305971	0.00140434	
2.92039e-05	-6.43984e-05	0.000141993	
0.0117867	0.0216036	0.0126894	