<VTKFile type="UnstructuredGrid" version="0.1" byte_order="LittleEndian">
	<UnstructuredGrid>
		<Piece NumberOfPoints="2331" NumberOfCells="2331">
			<CellData Scalars="scalars">
				<DataArray type="Float64" Name="Strength" NumberOfComponents="3" Format="ascii">
-0.00617339	-0.0163111	0.0124733	
0.00669479	-0.0105869	-0.0279419	
0.000321944	0.0704963	0.015164	
0.00437459	-0.00623184	-0.00759187	
0.00578692	0.00123128	-0.0109876	
0.0151629	0.0562055	-0.0271674	
0.0161809	0.086921	-0.0212637	
0.00543246	0.0195527	-0.0132966	
0.0179919	0.0841698	-0.0267655	
0.00766799	0.0340312	-0.0175352	
0.00650201	0.00570155	0.0444982	
0.00187522	-0.00405061	0.00354272	
-0.0044772	0.0403511	0.0154841	
0.000259584	-0.00217376	-0.0013808	
0.0132049	0.0746276	-0.0220414	
0.0189897	0.0850539	-0.0194215	
0.0198033	0.0908218	-0.0205471	
0.00602366	0.0678284	-0.0128064	
0.00278038	0.0124507	0.0287742	
0.00536028	-0.00579959	0.0120495	
-0.00292445	0.0332344	0.0226995	
0.00179756	0.00112504	0.00078983	
0.00272998	-0.00367634	0.0105646	
0.00119407	0.0021901	-0.000502345	
-0.00466325	0.0492254	0.0105443	
-0.00042249	-0.0127632	0.00206886	
0.0165821	0.0869284	-0.0153672	
0.00981807	0.0416728	-0.00478589	
0.0131423	0.0858275	-0.00466285	
0.00298261	0.0492721	-0.00903631	
0.00574951	0.053998	0.00111125	
0.0210179	0.0863912	-0.0185798	
-0.000325241	-0.000559259	9.75951e-05	
0.0182238	0.0847576	-0.013348	
0.0241864	0.0754628	-0.00749211	
0.00690372	0.0205783	-0.0030117	
0.0177633	0.0578784	-0.00582612	
-0.00954042	-0.00519514	-0.0258585	
-0.0224171	-0.133791	0.00534579	
-0.00109923	-0.0208783	0.0473722	
0.00223547	0.0116096	-0.0133353	
0.00729809	-0.0115072	0.0535663	
0.0255618	0.00105562	0.0629574	
-0.00539091	-0.0407654	0.0441665	
0.0151414	-0.0104338	0.0526521	
0.01165	-0.0137358	0.0373033	
0.0124536	0.000811726	0.0158878	
0.0150392	-0.0126337	0.0543179	
0.0209471	0.0107766	0.00159977	
0.0121865	-0.0078119	0.0469903	
0.00342881	-0.0121384	0.0252627	
0.0107277	-0.00572891	0.053661	
0.00909865	-0.00520933	0.0390792	
0.0152361	-0.0150042	0.0462103	
0.00308547	-0.019091	0.0280065	
0.00438357	-0.00864293	0.0172727	
0.0151581	-0.0115008	0.0545827	
0.0241137	-0.0110642	-0.00236555	
0.017215	-0.00882827	0.0169708	
0.0114809	-0.00173551	0.0158538	
0.0144419	-0.0146329	0.0557178	
-0.00177716	0.00840591	-0.0205233	
0.0175164	0.0120572	0.0388524	
0.00759872	-0.0022735	0.0308333	
0.00979803	0.0104723	0.0175798	
0.0342367	0.00794049	0.0694171	
0.00480839	-0.0107638	0.0391184	
0.00142542	-0.00606297	0.0179485	
0.007413	-0.0111042	0.0426682	
0.002625	0.00933203	-0.00997134	
-0.000142046	0.00163677	-0.00457102	
0.00385409	-0.00737385	0.0236923	
0.016642	-0.0157618	0.0515094	
0.0124619	-0.0131169	0.0489887	
0.0237095	-0.0524376	-0.0155749	
-0.000201252	0.0170442	-0.0311247	
-0.00647947	-0.00144793	-0.0318179	
0.00371257	-0.0279216	-0.0333596	
-0.00705537	0.0137283	-0.0124705	
-0.0108461	0.0105904	-0.0244162	
0.00161454	-0.0183234	-0.0499244	
0.00633723	-0.0277627	-0.0504763	
0.00156083	-0.00931047	0.00304653	
0.000387133	-0.00727538	0.000754038	
-0.000501402	-0.00012916	-0.00350963	
0.00392215	-0.00367905	0.00288563	
0.0116632	-0.0404752	-0.0544598	
-0.0117822	-0.00173199	-0.0493195	
-0.011879	-0.0139524	-0.0485482	
0.011003	-0.0449591	-0.0543296	
0.000847593	-0.00479856	0.00123874	
0.000259894	-0.00600014	0.00022904	
-8.12631e-05	-0.00551383	-0.000575975	
-0.00175977	0.00452558	-0.00523536	
0.00322998	0.00149793	0.000516539	
-0.000799689	-0.00182675	-0.0023199	
0.00143922	0.00238146	0.000127258	
0.00142044	-0.00630834	-0.00870259	
0.000382186	-0.0321171	-0.0380421	
0.0449858	-0.074724	-0.000248208	
0.0121001	-0.0464077	-0.0522113	
0.00582018	-0.0406566	-0.0555823	
-0.00113386	-0.00730222	-0.0339235	
0.00316721	-0.0384016	-0.0447451	
0.00950417	-0.0423667	-0.052504	
0.0109114	-0.0235015	-0.033107	
0.0153436	-0.0436462	-0.0366791	
0.0105725	-0.0486466	-0.0600107	
0.00104377	-0.0114959	-0.0134268	
6.40176e-07	7.12687e-06	8.62275e-06	
0.00416931	-0.0123456	-0.0180124	
-0.00280342	0.00235895	0.00638927	
0.000666063	-0.00558757	-0.0292469	
-0.006534	0.00720348	0.0322857	
0.00511501	0.00117123	-0.0101312	
0.00667893	0.00275035	-0.0123636	
0.0134522	0.00860965	-0.0200772	
0.00427671	0.0112254	-0.00751084	
0.00652171	0.00494954	-0.0115761	
0.00922023	0.0113174	-0.0137361	
0.00787608	0.00654721	-0.0134088	
0.014689	0.00333984	0.0438894	
0.0010764	-0.00106764	0.00487054	
0.00250835	0.0048289	0.0272935	
-0.000361241	0.000141039	0.00217561	
0.00695249	0.0107584	-0.0107515	
0.00366994	0.0110923	-0.00677741	
0.000715772	0.0104881	-0.00406992	
0.000318295	0.0101925	-0.0021024	
0.010062	0.00429593	0.0311461	
0.00252328	-0.00160382	0.0127617	
0.00482155	0.00540972	0.0316936	
0.000164203	-4.17348e-05	-8.84374e-06	
0.00238637	-0.000520859	0.0118505	
-0.000151643	0.000346028	0.000149324	
-0.00244824	0.00653293	0.0231399	
6.07176e-06	0.000192323	-3.0541e-05	
-0.000264668	0.0108523	-0.00119032	
0.000145272	0.00546501	-0.000926618	
-0.00399066	0.00822333	0.00888734	
0.000197421	0.00799191	-0.00156845	
-0.00210337	0.00597368	0.011218	
0.00239059	0.00959779	-0.00606802	
0.000671523	0.00115102	-0.000260702	
0.000261237	0.00993433	-0.00171729	
0.000570459	0.00855116	-0.00103436	
0.000338189	0.00264082	-0.000664286	
0.000387806	0.00700246	-0.000984139	
-0.00533627	-0.0115095	-0.00457552	
-0.0338191	-0.106688	-0.110817	
-0.00520601	-0.00942038	0.00211308	
0.00293493	0.00593163	0.00178053	
-0.00242905	-0.00398207	0.00461371	
0.00639856	0.0124538	0.0154071	
-0.0135066	-0.0233397	-0.00693664	
0.00625038	0.00620662	0.00761654	
-0.00108824	-0.00800753	0.000458882	
0.000391359	0.00434825	0.00539978	
9.48088e-05	0.00100875	0.0077019	
-0.00392114	-0.00766645	-0.00983334	
0.00692423	0.00656951	0.00754953	
-0.000545807	-0.00381587	0.00367343	
0.00596545	0.00673723	0.0103626	
0.00627427	0.0062467	0.00657241	
-0.000502473	-0.00223486	0.00512957	
-0.00267481	-0.0160603	-0.00650147	
-0.00150203	-0.0056264	-0.000613337	
-0.000832537	-0.00108922	0.0067611	
-0.00112851	0.00152097	-0.00149587	
0.00080084	-0.00113858	0.00263037	
0.00128708	0.00128453	-0.00148596	
-0.000459801	-0.0016976	0.00598948	
-0.000127374	0.000555652	-0.00133488	
0.0140499	0.0182263	0.0175702	
0.0059074	0.00660699	0.00571931	
0.0101599	0.0145931	0.00869275	
0.0153414	0.0221703	0.0194737	
5.7852e-05	-0.0014594	0.00570485	
4.1975e-05	-0.000246927	0.000751302	
4.38696e-05	-0.00161033	0.00667968	
0.00301703	0.0055084	0.00167304	
-1.75353e-05	0.000316663	-0.000888368	
0.00061317	-0.00168296	0.00580769	
-0.000569117	-0.00178205	0.00573567	
-8.6453e-05	-0.00190079	0.00717267	
0.0223484	-0.0198558	0.0141838	
0.00165587	0.018674	-0.0170965	
-0.0064962	0.018771	-0.0113154	
0.00149583	-0.00499764	-0.00393619	
-0.00466984	0.0184877	-0.00937636	
-0.00726169	0.0239085	-0.0125898	
-0.00649121	0.00805665	-0.0141397	
-0.0054078	0.00417191	-0.0112752	
0.00170379	-0.00636293	0.00485747	
4.55633e-05	-0.00373897	0.00323883	
-0.000469527	0.00264404	-0.000509218	
0.000146364	-0.00185939	0.0029338	
0.000411098	-0.004335	-0.00688984	
-0.0184435	0.0242857	-0.0279133	
-0.0134679	0.0215376	-0.0151136	
0.0021916	-0.00692365	-0.00616349	
0.0011168	-0.00285387	0.00301387	
0.000604667	-0.00262975	0.00280161	
0.000432795	-0.00223263	0.00235539	
-0.00137227	0.00763378	-0.00322033	
0.000279141	-0.000623392	-0.00076586	
0.000365438	0.000649731	0.000743997	
-0.000258485	-0.000233866	0.000723321	
-3.96702e-05	0.000273583	0.000371287	
-0.000155639	-0.00350409	-0.0039879	
0.041762	-0.0518369	0.0242263	
0.00381267	-0.00857495	-0.00536559	
-0.000532791	-0.00447056	-0.00800553	
-0.00543158	0.0142289	-0.00966613	
-0.000277061	-0.00190382	-0.00214031	
0.00106891	-0.00605137	-0.00734054	
0.000215717	-0.000929215	-0.00121323	
0.00967125	-0.0129434	7.18622e-05	
0.000786124	-0.00447525	-0.00539246	
2.74594e-05	-0.00282612	-0.00306315	
8.2088e-05	0.000796752	0.000963977	
1.94361e-05	-0.000100342	-0.00014002	
-0.00280604	0.00248677	0.00628081	
0.00186369	-0.00588971	-0.0274182	
-0.00180699	0.00320857	0.0340961	
0.0055105	0.000471173	-0.0101147	
0.0071108	0.000909233	-0.0122063	
0.0116521	0.00210846	-0.0206224	
0.00211279	0.00295713	-0.00681839	
0.00679898	0.00143122	-0.0112697	
0.00611154	0.00296557	-0.0139573	
0.00767304	0.00177027	-0.013084	
0.0125729	0.00164917	0.0454986	
0.00129582	-0.00160838	0.00547357	
0.00186645	0.00261206	0.0284363	
-0.000468418	0.000388532	0.00286835	
0.00498593	0.00279938	-0.0104436	
0.00139541	0.00285648	-0.00602115	
0.000231111	0.00276722	-0.00299824	
-0.000165159	0.00273518	-0.000634773	
0.00787758	0.00307285	0.0326091	
0.0029062	-0.00205933	0.0128312	
0.00321346	0.00269307	0.0332339	
0.00010258	-0.000117017	1.46415e-05	
0.00238093	-0.00118936	0.012516	
-3.91982e-05	0.000145736	5.17625e-05	
-0.00172286	0.0021468	0.0243666	
2.19883e-06	7.08891e-05	-1.06893e-05	
-0.000676695	0.00289415	0.00050568	
0.000114769	0.00168142	-0.000296365	
-0.00146675	0.00265877	0.0103524	
-6.2566e-05	0.00210463	-0.00045395	
-0.00129724	0.00203452	0.0122651	
0.000795053	0.00263383	-0.00558195	
0.00027262	0.00048762	-9.16531e-05	
-0.000327347	0.00271292	-0.000554246	
-4.76884e-05	0.00239363	-0.000427459	
0.00017632	0.00117543	-0.000274217	
4.29515e-05	0.00206751	-0.000360726	
-0.00529164	-0.0119509	-0.0036359	
-0.0281685	-0.111227	-0.1183	
-0.00318065	-0.00757916	-0.00202932	
0.00311453	0.00539425	0.00277114	
-0.00132155	-0.00298332	0.000278507	
0.00582548	0.0131481	0.0103163	
-0.0104255	-0.0225184	-0.0108365	
0.00479098	0.00795051	0.00515069	
-0.00168402	-0.00712085	-0.00318909	
0.00109481	0.00438824	0.0041892	
0.00106342	0.00280715	0.00385947	
-0.00491874	-0.00614658	-0.0119272	
0.00586418	0.00815506	0.00541468	
-0.000685914	-0.00229263	0.000541638	
0.00492757	0.00893405	0.00737255	
0.00570378	0.00741672	0.0047851	
5.37867e-05	-0.000516924	0.00166753	
-0.00358643	-0.0156177	-0.00936593	
-0.00152186	-0.00505191	-0.00267857	
-9.56499e-05	-0.000570212	0.00196886	
2.84536e-05	0.00044001	-0.000483246	
0.000209609	-0.000339085	0.000776627	
0.000676567	-0.000202933	-0.000145156	
1.79114e-05	-0.00049685	0.00179886	
-4.30719e-05	0.000172516	-0.000401257	
0.0112224	0.0201368	0.0144645	
0.00558756	0.00740083	0.0044358	
0.0102135	0.0149415	0.00847851	
0.010845	0.0240034	0.0162131	
-9.84845e-05	-0.000468433	0.00186498	
-5.59639e-06	5.37218e-05	-0.000169062	
-0.000110322	-0.000530428	0.00222116	
0.00317591	0.00515543	0.00257129	
-7.6442e-06	0.000184512	-0.000516697	
7.84136e-05	-0.000557503	0.00197783	
2.52186e-05	-0.000488036	0.00162308	
-1.64072e-05	-0.000620607	0.00234526	
0.0224719	-0.0178009	0.016989	
0.00266057	0.0186511	-0.0204825	
-0.00588313	0.0193546	-0.0110767	
0.00143402	-0.00270858	-0.000563962	
-0.00556099	0.0177937	-0.00985274	
-0.0079304	0.0237401	-0.0127006	
-0.00530394	0.0119124	-0.0107613	
-0.00494705	0.00837614	-0.00796164	
0.00165254	-0.00740906	0.00394346	
1.12986e-05	-0.00474212	0.00249317	
-0.000566268	0.00200331	-0.00147838	
-0.000828752	-0.00267138	0.00251459	
-0.000387526	-0.000821991	-0.00227135	
-0.0150736	0.0317502	-0.0244727	
-0.00994184	0.0239275	-0.0152049	
0.00101157	-0.00288546	-0.00114984	
0.000940834	-0.00386089	0.00180441	
0.000450512	-0.00375253	0.00184781	
9.26566e-05	-0.00318974	0.00149403	
-0.00167162	0.00659933	-0.00397769	
-0.000117932	0.000188219	0.000196896	
-8.6219e-05	-0.000168703	-0.00019878	
0.000136404	7.86226e-05	-0.000134194	
3.29634e-05	-0.000210012	-0.000296372	
-0.000119214	-0.00110646	-0.00120317	
0.0345088	-0.0542562	0.0281591	
0.00254288	-0.00481294	-0.000303819	
-0.000747964	-0.000966742	-0.00286291	
-0.00445455	0.0149952	-0.00936248	
-0.000135517	-0.000586302	-0.000635372	
0.000153704	-0.00199611	-0.00230258	
5.96827e-05	-0.000408544	-0.000510754	
0.00834883	-0.0100719	0.00401844	
0.000139767	-0.0014492	-0.0016663	
-5.96655e-05	-0.000749823	-0.000806437	
-1.97984e-05	-0.000242066	-0.000296101	
4.60777e-05	-0.00026084	-0.000375021	
-0.00277256	0.00265596	0.00604427	
0.00199811	-0.00533629	-0.0260435	
-0.00376421	0.00315799	0.0346895	
0.00573181	0.000603947	-0.0101818	
0.00726857	0.000963607	-0.0124875	
0.0102128	0.00213002	-0.0223968	
0.00177805	0.0033733	-0.00732093	
0.00674994	0.00136446	-0.011763	
0.00500028	0.00320518	-0.0148621	
0.00732081	0.00167895	-0.0138042	
0.0128567	0.00184297	0.0463661	
0.00131584	-0.0016436	0.0061245	
0.00196145	0.00256174	0.0288966	
-0.000374211	0.00144857	0.00357909	
0.00411409	0.00301919	-0.0112809	
0.00130513	0.00338908	-0.00624132	
0.00059826	0.00335228	-0.00269544	
-0.00028293	0.0029263	-0.000690753	
0.00804345	0.00314712	0.0331877	
0.00284681	-0.001866	0.0130865	
0.00330089	0.0026677	0.0337441	
-8.99403e-06	-0.000134924	1.03867e-05	
0.00239239	-0.00107983	0.0130415	
-1.84525e-05	0.000158299	5.42222e-05	
-0.00156325	0.00208886	0.0250371	
8.51441e-06	0.000263757	-3.79497e-05	
-0.000566822	0.00353532	0.000457468	
0.000114916	0.00165243	-0.000289417	
-0.00220469	0.0032059	0.0105044	
-0.000135819	0.00208166	-0.000467368	
-0.00160491	0.00206815	0.0127481	
0.00136795	0.00336116	-0.00560893	
0.00026591	0.00049295	-9.05378e-05	
-6.98612e-05	0.00341043	-0.000608824	
0.000183103	0.00277596	-0.000439607	
0.000175071	0.00123023	-0.000282486	
0.000167826	0.0022725	-0.000350561	
-0.0055065	-0.0120718	-0.00354602	
-0.0282684	-0.115503	-0.123057	
-0.00279097	-0.00625299	-0.00143897	
0.0032085	0.00518861	0.00277681	
-0.00126543	-0.0028896	0.000341863	
0.00543807	0.0124934	0.00995575	
-0.00959841	-0.0221849	-0.0106987	
0.00455358	0.00825464	0.00566555	
-0.00179143	-0.00736263	-0.00337045	
0.00103345	0.00433384	0.00421568	
0.00128135	0.00330484	0.00429547	
-0.00370611	-0.00709894	-0.0116559	
0.00555676	0.00855839	0.00591284	
-0.000543957	-0.00191499	0.000486231	
0.00552842	0.0094651	0.00755095	
0.00543669	0.00781745	0.00520112	
0.000207162	-0.000136474	0.0019839	
-0.00378443	-0.0158203	-0.00959537	
-0.001502	-0.00515622	-0.00267133	
-0.000268727	-0.00121543	0.00159513	
2.99669e-05	0.000472828	-0.000498469	
0.000219196	-0.000357667	0.000843009	
0.000693756	-0.000220507	-0.000123779	
3.84987e-05	-0.000504854	0.00179405	
-3.49275e-05	0.000130539	-0.000294794	
0.0115941	0.0200142	0.0144066	
0.00537015	0.00773469	0.00472665	
0.0102211	0.0152268	0.00867252	
0.0116934	0.0231321	0.0156592	
-6.88168e-06	-0.000448953	0.0016074	
-2.94055e-06	3.74049e-05	-0.00011839	
2.56619e-05	-0.000522328	0.00196083	
0.00328937	0.00512017	0.00260911	
-8.61298e-06	0.000178824	-0.000501538	
8.28246e-05	-0.000479104	0.00156534	
5.2026e-05	-0.000518694	0.00170068	
8.42674e-05	-0.000621723	0.00222409	
0.0223902	-0.0188508	0.0176764	
0.00236025	0.0187545	-0.018936	
-0.00676317	0.0196685	-0.0110203	
0.00145068	-0.00283968	-0.000175448	
-0.00561203	0.0182295	-0.00980828	
-0.00842376	0.0241168	-0.0126712	
-0.00482034	0.0123765	-0.0107692	
-0.00449455	0.00880474	-0.00819202	
0.00162365	-0.00698688	0.00415178	
4.17436e-05	-0.00439258	0.00268772	
-0.000583534	0.00227423	-0.00125906	
-0.000448294	-0.00222328	0.00279935	
-0.000399458	-0.000874102	-0.0022891	
-0.0147267	0.033645	-0.0242459	
-0.0113247	0.0239159	-0.0152711	
0.000638179	-0.00270865	-0.00125948	
0.000959203	-0.00347144	0.00209477	
0.000480768	-0.00338469	0.00210781	
0.000196205	-0.00286735	0.00173956	
-0.00166157	0.00696963	-0.00384754	
-2.49894e-05	-7.61625e-05	-8.97662e-05	
3.47612e-05	6.84538e-05	7.95499e-05	
-5.08759e-05	-3.46232e-05	6.21757e-05	
1.1711e-05	-8.2039e-05	-0.000114587	
-0.00017425	-0.0010637	-0.00111911	
0.0353931	-0.0540042	0.0274396	
0.00212384	-0.00497995	-0.000232161	
-0.000333756	-0.00140601	-0.00237563	
-0.00518628	0.0151603	-0.00932207	
-9.11396e-05	-0.000684021	-0.000777732	
2.46156e-05	-0.00198676	-0.00223946	
9.45548e-05	-0.0004312	-0.000565192	
0.00749573	-0.0103089	0.0043826	
3.54447e-05	-0.00141278	-0.00158039	
-3.20542e-05	-0.000733721	-0.000845227	
4.22296e-06	4.79523e-05	5.83304e-05	
3.78503e-05	-0.000181365	-0.000265025	
-0.00284862	0.00241798	0.0060054	
0.000790631	-0.00542058	-0.0247119	
-0.00375835	0.00325951	0.0354532	
0.00599101	0.000739739	-0.0105169	
0.00737762	0.00124413	-0.0129134	
0.00986102	0.00259128	-0.0233512	
0.00238403	0.00320245	-0.00712603	
0.0066775	0.00172976	-0.0123812	
0.00585149	0.0032233	-0.0146551	
0.00707839	0.00209928	-0.0145418	
0.013247	0.00209681	0.0471905	
0.00134868	-0.00167997	0.00671922	
0.00208075	0.00271371	0.02934	
-0.000231536	0.00240154	0.00403175	
0.00429593	0.00305064	-0.0112956	
0.00176479	0.00314597	-0.00606775	
0.000741408	0.00325326	-0.00301413	
-0.000224894	0.00311871	-0.000675597	
0.00831197	0.00323195	0.0338127	
0.00279752	-0.00172859	0.0133157	
0.00355852	0.00289831	0.0346175	
-7.65106e-05	-8.03643e-05	6.6223e-07	
0.0024432	-0.000999237	0.0135505	
1.75791e-06	0.000140081	4.29938e-05	
-0.00146766	0.00228805	0.0257284	
4.04037e-06	0.000130502	-1.82046e-05	
-0.000465293	0.0031893	0.000575983	
0.000118834	0.00178125	-0.000314852	
-0.00223091	0.00331727	0.0107442	
-0.000168237	0.0025126	-0.000549826	
-0.00160119	0.00225948	0.0132884	
0.00145077	0.00313792	-0.00565198	
0.000233585	0.000449732	-8.36216e-05	
-3.82298e-05	0.00311312	-0.00053193	
0.000201361	0.0029878	-0.0004611	
0.000157349	0.00119204	-0.000275521	
0.000181426	0.00246619	-0.000378728	
-0.00573791	-0.0121425	-0.00352196	
-0.0270102	-0.118956	-0.128583	
-0.00237449	-0.00532011	-0.00120281	
0.00329698	0.00507609	0.00287449	
-0.00120506	-0.00276416	0.000172347	
0.00526838	0.0122354	0.00956772	
-0.0101441	-0.0212194	-0.010934	
0.0048926	0.0083261	0.00550126	
-0.00184242	-0.00763773	-0.00370964	
0.000904811	0.00401328	0.00389298	
0.0013505	0.00360617	0.00429657	
-0.00133436	-0.00774704	-0.0112583	
0.00573619	0.00870573	0.00582876	
-0.000448596	-0.00150984	0.000356214	
0.00587643	0.0100983	0.00773464	
0.00546718	0.00801524	0.00523054	
0.000212155	-4.42402e-06	0.00180224	
-0.00368538	-0.0156762	-0.00974146	
-0.00146096	-0.00518758	-0.00269951	
-0.00030963	-0.00129801	0.00117735	
0.000433475	5.2073e-05	-7.79777e-05	
0.000191961	-0.000318841	0.000782918	
0.000434391	-0.000356811	0.000204583	
3.61822e-05	-0.000458994	0.00162198	
-3.10409e-05	0.000112136	-0.000249566	
0.0116715	0.0202099	0.0142492	
0.00534903	0.00789023	0.0048595	
0.0101312	0.0154278	0.00897494	
0.0114952	0.0227469	0.0153274	
9.75167e-06	-0.000382806	0.00133966	
-2.8535e-07	2.44822e-06	-8.09374e-06	
3.5703e-05	-0.000463083	0.00169752	
0.00335857	0.00505045	0.00282507	
-5.49184e-06	9.70301e-05	-0.000271999	
8.23484e-05	-0.000404228	0.00126217	
5.11322e-05	-0.000485408	0.00160073	
7.58922e-05	-0.000522531	0.00185411	
0.0221194	-0.0194556	0.0185213	
0.00223367	0.0189514	-0.0188519	
-0.00686016	0.019937	-0.0110629	
0.00158483	-0.00297369	0.000245105	
-0.00566326	0.0182947	-0.00996456	
-0.0085023	0.0242773	-0.0128404	
-0.00552743	0.0126891	-0.0103653	
-0.00498608	0.00898416	-0.00791058	
0.00160752	-0.00702427	0.00404337	
5.11853e-05	-0.00445344	0.00261624	
-0.000597568	0.00228011	-0.00135001	
-0.000407463	-0.00217419	0.002862	
-0.000364868	-0.00065746	-0.00207499	
-0.0161581	0.034589	-0.0239439	
-0.0114642	0.02448	-0.0151414	
0.000616561	-0.00241483	-0.00114905	
0.000932949	-0.00350504	0.00196725	
0.000472369	-0.00346565	0.0020114	
0.000174521	-0.00293478	0.0016592	
-0.00168731	0.00694167	-0.00393619	
4.95173e-06	4.08699e-06	5.6648e-06	
-3.49092e-06	-7.11448e-06	-8.26419e-06	
3.77576e-06	2.42022e-06	-5.15733e-06	
1.16272e-05	-8.74098e-05	-0.000120789	
-0.000153925	-0.000790196	-0.000824747	
0.0352329	-0.0534266	0.0274289	
0.00207608	-0.00472325	0.000111343	
-5.51183e-05	-0.00151423	-0.00180472	
-0.00526403	0.015407	-0.00925037	
-5.40086e-05	-0.00046764	-0.00053862	
7.90459e-06	-0.00163127	-0.00185891	
5.85894e-05	-0.000286768	-0.000375768	
0.00697802	-0.0103487	0.0046697	
-7.49192e-06	-0.00125232	-0.00140376	
-1.31419e-05	-0.000668332	-0.000799205	
-2.80482e-06	-3.38716e-05	-4.11535e-05	
2.7856e-05	-0.000143537	-0.000207204	
-0.0026485	0.00274948	0.0055448	
0.000250537	-0.005793	-0.0240132	
-0.00343141	0.00202674	0.0363283	
0.00606779	0.00116184	-0.0107901	
0.00734727	0.0014676	-0.0132553	
0.0105219	0.00183217	-0.0234023	
0.00256804	0.00270419	-0.00741073	
0.00658604	0.00178297	-0.0125419	
0.00598348	0.00264472	-0.0147444	
0.00704193	0.00172119	-0.0146328	
0.0137813	0.00192944	0.0475716	
0.00142378	-0.00173293	0.0070245	
0.00236462	0.00198224	0.0300474	
0.000153177	0.00259977	0.00431859	
0.0047166	0.00246067	-0.0113298	
0.0019029	0.00280622	-0.00640658	
0.000488246	0.00255907	-0.00178787	
-9.32819e-05	0.00217699	-0.00042091	
0.00862137	0.00281576	0.0342343	
0.00291321	-0.00173118	0.0134385	
0.00400368	0.00216491	0.035287	
-5.06868e-05	-1.30854e-05	2.09878e-06	
0.00259838	-0.00107522	0.0138662	
3.36033e-06	6.3452e-05	1.67937e-05	
-0.00110183	0.00141354	0.026333	
1.97648e-05	0.000606206	-8.28687e-05	
-0.000496889	0.00311004	0.000726017	
5.32399e-05	0.000926284	-0.000166558	
-0.0021624	0.00209301	0.0113695	
-9.02918e-05	0.001693	-0.000348261	
-0.00149081	0.00125581	0.0139012	
0.00136594	0.00277232	-0.00540184	
9.99648e-05	0.000207075	-3.93594e-05	
-4.302e-05	0.00294536	-0.000498004	
0.000100911	0.00173415	-0.00026826	
5.97076e-05	0.000520173	-0.000120524	
8.56989e-05	0.00134739	-0.000209531	
-0.00578804	-0.0121689	-0.0031878	
-0.0285307	-0.122009	-0.13059	
-0.00225955	-0.00506064	-0.0013697	
0.00341116	0.00500651	0.00325876	
-0.00119823	-0.00279221	-0.000205834	
0.00518358	0.0121801	0.00930313	
-0.010081	-0.0212402	-0.0105531	
0.00497795	0.00823574	0.0060726	
-0.00188256	-0.00779124	-0.00422043	
0.000839026	0.00383329	0.00352142	
0.00130799	0.00361947	0.00393364	
-0.00133384	-0.0076113	-0.0114767	
0.00586177	0.0085492	0.0064548	
-0.000354555	-0.00137946	0.000581588	
0.00595419	0.0102948	0.0079596	
0.00559387	0.00779063	0.00594141	
0.00010485	-0.000131246	0.00119678	
-0.0035902	-0.0155638	-0.010023	
-0.00149223	-0.00515231	-0.0028949	
-0.00025678	-0.00105528	0.000786392	
0.000298159	2.35261e-05	-4.0931e-05	
0.000131235	-0.000214589	0.000549871	
0.000169419	-0.000190901	0.000279384	
3.30074e-05	-0.000393648	0.00137876	
2.11197e-06	-7.43008e-06	1.66027e-05	
0.0117094	0.020405	0.0142977	
0.00549301	0.0077313	0.00575461	
0.0102525	0.0154346	0.00990875	
0.011419	0.0227445	0.0154287	
1.60365e-05	-0.000394887	0.00136933	
2.5831e-05	-0.000256848	0.000773512	
3.50774e-05	-0.000404131	0.00146554	
0.00341862	0.00497409	0.00337314	
9.8395e-06	-0.000139402	0.000385773	
8.48904e-05	-0.000411208	0.00127712	
4.2179e-05	-0.000384476	0.00126892	
6.24047e-05	-0.000424167	0.0014928	
0.021987	-0.0206689	0.0189844	
0.00173329	0.0191198	-0.018292	
-0.00696231	0.0201205	-0.0111579	
0.0015889	-0.00312823	0.000252201	
-0.00571686	0.0184149	-0.0100734	
-0.00859449	0.0244093	-0.0129922	
-0.00574017	0.0132117	-0.00991767	
-0.00514975	0.00949252	-0.00746339	
0.00158991	-0.00691442	0.00403316	
5.42126e-05	-0.00437746	0.00263583	
-0.000611557	0.00234536	-0.0013577	
-0.000131008	-0.00208698	0.0029017	
-0.00042351	-0.000166435	-0.00166292	
-0.0165297	0.0356289	-0.0237146	
-0.0115336	0.0248117	-0.0151501	
0.000679493	-0.00201571	-0.000815355	
0.000920685	-0.00341299	0.00196804	
0.000480738	-0.00340305	0.00202548	
0.00019727	-0.0028776	0.00167894	
-0.00170479	0.00701977	-0.00396423	
-2.96287e-05	-6.14e-06	-1.25642e-05	
8.39125e-06	1.76539e-05	2.03751e-05	
-1.14904e-05	-6.93085e-06	1.97999e-05	
8.7601e-06	-7.16699e-05	-9.7873e-05	
-0.000196755	-0.000984923	-0.00104607	
0.0349431	-0.0531147	0.0278045	
0.00222206	-0.00421678	0.000433536	
3.71708e-06	-0.00129849	-0.00148577	
-0.00532312	0.0155061	-0.00922355	
-3.57163e-05	-0.000354176	-0.000411023	
3.35858e-05	-0.00123375	-0.0014564	
4.14723e-05	-0.00022507	-0.000293109	
0.00683258	-0.0104388	0.00467979	
-5.59339e-06	-0.00125498	-0.00143374	
-2.6472e-06	-0.000435921	-0.000526417	
-5.2404e-07	-6.51176e-06	-7.88064e-06	
2.19914e-05	-0.000121484	-0.000173071	
-0.00270663	0.00238107	0.00555014	
-0.000207175	-0.00562346	-0.0235922	
-0.00313991	0.00119026	0.0367923	
0.00617911	0.000643664	-0.010897	
0.00728969	0.000966127	-0.0131431	
0.0106577	0.00127727	-0.0236463	
0.00245576	0.00185312	-0.00697231	
0.0067263	0.000852289	-0.0125644	
0.0060761	0.00200064	-0.0149744	
0.00721622	0.00106805	-0.0146413	
0.0140685	0.00205221	0.0479424	
0.00146779	-0.00160135	0.00725229	
0.00256961	0.0016137	0.0304247	
0.00106477	0.00242039	0.00457583	
0.00482892	0.00170863	-0.0114411	
0.00176489	0.00160099	-0.00583616	
0.00054335	0.000992057	-0.00132646	
-5.70817e-05	0.00143738	-0.000269652	
0.00879782	0.00275719	0.0345246	
0.00297597	-0.00154428	0.0135779	
0.00429486	0.00192554	0.0356232	
-4.64191e-05	1.41531e-05	-1.64225e-06	
0.00273492	-0.000953426	0.0140817	
4.95541e-06	5.66127e-05	1.24792e-05	
-0.000851691	0.000956415	0.0265159	
5.15056e-06	0.000152575	-2.0464e-05	
-0.000507368	0.00133529	0.00132026	
2.51458e-05	0.000514231	-9.34406e-05	
-0.00202908	0.000945598	0.0116834	
-4.08254e-05	0.0010503	-0.000200528	
-0.00138654	0.000698067	0.0141432	
0.00134222	0.00101913	-0.00499825	
6.63138e-05	0.000148321	-2.84227e-05	
-2.03147e-05	0.00110788	-0.000186088	
3.84704e-05	0.000789135	-0.00012273	
3.36995e-05	0.00033293	-7.64887e-05	
3.37234e-05	0.000621358	-9.74207e-05	
-0.00612923	-0.0122387	-0.00375618	
-0.0291124	-0.123972	-0.132435	
-0.00154521	-0.00342332	-0.000979963	
0.00329917	0.00518319	0.00251649	
-0.0010636	-0.00248018	-0.000682746	
0.0047249	0.0113035	0.0080596	
-0.00990245	-0.0199949	-0.0116854	
0.00490495	0.0088115	0.00467415	
-0.00192788	-0.00778266	-0.00462805	
0.000895516	0.00413659	0.0035756	
0.00156646	0.00465124	0.00394992	
-0.00127455	-0.00772477	-0.0118159	
0.00587121	0.00915975	0.00499736	
-0.00027564	-0.000721121	-7.14786e-05	
0.00628365	0.011238	0.00738892	
0.00564544	0.00843265	0.00441927	
0.000388376	0.000852135	0.00168265	
-0.003636	-0.0160062	-0.0104164	
-0.00153358	-0.00519672	-0.00315665	
-0.000609289	-0.00218682	-0.000129986	
0.000226576	7.66265e-06	-2.93714e-05	
9.0144e-05	-0.00014996	0.000391682	
0.000134619	-0.000156235	0.000241915	
1.55872e-05	-0.000192897	0.000671198	
-5.86338e-05	0.000211183	-0.000471511	
0.0116349	0.0205621	0.013662	
0.00544941	0.00830332	0.00406276	
0.0101673	0.015936	0.00849189	
0.0108972	0.0221521	0.0139416	
9.12459e-06	-0.000160988	0.000551994	
-3.34174e-05	0.000273171	-0.000801929	
2.60153e-05	-0.000272798	0.000975845	
0.00335901	0.00531952	0.00238562	
-2.58231e-05	0.000305404	-0.000838912	
3.94752e-05	-0.000191786	0.000592141	
1.90762e-05	-0.00017935	0.000593603	
5.17854e-05	-0.000360319	0.00125301	
0.021739	-0.0200463	0.0198776	
0.00130144	0.0192078	-0.0180468	
-0.0070304	0.0202301	-0.0111182	
0.00191237	-0.00281733	0.00109718	
-0.00572625	0.0184135	-0.0101078	
-0.00864051	0.0244791	-0.013068	
-0.00586117	0.013511	-0.00966183	
-0.00530902	0.00995429	-0.00723576	
0.00157107	-0.00687297	0.00399657	
7.39462e-05	-0.00436148	0.00262003	
-0.000620823	0.00237794	-0.00137736	
6.68185e-05	-0.00207906	0.00289488	
-0.000340034	-0.00012822	-0.00133042	
-0.0167739	0.0364041	-0.0235711	
-0.0116307	0.0251705	-0.0150721	
0.00041065	-0.00124729	-0.000546937	
0.000905224	-0.00337642	0.00193469	
0.000483574	-0.00339701	0.00200356	
0.000205691	-0.00287016	0.00166475	
-0.00171813	0.00705036	-0.00400242	
-1.29856e-05	9.25338e-07	5.12224e-08	
2.9006e-06	6.32404e-06	7.2703e-06	
-4.08006e-06	-2.12346e-06	8.19918e-06	
3.90752e-06	-3.51618e-05	-4.73716e-05	
-2.55739e-05	-0.000134835	-0.00014807	
0.034612	-0.0528164	0.0281462	
0.00219155	-0.00406422	0.000533553	
0.000566618	-0.00164024	-0.000639954	
-0.00539037	0.0156758	-0.00911785	
-1.83854e-05	-0.000218266	-0.0002552	
6.18426e-05	-0.00109341	-0.0013481	
1.8998e-05	-0.00011357	-0.000147182	
0.00672212	-0.00970506	0.00508797	
3.33458e-06	-0.000353046	-0.000415191	
1.71878e-06	-0.000306882	-0.000373262	
-1.04774e-06	-1.34477e-05	-1.62512e-05	
9.9637e-06	-5.94627e-05	-8.34759e-05	
-0.00273141	0.00223642	0.0055561	
-0.000791431	-0.00506751	-0.0235178	
-0.00309139	0.00115311	0.037072	
0.00621294	0.000497297	-0.011069	
0.00738913	0.00081721	-0.0133733	
0.0107446	0.00167675	-0.0241633	
0.00229812	0.00150924	-0.00656922	
0.00680762	0.00120254	-0.0128187	
0.00588346	0.00170568	-0.0146549	
0.00728319	0.00139692	-0.0149162	
0.0142769	0.00235816	0.0482268	
0.00154822	-0.0014201	0.00762189	
0.00273843	0.00165482	0.0306504	
0.00206278	0.00219269	0.00498608	
0.0048473	0.00201964	-0.0117177	
0.00166072	0.00126232	-0.00556227	
0.000517586	0.000923473	-0.00120058	
-6.7559e-05	0.00178932	-0.000329325	
0.00893698	0.00284455	0.0348054	
0.00305695	-0.00125087	0.0137871	
0.0045144	0.00199373	0.0359634	
-2.45768e-05	2.74344e-05	-7.57658e-06	
0.00286219	-0.000697074	0.0142994	
8.13817e-06	6.0867e-05	1.0666e-05	
-0.000731479	0.0010117	0.026731	
1.54995e-06	4.68075e-05	-6.18767e-06	
-0.000525125	0.0010964	0.00149805	
1.98473e-05	0.00048883	-8.94353e-05	
-0.00200738	0.000890356	0.0118009	
-4.68986e-05	0.00134941	-0.000249936	
-0.00134369	0.000734632	0.014227	
0.00130367	0.000939066	-0.00495411	
7.52596e-05	0.000182782	-3.55082e-05	
-1.87165e-05	0.000974116	-0.000161815	
3.24758e-05	0.000751627	-0.000116697	
2.90825e-05	0.000336176	-7.63886e-05	
2.90678e-05	0.000612507	-9.64619e-05	
-0.00598423	-0.0123252	-0.00307092	
-0.0299403	-0.126549	-0.134973	
-0.00157544	-0.00358537	-0.000587916	
0.00339812	0.00499758	0.00338862	
-0.00110681	-0.00258312	-7.92899e-05	
0.00473141	0.0112125	0.0087429	
-0.00980162	-0.0206545	-0.0099795	
0.00511236	0.00830694	0.00664635	
-0.00202345	-0.0082321	-0.0044083	
0.000801737	0.00375117	0.00351081	
0.00163165	0.0046045	0.00467301	
-0.00125334	-0.00779951	-0.0115242	
0.0060132	0.00871833	0.00697728	
-0.000111286	-0.00096903	0.00107594	
0.00622663	0.0109601	0.00837536	
0.00575884	0.0080164	0.00635856	
0.000391244	0.000728582	0.00194127	
-0.00365233	-0.015905	-0.010137	
-0.00155654	-0.00530129	-0.00306135	
-0.000663198	-0.00242076	6.79705e-05	
0.000284795	-0.000100453	0.000120944	
0.000138174	-0.000239042	0.000630184	
0.000179706	-0.000200389	0.000312249	
3.74895e-05	-0.000400434	0.00137629	
1.70357e-05	-6.34873e-05	0.000143107	
0.011594	0.020419	0.014307	
0.00552908	0.00780361	0.00591464	
0.0103316	0.0155606	0.0102847	
0.010988	0.0220318	0.0151402	
3.21159e-05	-0.000421507	0.00142321	
3.98152e-05	-0.000321084	0.000929624	