<VTKFile type="UnstructuredGrid" version="0.1" byte_order="LittleEndian">
	<UnstructuredGrid>
		<Piece NumberOfPoints="5328" NumberOfCells="5328">
			<CellData Scalars="scalars">
				<DataArray type="Float64" Name="Strength" NumberOfComponents="3" Format="ascii">
-0.00693061	-0.0157598	0.0128142	
-0.000936071	-0.0124729	-0.0279616	
-0.0186636	0.0689234	0.0118698	
0.00471568	-0.00682065	-0.00691366	
0.00597472	0.000386744	-0.0109692	
0.0100377	0.0554176	-0.0311426	
-0.00266846	0.0868071	-0.0277284	
0.00340441	0.0182545	-0.0156661	
0.00296259	0.0843728	-0.0321452	
0.00438545	0.0325072	-0.0213062	
0.00474393	0.00540751	0.0447371	
0.00332742	-0.00444089	0.0013198	
-0.00829326	0.0389782	0.0176783	
-0.000694571	-0.00119888	-0.00223065	
0.000661591	0.0736393	-0.0288998	
-0.000391768	0.0866089	-0.022634	
0.00286218	0.0942615	-0.014981	
-0.00645223	0.0656583	-0.0217949	
0.00162024	0.0115835	0.029235	
0.006537	-0.00976112	0.0083456	
-0.00562046	0.0318412	0.0243143	
-0.00219898	0.00023105	0.00100661	
0.00329107	-0.00522987	0.00971224	
-0.00237052	0.000813818	0.000513026	
-0.0126469	0.047722	0.0117471	
-0.000565313	-0.0126211	0.00295	
-0.0048113	0.0880294	-0.0184837	
0.0105268	0.0416105	0.00505376	
-0.00747225	0.0868946	-0.00282723	
-0.00455	0.0475226	-0.0159339	
-0.00070427	0.0539604	0.00769187	
0.00105612	0.0899164	-0.0145731	
-0.000628573	-2.88775e-05	0.00018556	
-0.00345006	0.0867558	-0.0141909	
0.0095927	0.0789309	0.00737798	
0.0127767	0.0178281	0.00133845	
0.0114831	0.0594909	0.00723755	
-0.0107646	-0.00502943	-0.0254997	
0.0531287	-0.125053	0.020898	
-0.0170675	-0.00788563	0.0483225	
0.00146983	0.0114036	-0.0136821	
-0.00456751	-0.0081936	0.0545119	
0.0167005	-0.0100455	0.0651662	
-0.0139838	-0.0356478	0.0467223	
0.0130783	-0.0114446	0.0530622	
0.00694985	-0.0228135	0.0339172	
0.0126379	0.00209486	0.0156172	
0.00159698	-0.0159112	0.0555475	
0.0092559	-0.00393567	-0.0222065	
0.00822435	-0.00635531	0.0481192	
0.00143633	-0.0115306	0.0257376	
0.0031239	-0.00083435	0.0549362	
0.00548611	-0.0023959	0.0400718	
0.00741915	-0.0254217	0.0435467	
0.00389643	-0.0144327	0.0306331	
0.012599	-0.0136885	0.00689543	
0.00400226	-0.0161319	0.0554055	
0.0191899	0.0192264	0.000115716	
0.00694105	-0.0219574	0.011662	
0.0173925	-0.00332045	0.00881849	
-0.00238308	-0.0144959	0.0575989	
-0.00336487	0.00833305	-0.0204167	
0.0171087	0.011752	0.039197	
0.00534989	0.000264311	0.0314397	
0.00971117	0.0114536	0.0171191	
0.0280835	-0.00150348	0.0726514	
-0.00331738	-0.00573279	0.0403199	
-0.000306382	-0.00405011	0.0185921	
-0.00190464	-0.00532639	0.0443662	
0.00277484	0.00883956	-0.0104247	
0.000158623	0.00125825	-0.00469991	
0.00132037	-0.00624699	0.024275	
0.00438304	-0.022714	0.051467	
-0.00201612	-0.0114129	0.0509694	
0.018115	-0.0560328	-0.0107707	
0.00858975	0.0213772	-0.0278315	
-0.00871915	0.000906059	-0.0315641	
-0.00465496	-0.0329325	-0.0285938	
-0.0076169	0.0145218	-0.011428	
-0.0123416	0.0123432	-0.0231517	
-0.000563682	-0.0159404	-0.0510173	
0.00271243	-0.0242334	-0.0528403	
0.00188916	-0.00936782	0.00281488	
-0.000290335	-0.00718969	0.00150858	
-0.000291942	0.000177207	-0.00355809	
-0.00339729	-0.00127043	0.00575999	
0.00567192	-0.0375804	-0.0577376	
-0.0179741	-0.00440089	-0.0476226	
-0.0236373	-0.0176694	-0.0431463	
0.00325757	-0.0452187	-0.0555055	
0.00086574	-0.00483594	0.001164	
0.000405517	-0.00601369	0.000198558	
0.000761468	-0.00548339	-0.000528873	
-0.00185948	0.00476462	-0.00505605	
-0.00211202	-0.000372522	0.00303546	
-0.00145375	-0.00201061	-0.00182175	
-0.00183293	0.00131373	0.00167244	
0.00273747	-0.00481288	-0.00937224	
-0.011143	-0.0387996	-0.029554	
0.0455233	-0.0741755	-0.00970866	
0.00539035	-0.0480869	-0.0521953	
-0.00254447	-0.0445529	-0.0531735	
-0.00445926	-0.0044561	-0.0343555	
-0.0095401	-0.0413342	-0.0414602	
0.00250056	-0.0450172	-0.0514477	
0.00869671	-0.017608	-0.0373165	
0.00998943	-0.0461115	-0.0358838	
0.00121024	-0.0533718	-0.0572834	
-0.000293991	-0.0119108	-0.0132009	
9.54825e-07	6.92741e-06	8.85072e-06	
0.00605696	-0.00813905	-0.0198729	
-0.0027418	0.00269557	0.00631076	
-0.0095302	-0.0117411	-0.02558	
-0.0133594	0.00436002	0.0306946	
0.00494267	0.000121202	-0.0102994	
0.00657613	0.00150871	-0.0126468	
0.015999	0.00847508	-0.0182108	
0.00434532	0.0112833	-0.00742321	
0.00647135	0.00401995	-0.0119715	
0.0106348	0.0118828	-0.0121752	
0.00851922	0.00572664	-0.0134083	
0.0113365	0.00136283	0.0449323	
0.00132272	-0.00258755	0.00417502	
0.000837002	0.00149618	0.0277864	
0.00137489	0.00061509	0.00163395	
0.00749127	0.0107653	-0.0104004	
0.00400814	0.0111969	-0.00644921	
0.00178518	0.0107619	-0.00295037	
-0.00126819	0.00954503	-0.00403436	
0.00700205	0.00260945	0.0321412	
0.00433807	-0.00392583	0.0116912	
0.0028476	0.00220637	0.0323141	
-9.85203e-05	-0.000117858	0.000128117	
0.00405331	-0.00209437	0.0111789	
-0.000180629	2.45468e-05	0.000366053	
-0.0044973	0.00357116	0.0234991	
4.81432e-06	0.000189735	-4.71933e-05	
-0.00127277	0.0106873	-0.00204296	
0.00172295	0.00528583	-8.69578e-05	
-0.00608792	0.00761698	0.00826946	
-0.00104305	0.00748651	-0.00310007	
-0.00273799	0.00457223	0.0117522	
0.00345528	0.009972	-0.00487641	
0.0012841	-2.63285e-06	-0.000450559	
-0.000165816	0.00991457	-0.00199928	
0.00188799	0.00842684	0.000625171	
0.001417	0.00229552	-0.00053052	
0.00188864	0.00683772	0.000364956	
-0.00470856	-0.0117521	-0.00478548	
-0.0463229	-0.0980266	-0.114685	
-0.00676449	-0.00809528	0.00321176	
0.00242584	0.00623758	0.00159512	
-0.00225977	-0.00372811	0.00493131	
0.00866401	0.0124371	0.0143469	
-0.0189155	-0.0201701	-0.00416507	
0.00792173	0.00523176	0.00682643	
-0.000457669	-0.00810977	0.000212204	
-0.000697486	0.00255521	0.00643531	
0.00113849	0.00104217	0.00761538	
-0.00361056	-0.00560158	-0.0112747	
0.00792247	0.00598157	0.00713071	
-0.00099674	-0.0034324	0.00395301	
0.0064134	0.00739026	0.00967202	
0.00684351	0.00610459	0.00620665	
0.000557609	-0.00248085	0.00501518	
-0.00416704	-0.0154132	-0.0073779	
-0.00150279	-0.0056168	-0.000877136	
0.000128086	-0.00101165	0.00682627	
-0.00178795	0.00130405	-0.000980839	
0.00105837	-0.00159008	0.00228523	
4.24401e-05	0.00179149	-0.00151975	
-0.000152656	-0.00146525	0.00607142	
-0.000233552	0.000548518	-0.00132728	
0.0152329	0.018654	0.0162376	
0.00643268	0.00660771	0.00521637	
0.0107488	0.0149214	0.00756018	
0.0189435	0.0219692	0.016521	
-0.000822166	-0.000384733	0.00581678	
-3.94824e-05	-0.000128852	0.000781463	
-0.000613225	-0.00022914	0.00684081	
0.0027526	0.00575164	0.00139564	
5.96126e-05	0.000216562	-0.000918177	
0.00014238	-0.00117795	0.0059577	
0.000178366	-0.0019211	0.00572097	
-0.000158481	-0.001202	0.00732663	
0.0253628	-0.0181253	0.011581	
-0.000286055	0.0117998	-0.0226375	
-0.00903409	0.0194135	-0.008413	
0.000720449	-0.00560992	-0.00332887	
-0.00517118	0.019462	-0.00716176	
-0.0087051	0.025278	-0.0088123	
-0.00941845	0.00672026	-0.013327	
-0.00744852	0.00342032	-0.0104533	
0.00140026	-0.00625788	0.00516138	
0.000542146	-0.0034407	0.00354736	
-0.000582509	0.00266983	-0.000263418	
-0.000271625	-0.00101956	0.00336038	
0.000177596	-0.00385485	-0.00722065	
-0.025499	0.0201212	-0.0260687	
-0.0171967	0.0196221	-0.0143019	
0.00198875	-0.00668584	-0.00653822	
0.00101625	-0.00285691	0.00308753	
0.000719112	-0.00250591	0.00291963	
0.00064732	-0.00219135	0.00237165	
-0.00142201	0.00784901	-0.00275974	
-0.00116532	-0.000413646	-2.36193e-05	
0.0005684	0.00063865	0.000626616	
0.000283242	-0.000609141	0.000453349	
-0.000121274	0.000194165	0.000404377	
-0.00143782	-0.0043482	-0.00274215	
0.0423896	-0.0530026	0.0217054	
0.00392079	-0.0083418	-0.00571759	
-0.00167366	-0.00534777	-0.00733584	
-0.00811136	0.0141019	-0.00806583	
-0.000553803	-0.00204343	-0.00196958	
0.000390495	-0.00654059	-0.00703399	
0.000483605	-0.000689085	-0.00129918	
0.0114127	-0.0114394	-0.00150285	
0.000141635	-0.00501339	-0.00499864	
-0.000273882	-0.00302958	-0.00287566	
8.21247e-05	0.000773881	0.000990849	
5.12117e-05	-6.16317e-05	-0.000154418	
-0.00286783	0.00284163	0.00613071	
-0.00788859	-0.012261	-0.0239497	
-0.00369226	0.00072712	0.0341146	
0.00542507	-0.00067224	-0.0101703	
0.00717771	-0.000516247	-0.012215	
0.0138115	-0.000926035	-0.019377	
0.00267481	0.00183674	-0.00701675	
0.00711547	0.000203494	-0.0111858	
0.0073203	0.000658154	-0.0136875	
0.0086338	0.000226003	-0.0126216	
0.0106378	0.000453411	0.0459354	
0.00153881	-0.00297868	0.00476941	
0.0016158	0.000967904	0.0285482	
0.0014157	0.000623094	0.00249393	
0.00576183	0.000903396	-0.0103918	
0.00198953	0.00195043	-0.00621659	
0.000642752	0.00270201	-0.00300364	
-0.000381552	0.00248094	-0.00128545	
0.00613067	0.00246793	0.0329929	
0.00507147	-0.00509808	0.0111571	
0.00306498	0.000852211	0.0333259	
-0.000112167	-0.000122028	0.000101509	
0.00432338	-0.00286004	0.0116595	
-5.23586e-06	7.50042e-07	0.000161256	
-0.00197851	0.000133024	0.0244498	
4.21873e-07	6.96273e-05	-1.78759e-05	
-0.000508511	0.00297858	0.000162255	
0.00054267	0.00161993	-0.000158506	
-0.00141073	0.00251659	0.0104103	
-0.000316244	0.00191192	-0.000953474	
-0.00126298	0.000955814	0.0124088	
0.0011361	0.00236642	-0.00564696	
0.000532674	2.42225e-05	-0.000194327	
-5.02119e-05	0.00268629	-0.000775056	
0.000506717	0.00237326	-0.000240306	
0.000612026	0.00102035	-0.000279853	
0.000566229	0.00202222	-0.000146043	
-0.0048005	-0.0121342	-0.00388697	
-0.0305839	-0.0859351	-0.137645	
-0.00346502	-0.00772146	-0.000863606	
0.0027252	0.00571696	0.00259699	
-0.00146978	-0.00291587	0.000418376	
0.00637322	0.0137065	0.00932683	
-0.0133121	-0.0222863	-0.00804894	
0.00569499	0.00802544	0.00409713	
-0.00179768	-0.00695575	-0.0035399	
0.00118146	0.00238193	0.00556852	
0.00121231	0.00291431	0.0037456	
-0.00454492	-0.00474266	-0.0127117	
0.00629221	0.0084757	0.00446671	
-0.000778484	-0.00220335	0.000767662	
0.00487332	0.0101495	0.00572145	
0.00590537	0.00785514	0.0038582	
0.000222469	-0.0006185	0.0016191	
-0.00407792	-0.0152202	-0.00990857	
-0.00197037	-0.00478087	-0.00291509	
-7.70145e-05	-0.000525548	0.00198306	
-0.000248264	0.000462971	-0.0003936	
0.000327052	-0.000464614	0.000663719	
0.000609699	5.72712e-05	-0.000385293	
-4.95347e-05	-0.000368744	0.00182984	
-7.41185e-05	0.000171526	-0.000398459	
0.0111199	0.0219088	0.0118988	
0.00582976	0.00778964	0.00346107	
0.0105977	0.0155814	0.00693745	
0.0111678	0.0264382	0.0118369	
-0.000259073	-0.000123209	0.00190265	
1.12755e-05	2.06399e-05	-0.000176269	
-0.000211573	-5.39495e-05	0.00227536	
0.00291121	0.00547148	0.00229128	
4.5253e-05	0.00011419	-0.000535996	
6.14913e-05	-0.000356028	0.00202282	
6.73188e-05	-0.000518985	0.00161306	
-8.24639e-05	-0.000349418	0.00240034	
0.0254882	-0.0152288	0.0155086	
-0.00131446	0.0119987	-0.0252697	
-0.00659866	0.0207299	-0.0080789	
0.00150533	-0.00272309	-0.000327785	
-0.00574084	0.0188382	-0.00789423	
-0.00806914	0.0254674	-0.00916474	
-0.00745784	0.0112677	-0.0103345	
-0.00618616	0.00812708	-0.00746726	
0.00159641	-0.00743489	0.00401351	
0.00076157	-0.0044469	0.00293372	
-0.000558369	0.00214366	-0.0013029	
0.00177348	-0.00167427	0.00297369	
-0.00026515	-0.000689602	-0.00234716	
-0.019595	0.0293502	-0.0247388	
-0.0103884	0.023328	-0.016161	
0.00116691	-0.00283065	-0.0011726	
0.000868683	-0.00389928	0.00181221	
0.000619989	-0.00370806	0.00193249	
0.000450044	-0.00319277	0.00145804	
-0.00174228	0.00686606	-0.00356799	
0.000228386	0.000246606	0.000155599	
-0.000139947	-0.000171151	-0.000165781	
-3.30255e-05	0.000174671	0.000110466	
9.72204e-05	-0.000148559	-0.000320273	
-0.000495109	-0.00139779	-0.000718677	
0.0291851	-0.0549149	0.0334248	
0.00297659	-0.00459154	-0.000177156	
-0.00101379	-0.00137829	-0.0026238	
-0.00557448	0.015694	-0.00768832	
-0.000189958	-0.000630607	-0.000582835	
0.000128783	-0.00220991	-0.00211964	
0.000200016	-0.000325945	-0.000536431	
0.0104244	-0.00823934	0.00355743	
6.69114e-05	-0.00166636	-0.00146906	
-5.55921e-05	-0.000798451	-0.000765873	
-2.57589e-05	-0.000232582	-0.000305688	
0.000139471	-0.000160703	-0.000408708	
-0.00295985	0.00301215	0.00581593	
-0.00507597	-0.0131447	-0.0225845	
-0.0056436	0.0008745	0.0345965	
0.00567528	-0.000633606	-0.0102334	
0.00725258	-0.000788949	-0.0125364	
0.0116343	-0.00250159	-0.0216915	
0.00195107	0.0021284	-0.00773733	
0.00688445	-0.000451851	-0.0117797	
0.00545829	0.000340976	-0.0150554	
0.00805141	-0.000689335	-0.0135074	
0.011403	-0.000165838	0.0466916	
0.00169157	-0.00300805	0.00545511	
0.00184863	0.000875053	0.0289954	
0.00155944	0.00133039	0.00331002	
0.00451536	0.000622572	-0.0115222	
0.00168586	0.00254176	-0.00654908	
0.00072563	0.00335955	-0.0026638	
-0.000432552	0.0026453	-0.00140785	
0.0063186	0.00219721	0.0335897	
0.0051517	-0.0054115	0.0112228	
0.00330997	0.000757376	0.0338186	
-0.000158978	-1.52381e-05	4.38278e-05	
0.00463585	-0.00303026	0.0120563	
-8.1527e-06	6.15683e-05	0.000157207	
-0.00152169	5.24405e-05	0.0251339	
-1.69529e-07	0.000258573	-6.73625e-05	
-0.000574577	0.00357509	9.86923e-05	
0.000510003	0.00159852	-0.000163521	
-0.00243971	0.0029569	0.0105432	
-0.000327066	0.0018721	-0.000990952	
-0.00133541	0.00101508	0.0129161	
0.00145019	0.00328593	-0.00563813	
0.000532256	1.87044e-05	-0.00020002	
-0.000108196	0.00338134	-0.00079199	
0.000609233	0.00274934	-0.000212635	
0.000643431	0.00106323	-0.000293462	
0.000623248	0.00222378	-0.000104479	
-0.00531459	-0.0121468	-0.00377139	
-0.0261027	-0.0872574	-0.145226	
-0.00324184	-0.00619127	-0.000798279	
0.00295639	0.00545219	0.00261551	
-0.00144166	-0.00281108	0.00044261	
0.00595205	0.0129558	0.00914245	
-0.0115401	-0.0223709	-0.0083828	
0.00512373	0.00859449	0.00467285	
-0.00203428	-0.00713476	-0.00377144	
0.000547351	0.00227135	0.00568188	
0.0014432	0.00337381	0.00420467	
-0.00343814	-0.00573952	-0.0124862	
0.00557566	0.00921269	0.00493601	
-0.000573842	-0.00186668	0.000635216	
0.00554721	0.0102828	0.00648189	
0.00533562	0.0085702	0.00411276	
0.000381892	-0.000279136	0.0019429	
-0.00461478	-0.0154799	-0.00989822	
-0.00212528	-0.00497821	-0.00263622	
-0.000313306	-0.00119717	0.00160571	
-0.00019822	0.000553735	-0.000362279	
0.000341362	-0.00050767	0.000716987	
0.000659673	6.10473e-05	-0.000329287	
-4.2642e-05	-0.000393151	0.00182232	
-5.6191e-05	0.000131849	-0.00029207	
0.0116757	0.0210288	0.0130057	
0.00546232	0.00833671	0.00356598	
0.0105033	0.0160831	0.00682559	
0.0125233	0.0245484	0.0128575	
-0.000203224	-0.00019761	0.00164349	
7.47157e-06	1.3298e-05	-0.000123503	
-0.00020615	-0.000174765	0.00201068	
0.00309072	0.0054111	0.00232836	
4.75737e-05	0.000102858	-0.000521572	
4.44919e-05	-0.000366389	0.00159562	
5.18401e-05	-0.000565866	0.00168647	
-6.79779e-05	-0.000395589	0.00227635	
0.0244191	-0.015538	0.0185311	
-0.00130708	0.0123916	-0.0238494	
-0.00711197	0.0211593	-0.00793691	
0.00155024	-0.00278756	0.000326515	
-0.00573914	0.0192839	-0.00780878	
-0.00834488	0.0259046	-0.00910386	
-0.00629758	0.0123366	-0.0102024	
-0.00500851	0.00904584	-0.00774661	
0.00148015	-0.00699816	0.0042756	
0.000712169	-0.00411261	0.00305818	
-0.000599175	0.00238776	-0.00105967	
0.000355685	-0.00233344	0.00276772	
-0.000175216	-0.000705545	-0.00238921	
-0.0185213	0.0321098	-0.0242323	
-0.0120777	0.0237575	-0.0153449	
0.000730657	-0.00271112	-0.00123011	
0.000869827	-0.00350809	0.00212042	
0.000658836	-0.0033363	0.00217661	
0.000482877	-0.00286576	0.00171747	
-0.00169648	0.00723049	-0.00342876	
-0.000141963	-4.2858e-05	-2.45781e-05	
5.55914e-05	6.84617e-05	6.78137e-05	
2.15547e-05	-8.53435e-05	1.05971e-06	
3.71785e-05	-5.855e-05	-0.000123895	
-0.000505005	-0.00135466	-0.00059415	
0.0303595	-0.0570128	0.0284375	
0.00236587	-0.00489784	0.000114409	
-0.000352186	-0.0017273	-0.00217051	
-0.0062181	0.0159328	-0.00746291	
-0.000217762	-0.000720295	-0.000724881	
0.000106143	-0.00221306	-0.00203443	
0.000214089	-0.000329338	-0.000602389	
0.0090662	-0.00858164	0.00525615	
4.78677e-05	-0.00165453	-0.00134083	
-4.22907e-05	-0.000759849	-0.000828091	
4.8821e-06	4.615e-05	6.02165e-05	
9.95205e-05	-0.000110286	-0.000288515	
-0.00317906	0.00276399	0.00571468	
-0.00419758	-0.0120303	-0.0218387	
-0.00580495	0.000803257	0.0353496	
0.00600483	-0.000574364	-0.0105439	
0.00740319	-0.000624187	-0.0129728	
0.0113091	-0.00186349	-0.022798	
0.00247538	0.00248345	-0.00738334	
0.00680098	-0.000356693	-0.0124547	
0.00624617	0.00159723	-0.0147775	
0.00770412	-0.000635382	-0.0143893	
0.0117427	-0.000232813	0.0475339	
0.00182907	-0.00315401	0.00601639	
0.00202809	0.00109948	0.0294379	
0.000640375	0.00291164	0.00364407	
0.00467673	0.00131368	-0.011491	
0.00198996	0.00264453	-0.00624026	
0.00085228	0.00329579	-0.00294545	
-0.000477913	0.00286582	-0.00135777	
0.00639208	0.00224881	0.0342551	
0.00533264	-0.00552679	0.0113176	
0.00344166	0.0010768	0.0347099	
-0.000132538	3.74641e-05	1.1505e-05	
0.00491173	-0.0032222	0.012453	
3.95634e-05	4.27739e-05	0.000134985	
-0.00143713	0.000369266	0.025839	
-1.32667e-06	0.000127714	-3.36082e-05	
-0.000629748	0.00320746	0.000334922	
0.000539937	0.00172536	-0.000184862	
-0.00255716	0.00296645	0.0107937	
-0.000403816	0.00227299	-0.0011602	
-0.00125475	0.00123628	0.0134716	
0.00151783	0.00312592	-0.00564632	
0.000480581	1.67412e-05	-0.000184522	
-9.52975e-05	0.00309476	-0.000665473	
0.000637437	0.00296358	-0.000198709	
0.0006581	0.0010062	-0.000286811	
0.000670187	0.00241487	-0.000111702	
-0.00583337	-0.0121076	-0.00368432	
-0.022052	-0.0853185	-0.154269	
-0.00275468	-0.0052668	-0.000667205	
0.00315521	0.00528475	0.00272434	
-0.00136121	-0.00270192	0.000265917	
0.0057524	0.0126815	0.00878568	
-0.0120329	-0.0211713	-0.00922326	
0.00546917	0.00843906	0.00484827	
-0.00213305	-0.00739715	-0.00409651	
0.000167829	0.00351874	0.00445187	
0.00151634	0.00367738	0.00419953	
-0.00134104	-0.00764853	-0.0113589	
0.00582349	0.00912365	0.00518658	
-0.000482787	-0.00147875	0.000445099	
0.0059359	0.0108823	0.00666128	
0.00546083	0.00857901	0.00439232	
0.000372861	-0.000130203	0.00177192	
-0.00449355	-0.0153443	-0.0100464	
-0.00234109	-0.00482693	-0.00280137	
-0.000349071	-0.00128195	0.00119114	
0.000403939	0.000149928	-0.00011745	
0.000291946	-0.000465552	0.000671811	
0.000569868	-0.000187514	-5.15076e-06	
-3.32486e-05	-0.000360049	0.00164732	
-4.78745e-05	0.00011467	-0.000246886	
0.0117296	0.0211467	0.0129892	
0.00548081	0.00843354	0.00380667	
0.0105623	0.0162243	0.00712768	
0.0123024	0.0241085	0.0126635	
-0.000170787	-0.000172223	0.00137108	
2.62795e-07	6.15072e-07	-8.52891e-06	
-0.000176852	-0.000167524	0.00174273	
0.00320596	0.00532761	0.00255997	
2.60281e-05	5.53272e-05	-0.000283055	
3.34152e-05	-0.000325464	0.00128596	
5.05052e-05	-0.000530139	0.0015875	
-4.7883e-05	-0.000334444	0.00189837	
0.0235384	-0.0154719	0.020732	
-0.00150575	0.0123946	-0.0239152	
-0.00718269	0.0214513	-0.00792355	
0.00167052	-0.00281672	0.000883837	
-0.00578868	0.0193777	-0.00793934	
-0.00825957	0.026066	-0.00947216	
-0.00688618	0.0127344	-0.00966295	
-0.00555013	0.00932278	-0.00726243	
0.00147401	-0.00705919	0.00412574	
0.000715685	-0.0041888	0.00297901	
-0.000607778	0.00240501	-0.00114803	
0.000344198	-0.00248859	0.00265633	
-0.000191705	-0.000466633	-0.00216248	
-0.0193733	0.0337155	-0.0233683	
-0.012304	0.024419	-0.0150079	
0.000647996	-0.00240312	-0.00117756	
0.000838372	-0.0035498	0.00197895	
0.000646296	-0.0034308	0.00206461	
0.000447766	-0.00295283	0.00160754	
-0.00171961	0.00721485	-0.00351046	
1.07934e-05	-1.08262e-10	2.91537e-07	
-5.61431e-06	-7.09412e-06	-7.1291e-06	
-1.74911e-06	6.15883e-06	2.53757e-06	
3.86591e-05	-6.24095e-05	-0.000130974	
-0.000402008	-0.00100707	-0.000412027	
0.0297951	-0.0568915	0.0279855	
0.00222436	-0.00466387	0.000394761	
-2.43001e-05	-0.00172961	-0.001618	
-0.00634547	0.0161576	-0.0073529	
-0.000146364	-0.000488857	-0.000506216	
6.92342e-05	-0.0017976	-0.00171434	
0.000139064	-0.000217873	-0.00040161	
0.00822048	-0.0086642	0.00605816	
3.0411e-05	-0.00146602	-0.00119356	
-4.76983e-05	-0.000679261	-0.00079458	
-3.44212e-06	-3.25206e-05	-4.25265e-05	
7.72752e-05	-8.9354e-05	-0.000225406	
-0.0030002	0.00308545	0.00521433	
-0.00361291	-0.0123581	-0.0210221	
-0.00533338	-0.000439176	0.0361785	
0.00615196	-0.000132912	-0.0108299	
0.00737353	-0.000492346	-0.013345	
0.0121412	-0.00126906	-0.022696	
0.00269095	0.00200176	-0.00759661	
0.0067897	-0.00020933	-0.0125867	
0.00637761	0.00110851	-0.0147985	
0.00780536	-0.000697652	-0.0143616	
0.0125096	-0.00091756	0.0477811	
0.00206211	-0.0033377	0.00619785	
0.0025157	0.00032867	0.0300722	
5.52599e-05	0.00300835	0.00401338	
0.00508027	0.00113408	-0.0114019	
0.00214921	0.00229994	-0.00653591	
0.000557047	0.00258478	-0.00173804	
-0.00034756	0.00202903	-0.000844148	
0.0066573	0.00171615	0.0346519	
0.00575194	-0.00569865	0.011165	
0.0038636	0.00031065	0.0353206	
-5.18061e-05	3.58201e-05	-2.01879e-05	
0.00525018	-0.00351574	0.0125894	
2.9562e-05	2.48944e-05	5.35023e-05	
-0.00098473	-0.000505158	0.0263717	
-7.83287e-06	0.000592689	-0.00015802	
-0.000646798	0.00313946	0.000496998	
0.000277111	0.000897246	-0.000105501	
-0.00246015	0.001718	0.0113875	
-0.000283381	0.00154828	-0.000729439	
-0.00117272	0.000274894	0.0139938	
0.00140452	0.00276225	-0.0054023	
0.00021577	1.24106e-05	-8.95287e-05	
-8.09578e-05	0.00292948	-0.000619123	
0.000370769	0.00171867	-0.000120671	
0.000282766	0.000439017	-0.000130879	
0.000367814	0.0013177	-7.30885e-05	
-0.00603668	-0.0120806	-0.00328433	
-0.0284026	-0.0889832	-0.155676	
-0.00259143	-0.00504892	-0.000863848	
0.00334419	0.00518024	0.00312702	
-0.00133632	-0.00275291	-0.000114825	
0.00564529	0.012619	0.00854017	
-0.0119018	-0.0212203	-0.00882266	
0.0055898	0.00837294	0.00542268	
-0.00217239	-0.00753237	-0.00460717	
0.000160849	0.00332742	0.00410629	
0.00145653	0.00368459	0.00384435	
-0.00171198	-0.00696579	-0.0118759	
0.00590165	0.00894626	0.00598601	
-0.000357439	-0.00134591	0.000657439	
0.00596823	0.0111433	0.0068532	
0.00550716	0.00834019	0.00536949	
0.000217363	-0.000214849	0.00117028	
-0.00429832	-0.0152429	-0.0103572	
-0.00242607	-0.00466828	-0.00313074	
-0.000281834	-0.00104366	0.000800212	
0.000272332	0.00010226	-9.14251e-05	
0.00018904	-0.000316018	0.000480797	
0.000315801	-0.000141979	0.000155665	
-2.01702e-05	-0.000312728	0.00140029	
3.18977e-06	-7.5624e-06	1.64596e-05	
0.0117137	0.0213851	0.0130413	
0.00557474	0.00826661	0.00500719	
0.0107377	0.0162472	0.00820053	
0.0121318	0.0241692	0.0127902	
-0.000173226	-0.000177863	0.00140283	
-5.18605e-05	-0.000112828	0.000807773	
-0.000149521	-0.000147642	0.00150626	
0.0032925	0.00526206	0.00313092	
-3.66606e-05	-8.19229e-05	0.000401581	
3.14378e-05	-0.000327413	0.00130289	
4.19739e-05	-0.000420534	0.00125865	
-3.54634e-05	-0.000270671	0.00152961	
0.0232683	-0.0165447	0.021659	
-0.00116102	0.0120721	-0.0237557	
-0.0072683	0.0216478	-0.00801666	
0.00164356	-0.00298445	0.000928064	
-0.00581089	0.0195174	-0.00804696	
-0.00832645	0.0262124	-0.00965701	
-0.00720762	0.0131649	-0.00920345	
-0.00584455	0.00975142	-0.00674511	
0.00143711	-0.00695682	0.00410973	
0.000653141	-0.00413625	0.00297096	
-0.000622344	0.00247095	-0.00115029	
-6.78447e-06	-0.00230227	0.00279248	
-0.000329959	1.43948e-05	-0.00170494	
-0.0196136	0.0348783	-0.0230834	
-0.0122943	0.0248287	-0.0149642	
0.000649432	-0.00199975	-0.000895179	
0.000819221	-0.00346285	0.00197465	
0.000627311	-0.00337483	0.00207418	
0.000456	-0.00290023	0.00162067	
-0.0017204	0.00729987	-0.00353395	
-3.73484e-05	1.53964e-05	9.15516e-06	
1.34924e-05	1.75063e-05	1.78482e-05	
5.94274e-06	-2.32943e-05	1.26763e-06	
3.07691e-05	-5.15257e-05	-0.000106347	
-0.000525931	-0.00125572	-0.000528297	
0.0291662	-0.0569476	0.0279719	
0.00226982	-0.00421145	0.000482344	
1.12479e-05	-0.00145073	-0.00135233	
-0.00641448	0.0162308	-0.00735854	
-0.000110444	-0.000368095	-0.000388311	
4.80039e-05	-0.00133859	-0.00137297	
0.000108285	-0.000170908	-0.000313185	
0.007807	-0.00897022	0.00615997	
2.05178e-05	-0.00145234	-0.0012488	
-2.97501e-05	-0.000440362	-0.000525564	
-6.51507e-07	-6.25276e-06	-8.14029e-06	
6.35245e-05	-7.64153e-05	-0.000188782	
-0.003107	0.00274208	0.00519717	
-0.00236697	-0.0126469	-0.0203303	
-0.00490024	-0.00123136	0.0365989	
0.00640287	-0.000622021	-0.0108022	
0.00752427	-0.000797385	-0.0130613	
0.012304	-0.00173347	-0.0228681	
0.0025986	0.00118912	-0.00707462	
0.00714766	-0.000851881	-0.0123688	
0.00649454	0.000441915	-0.0149559	
0.0081356	-0.000871971	-0.0142088	
0.0128053	-0.00122816	0.0479641	
0.00226836	-0.00340685	0.0062621	
0.00274657	-7.64398e-05	0.0303789	
0.000200824	0.00336353	0.00399113	
0.00526616	0.000388916	-0.011393	
0.0020058	0.0011301	-0.00587507	
0.000575801	0.00100193	-0.00130781	
-0.000224296	0.00134447	-0.000543167	
0.00675834	0.001527	0.0348591	
0.00601172	-0.00568095	0.0110909	
0.00405068	-2.95259e-05	0.0355875	
-1.97665e-05	4.00796e-05	-4.14165e-05	
0.00547413	-0.00364773	0.0126315	
3.4752e-05	2.36263e-05	4.06554e-05	
-0.000721479	-0.000939011	0.0264945	
-2.11195e-06	0.000149241	-3.91095e-05	
-0.000602428	0.00140856	0.0012095	
0.000150264	0.000498835	-6.10983e-05	
-0.00228043	0.000571732	0.0116703	
-0.000174937	0.000970383	-0.000422082	
-0.00105437	-0.000262152	0.0141827	
0.00136551	0.000995835	-0.00500099	
0.000151695	1.40857e-05	-6.44827e-05	
-2.61475e-05	0.00110238	-0.000230304	
0.000168326	0.000781569	-5.90885e-05	
0.000177714	0.000282232	-8.40321e-05	
0.000168307	0.000607526	-3.81565e-05	
-0.00655742	-0.0120876	-0.00372507	
-0.031911	-0.0946216	-0.155089	
-0.00174552	-0.00343256	-0.000641917	
0.00331243	0.00528723	0.00236622	
-0.00115439	-0.00247829	-0.00060041	
0.00511364	0.0117092	0.00734125	
-0.011765	-0.0200862	-0.00993444	
0.005487	0.00888317	0.00397572	
-0.00221783	-0.00752553	-0.00498425	
-2.63055e-05	0.00361463	0.00422632	
0.00171313	0.00473259	0.00383176	
-0.00189133	-0.00675841	-0.0123797	
0.00605462	0.00938784	0.00448947	
-0.000306907	-0.0007141	-2.14091e-05	
0.00641348	0.0119708	0.00619761	
0.00577614	0.00872236	0.00380837	
0.000514772	0.000747491	0.0017045	
-0.00422032	-0.0157096	-0.0107814	
-0.00255181	-0.0046088	-0.00345695	
-0.000654383	-0.00218669	-9.94328e-05	
0.00022161	5.21208e-05	-4.06496e-05	
0.000131775	-0.000226478	0.000340906	
0.000264604	-0.000114404	0.000137265	
-6.12826e-06	-0.00015325	0.000682214	
-9.05831e-05	0.00021755	-0.000466477	
0.0116809	0.0214814	0.0124364	
0.00575188	0.00852389	0.00327953	
0.0108934	0.0163674	0.00692712	
0.0115757	0.0234155	0.0114333	
-6.8594e-05	-7.44316e-05	0.000566164	
5.0401e-05	0.000131085	-0.000838906	
-9.73327e-05	-0.000103599	0.00100435	
0.00338782	0.00545835	0.00211864	
7.70296e-05	0.000181821	-0.000874445	
1.486e-05	-0.000152572	0.000604625	
1.61379e-05	-0.000195252	0.000589557	
-2.36124e-05	-0.000233118	0.00128489	
0.0234296	-0.0161592	0.0217643	
-0.000851478	0.0121232	-0.023599	
-0.00733061	0.021742	-0.00799463	
0.00205767	-0.00251184	0.00154266	
-0.00580128	0.0195269	-0.00808575	
-0.00833563	0.0263034	-0.00973665	
-0.0073614	0.0134028	-0.00898408	
-0.00607032	0.0101553	-0.00649807	
0.00141641	-0.00692695	0.0040545	
0.000636742	-0.00413889	0.00293382	
-0.000630295	0.00250598	-0.00116724	
-0.000123306	-0.00210163	0.00293267	
-0.000265094	2.50049e-05	-0.00136374	
-0.0198605	0.0356153	-0.0230183	
-0.0123632	0.0252191	-0.0148627	
0.000381835	-0.00123487	-0.000603871	
0.000801064	-0.00342994	0.00193555	
0.000611446	-0.0033777	0.00204333	
0.000443547	-0.00290409	0.00159021	
-0.00172612	0.00733807	-0.00356604	
-1.07996e-05	1.07533e-05	6.34648e-06	
4.67846e-06	6.2399e-06	6.45681e-06	
2.11574e-06	-9.11319e-06	1.39569e-06	
1.46203e-05	-2.5514e-05	-5.15739e-05	
-7.43287e-05	-0.000171716	-7.97355e-05	
0.0286826	-0.0569581	0.0278393	
0.00221962	-0.00407197	0.000555597	
0.000576247	-0.00167671	-0.000548353	
-0.00650352	0.0163543	-0.00729333	
-6.77888e-05	-0.000225834	-0.000241991	
3.24304e-05	-0.00116225	-0.00130122	
5.43008e-05	-8.64685e-05	-0.000157095	
0.00763355	-0.00838404	0.00621269	
3.30936e-06	-0.00040245	-0.000371811	
-1.88164e-05	-0.000308821	-0.000373674	
-1.33536e-06	-1.28854e-05	-1.68129e-05	
3.0123e-05	-3.79103e-05	-9.12844e-05	
-0.00315371	0.00261103	0.00519336	
-0.00106611	-0.0124818	-0.0200285	
-0.00487022	-0.00118722	0.0368293	
0.00654544	-0.00069316	-0.0109059	
0.00771929	-0.000747647	-0.0132365	
0.0123537	-0.00140305	-0.0234713	
0.00244399	0.000896433	-0.00663686	
0.00718191	-0.000374556	-0.0127078	
0.00629285	0.000225955	-0.0146108	
0.00816415	-0.000533389	-0.0145588	
0.0129719	-0.00129468	0.0479719	
0.00245823	-0.0034384	0.00647784	
0.00296008	-2.85104e-05	0.0305084	
0.000501539	0.00405386	0.00397614	
0.00524254	0.00066112	-0.0117275	
0.00189433	0.000820898	-0.00557567	
0.000543497	0.000933674	-0.00118328	
-0.000271043	0.00167869	-0.000663327	
0.00680178	0.00152462	0.0349894	
0.0062428	-0.00552302	0.0111236	
0.00410472	6.04415e-05	0.0358257	
1.39908e-05	2.84575e-05	-3.34675e-05	
0.00565156	-0.00362194	0.012684	
4.78901e-05	2.65026e-05	3.04257e-05	
-0.000673792	-0.000828357	0.026655	
-8.0405e-07	4.57691e-05	-1.18318e-05	
-0.000609587	0.00118138	0.00140585	
0.000138543	0.000475161	-6.00004e-05	
-0.00224657	0.000518497	0.011778	
-0.00021829	0.00125123	-0.000530505	
-0.001007	-0.000198624	0.0142425	
0.00131271	0.000924948	-0.0049562	
0.000184051	2.45605e-05	-7.82531e-05	
-2.01877e-05	0.000969989	-0.000197794	
0.000158246	0.000744504	-5.76261e-05	
0.000175511	0.000286584	-8.51633e-05	
0.000161315	0.000599768	-4.03328e-05	
-0.0063461	-0.0122256	-0.00297869	
-0.0267905	-0.101236	-0.156538	
-0.0018363	-0.00352445	-0.000257352	
0.00343379	0.00513637	0.00322649	
-0.0012397	-0.00254025	-1.14487e-06	
0.00521424	0.0115934	0.00808831	
-0.0113994	-0.0207766	-0.00818064	
0.0057205	0.00852719	0.0059738	
-0.00240019	-0.00795943	-0.00479692	
0.000217688	0.00350039	0.00387334	
0.00184561	0.00466778	0.00457557	
-0.00221286	-0.00650664	-0.0122552	
0.00601825	0.00917151	0.0065384	
-3.44581e-05	-0.000925405	0.00111907	
0.00628802	0.0117997	0.00729561	
0.0056473	0.00860386	0.00582946	
0.000567728	0.000592751	0.00195262	
-0.00454183	-0.0155765	-0.0104459	
-0.00240921	-0.00482419	-0.00335767	
-0.000745929	-0.00240735	9.4164e-05	
0.00028238	-9.80137e-05	0.000133352	
0.000212624	-0.000363681	0.00054694	
0.000348302	-0.000147779	0.000168947	
-8.17953e-06	-0.000324461	0.00139946	
2.7316e-05	-6.51105e-05	0.000141842	
0.0116194	0.0213589	0.0131875	
0.00561707	0.00834122	0.00521631	