<VTKFile type="UnstructuredGrid" version="0.1" byte_order="LittleEndian">
	<UnstructuredGrid>
		<Piece NumberOfPoints="14874" NumberOfCells="14874">
			<CellData Scalars="scalars">
				<DataArray type="Float64" Name="Strength" NumberOfComponents="3" Format="ascii">
-0.00898698	-0.0142086	0.0142174	
-0.016834	-0.00801504	-0.025594	
0.00789626	0.0730509	0.00647897	
0.00554982	-0.00735368	-0.00614907	
0.00653665	-0.000261194	-0.0110148	
0.0103155	0.0535049	-0.0369033	
0.00257091	0.0847343	-0.0384906	
0.000261446	0.0141488	-0.0204682	
0.00350371	0.0828396	-0.0404604	
0.00206518	0.0269719	-0.0295149	
0.0026068	0.0223494	0.040188	
0.00509429	-0.0026624	-0.000860206	
-0.00470098	0.0434157	0.00779584	
0.00194341	0.00173628	0.000838542	
0.00272672	0.0684948	-0.0427975	
-0.00310203	0.0865566	-0.0292157	
0.000172654	0.096668	0.0115809	
-0.00508962	0.053543	-0.0463619	
0.00340876	0.0188287	0.0256598	
0.00524942	-0.0100894	0.0092152	
-0.00685797	0.0379948	0.0142384	
-0.00100435	0.00369216	0.00160518	
0.00362233	-0.0049702	0.00994608	
0.000769841	0.00209623	-0.00132918	
-0.00136022	0.0514989	0.00409566	
-0.00103692	-0.0124879	0.00448255	
-0.00473516	0.0878752	-0.0266463	
0.00219053	0.0368982	0.0238512	
0.00468429	0.0882804	0.00984454	
-0.00928812	0.0371352	-0.0344494	
-0.000913154	0.0522857	0.0186299	
-0.00376206	0.0927852	-0.00311564	
0.000468804	0.00047346	2.23861e-05	
-0.00548788	0.0883282	-0.0150611	
-0.015954	0.0779508	0.0170959	
0.0137334	0.000361633	0.0176233	
-0.0088784	0.0538761	0.029707	
-0.0137504	-0.00681606	-0.0244084	
-0.0921418	-0.0994629	-0.0599169	
0.0140279	0.014665	0.0487778	
0.000479526	0.0114471	-0.0142757	
0.00830271	-0.0171894	0.0529726	
-0.011286	-0.020519	0.0652193	
-0.0178268	-0.0144109	0.0572746	
0.0166273	-0.0170738	0.0518503	
0.012611	-0.014319	0.0376149	
0.0128447	0.00109117	0.0159711	
0.00368807	-0.0153437	0.0566624	
-0.000568768	0.0101546	-0.0501708	
0.0101961	-0.00375844	0.049146	
0.00105807	-0.00994078	0.0270404	
0.00553237	0.0118166	0.0545462	
0.00560225	0.00512273	0.040737	
0.0176616	-0.025869	0.041317	
0.015096	-0.0200482	0.0238902	
0.00357483	-0.0200184	-0.00232358	
0.00320559	-0.0247471	0.0532883	
-0.0366045	-0.0224543	0.0146126	
0.00268051	-0.0240022	0.0105941	
0.00233429	0.00332618	0.0196607	
0.00479582	-0.0100742	0.0594875	
-0.00713354	0.00750535	-0.0203651	
0.020641	0.00413742	0.0400504	
0.00413045	0.00719814	0.0315567	
0.00940454	0.0141833	0.0159633	
0.00345376	-0.0206274	0.0765968	
-0.00545607	0.0133681	0.0390693	
-0.00312567	0.00196655	0.0191251	
0.00460901	0.0109044	0.044008	
0.00403375	0.00828531	-0.0109212	
0.0010993	0.000437229	-0.00484469	
0.000264317	-0.00296364	0.0254368	
0.0136446	-0.0242926	0.0501873	
0.00204349	-0.00151898	0.053188	
0.016571	-0.0591111	-0.000597502	
-0.00652132	0.0085509	-0.0359775	
-0.00765269	0.00225576	-0.0324121	
-0.00788522	-0.0432943	-0.00904643	
-0.00994212	0.0147894	-0.00981943	
-0.014639	0.0110319	-0.0231574	
0.00502007	-0.00353972	-0.0542506	
0.00701308	-0.00892062	-0.0583726	
0.00275937	-0.00965526	0.00130854	
0.00167787	-0.0072835	0.00104946	
0.00036739	0.000959914	-0.00348811	
0.0005685	-0.00658316	0.00455199	
0.00799268	-0.0220714	-0.0666462	
-0.0160551	-0.014691	-0.0474151	
-0.0203852	-0.0412655	-0.0268453	
0.00765301	-0.0401745	-0.0608151	
0.00108096	-0.00494933	0.000823176	
0.000411588	-0.00608291	-0.000626301	
0.000680686	-0.00532238	-0.00177033	
-0.0020566	0.00526304	-0.00464448	
0.00116953	0.00044003	0.00383702	
-0.00193208	-0.00245348	0.000162696	
-0.00128358	0.00112779	-0.00234127	
0.00667371	0.000729217	-0.00882545	
-0.0162462	-0.0484864	0.00379265	
0.0509945	-0.0532637	-0.0504859	
0.00787031	-0.0468709	-0.0551477	
-0.00260637	-0.0547844	-0.0451356	
-0.0055668	0.000355784	-0.0351576	
-0.00787756	-0.0568098	-0.0191784	
0.00155223	-0.0489496	-0.049998	
-0.000276928	0.00233181	-0.0429325	
0.00790666	-0.050333	-0.0329988	
-0.000423301	-0.0642461	-0.047925	
0.00237391	-0.0115584	-0.0137972	
1.25288e-06	6.76168e-06	9.22136e-06	
0.0104466	0.00822523	-0.0184496	
-0.00171045	0.003544	0.00648259	
0.00802338	-0.0198886	-0.0212768	
-0.0232062	-0.000488628	0.025372	
0.00456443	-0.00119724	-0.0107259	
0.00709715	0.000470895	-0.0128587	
0.0195133	0.0159824	-0.00732951	
0.00422168	0.0137301	-0.00186058	
0.00739866	0.0035035	-0.0120135	
0.00890033	0.0184583	0.000239309	
0.0107981	0.00641151	-0.0118828	
0.0212075	0.00290634	0.0420063	
-0.002161	-0.00365283	0.00296005	
-0.00153572	0.000249836	0.0282886	
-9.76248e-06	0.0014905	0.00180376	
0.00744799	0.0149162	-0.00378499	
0.00364703	0.0133178	-0.000196274	
0.00246515	0.0103196	0.00448115	
-0.000627161	0.00688707	-0.00812157	
0.0129023	0.00522861	0.0305385	
0.00416217	-0.00777402	0.00993785	
0.00330271	0.00432624	0.0326306	
0.000189282	-7.94682e-06	0.000205578	
0.00504604	-0.00411886	0.0104014	
-0.000343431	-0.000232293	-7.29607e-05	
-0.00819319	-0.00107964	0.0231971	
1.85878e-06	0.000185966	-7.77312e-05	
-0.00136955	0.010816	-0.00246928	
0.00507803	0.00210413	0.00135343	
-0.00943442	0.00612261	0.00657743	
-0.00166042	0.00486809	-0.00658878	
-0.00381103	0.000693251	0.0125555	
0.00369165	0.0106639	0.00362268	
-0.00123911	1.93359e-05	0.000614547	
-0.000547055	0.0103019	-0.000132887	
0.00376538	0.00483116	0.0063484	
0.00231355	-0.00147589	-0.00054172	
0.00459949	0.00364894	0.00423068	
-0.00193346	-0.01269	-0.0052685	
0.0226556	-0.101036	-0.12306	
-0.0107092	-0.00171454	0.00295417	
0.000888462	0.00682788	0.00152198	
-0.00327515	-0.00402157	0.00424321	
0.013755	0.0046392	0.0155421	
-0.0270418	-0.0075035	0.00542858	
0.0112294	0.000810956	0.00403988	
0.000478719	-0.00823509	-0.000479962	
-0.00140873	0.000270478	0.00691349	
0.00153227	-0.00100723	0.00769159	
-0.00148711	-0.0045836	-0.0124309	
0.0107002	0.00165016	0.00626631	
-0.001466	-0.00221603	0.00474716	
0.00900392	0.00419762	0.00990344	
0.00911728	0.00325935	0.00589672	
0.000456768	-0.00300624	0.00484027	
-0.00355607	-0.0158265	-0.00752732	
0.00164397	-0.00558033	-0.00139133	
0.000170668	-0.00255507	0.00653749	
-0.00192615	0.00133054	-0.000771254	
0.00202127	-0.00188151	0.0012397	
9.3398e-05	0.00228722	0.000697847	
-0.000867942	-0.00235105	0.00584649	
-0.000489289	0.000482708	-0.00132051	
0.0218711	0.0119709	0.0160289	
0.00847413	0.00487658	0.00469916	
0.0124686	0.0150608	0.00574714	
0.0282364	0.00715826	0.0175987	
-0.00184903	0.00258599	0.0050905	
-0.000197042	0.00019798	0.000761388	
-0.00098312	0.00267318	0.00639592	
0.00216098	0.00622439	0.00117291	
0.000303911	-3.42116e-06	-0.000919415	
-0.000169159	7.88873e-05	0.00619524	
0.000251108	-0.00303174	0.0053331	
-0.000987309	-0.00110194	0.00741899	
0.0289918	-0.0169876	-0.00597598	
0.00853373	-0.00778646	-0.0233508	
-0.0137037	0.0189318	-0.00194709	
0.000482382	-0.00656261	-0.00137689	
-0.00521763	0.0210598	-0.00170596	
-0.010816	0.0265553	0.000698243	
-0.0107313	-0.000387065	-0.0144792	
-0.00803631	-0.00100186	-0.0108903	
0.000932581	-0.00609949	0.00565079	
1.9531e-05	-0.0034163	0.00371915	
-0.000811948	0.00266298	0.000237594	
-0.000991651	7.70901e-05	0.00360041	
0.000667978	-0.0010394	-0.00827535	
-0.0343114	-0.0055499	-0.0245363	
-0.0236659	0.0164077	-0.00955054	
0.00269609	-0.00396655	-0.00852073	
0.00094517	-0.00298753	0.00308674	
0.000660725	-0.00233932	0.00314809	
0.000370196	-0.00243239	0.00226702	
-0.00119974	0.00835807	-0.00156084	
0.000589834	-0.000580493	0.00131364	
0.00105961	0.000130844	0.000143238	
-0.000428458	-0.000308156	0.000633592	
-0.000348895	-1.6035e-05	0.000319583	
-0.00150177	-0.00502325	0.00155952	
0.0527984	-0.0432683	-0.0250447	
0.0048162	-0.0053439	-0.00845273	
-0.00179306	-0.00769104	-0.00518016	
-0.0112279	0.0139815	-0.00460003	
-0.00130274	-0.0022588	-0.00137542	
0.0004735	-0.00714563	-0.00674061	
0.00107864	0.000350307	-0.00109819	
0.0124787	-0.00732795	-0.00819897	
0.000301239	-0.0060813	-0.00392863	
0.000471685	-0.00323722	-0.00274961	
0.000101563	0.000708364	0.00106234	
0.00013343	5.42771e-05	-0.000103423	
-0.00200749	0.00386563	0.00614965	
0.0135331	-0.0237483	-0.00810615	
-0.00306182	-0.00728051	0.0340653	
0.00568379	-0.00169618	-0.0102535	
0.00842205	-0.000963359	-0.0118092	
0.0198621	0.000329674	-0.0141085	
0.00344374	0.0018623	-0.00685499	
0.00879605	0.00033317	-0.0103495	
0.0101608	0.00127115	-0.0121275	
0.0115385	0.000525066	-0.0105811	
0.00849431	0.0119614	0.0456551	
0.00140022	-0.0015824	0.00553133	
0.00143786	0.000303878	0.0290863	
-0.00199837	0.00229411	0.000364242	
0.00837795	0.00109453	-0.00877075	
0.00248333	0.00196812	-0.00619163	
0.000728107	0.00325043	-0.00250908	
-0.000787879	0.00159535	-0.00226815	
0.00762338	0.00828033	0.032322	
0.00566451	-0.00704014	0.0100189	
0.00287889	0.00341872	0.0337745	
-0.000130683	4.74971e-05	-0.000197784	
0.00658533	-0.00476652	0.0101088	
0.000147328	5.73578e-06	-7.92326e-05	
-0.00221766	-0.00257539	0.0247465	
-4.1881e-06	6.67369e-05	-3.10776e-05	
-0.000683951	0.00300146	0.00026121	
0.00162085	0.000650651	-4.83123e-05	
-0.000953858	0.00028446	0.0109626	
-0.000680617	0.00106436	-0.00181325	
-0.000516099	-0.00160377	0.0126289	
0.000942239	0.00323577	-0.00538187	
-0.00042319	-0.000383486	8.00249e-05	
-9.15353e-05	0.00280042	-0.000540624	
0.00157656	0.00190002	0.000282853	
0.00108869	-0.000563509	-0.000211062	
0.0016729	0.00132302	0.000229496	
-0.00218305	-0.0131915	-0.00401779	
-0.0267986	-0.0937452	-0.136723	
-0.00398681	-0.00769325	0.000342432	
0.00158021	0.00634531	0.00254631	
-0.00181298	-0.00274665	0.000644072	
0.00760462	0.0145853	0.0075554	
-0.0158102	-0.0227156	-0.00242964	
0.00687855	0.00814717	0.00228361	
-0.00209116	-0.00655016	-0.00437174	
0.00258407	0.000293906	0.00571664	
0.00143697	0.00310535	0.00362836	
-0.00382657	-0.00962668	-0.0102434	
0.00739981	0.00831886	0.00370449	
-0.000755955	-0.00208126	0.00118575	
0.00391857	0.0115918	0.00401812	
0.00707678	0.00755687	0.00312018	
0.000294841	-0.000721249	0.0015972	
-0.00574186	-0.0149618	-0.0100693	
-0.00111673	-0.00457596	-0.00377659	
-0.000122493	-0.000404492	0.00204541	
-0.000398724	0.000504269	-0.000178147	
0.000582098	-0.000545992	0.000389399	
-0.000629829	0.000329977	0.000190668	
-0.000272631	-5.90229e-05	0.00188082	
-0.000151864	0.000150911	-0.0003963	
0.0116539	0.0235326	0.00930073	
0.00708727	0.00748212	0.00237941	
0.0118338	0.0162209	0.00452604	
0.00974583	0.0295444	0.00579422	
-0.000946734	0.000523322	0.00163686	
5.29864e-05	-6.07278e-05	-0.00016353	
-0.000911661	0.000728452	0.00201578	
0.00240565	0.00598775	0.00206744	
0.000207849	-4.28202e-05	-0.000521988	
-0.000113729	3.21992e-05	0.00209327	
7.4863e-05	-0.000499092	0.00164953	
-0.0005026	0.000224428	0.0024106	
0.0309191	-0.0146814	-0.00327072	
0.011043	-0.00876535	-0.0247532	
-0.00625028	0.0227974	0.00086675	
0.00153602	-0.0028137	-9.86585e-05	
-0.00599253	0.0206185	-0.00239092	
-0.0073404	0.0277536	0.00202625	
-0.00880032	0.0100777	-0.0110943	
-0.00761542	0.00791978	-0.00681933	
0.00193002	-0.00761981	0.00382348	
0.00069146	-0.00479072	0.00254254	
-0.000494752	0.00243003	-0.000830124	
-0.00245891	0.00074525	0.00318517	
4.07388e-06	0.000257899	-0.00250136	
-0.0282459	0.0216136	-0.0259485	
-0.00944297	0.0255114	-0.0144612	
0.00163066	-0.00223052	-0.0019025	
0.00094014	-0.00403331	0.00165462	
0.000815347	-0.00375041	0.00193119	
0.000298979	-0.00350077	0.000765552	
-0.00192087	0.00741498	-0.00253714	
-0.000380586	-0.000111281	0.000138232	
-0.000259452	-0.000107239	-8.42744e-06	
-0.000174833	-0.000117278	4.37119e-05	
0.000276309	1.51266e-05	-0.000250348	
-0.000609417	-0.00138701	0.000747617	
0.0347516	-0.0581077	0.0245776	
0.0040939	-0.00366937	-0.00109094	
-0.00130469	-0.0021491	-0.00198998	
-0.00473903	0.0179196	-0.00247265	
-0.000523626	-0.000619483	-0.000382441	
0.000182777	-0.00240566	-0.00200475	
0.00055635	-4.33095e-05	-0.000374254	
0.0129822	-0.00550307	0.000110652	
0.000110938	-0.00201155	-0.00105739	
-4.35068e-05	-0.000891247	-0.00069476	
-3.68744e-05	-0.000209961	-0.000328278	
0.000377217	7.96085e-05	-0.000268343	
-0.00238874	0.00414254	0.00562279	
0.0157331	-0.0216974	-0.00396837	
-0.00715352	-0.000599683	0.0349978	
0.00612015	-0.00155817	-0.0102331	
0.00826542	-0.00164167	-0.0122575	
0.0132023	-0.00718302	-0.0203728	
0.00118967	0.000538186	-0.00833325	
0.00794845	-0.00156513	-0.0114075	
0.00466852	-0.00282059	-0.0154332	
0.0094956	-0.0026923	-0.0127478	
0.0134044	0.0101137	0.0459084	
-0.000889456	-0.00152608	0.00634284	
0.00115367	0.00103173	0.0295496	
-0.00115534	0.00365791	-0.00183978	
0.00378193	-0.00218486	-0.0118901	
0.00138585	0.00154287	-0.00707924	
0.00107204	0.00347524	-0.00253544	
-0.00129293	0.00166429	-0.00226872	
0.0085578	0.0090343	0.0325408	
0.00476055	-0.0051833	0.0117556	
0.00344359	0.00409801	0.0341743	
-1.88102e-05	-8.27929e-05	-0.000144953	
0.0063103	-0.00517726	0.0107392	
-5.3783e-05	0.000159085	4.82155e-05	
-0.00240188	-0.00175373	0.025471	
-2.44266e-05	0.000243097	-0.000124306	
-0.000966613	0.00353837	-0.000479769	
0.00151456	0.00080473	-8.07411e-05	
-0.00295883	0.00287442	0.0106636	
-0.000960015	0.00101787	-0.00168985	
-0.00130525	-0.000480742	0.0131942	
0.00186611	0.00328404	-0.00567626	
-0.000443806	-0.000331154	0.000166464	
-0.000223074	0.00333019	-0.00119958	
0.00181245	0.00222622	0.000208967	
0.00117824	-0.000491624	-0.000242361	
0.00183286	0.00146244	0.000231569	
-0.00343173	-0.0133337	-0.00320841	
-0.0280093	-0.0286216	-0.16961	
-0.00426233	-0.00576815	8.0118e-05	
0.00232268	0.00598074	0.00254245	
-0.00181406	-0.0026145	0.000657911	
0.00726204	0.0136476	0.00767205	
-0.0109397	-0.0245762	-0.00346365	
0.00517545	0.00959589	0.00296294	
-0.00282792	-0.00659519	-0.00449353	
0.00499485	0.00217373	0.00426681	
0.00184916	0.00344933	0.00411917	
-0.00667531	-0.00565228	-0.0114381	
0.00521954	0.0102295	0.00389992	
-0.000321044	-0.00184086	0.000952584	
0.00572957	0.0114367	0.0046965	
0.00518774	0.00947044	0.00284636	
0.000623355	-0.000487737	0.00187292	
-0.00576927	-0.015621	-0.00968523	
-0.000382737	-0.00512648	-0.00332913	
-0.000452368	-0.0011416	0.00165739	
-0.000684808	4.72956e-05	-0.000155611	
0.000774964	-0.000443566	0.00034724	
0.000515587	0.000349047	-0.000425425	
-0.00026785	-0.000138743	0.00187469	
-0.000114261	0.000118548	-0.000289654	
0.0128536	0.0221672	0.0110594	
0.00562	0.00909098	0.00184376	
0.0109654	0.0173794	0.00380032	
0.0142284	0.0263986	0.00785616	
-0.000765559	0.000407183	0.00146306	
4.18725e-05	-4.32566e-05	-0.000112464	
-0.000798439	0.000668005	0.00178608	
0.00284209	0.00583457	0.00210443	
0.000215932	-6.23097e-05	-0.000498734	
-9.5551e-05	-6.94405e-05	0.0016671	
9.65965e-05	-0.000594446	0.00170693	
-0.000440353	0.000152217	0.0023083	
0.0317909	-0.0146714	0.00429059	
0.00988261	-0.0079002	-0.0242432	
-0.00773243	0.0228762	-0.000201324	
0.00134032	-0.00279825	0.0010873	
-0.0059906	0.0210087	-0.00239465	
-0.00868608	0.0278887	0.00138688	
-0.00577761	0.013477	-0.00969471	
-0.00493786	0.0105906	-0.00615191	
0.00154614	-0.00712409	0.00431641	
0.000688957	-0.00430758	0.0029344	
-0.000625772	0.00259781	-0.000547882	
-0.000320976	0.00176569	0.00331988	
0.000310057	0.000254156	-0.00252098	
-0.0187591	0.0310406	-0.0270492	
-0.0134729	0.0236855	-0.0155102	
0.000814282	-0.00247542	-0.00174606	
0.000877527	-0.0036503	0.0020149	
0.000750533	-0.00334956	0.00224938	
0.000381219	-0.00314846	0.00130807	
-0.00177294	0.00778699	-0.00234062	
-9.32791e-05	0.000106698	-8.77647e-05	
0.000106723	3.66055e-05	7.65278e-06	
6.3876e-05	-3.16918e-05	5.53557e-05	
0.000105646	5.27101e-06	-9.87646e-05	
-0.00085398	-0.0010706	0.000834369	
0.0308251	-0.0612077	0.0221198	
0.00263841	-0.00490459	-6.88701e-05	
-0.000484969	-0.00209837	-0.00188735	
-0.00616813	0.0176051	-0.00371819	
-0.000556588	-0.000805768	-0.00041973	
6.43806e-05	-0.00243385	-0.00188617	
0.000591636	-1.75728e-05	-0.00043322	
0.0104909	-0.00725557	0.0054909	
-5.7675e-05	-0.0019968	-0.000877374	
-9.19321e-05	-0.000840329	-0.000777323	
6.79392e-06	4.14614e-05	6.49052e-05	
0.000265466	6.03148e-05	-0.000188017	
-0.00293199	0.00398331	0.00535889	
0.0234583	-0.0105045	0.00116639	
-0.00827963	-0.00091106	0.0355539	
0.00646578	-0.00154705	-0.0105458	
0.00786321	-0.00212065	-0.0129894	
0.011374	-0.00799191	-0.0221044	
0.00241105	0.00106201	-0.00792335	
0.00707208	-0.00270072	-0.0124241	
0.00680046	-0.00128852	-0.0149545	
0.00804047	-0.00407938	-0.0140947	
0.0126677	0.0117426	0.0467135	
0.0039678	-0.00440283	0.00402516	
0.00103587	0.00258206	0.0299329	
-0.00473783	0.000913076	0.000484483	
0.0049474	-0.00162796	-0.0116448	
0.00226295	0.00167396	-0.00664146	
0.00127845	0.00344723	-0.00274789	
-0.00144116	0.00177647	-0.00235264	
0.00851493	0.0100431	0.0329947	
0.00677003	-0.00519281	0.0109737	
0.00362384	0.00506895	0.034968	
2.59485e-06	6.7719e-05	-0.000159315	
0.0057599	-0.0044967	0.0119398	
0.000113303	9.66455e-05	-1.84685e-05	
-0.00250527	-0.000960627	0.0262246	
-1.59789e-05	0.000117814	-6.47323e-05	
-0.000982796	0.00320239	-0.000204953	
0.00163484	0.000861514	-0.000106571	
-0.00315704	0.00262511	0.0109607	
-0.00126479	0.00120173	-0.00198788	
-0.0013062	-8.68716e-05	0.0137789	
0.00199484	0.00322306	-0.00560067	
-0.000403919	-0.000303197	0.000137456	
-0.000199187	0.00307194	-0.000988065	
0.00194512	0.00238881	0.000318226	
0.00113515	-0.000512808	-0.000175833	
0.00196483	0.00160764	0.000303079	
-0.00469272	-0.0132586	-0.00254943	
0.00884718	-0.090619	-0.156193	
-0.00355114	-0.00495706	0.000138654	
0.00291919	0.00568347	0.00261119	
-0.0016896	-0.0025495	0.000463368	
0.00690682	0.0134273	0.00731218	
-0.0128723	-0.0229914	-0.00380445	
0.00595847	0.00926193	0.00303091	
-0.00291606	-0.00681124	-0.00488116	
0.00026228	-0.000137973	0.00576972	
0.00189949	0.00377544	0.00410022	
-0.0063748	-0.00459728	-0.0115711	
0.0059767	0.00987073	0.0042288	
-0.000349557	-0.00144816	0.000715477	
0.00635047	0.0119805	0.00471007	
0.00531309	0.00954607	0.00307213	
0.000636148	-0.000344151	0.00169862	
-0.00591542	-0.0152338	-0.0100812	
-0.0050336	-0.00256822	-0.00243825	
-0.00049807	-0.00123171	0.00123763	
0.000439858	8.15819e-05	-7.98224e-05	
0.000614705	-0.000550874	0.000311523	
-0.000152422	0.000557446	-0.000199432	
-0.000237148	-0.000132886	0.00169527	
-9.79317e-05	0.00010592	-0.000243659	
0.0127417	0.0223724	0.0110533	
0.0053928	0.00940761	0.00197162	
0.0105427	0.0179407	0.00378064	
0.013815	0.0261153	0.00748212	
-0.000643677	0.000367359	0.00121118	
1.95412e-06	-4.0047e-06	-7.84863e-06	
-0.000706592	0.000583728	0.00154165	
0.00306494	0.00572627	0.00232205	
0.000118182	-3.73344e-05	-0.000269681	
-0.000109631	-0.000103928	0.00134575	
7.75257e-05	-0.000600748	0.00159161	
-0.00036221	0.000134399	0.00192588	
0.0307659	-0.0142097	0.0118419	
0.0100637	-0.00761528	-0.0243512	
-0.0079254	0.0231168	3.64471e-05	
0.00115922	-0.00266713	0.00190892	
-0.0060949	0.0211165	-0.00253896	
-0.00864296	0.0281726	0.000989956	
-0.00638478	0.0133889	-0.00981514	
-0.00558971	0.0103853	-0.00624652	
0.00162759	-0.00720757	0.0040935	
0.000659093	-0.00440843	0.00281691	
-0.000619612	0.00264046	-0.000619104	
-0.000307806	0.00199755	0.00323284	
0.000166445	0.000369742	-0.0022335	
-0.0215054	0.0311286	-0.0267832	
-0.0139427	0.0243477	-0.0149842	
0.000652255	-0.00219771	-0.00163879	
0.000858747	-0.00368904	0.00186048	
0.000785316	-0.00345757	0.00210363	
0.000308506	-0.00323448	0.00115109	
-0.00182366	0.00778751	-0.0023944	
1.18945e-05	-1.74572e-06	1.05611e-07	
-1.09503e-05	-4.0517e-06	-8.27972e-07	
-6.61779e-06	-2.50958e-06	-1.79769e-07	
0.000112315	6.46344e-06	-0.00010373	
-0.000816094	-0.000610377	0.000615378	
0.0340581	-0.059967	0.0188349	
0.00225199	-0.00479396	0.000309302	
-0.000149897	-0.00198933	-0.0013809	
-0.00645553	0.0177596	-0.00349343	
-0.000378595	-0.000544538	-0.000312409	
-1.50966e-05	-0.00200214	-0.00157055	
0.000388548	-1.24336e-05	-0.000293694	
0.00828344	-0.00772769	0.00775841	
-0.000135727	-0.00177375	-0.000766992	
-0.000100229	-0.000746055	-0.000758408	
-4.68123e-06	-2.91145e-05	-4.58996e-05	
0.000206238	4.51271e-05	-0.000150813	
-0.00289562	0.00423205	0.00468506	
0.0207353	-0.00748589	0.0119603	
-0.00715628	-0.00295821	0.0364628	
0.00638975	-0.00131886	-0.010994	
0.00753598	-0.00262189	-0.013457	
0.0131065	-0.00722792	-0.021719	
0.002702	0.000595811	-0.00802004	
0.00658928	-0.00297576	-0.0127549	
0.00700075	-0.00161175	-0.0148656	
0.00786001	-0.00442774	-0.0141268	
0.0130604	0.012499	0.0468886	
0.00356564	-0.00327336	0.00566699	
0.00202747	0.001774	0.030609	
-0.00395276	0.00151758	-0.00292444	
0.00532904	-0.00153304	-0.0115563	
0.00243302	0.00127529	-0.00688181	
0.000801541	0.0026802	-0.0016085	
-0.00101731	0.00124878	-0.00160929	
0.00815521	0.01029	0.0334632	
0.00683867	-0.00376832	0.0116441	
0.0042341	0.00464416	0.0356193	
-4.04151e-05	6.55111e-05	1.80914e-05	
0.0071299	-0.00475851	0.0114749	
1.95572e-05	6.42328e-05	1.02629e-06	
-0.00178456	-0.0018344	0.0267635	
-8.23709e-05	0.00054182	-0.000309864	
-0.000969042	0.00316884	-2.2014e-05	
0.000853941	0.000433199	-9.7912e-05	
-0.0029009	0.00123767	0.0115845	
-0.000874798	0.000810504	-0.00131621	
-0.00135726	-0.000948903	0.0142135	
0.00179877	0.00282366	-0.00540025	
-0.000158216	-0.0001696	5.20993e-05	
-0.000162963	0.00291316	-0.000916125	
0.00114955	0.00137367	0.000145144	
0.000490866	-0.000223514	-9.68721e-05	
0.00109094	0.000863953	0.000116129	
-0.0053992	-0.01307	-0.00181964	
0.00809988	-0.043302	-0.179128	
-0.00324353	-0.00487474	-2.47518e-05	
0.00330006	0.00552182	0.00298261	
-0.00162459	-0.00266141	7.69789e-05	
0.00663309	0.0134533	0.00701144	
-0.012499	-0.0230724	-0.00338943	
0.00608079	0.00931143	0.00363303	
-0.00290648	-0.00703206	-0.00526224	
0.00243878	-0.00272449	0.00394201	
0.00176288	0.00379841	0.00374801	
-0.00840876	-0.00228485	-0.0110832	
0.00582987	0.00990605	0.0050855	
-0.000187278	-0.0012794	0.000895305	
0.00629095	0.0124495	0.00453608	
0.00526513	0.00950811	0.00412272	
0.000393472	-0.000337547	0.00111546	
-0.00518272	-0.0153861	-0.0103345	
-0.00208876	-0.00439491	-0.00388038	
-0.00038755	-0.00101409	0.000833796	
0.00024797	0.000150106	-0.000107122	
0.000531969	-0.000309678	1.05562e-05	
0.000283325	-0.000250456	-7.96338e-05	
-0.000181864	-0.000116165	0.00144471	
6.47254e-06	-6.93199e-06	1.63183e-05	
0.0125853	0.0228632	0.0107542	
0.00541468	0.00954656	0.00321652	
0.0104091	0.0184085	0.00471287	
0.0131688	0.0265641	0.00723352	
-0.000666039	0.000395424	0.00122931	
-0.000287394	0.000250226	0.000745685	
-0.000621259	0.000515499	0.00132351	
0.00309814	0.0057744	0.00281281	
-0.000170152	5.2096e-05	0.000382571	
-0.000128077	-8.33679e-05	0.00136285	
7.20724e-05	-0.000477139	0.00126121	
-0.000295109	0.000117901	0.0015507	
0.0284027	-0.0148799	0.018032	
0.00991299	-0.00669273	-0.0243359	
-0.00794592	0.0233594	0.000198439	
0.000898848	-0.00273884	0.00219244	
-0.00618001	0.0212639	-0.00260608	
-0.00879752	0.0283597	0.000804797	
-0.006885	0.0136335	-0.00951043	
-0.00613394	0.0105782	-0.00575324	
0.00156611	-0.00709958	0.00409469	
0.000606977	-0.00437471	0.00277828	
-0.000638885	0.00270806	-0.000595336	
-0.000200913	0.000895912	0.0036433	
-9.49035e-05	0.000603754	-0.0016667	
-0.0220372	0.0329906	-0.0255837	
-0.0137903	0.0250271	-0.0146594	
0.000687882	-0.00183034	-0.0012835	
0.000837441	-0.00359962	0.00186266	
0.000765018	-0.00339541	0.00212289	
0.000327983	-0.00317543	0.00119425	
-0.00181306	0.00788607	-0.00238608	
-3.17203e-05	1.18503e-05	-3.16894e-05	
2.70094e-05	9.92912e-06	2.51561e-06	
1.70731e-05	-1.17209e-05	1.35423e-05	
9.12979e-05	4.86862e-06	-8.44809e-05	
-0.00113936	-0.000631697	0.000741565	
0.0335114	-0.0602222	0.0181625	
0.00248417	-0.00423547	0.000364395	
-9.57574e-05	-0.00168063	-0.00113833	
-0.00643969	0.0178907	-0.00336264	
-0.000290354	-0.000405157	-0.000249217	
-3.53896e-05	-0.00149076	-0.00127854	
0.000303401	-1.04466e-05	-0.000229307	
0.00745341	-0.0080054	0.00830249	
-0.000214931	-0.00176936	-0.000824026	
-8.27251e-05	-0.000474948	-0.000508688	
-8.84163e-07	-5.62394e-06	-8.76815e-06	
0.000172272	3.79464e-05	-0.000127295	
-0.00317795	0.00388908	0.00462998	
0.0178013	-0.0139214	0.00942769	
-0.00606822	-0.00416542	0.0369369	
0.00685895	-0.00178697	-0.0107841	
0.00774406	-0.00282074	-0.0131078	
0.0133333	-0.00758642	-0.0217828	
0.00263753	-0.000144284	-0.00733521	
0.00736189	-0.00317109	-0.0122894	
0.00713541	-0.00233095	-0.0148875	
0.00849563	-0.00434222	-0.0138276	
0.0132842	0.0121676	0.0472068	
0.00257199	-0.00381823	0.0060506	
0.00233337	0.00148838	0.0309379	
-0.00197133	0.0040401	-0.00298299	
0.00560457	-0.00223392	-0.0113372	
0.00222026	0.0001476	-0.00604953	
0.000699393	0.00103469	-0.00126812	
-0.000679584	0.000828329	-0.00105222	
0.00882046	0.0102305	0.0335535	
0.00744768	-0.00462145	0.0110036	
0.00438793	0.00456416	0.0359129	
4.5754e-05	5.34531e-05	1.0672e-05	
0.00643733	-0.00620393	0.0113941	
-2.57213e-06	5.40047e-05	2.43928e-05	
-0.00129372	-0.00212609	0.0269043	
-2.32611e-05	0.000135821	-7.77612e-05	
-0.000788322	0.00155145	0.000973593	
0.000474287	0.000237338	-6.57064e-05	
-0.00250916	7.61447e-05	0.0118774	
-0.000552554	0.000508768	-0.000801195	
-0.00125314	-0.00137797	0.0143743	
0.00167711	0.000969035	-0.00502555	
-0.000118248	-0.000114008	3.59504e-05	
-5.23418e-05	0.00109604	-0.000344902	
0.000526379	0.000624172	4.41043e-05	
0.000312687	-0.000142911	-6.65037e-05	
0.000506427	0.000395883	3.67906e-05	
-0.00648127	-0.0129694	-0.00186882	
0.00965554	-0.0600391	-0.177392	
-0.00214972	-0.00335332	-3.29e-05	
0.00349707	0.00548319	0.00213309	
-0.00133851	-0.00247913	-0.000438197	
0.00582617	0.0125299	0.00588422	
-0.0125075	-0.0221746	-0.00463078	
0.00586283	0.00958748	0.00209365	
-0.00285134	-0.00701754	-0.00566026	
-0.000202958	-0.00338616	0.00452403	
0.00195832	0.00489206	0.00370266	
-0.00132187	-0.00465843	-0.013655	
0.00635025	0.00994432	0.00357105	
-0.000281355	-0.000730945	0.000131732	
0.00698022	0.0130111	0.00373457	
0.00610422	0.00924164	0.00273633	
0.000774917	0.000599955	0.00170221	
-0.00577967	-0.0149571	-0.0116937	
-0.0020093	-0.0042928	-0.0043033	
-0.0008234	-0.00217509	-4.71814e-05	
0.00018211	0.000123368	-8.12258e-05	
0.000315309	-0.000281575	0.000110483	
0.000150002	-0.000251479	0.000141115	
-8.21134e-05	-6.02511e-05	0.000704555	
-0.000187881	0.000209936	-0.000455521	
0.0126638	0.0228678	0.0100445	
0.00616329	0.00902665	0.00172808	
0.011117	0.0179052	0.00360163	
0.012609	0.0255298	0.00598217	
-0.00027039	0.000158237	0.000495852	
0.000297884	-0.000252401	-0.00077976	
-0.000420409	0.000340523	0.000881572	
0.00352112	0.00570966	0.00177477	
0.000361675	-0.000117979	-0.000836597	
-6.55254e-05	-3.38252e-05	0.000632258	
2.89025e-05	-0.00022772	0.000588692	
-0.000239941	8.95354e-05	0.00130594	
0.0269139	-0.0150138	0.0200735	
0.010029	-0.00619518	-0.0242815	
-0.0080101	0.0234431	0.000278621	
0.00175966	-0.00227844	0.00230415	
-0.00613945	0.0213028	-0.00259751	
-0.00870314	0.0285138	0.000630474	
-0.00711458	0.0138891	-0.00921979	
-0.00652635	0.0108848	-0.00541983	
0.0015708	-0.00707317	0.00402394	
0.000610375	-0.00440662	0.00268589	
-0.000650631	0.00274794	-0.000597164	
-0.000315357	0.000367245	0.00370455	
-6.34125e-05	0.000510806	-0.00132404	
-0.0220812	0.0342317	-0.0251293	
-0.0137503	0.0255151	-0.0145098	
0.000401564	-0.00111642	-0.000851512	
0.000829062	-0.00356452	0.00182175	
0.000719215	-0.00340622	0.00209145	
0.000316432	-0.00317274	0.00116797	
-0.00182279	0.0079315	-0.00241072	
-1.31243e-05	1.19809e-06	-1.33628e-05	
9.61079e-06	3.57895e-06	9.42344e-07	
5.81627e-06	-5.86966e-06	5.11802e-06	
4.40184e-05	1.59358e-06	-4.15398e-05	
-0.000166365	-8.01252e-05	9.77341e-05	
0.033012	-0.0603536	0.0177012	
0.00241498	-0.00410629	0.000431928	
0.000552422	-0.00179259	-0.000316912	
-0.00652227	0.0179944	-0.00333166	
-0.000179758	-0.000248195	-0.000157849	
-3.74009e-05	-0.00132519	-0.00119852	
0.000152564	-6.36609e-06	-0.000115129	
0.0076184	-0.00733965	0.0079936	
-6.26208e-05	-0.000500424	-0.000247341	
-5.88625e-05	-0.000330701	-0.000364188	
-1.77319e-06	-1.15578e-05	-1.81456e-05	
8.31023e-05	1.73351e-05	-6.24381e-05	
-0.00329881	0.00373408	0.00462301	
0.0148917	-0.0170838	0.00797866	
-0.00601002	-0.0041234	0.0371891	
0.00701049	-0.00197673	-0.0108603	
0.00797138	-0.00281114	-0.0132769	
0.0130229	-0.00779307	-0.0225684	
0.00245375	-0.000433261	-0.00684519	
0.00721557	-0.00296985	-0.0127795	
0.00678491	-0.00270195	-0.0145319	
0.00832014	-0.0042625	-0.0143346	
0.0129588	0.0123689	0.047307	
0.00236223	-0.00370641	0.00652065	
0.00248372	0.00168738	0.031073	
-0.00213172	0.00438228	-0.0032204	
0.0053836	-0.00233009	-0.011776	
0.00202613	-0.000167568	-0.00572377	
0.000654896	0.000959745	-0.00114948	
-0.000852858	0.00102751	-0.00130688	
0.00964806	0.0100601	0.033532	
0.00733224	-0.00506039	0.0109745	
0.00443753	0.00501894	0.0361001	
7.77593e-06	2.24985e-05	4.27839e-05	
0.00571794	-0.00655894	0.0117177	
-1.46611e-05	6.13589e-05	7.06908e-06	
-0.00118643	-0.00184565	0.0270884	
-7.9238e-06	4.12683e-05	-2.39407e-05	
-0.000753261	0.00136292	0.00121745	
0.000449385	0.000227497	-6.57918e-05	
-0.00244917	1.00752e-05	0.0119957	
-0.000715332	0.000652591	-0.00102493	
-0.00127457	-0.00124229	0.0144431	
0.00157871	0.000887734	-0.00499857	
-0.000151939	-0.000130177	4.38707e-05	
-4.01791e-05	0.00096637	-0.000295069	
0.000501707	0.000594323	3.91352e-05	
0.00031693	-0.00014041	-6.6817e-05	
0.00049638	0.000394074	3.22988e-05	
-0.00621671	-0.0129999	-0.0012181	
0.0138508	-0.00935918	-0.190839	
-0.00236551	-0.00328918	0.000313018	
0.00355481	0.00544065	0.00298097	
-0.00151181	-0.00244465	0.000180311	
0.00603633	0.0124504	0.00666525	
-0.0115197	-0.022716	-0.00287997	
0.00602352	0.00969814	0.00417356	
-0.003033	-0.00748638	-0.00548524	
-0.000822582	-0.000261424	0.00524618	
0.00223747	0.00478973	0.00445688	
-0.000938367	-0.0030466	-0.0139367	
0.00572954	0.0103786	0.00551837	
0.000196556	-0.000772795	0.00125084	
0.00655378	0.013287	0.00469706	
0.00529529	0.00994833	0.0044679	
0.000887981	0.000369458	0.00192702	
-0.00492306	-0.0152893	-0.0112701	
-0.00102803	-0.00337051	-0.00541205	
-0.000988956	-0.00236463	0.000161308	
0.000322059	-9.04626e-05	2.67214e-06	
0.000588354	-0.000357226	0.000136645	
0.000386881	6.34756e-05	-0.000155924	
-0.000163627	-0.000132328	0.00144755	
5.64662e-05	-6.29085e-05	0.000138645	
0.0123539	0.0230248	0.0107081	
0.00539161	0.00970353	0.00342545	
0.0105591	0.0185721	0.00538763	