<VTKFile type="UnstructuredGrid" version="0.1" byte_order="LittleEndian">
	<UnstructuredGrid>
		<Piece NumberOfPoints="2442" NumberOfCells="2442">
			<CellData Scalars="scalars">
				<DataArray type="Float64" Name="Strength" NumberOfComponents="3" Format="ascii">
-0.00621765	-0.0162667	0.0125024	
0.00584706	-0.0115881	-0.0276964	
-0.000442234	0.0705982	0.014723	
0.00437809	-0.00625473	-0.00757332	
0.00580168	0.00120635	-0.0109818	
0.015471	0.0561215	-0.0271481	
0.0163407	0.0868627	-0.0213537	
0.00541706	0.0195213	-0.0133422	
0.0182661	0.0840918	-0.0267961	
0.00773376	0.0339845	-0.0175856	
0.00634822	0.00553993	0.0445003	
0.00196642	-0.00409944	0.00342521	
-0.00504507	0.040323	0.0153984	
0.000707945	-0.00222164	-0.00109352	
0.0134094	0.0745513	-0.02215	
0.019248	0.0850005	-0.0193733	
0.0200092	0.0908064	-0.0203925	
0.00604059	0.0677788	-0.0130388	
0.00254979	0.0124214	0.028791	
0.00557314	-0.00599498	0.0118326	
-0.00346859	0.0332045	0.0226708	
0.00134293	0.00176082	0.000499975	
0.00284855	-0.00381419	0.0104675	
0.000873155	0.00233146	-0.000523445	
-0.00526914	0.0492225	0.0103022	
-0.000441391	-0.012756	0.00210492	
0.0167135	0.0868935	-0.0153954	
0.0098558	0.0417018	-0.00443551	
0.0128532	0.0858697	-0.00473865	
0.00297414	0.0492407	-0.00919646	
0.00549465	0.0540241	0.00120578	
0.0211331	0.0864048	-0.018367	
-0.000340977	-0.000549864	9.69888e-05	
0.0182824	0.0847495	-0.0132961	
0.024308	0.0754836	-0.00687474	
0.00713773	0.0205241	-0.00281703	
0.0178974	0.0578845	-0.00532419	
-0.00958334	-0.00523241	-0.0258402	
-0.0209524	-0.134048	0.0057759	
-0.00125113	-0.0203509	0.0475902	
0.00220926	0.0115954	-0.0133523	
0.00754058	-0.0111896	0.0535963	
0.0263982	0.000749703	0.0626185	
-0.00545689	-0.0405582	0.0443358	
0.0154241	-0.010498	0.0525582	
0.011911	-0.0137803	0.0372043	
0.0123096	0.000265921	0.0159747	
0.0152431	-0.0126549	0.0542542	
0.0203641	0.0120454	0.000619322	
0.0122562	-0.0078311	0.0469692	
0.00353482	-0.0121008	0.0252623	
0.0108889	-0.00559288	0.0536374	
0.00910757	-0.00516344	0.0390838	
0.0154654	-0.0150972	0.0461046	
0.00292924	-0.0187024	0.0282855	
0.00459821	-0.00839396	0.0173416	
0.0155084	-0.0114852	0.0544853	
0.024257	-0.0101345	-0.00437932	
0.0173193	-0.00949933	0.0165013	
0.0109166	-0.00178657	0.0162386	
0.0145498	-0.0145844	0.0556997	
-0.0018442	0.00837952	-0.0205308	
0.0178458	0.0119742	0.0387331	
0.00762643	-0.00222132	0.0308326	
0.00982843	0.0104936	0.0175571	
0.035123	0.00756034	0.0690216	
0.00474067	-0.0106188	0.0391607	
0.00141483	-0.00600722	0.0179675	
0.00744665	-0.0109337	0.0427002	
0.00263688	0.0093138	-0.00998459	
-0.000130582	0.00162469	-0.00457569	
0.00388253	-0.00733803	0.0236958	
0.0167975	-0.0158195	0.0514406	
0.0125901	-0.013046	0.0489724	
0.023764	-0.0524413	-0.0154984	
-0.00049565	0.0157149	-0.0318198	
-0.00662305	-0.00146635	-0.0317964	
0.00368819	-0.0280355	-0.03328	
-0.00713486	0.0137398	-0.0124222	
-0.0110406	0.0105918	-0.0243398	
0.00181018	-0.0183182	-0.049931	
0.00645052	-0.027642	-0.0505352	
0.00158877	-0.00931221	0.00303267	
0.0003561	-0.00727062	0.000823472	
-0.000497832	-0.000119659	-0.00351133	
0.00434827	-0.0019885	0.0039118	
0.0115869	-0.0403074	-0.0546067	
-0.0119495	-0.00198	-0.0492939	
-0.0123593	-0.0142805	-0.0483491	
0.0108795	-0.0449071	-0.0544051	
0.000847921	-0.00480041	0.00123492	
0.00028164	-0.00600002	0.000223026	
-7.0591e-06	-0.00551542	-0.000568944	
-0.00176371	0.00453382	-0.00522993	
0.0025569	0.00189489	0.00172065	
-0.000803261	-0.00182621	-0.00231936	
0.00112857	0.00255025	3.7553e-06	
0.001457	-0.00625753	-0.00873357	
0.000189105	-0.0323442	-0.0378685	
0.0455268	-0.0744091	-0.000736076	
0.0121139	-0.0463921	-0.0522315	
0.00581334	-0.0407578	-0.0555245	
-0.00120697	-0.00726412	-0.0339359	
0.00270273	-0.0385488	-0.0446551	
0.00953961	-0.0424001	-0.052481	
0.0111017	-0.0232174	-0.0332454	
0.0156114	-0.043567	-0.0366704	
0.0107179	-0.0487114	-0.0599489	
0.0010158	-0.0115232	-0.0134073	
6.46182e-07	7.1179e-06	8.63118e-06	
0.0042363	-0.0122079	-0.0180912	
-0.00278304	0.00238115	0.00639082	
0.0008968	-0.00557153	-0.0292127	
-0.00659713	0.00719174	0.0322752	
0.00510558	0.00114506	-0.0101385	
0.00669195	0.00272945	-0.0123605	
0.013704	0.00857123	-0.0199227	
0.00435285	0.0112167	-0.00747779	
0.00655705	0.00493644	-0.0115608	
0.00939944	0.0113092	-0.0136193	
0.00796869	0.00652381	-0.0133643	
0.0147206	0.00301447	0.0438612	
0.00111539	-0.00119216	0.00482329	
0.0026312	0.00477402	0.0272822	
-0.00026076	6.04339e-05	0.00219138	
0.00707412	0.0107408	-0.0106877	
0.0037506	0.011083	-0.00674695	
0.000742327	0.0104981	-0.00403677	
0.00029061	0.0101816	-0.00215616	
0.0101193	0.00414852	0.0311243	
0.00259358	-0.00184011	0.0126959	
0.00493075	0.00532289	0.0316773	
0.000166912	3.07889e-05	-2.13766e-05	
0.00245554	-0.00069855	0.0118122	
-0.000162435	0.000338732	0.000154843	
-0.00239779	0.0064766	0.0231586	
6.23896e-06	0.000192225	-3.11016e-05	
-0.000280725	0.0108485	-0.00122072	
0.000209906	0.00546533	-0.000910552	
-0.00403781	0.00820971	0.00888208	
0.000177087	0.00798465	-0.00160599	
-0.00205337	0.00595084	0.0112402	
0.00242917	0.00961096	-0.00602983	
0.000710919	0.00112754	-0.000259243	
0.000257796	0.00993239	-0.00172921	
0.000656825	0.00854967	-0.000996242	
0.000396334	0.00263171	-0.000667346	
0.000467126	0.00700074	-0.000961534	
-0.00528558	-0.0115374	-0.00456764	
-0.029194	-0.105335	-0.113497	
-0.00527052	-0.00938056	0.00213959	
0.00290739	0.00594646	0.00177961	
-0.00242292	-0.00399226	0.00460897	
0.00637038	0.0124686	0.0154102	
-0.0137185	-0.0232793	-0.00673735	
0.00635297	0.0061769	0.0075606	
-0.00100498	-0.00801925	0.000468588	
0.000113868	0.00437533	0.00539297	
7.66138e-05	0.00101233	0.00770145	
-0.00392872	-0.0077502	-0.00976819	
0.00700075	0.0065219	0.00752588	
-0.000532612	-0.00379859	0.00369199	
0.00599837	0.00673476	0.0103485	
0.00632839	0.0062123	0.00655832	
-0.000467183	-0.00224384	0.00512933	
-0.00275796	-0.0160587	-0.00648003	
-0.00154456	-0.00561722	-0.00060742	
-0.000822372	-0.00109348	0.00676155	
-0.00110998	0.00147774	-0.00154978	
0.000827631	-0.00115917	0.00261325	
0.00116773	0.00137833	-0.00150114	
-0.000469784	-0.00169554	0.005989	
-0.000132118	0.000554254	-0.00133522	
0.0142104	0.0181901	0.0174899	
0.00595576	0.00658459	0.0057002	
0.0102023	0.0145869	0.00866384	
0.0154672	0.0221482	0.0194117	
1.89887e-05	-0.00142387	0.00571331	
4.01087e-05	-0.000243751	0.000752433	
4.97633e-06	-0.00156764	0.00668921	
0.00300579	0.00551574	0.00167281	
-1.37885e-05	0.00031385	-0.000889477	
0.000614929	-0.00166051	0.00581337	
-0.00055987	-0.00178842	0.00573475	
-0.000110257	-0.00187998	0.00717729	
0.022608	-0.0196747	0.0140343	
0.00144607	0.018433	-0.0173779	
-0.00649623	0.0187817	-0.0113104	
0.00150586	-0.00500282	-0.00392741	
-0.00465481	0.0185183	-0.00933541	
-0.00723944	0.0239509	-0.0125379	
-0.0065674	0.00793314	-0.0141852	
-0.00548094	0.00409299	-0.0112771	
0.00168228	-0.00636883	0.00486007	
1.71105e-05	-0.00374481	0.00323373	
-0.000472123	0.00264518	-0.000503328	
-2.66976e-05	-0.00168505	0.00303971	
0.000408499	-0.00432223	-0.00689914	
-0.0187361	0.0239733	-0.0280188	
-0.0135638	0.0214943	-0.0151089	
0.00219044	-0.00690883	-0.00618091	
0.00110999	-0.00285852	0.00301339	
0.000592536	-0.00263145	0.00280379	
0.00041838	-0.00224038	0.00235156	
-0.00136145	0.00764237	-0.00320884	
0.000675705	-0.00052656	-0.000579953	
0.000371669	0.000646733	0.00074363	
-0.000267499	-0.000231666	0.000720869	
-4.3858e-05	0.000271545	0.000372343	
-0.000188084	-0.00353443	-0.00396178	
0.0420031	-0.0518491	0.023845	
0.00385027	-0.00854886	-0.00537981	
-0.00055376	-0.00450559	-0.00798723	
-0.00545195	0.0142137	-0.00968711	
-0.000308363	-0.00190888	-0.00213183	
0.00106982	-0.00606419	-0.00733118	
0.000233701	-0.000923441	-0.00121439	
0.00983579	-0.0128207	4.28695e-05	
0.000798888	-0.00448651	-0.00538271	
1.19308e-05	-0.00284259	-0.00304829	
8.35195e-05	0.000795675	0.000964821	
2.1193e-05	-9.94794e-05	-0.000140392	
-0.00278993	0.00250784	0.00628095	
0.00185349	-0.0060359	-0.0273811	
-0.00160396	0.0032345	0.0341043	
0.00551344	0.000453774	-0.0101145	
0.00713628	0.000896503	-0.0121935	
0.0117593	0.00203468	-0.020572	
0.00209096	0.00292657	-0.00683855	
0.00684005	0.00142146	-0.0112473	
0.00609631	0.00291273	-0.0139768	
0.00774095	0.00174235	-0.0130495	
0.0125363	0.00132368	0.0454965	
0.0013318	-0.00174358	0.00541756	
0.00188218	0.00257081	0.0284352	
-0.000511666	0.000142874	0.00287764	
0.00499671	0.00275651	-0.010451	
0.00137234	0.00282707	-0.00604025	
0.00021097	0.0027613	-0.00300467	
-0.000177855	0.00272977	-0.000653787	
0.00785146	0.0029583	0.0326136	
0.0030275	-0.0022988	0.0127525	
0.00317543	0.00260791	0.0332381	
0.000143923	-6.42111e-05	4.55813e-06	
0.00245611	-0.00138571	0.0124737	
-4.28013e-05	0.000143178	5.59762e-05	
-0.00173599	0.00209326	0.0243705	
2.20149e-06	7.0855e-05	-1.08827e-05	
-0.00066972	0.0028973	0.000498714	
0.000128893	0.00168113	-0.000292024	
-0.00136021	0.00268042	0.0103627	
-7.13674e-05	0.00210137	-0.000467167	
-0.00124874	0.00201964	0.0122735	
0.000743819	0.00261905	-0.00559572	
0.000287922	0.000479093	-9.02428e-05	
-0.000326672	0.00271152	-0.000561213	
-2.65165e-05	0.0023938	-0.000428202	
0.000195835	0.0011722	-0.000274714	
6.17418e-05	0.00206719	-0.000359728	
-0.00524576	-0.0119745	-0.00362984	
-0.0265757	-0.111657	-0.118313	
-0.0031624	-0.00759596	-0.00200109	
0.00309693	0.00540418	0.00277493	
-0.00132471	-0.00298219	0.000284047	
0.00584256	0.0131697	0.010285	
-0.0104186	-0.0225957	-0.0106914	
0.0047977	0.00797531	0.0051109	
-0.00167849	-0.00712426	-0.00318834	
0.00109439	0.004369	0.00421138	
0.00106608	0.00281391	0.00385465	
-0.00488414	-0.00621715	-0.0119109	
0.00587183	0.00816304	0.00540032	
-0.000674084	-0.00229278	0.00055462	
0.00488156	0.00898351	0.00734758	
0.00571616	0.0074163	0.00477688	
5.88723e-05	-0.000518966	0.00166679	
-0.00361226	-0.0156178	-0.00936304	
-0.00154337	-0.00504554	-0.002682	
-9.62727e-05	-0.000568038	0.00196948	
5.25243e-05	0.000435871	-0.000485368	
0.000215526	-0.000345264	0.000772339	
0.000677672	-0.000172302	-0.000175709	
1.6174e-05	-0.000492202	0.00180008	
-4.45276e-05	0.000172402	-0.000401258	
0.0111689	0.0202139	0.0144091	
0.00560573	0.0073992	0.00442158	
0.0102428	0.014943	0.00845242	
0.0107186	0.0241229	0.0161304	
-0.00011359	-0.000456196	0.00186693	
-5.0093e-06	5.28252e-05	-0.000169378	
-0.000122199	-0.000515532	0.00222381	
0.00316907	0.00515966	0.00257501	
-4.88232e-06	0.000182696	-0.000517436	
7.7659e-05	-0.00054794	0.00198036	
2.28367e-05	-0.000488102	0.00162314	
-1.92525e-05	-0.000611829	0.00234743	
0.0227227	-0.0176358	0.0168395	
0.00264183	0.0185076	-0.0206196	
-0.00580755	0.0194009	-0.0110476	
0.00144547	-0.0027037	-0.000558934	
-0.00555639	0.017836	-0.00979002	
-0.0078848	0.023812	-0.0126091	
-0.00527143	0.0118517	-0.0108547	
-0.0049309	0.00835048	-0.00800716	
0.0016533	-0.00741405	0.00393712	
1.00765e-05	-0.00474979	0.00248025	
-0.000565171	0.00200865	-0.00147263	
-0.000727067	-0.00277567	0.00243017	
-0.00038497	-0.000820044	-0.00227324	
-0.015045	0.031596	-0.0247186	
-0.00980773	0.0239367	-0.0152946	
0.00100756	-0.00288708	-0.00114931	
0.000937739	-0.00386427	0.00180081	
0.000449834	-0.00375495	0.00184467	
9.17364e-05	-0.00319529	0.00148347	
-0.00167099	0.00661074	-0.00396263	
-0.000223294	0.00013588	0.000144833	
-8.76155e-05	-0.000168057	-0.000198739	
0.000138487	7.79324e-05	-0.000132531	
3.53619e-05	-0.000208018	-0.000297527	
-0.000132614	-0.00111758	-0.00119221	
0.0342338	-0.054447	0.0281834	
0.00255428	-0.0048081	-0.000296158	
-0.000756751	-0.000983438	-0.00285635	
-0.00439315	0.0150128	-0.00937235	
-0.000145665	-0.000587673	-0.000631921	
0.000152813	-0.0020049	-0.00229552	
6.7858e-05	-0.000407241	-0.000510814	
0.00844943	-0.00998837	0.00402666	
0.000143666	-0.00145581	-0.00166072	
-6.42837e-05	-0.000753944	-0.000802311	
-2.02829e-05	-0.000241617	-0.000296471	
5.00535e-05	-0.00025816	-0.000376403	
-0.00276124	0.00267443	0.00604305	
0.00262843	-0.00574542	-0.0259151	
-0.00378867	0.003145	0.0346953	
0.00574133	0.000592346	-0.0101785	
0.00729064	0.000951562	-0.012478	
0.0102096	0.00201063	-0.0224144	
0.00174314	0.0033336	-0.0073485	
0.0067737	0.001345	-0.0117541	
0.0049426	0.00312519	-0.0149017	
0.00734686	0.00163288	-0.0137988	
0.0128482	0.00151373	0.0463828	
0.00136455	-0.00180444	0.0060707	
0.0019629	0.0025143	0.0289049	
-0.000505531	0.00108182	0.00369933	
0.00407199	0.00295356	-0.0113156	
0.00129147	0.00335936	-0.00626092	
0.000599985	0.00335165	-0.00269622	
-0.000294333	0.00292014	-0.00071125	
0.00801713	0.0030288	0.0332071	
0.00295002	-0.00211704	0.0130293	
0.00323453	0.00258208	0.0337619	
4.75923e-05	-0.000126377	1.85619e-05	
0.00245364	-0.00128936	0.0130147	
-2.08666e-05	0.000155835	6.0247e-05	
-0.00159747	0.00202927	0.0250455	
8.39994e-06	0.000263652	-3.86085e-05	
-0.000560187	0.00353803	0.000446626	
0.000128611	0.0016522	-0.000285324	
-0.00220481	0.00321272	0.0105053	
-0.000144283	0.00207783	-0.000481297	
-0.00159945	0.00204112	0.0127567	
0.00137079	0.00335796	-0.00561106	
0.000281243	0.000484793	-8.88936e-05	
-6.8283e-05	0.00340935	-0.000615133	
0.000203549	0.00277508	-0.00043668	
0.000194936	0.00122719	-0.000283214	
0.000186214	0.0022719	-0.000345698	
-0.00547407	-0.0120897	-0.00354111	
-0.0271554	-0.114369	-0.124438	
-0.00280668	-0.00625181	-0.00141896	
0.00320262	0.00519136	0.0027828	
-0.00127011	-0.00288762	0.000346359	
0.00546126	0.0125094	0.00992935	
-0.00954253	-0.0222716	-0.0105798	
0.00453767	0.00829189	0.0056299	
-0.001793	-0.00736297	-0.00337353	
0.00103707	0.00430078	0.00425119	
0.00128933	0.00330905	0.0042914	
-0.0036691	-0.00709287	-0.01168	
0.0055366	0.00858592	0.0058997	
-0.00053264	-0.00191586	0.000494044	
0.00553613	0.00948144	0.00753145	
0.00542334	0.00783755	0.00519236	
0.000212971	-0.00013996	0.0019833	
-0.00381565	-0.0158196	-0.00959326	
-0.00152479	-0.00514825	-0.00267825	
-0.000270899	-0.00121427	0.00159574	
4.36289e-05	0.000468319	-0.000501908	
0.000226289	-0.000364157	0.00083847	
0.000699311	-0.000184259	-0.000148806	
3.73538e-05	-0.000500925	0.00179518	
-3.60072e-05	0.000130687	-0.000294719	
0.0116089	0.0200299	0.0143878	
0.005369	0.00774952	0.00471108	
0.0102396	0.0152381	0.00864545	
0.011736	0.023168	0.0155868	
-1.67469e-05	-0.000441544	0.00160934	
-2.55958e-06	3.67403e-05	-0.000118626	
1.7598e-05	-0.000512264	0.00196348	
0.00329031	0.00511914	0.00261456	
-5.88378e-06	0.000176936	-0.000502356	
8.19858e-05	-0.000473935	0.00156699	
4.97835e-05	-0.000519652	0.0017006	
8.23738e-05	-0.000615005	0.002226	
0.0225882	-0.018721	0.0175752	
0.00237559	0.0184288	-0.0192554	
-0.00673799	0.0197163	-0.0109619	
0.00145275	-0.00283962	-0.000162064	
-0.00560036	0.0182724	-0.00974448	
-0.00839555	0.0241892	-0.0125666	
-0.00473044	0.0123443	-0.0108564	
-0.00442687	0.00879939	-0.00824309	
0.0016196	-0.00699192	0.00414778	
2.82973e-05	-0.00439977	0.00267764	
-0.000582628	0.00227871	-0.00125253	
-0.00058299	-0.00229008	0.00271853	
-0.000394036	-0.000871224	-0.00229179	
-0.0146514	0.0335417	-0.0244639	
-0.0113286	0.0239061	-0.0153005	
0.00062561	-0.0027136	-0.00125515	
0.000956109	-0.00347498	0.00209183	
0.000475054	-0.00338717	0.00210643	
0.000188348	-0.00287326	0.00173165	
-0.00165672	0.00698098	-0.00383261	
2.83287e-05	-7.94597e-05	-8.69931e-05	
3.54103e-05	6.81621e-05	7.95242e-05	
-5.00129e-05	-3.19652e-05	6.38615e-05	
1.26092e-05	-8.12849e-05	-0.000115038	
-0.000189393	-0.00107506	-0.0011066	
0.0353891	-0.0541475	0.0272137	
0.00211333	-0.00498596	-0.000212525	
-0.000336555	-0.00141806	-0.00236905	
-0.00517974	0.0151772	-0.00930784	
-0.000102281	-0.000685805	-0.000774813	
2.32393e-05	-0.001997	-0.00223085	
0.000102625	-0.000428241	-0.000566063	
0.00753445	-0.0102633	0.00443229	
3.67327e-05	-0.0014212	-0.00157336	
-3.68555e-05	-0.000736187	-0.000842925	
4.3277e-06	4.7872e-05	5.83953e-05	
4.02985e-05	-0.000179218	-0.000266135	
-0.00284252	0.00243505	0.00600342	
0.00168101	-0.00530855	-0.0247103	
-0.00379507	0.00323821	0.0354594	
0.00600545	0.000731484	-0.0105119	
0.00739672	0.00123125	-0.0129074	
0.00984794	0.00247236	-0.0233774	
0.00239274	0.00318436	-0.0071335	
0.00668864	0.001703	-0.0123826	
0.00587746	0.00318795	-0.0146577	
0.00708371	0.00204361	-0.0145514	
0.0132408	0.00179729	0.0472035	
0.00138978	-0.00185202	0.00666825	
0.00207877	0.00267664	0.0293475	
-0.000513749	0.00221106	0.00411058	
0.00429346	0.00300342	-0.0113128	
0.00177888	0.00313025	-0.00607365	
0.000747222	0.00325411	-0.00301282	
-0.000233702	0.00311416	-0.000693736	
0.00829619	0.00313698	0.0338247	
0.00287449	-0.0019764	0.0132681	
0.00347556	0.00282978	0.0346354	
-3.59237e-05	-0.000106154	3.28351e-06	
0.00248248	-0.00120839	0.0135288	
7.86751e-07	0.000138214	4.88056e-05	
-0.00151516	0.00223422	0.0257368	
3.94366e-06	0.000130456	-1.85065e-05	
-0.000465683	0.00319073	0.000569261	
0.000134162	0.00178092	-0.000311275	
-0.00223891	0.00331964	0.0107451	
-0.000176582	0.00250852	-0.000565354	
-0.00160503	0.00223236	0.0132964	
0.00145982	0.00313812	-0.00565139	
0.000247787	0.000442435	-8.20705e-05	
-3.62682e-05	0.00311254	-0.000536258	
0.00022451	0.002987	-0.000457099	
0.000176642	0.00118899	-0.000277517	
0.000202325	0.00246553	-0.000373566	
-0.00571774	-0.0121557	-0.00351618	
-0.0273039	-0.117755	-0.12973	
-0.00238818	-0.00531868	-0.001187	
0.00329956	0.00507377	0.00288086	
-0.00120923	-0.00276267	0.000176053	
0.00528865	0.012251	0.00954482	
-0.0101508	-0.0212705	-0.0108456	
0.00490659	0.00834184	0.00547298	
-0.00184114	-0.00763869	-0.00371309	
0.00091724	0.00400242	0.00390446	
0.00135775	0.00361024	0.00429321	
-0.00127756	-0.00769262	-0.0113122	
0.00573967	0.00871573	0.00582052	
-0.000442444	-0.00151034	0.000360669	
0.00589333	0.0101088	0.00771729	
0.00546631	0.00802672	0.00522353	
0.000216329	-6.96535e-06	0.00180215	
-0.00370978	-0.0156759	-0.00974216	
-0.00147535	-0.00517913	-0.00271234	
-0.000311124	-0.00129671	0.00117842	
0.000433202	5.4486e-05	-7.91158e-05	
0.000198771	-0.000324971	0.000778889	
0.000455796	-0.00033927	0.000188041	
3.53227e-05	-0.000455537	0.00162311	
-3.20094e-05	0.000112388	-0.000249475	
0.0117005	0.020214	0.0142386	
0.00535026	0.00790356	0.00484554	
0.0101459	0.0154444	0.00894738	
0.0115426	0.0227774	0.0152647	
1.93594e-06	-0.000377001	0.00134147	
-2.68469e-07	2.39743e-06	-8.11493e-06	
2.89139e-05	-0.000455049	0.00169999	
0.00336457	0.00504638	0.00283089	
-4.14048e-06	9.60354e-05	-0.000272475	
8.14669e-05	-0.000401309	0.00126339	
4.9012e-05	-0.0004861	0.00160082	
7.46065e-05	-0.000516914	0.00185592	
0.0222795	-0.0193482	0.0184569	
0.0024383	0.0186119	-0.0191658	
-0.00682662	0.0199869	-0.0110049	
0.00158027	-0.00297482	0.000263454	
-0.00565219	0.0183373	-0.00990155	
-0.00847293	0.0243494	-0.0127361	
-0.00547782	0.0126667	-0.0104303	
-0.00496384	0.00897869	-0.00793976	
0.00160827	-0.00702867	0.00403799	
3.78403e-05	-0.00446023	0.00260614	
-0.000596526	0.00228479	-0.00134355	
-0.000570663	-0.00226714	0.00276114	
-0.000360611	-0.000653321	-0.0020776	
-0.0161374	0.0345254	-0.0240798	
-0.0114628	0.0244765	-0.0151652	
0.000607296	-0.00241758	-0.00114804	
0.00093173	-0.00350811	0.00196371	
0.000467387	-0.00346815	0.00200946	
0.000166057	-0.00294027	0.00165124	
-0.00168392	0.00695285	-0.00392105	
1.45009e-06	5.57059e-06	6.42607e-06	
-3.56274e-06	-7.08368e-06	-8.26077e-06	
4.12584e-06	2.72411e-06	-4.71956e-06	
1.25862e-05	-8.66252e-05	-0.000121267	
-0.000166407	-0.000798672	-0.000814843	
0.0353042	-0.0535454	0.0271514	
0.00206543	-0.00472836	0.000128296	
-5.68923e-05	-0.00152265	-0.0017981	
-0.00524713	0.0154261	-0.00923729	
-6.16247e-05	-0.000468787	-0.000536836	
7.87745e-06	-0.00163875	-0.00185271	
6.39837e-05	-0.00028482	-0.000376394	
0.00697702	-0.0103212	0.00474154	
-6.27976e-06	-0.00125993	-0.00139745	
-1.8232e-05	-0.000669666	-0.000797995	
-2.87252e-06	-3.38145e-05	-4.11999e-05	
2.96817e-05	-0.00014191	-0.000208085	
-0.00264113	0.00276454	0.00554324	
0.000912116	-0.00564964	-0.0239942	
-0.00344399	0.00201184	0.0363285	
0.00608396	0.0011549	-0.0107854	
0.00736233	0.00145238	-0.0132535	
0.0105693	0.00175982	-0.0233958	
0.00257831	0.00268893	-0.00741535	
0.00659733	0.00175701	-0.0125446	
0.00601403	0.00261724	-0.0147426	
0.00705217	0.00167167	-0.0146393	
0.0137551	0.0016722	0.047525	
0.00143441	-0.00190581	0.00695998	
0.00236327	0.00196336	0.0300372	
-0.000336571	0.00259506	0.00428995	
0.00473732	0.0024338	-0.0113317	
0.0019169	0.00279168	-0.00641087	
0.000490941	0.00255967	-0.001787	
-9.94243e-05	0.00217497	-0.000430605	
0.00860682	0.00275273	0.0342079	
0.00293977	-0.00196782	0.0133717	
0.00390865	0.00212209	0.0352824	
-4.1228e-05	-3.30215e-05	6.20778e-07	
0.00259446	-0.00127477	0.013826	
3.0797e-06	6.27257e-05	1.94113e-05	
-0.00115068	0.00137169	0.02633	
1.92374e-05	0.000606016	-8.42531e-05	
-0.000497509	0.00311168	0.000719679	
6.13295e-05	0.000926065	-0.000165272	
-0.0021672	0.00209533	0.0113697	
-9.54315e-05	0.00169085	-0.000357578	
-0.00149738	0.00123361	0.0139024	
0.00137388	0.00277256	-0.00540103	
0.000106584	0.000203894	-3.86483e-05	
-4.14415e-05	0.00294488	-0.000502099	
0.000113997	0.00173375	-0.000266423	
6.79937e-05	0.000518894	-0.000121733	
9.68346e-05	0.00134706	-0.000207321	
-0.00577099	-0.0121809	-0.00318018	
-0.0291524	-0.121056	-0.131483	
-0.0022712	-0.00506034	-0.00135628	
0.00341878	0.00500185	0.00326472	
-0.00120166	-0.00279145	-0.000202878	
0.00519955	0.0121954	0.00928469	
-0.0100746	-0.0212938	-0.0104731	
0.00499206	0.00825358	0.00604795	
-0.00187861	-0.00779196	-0.00422573	
0.000849947	0.00382752	0.00352891	
0.00131365	0.00362288	0.00393187	
-0.00132734	-0.00757411	-0.0115151	
0.00587444	0.00855186	0.00645267	
-0.000346931	-0.00137942	0.000585337	
0.0059715	0.010306	0.007945	
0.00560451	0.00779199	0.00594207	
0.000108898	-0.000133083	0.00119667	
-0.00360692	-0.0155626	-0.0100291	
-0.00150351	-0.0051266	-0.0029399	
-0.000257957	-0.0010544	0.000787202	
0.000297755	2.86854e-05	-4.15313e-05	
0.000136245	-0.00021862	0.000547299	
0.000182474	-0.000195582	0.000268215	
3.23127e-05	-0.000390824	0.00137995	
2.18165e-06	-7.44617e-06	1.65987e-05	
0.0117417	0.0204079	0.0142917	
0.00550544	0.00773681	0.0057481	
0.0102705	0.0154514	0.00988702	
0.0114626	0.0227758	0.0153738	
8.23987e-06	-0.000388934	0.00137152	
2.41951e-05	-0.000253285	0.000775144	
2.92262e-05	-0.000396963	0.00146808	
0.00342634	0.00497038	0.00337794	
8.18412e-06	-0.000138068	0.000386508	
8.4109e-05	-0.000408231	0.00127865	
4.07338e-05	-0.000384957	0.00126921	
6.12356e-05	-0.000419666	0.00149456	
0.022122	-0.02058	0.0189412	
0.00211856	0.0188433	-0.0185434	
-0.00691899	0.0201726	-0.0111019	
0.00158047	-0.00313109	0.000272081	
-0.0057049	0.0184565	-0.0100119	
-0.00856669	0.0244801	-0.0128899	
-0.0056857	0.0131933	-0.00998453	
-0.00512714	0.00948876	-0.00749298	
0.00159268	-0.00691832	0.00402765	
3.74652e-05	-0.00438375	0.00262669	
-0.000610466	0.00234991	-0.00135125	
-0.000322491	-0.00213252	0.00285375	
-0.000422379	-0.000161232	-0.00166431	
-0.0164909	0.0355778	-0.0238494	
-0.0115231	0.0248132	-0.0151722	
0.000674623	-0.00201579	-0.000819193	
0.000920893	-0.00341586	0.00196424	
0.000474834	-0.0034056	0.00202367	
0.000186523	-0.00288304	0.00167161	
-0.00170133	0.00703051	-0.00394916	
-2.06704e-05	-1.47874e-05	-2.11469e-05	
8.5859e-06	1.75763e-05	2.03632e-05	
-1.26974e-05	-8.30416e-06	1.85129e-05	
9.53494e-06	-7.10527e-05	-9.82582e-05	
-0.000213255	-0.000995194	-0.00103403	
0.0350807	-0.0532027	0.0275059	
0.00222368	-0.00421702	0.000434315	
3.1716e-06	-0.00130423	-0.00148108	
-0.00529186	0.0155279	-0.00921308	
-4.14316e-05	-0.000355052	-0.00040976	
3.3534e-05	-0.00123795	-0.00145306	
4.56617e-05	-0.000223539	-0.00029367	
0.0068189	-0.0104218	0.00474816	
-4.4674e-06	-0.00126156	-0.00142843	
-5.98613e-06	-0.000436669	-0.000525764	
-5.35839e-07	-6.50149e-06	-7.88878e-06	
2.35033e-05	-0.00012016	-0.000173811	
-0.002701	0.00239592	0.00554912	
0.000316788	-0.00584876	-0.0233896	
-0.00314146	0.00118361	0.036774	
0.0062041	0.000639718	-0.0108879	
0.00731782	0.000955075	-0.0131342	
0.0107054	0.00121412	-0.0236377	
0.00246422	0.0018395	-0.00697457	
0.00675112	0.000833828	-0.0125585	
0.0061053	0.00197458	-0.0149704	
0.00724588	0.00103494	-0.014636	
0.0139592	0.00180703	0.0477984	
0.00142293	-0.00178866	0.00716496	
0.00254488	0.00160722	0.0303824	
0.000433463	0.00261974	0.00453259	
0.00485072	0.00168447	-0.0114395	
0.00177376	0.00158795	-0.00583796	
0.000545538	0.000992196	-0.0013256	
-6.13853e-05	0.00143617	-0.000275754	
0.00874791	0.00270916	0.0344355	
0.00291947	-0.0017911	0.013476	
0.00415751	0.00189797	0.0355756	
-4.81702e-05	-5.54798e-06	8.94139e-07	
0.00266038	-0.00116151	0.0140083	
4.81688e-06	5.60318e-05	1.47824e-05	
-0.0009196	0.000926693	0.0264911	
5.01811e-06	0.000152532	-2.07952e-05	
-0.000509122	0.00133787	0.00131715	
2.98106e-05	0.000514098	-9.29377e-05	
-0.00203202	0.000949654	0.0116797	
-4.41118e-05	0.0010493	-0.000205431	
-0.00140326	0.000681419	0.0141326	
0.00135115	0.00101841	-0.00499584	
7.11585e-05	0.000146217	-2.77808e-05	
-1.99315e-05	0.0011077	-0.000187646	
4.43431e-05	0.000788978	-0.000122098	
3.9006e-05	0.000332155	-7.73465e-05	
3.88248e-05	0.000621214	-9.66355e-05	
-0.00611692	-0.0122509	-0.0037448	
-0.0296106	-0.123651	-0.132829	
-0.00155183	-0.0034235	-0.000972155	
0.00331116	0.00517708	0.00252046	
-0.00106547	-0.00248055	-0.000681108	
0.00473335	0.0113183	0.00804705	
-0.00989348	-0.020055	-0.0116182	
0.00490918	0.00882816	0.00465131	
-0.00192259	-0.00778355	-0.00463523	
0.000901672	0.00413536	0.00358151	
0.00157005	0.00465493	0.00394927	
-0.00133578	-0.00765785	-0.0118723	
0.00588987	0.00915727	0.00499543	
-0.000273538	-0.000722119	-6.94408e-05	
0.00630752	0.0112444	0.00737587	
0.00566726	0.00842601	0.00441891	
0.000394048	0.000849611	0.00168423	
-0.0036435	-0.0160057	-0.0104282	
-0.00156014	-0.00521302	-0.00312316	
-0.000611331	-0.00218634	-0.000129332	
0.000226675	1.70646e-05	-2.72219e-05	
9.38378e-05	-0.000152706	0.000390074	
0.000142648	-0.000161309	0.0002344	
1.52254e-05	-0.000191506	0.000671972	
-6.07474e-05	0.000211661	-0.000471515	
0.0116728	0.0205621	0.0136632	
0.00547015	0.00830029	0.00405521	
0.0101958	0.0159421	0.00847273	
0.0109373	0.0221789	0.0138965	
6.13756e-06	-0.000158617	0.000553082	
-3.20713e-05	0.00026986	-0.000803779	
2.22754e-05	-0.000268074	0.000977873	
0.0033732	0.00531311	0.00238776	
-2.26851e-05	0.000302641	-0.000840736	
3.92025e-05	-0.000190391	0.000593076	
1.83258e-05	-0.000179496	0.000593918	
5.08445e-05	-0.000356542	0.00125482	
0.0218953	-0.0199617	0.0198137	
0.00171839	0.0190123	-0.0182259	
-0.0069794	0.0202832	-0.0110644	
0.00190908	-0.00281564	0.00111008	
-0.00571421	0.0184539	-0.0100487	
-0.00861304	0.0245483	-0.0129678	
-0.00579208	0.0134989	-0.00973119	
-0.00528075	0.00995371	-0.0072671	
0.00157642	-0.00687647	0.00399062	
5.50705e-05	-0.00436746	0.00261166	
-0.000619711	0.00238237	-0.00137106	
-0.000135592	-0.00206672	0.00289859	
-0.000339096	-0.000123837	-0.00133152	
-0.0167069	0.0363661	-0.0237085	
-0.0116158	0.0251743	-0.0150932	
0.000407825	-0.00124701	-0.000549666	
0.000906898	-0.00337884	0.00193066	
0.000477212	-0.00339951	0.00200173	
0.000193341	-0.00287541	0.00165796	
-0.00171538	0.00706082	-0.00398761	
-1.19336e-05	-2.41854e-06	-4.97126e-06	
2.97577e-06	6.29627e-06	7.26469e-06	
-4.50295e-06	-2.69895e-06	7.80011e-06	
4.2844e-06	-3.4874e-05	-4.75558e-05	
-2.78504e-05	-0.000136145	-0.000146589	
0.0348367	-0.0528615	0.0278285	
0.00219408	-0.00406425	0.000532858	
0.00056763	-0.00164107	-0.000636811	
-0.00534686	0.0156997	-0.00911004	
-2.17897e-05	-0.000218792	-0.000254489	
6.12846e-05	-0.00109515	-0.00134687	
2.09838e-05	-0.000112953	-0.000147392	
0.00671302	-0.00968991	0.00514076	
3.68123e-06	-0.000354506	-0.000414045	
-5.24557e-07	-0.000307335	-0.000372892	
-1.07006e-06	-1.34266e-05	-1.62684e-05	
1.06878e-05	-5.88445e-05	-8.38304e-05	
-0.00272504	0.00225065	0.00555633	
-8.44498e-05	-0.0056093	-0.0231589	
-0.00310289	0.00114647	0.0370241	
0.00624142	0.000492532	-0.0110588	
0.00742639	0.000812291	-0.0133599	
0.0107859	0.00161566	-0.024156	
0.00230607	0.00149619	-0.00656906	
0.00683677	0.00119086	-0.012811	
0.00591238	0.00168074	-0.0146469	
0.00731155	0.00136849	-0.0149113	
0.014135	0.0020935	0.0479797	
0.00146692	-0.00163619	0.00751256	
0.00269353	0.00164422	0.0305661	
0.00139548	0.00247842	0.0050177	
0.0048673	0.00199565	-0.0117153	
0.00166828	0.00124992	-0.00556183	
0.00052019	0.000923623	-0.00119898	
-7.30359e-05	0.00178795	-0.000336669	
0.00888013	0.00278911	0.0346459	
0.0029503	-0.00152245	0.0136535	
0.00434663	0.00196042	0.0358618	
-3.38711e-05	1.52935e-05	-3.46176e-06	
0.00274316	-0.000925026	0.0141952	
8.29184e-06	6.02932e-05	1.31693e-05	
-0.000823681	0.00098185	0.0266752	
1.50212e-06	4.67944e-05	-6.28828e-06	
-0.000526822	0.00109924	0.00149494	
2.43991e-05	0.000488741	-8.90277e-05	
-0.0020157	0.000893339	0.0117894	
-5.12884e-05	0.00134826	-0.000255932	
-0.00137433	0.000718224	0.0142013	
0.00131441	0.000938511	-0.00494889	
8.12842e-05	0.000180437	-3.45712e-05	
-1.82588e-05	0.000973974	-0.000163038	
3.79854e-05	0.000751508	-0.000116096	
3.4337e-05	0.000335522	-7.73043e-05	
3.39545e-05	0.000612431	-9.5663e-05	
-0.00596414	-0.0123404	-0.00305813	
-0.0294093	-0.126868	-0.135074	
-0.00158322	-0.00358353	-0.000580457	
0.00340976	0.00499455	0.00339112	
-0.00110937	-0.00258204	-7.74142e-05	
0.00474281	0.0112272	0.00873632	
-0.00976625	-0.0207153	-0.00992278	
0.00512055	0.00832996	0.0066312	
-0.00201417	-0.00823423	-0.00441677	
0.000802731	0.00375389	0.00351669	
0.00163868	0.00460791	0.00467543	
-0.0013706	-0.00768973	-0.0116125	
0.00602819	0.00872168	0.00698242	
-0.000101739	-0.000967436	0.00107902	
0.00625197	0.0109691	0.00836875	
0.00577516	0.0080165	0.00636517	
0.000399513	0.00072571	0.00194349	
-0.00366208	-0.0159055	-0.0101516	
-0.0015809	-0.00531961	-0.00302544	
-0.000666043	-0.00241968	6.8746e-05	
0.000288597	-9.72793e-05	0.000115123	
0.000146002	-0.000239985	0.000628848	
0.000178066	-0.000201256	0.000313093	
3.72557e-05	-0.0003977	0.00137843	
1.77216e-05	-6.36019e-05	0.000143166	
0.0116385	0.020419	0.0143165	
0.00554527	0.00780805	0.00591427	
0.0103597	0.0155724	0.0102751	
0.0110324	0.0220592	0.015108	
2.51859e-05	-0.000415514	0.00142672	
3.84719e-05	-0.000317383	0.000932081	