<VTKFile type="UnstructuredGrid" version="0.1" byte_order="LittleEndian">
	<UnstructuredGrid>
		<Piece NumberOfPoints="10656" NumberOfCells="10656">
			<CellData Scalars="scalars">
				<DataArray type="Float64" Name="Strength" NumberOfComponents="3" Format="ascii">
-0.00789832	-0.0151943	0.0133697	
0.00194205	-0.0156321	-0.0268465	
-0.00315792	0.072864	-0.00416515	
0.00502245	-0.00685685	-0.00687065	
0.00598875	0.000263533	-0.0111328	
0.00868369	0.0544592	-0.0344727	
-0.000553015	0.0857803	-0.0334936	
0.000830994	0.0164831	-0.0181998	
0.00247337	0.0840739	-0.0353861	
0.00144252	0.0296726	-0.0261005	
0.00190791	0.0152167	0.0430118	
0.00497379	-0.00208316	-0.00203057	
-0.00570846	0.0428145	0.00814009	
0.0011443	-0.00238706	0.00046357	
-0.000831415	0.071466	-0.0357449	
0.000115502	0.0872299	-0.0238204	
0.0121519	0.0956076	-0.00116577	
-0.0105605	0.0602369	-0.0344625	
0.00185148	0.0177965	0.0262086	
0.00697965	-0.0108949	0.0065821	
-0.00649244	0.0371004	0.015633	
-0.00194469	0.00269683	-0.00123336	
0.00424409	-0.00533083	0.00938643	
-0.000177644	0.00079331	-0.00245359	
-0.00569692	0.0508685	0.000461401	
-0.000862341	-0.0126934	0.00325537	
-0.0026742	0.0883129	-0.021674	
0.0115472	0.0392125	0.0151056	
0.00613226	0.087778	-0.00370749	
-0.0104868	0.0426895	-0.0256195	
0.0046665	0.0537633	0.0105322	
0.00512574	0.0915061	-0.00762806	
-9.71041e-05	0.000646891	9.38759e-05	
1.69972e-05	0.0876791	-0.0142624	
0.00204946	0.0779589	0.0202657	
0.0185453	0.00802457	0.00907651	
0.0098574	0.0561505	0.0232263	
-0.0121764	-0.00595155	-0.0250257	
0.00139575	-0.112273	-0.0866556	
-0.00752185	0.0121995	0.0503058	
0.000848761	0.0119076	-0.0135648	
0.00730643	-0.00793997	0.0547238	
0.00697144	-0.0275937	0.0624322	
-0.0177198	-0.0253736	0.0525658	
0.0157699	-0.0128775	0.0526053	
0.0111951	-0.0201672	0.0348479	
0.0125351	0.000929085	0.0160035	
0.00155676	-0.0140369	0.0565363	
-0.0170251	-0.0133275	-0.0150588	
0.00852414	-0.00362558	0.0488744	
0.0017036	-0.0108933	0.0262935	
0.00213306	0.00524696	0.0552242	
0.00439009	0.00223701	0.0406504	
0.0152847	-0.0200995	0.0447337	
0.0242261	-0.0118128	0.0212685	
-0.0058932	-0.0150006	0.0118507	
0.00646655	-0.0206553	0.0541373	
0.0248141	0.0042141	0.0111413	
-0.0110618	-0.0230383	0.00479547	
-0.00634517	0.00410637	0.0184358	
-2.48578e-05	-0.0100298	0.0591017	
-0.00531716	0.00845592	-0.0202227	
0.020316	0.00773084	0.0391409	
0.00372573	0.00424077	0.0317384	
0.00911351	0.0131417	0.0165843	
0.020322	-0.0197264	0.0733144	
-0.00676535	0.00301283	0.0405503	
-0.00220681	-0.000839875	0.0190919	
-0.00250877	0.00416906	0.0448501	
0.00331608	0.00881192	-0.0105017	
0.000664275	0.000870793	-0.00479956	
0.000818022	-0.00507094	0.0248097	
0.00644732	-0.0238066	0.0512452	
-0.00273467	-0.00639081	0.0522663	
0.0138018	-0.0586304	-0.00660109	
-0.000713953	0.0105609	-0.0353966	
-0.00816184	0.000106015	-0.0320213	
-0.0117269	-0.0388608	-0.0179046	
-0.00916219	0.0142795	-0.0108803	
-0.0145273	0.010473	-0.0231193	
0.00494338	-0.0106876	-0.052687	
0.00788143	-0.0185913	-0.0552168	
0.0024399	-0.00955158	0.00190198	
0.00221521	-0.0070438	0.00128217	
5.76714e-05	0.00052738	-0.00356379	
0.00216121	-0.0059485	0.00410777	
0.00913901	-0.030938	-0.0619556	
-0.0182033	-0.00946874	-0.0473344	
-0.0258452	-0.0312259	-0.0337595	
0.00713675	-0.0430977	-0.0577774	
0.000975293	-0.00490518	0.000937734	
0.000438588	-0.00605353	-0.00031284	
8.63443e-05	-0.00531601	-0.00177236	
-0.0020349	0.00500883	-0.00482865	
0.000916729	-0.000134409	0.0038228	
-0.00215584	-0.00214367	-0.000611798	
0.00154017	-0.00030688	-0.00235954	
0.00523356	-0.00226007	-0.00938649	
-0.0212673	-0.0439308	-0.0134176	
0.0553252	-0.0597602	-0.034463	
0.0084119	-0.0471669	-0.0536771	
-0.00413256	-0.0496156	-0.0494687	
-0.00394002	-0.00287899	-0.034901	
-0.0128094	-0.049859	-0.030549	
0.00281683	-0.0463177	-0.0512803	
0.00824498	-0.00660341	-0.0412338	
0.00589914	-0.0497767	-0.0328976	
-0.00292001	-0.0599634	-0.0516334	
0.000866923	-0.0115821	-0.0136972	
1.21951e-06	6.81753e-06	9.03971e-06	
0.00987463	-0.000142996	-0.0202351	
-0.00218937	0.00309799	0.00644907	
-0.000533634	-0.0245257	-0.0171807	
-0.0211969	-0.00149847	0.0266062	
0.00459617	-0.000192586	-0.0106069	
0.00649713	0.00112811	-0.0129162	
0.019445	0.0117203	-0.0125797	
0.00528453	0.0129138	-0.00325936	
0.00654114	0.00367594	-0.0122341	
0.012407	0.0155145	-0.00401811	
0.00933879	0.00579003	-0.0130695	
0.0170762	0.00603803	0.043088	
0.0016721	-0.00356564	0.0032771	
-0.00112457	0.00027677	0.0280488	
-0.000282442	0.00199901	0.00106265	
0.00902072	0.012907	-0.00615842	
0.00475311	0.012698	-0.00167923	
0.00177921	0.0110972	0.00193643	
-0.00157945	0.00846052	-0.0060959	
0.0097985	0.00560973	0.0312963	
0.00478575	-0.00676999	0.0102394	
0.00230202	0.00265325	0.0325964	
-8.02692e-06	0.000170248	-0.000173088	
0.00478985	-0.00361397	0.0105869	
-8.56224e-05	0.000311177	-0.000266939	
-0.00784198	0.000199797	0.0230963	
2.91828e-06	0.000189931	-5.7659e-05	
-0.00172485	0.0108388	-0.00138094	
0.00375141	0.00406131	0.000938425	
-0.00938367	0.00539998	0.00701465	
-0.0019605	0.00629329	-0.0049757	
-0.00397423	0.00218427	0.012197	
0.00387934	0.0110384	0.000891038	
-0.000310492	-0.00133174	0.000104862	
-0.000663593	0.0101904	-7.28452e-05	
0.00256198	0.00696909	0.00460338	
0.00261609	0.000479701	-0.000780594	
0.00334039	0.00557984	0.00301026	
-0.00326838	-0.0123934	-0.00482132	
0.0192318	-0.0636768	-0.14483	
-0.00975877	-0.00455586	0.0028028	
0.00165602	0.00652145	0.0017813	
-0.00328898	-0.00410916	0.00404409	
0.0125949	0.00545056	0.0159758	
-0.0243719	-0.0142992	0.000165314	
0.0100588	0.0028674	0.00550805	
-0.000303555	-0.00818425	-0.000125425	
-0.00105841	0.00050492	0.00690284	
0.00125153	-0.00101111	0.0076673	
-0.000621466	-0.00437738	-0.0124523	
0.00974082	0.00370612	0.00664386	
-0.00127993	-0.00302187	0.0042634	
0.00834094	0.00524644	0.00978421	
0.00821175	0.00478316	0.00592689	
0.000688127	-0.00294188	0.00479366	
-0.0046926	-0.0150466	-0.00811113	
0.000230247	-0.00591641	-0.000284503	
-8.40719e-05	-0.00240333	0.00652842	
-0.00202719	0.00112147	-0.000771429	
0.00136365	-0.00175622	0.00201455	
-0.000194911	0.00227081	0.000655069	
-0.000830173	-0.00263804	0.00566077	
-0.000367329	0.000546646	-0.00131451	
0.0192796	0.0152693	0.0159746	
0.00745757	0.00597187	0.00485288	
0.0112779	0.0153033	0.00658879	
0.026025	0.0123787	0.0174613	
-0.0015515	0.000795756	0.0056778	
-0.000146469	3.87483e-05	0.00078675	
-0.00101543	0.000766105	0.00681399	
0.00239992	0.00598688	0.00142215	
0.00019336	0.000109494	-0.000929658	
-8.21209e-05	-0.000766631	0.00608301	
2.32293e-05	-0.00285806	0.00537176	
-0.000739493	-0.00196988	0.00718944	
0.0283256	-0.0176866	0.00435965	
0.00121382	0.00198591	-0.0256784	
-0.011211	0.0198522	-0.00437934	
-4.42827e-05	-0.00627925	-0.00215474	
-0.00515585	0.0203811	-0.00475927	
-0.00950364	0.0263988	-0.00440362	
-0.0108955	0.00342452	-0.0136865	
-0.0085937	0.00124888	-0.0102305	
0.00122891	-0.0063484	0.00519538	
0.000358363	-0.00356128	0.0035037	
-0.000692772	0.00268002	-3.15655e-05	
0.00203956	0.000236903	0.00299923	
0.000376581	-0.00237898	-0.00791387	
-0.0328641	0.00880463	-0.0247473	
-0.0218175	0.0185429	-0.00906603	
0.00255393	-0.00501193	-0.00785813	
0.00103388	-0.0029773	0.00301339	
0.000770253	-0.00253736	0.00291902	
0.000495747	-0.00244309	0.00218934	
-0.00127429	0.00812414	-0.00218661	
0.000478147	-0.00105487	0.000686053	
0.000928939	0.000371135	0.000374795	
0.000299153	0.000570035	0.000505153	
-0.000247751	8.66675e-05	0.000388434	
-0.00238803	-0.00482157	-0.000464394	
0.0566195	-0.0441661	-0.00469702	
0.00490121	-0.00640941	-0.00742968	
-0.00212382	-0.00637416	-0.00647729	
-0.00981923	0.0145357	-0.005302	
-0.00102411	-0.0020567	-0.00179936	
0.000441265	-0.00653042	-0.00718417	
0.000773765	-7.7607e-05	-0.00135559	
0.0123777	-0.0096443	-0.00485729	
-0.000130797	-0.00559765	-0.00446268	
-6.11693e-05	-0.00313016	-0.00284066	
0.000104877	0.000731042	0.00103274	
9.81535e-05	-1.14863e-06	-0.000145577	
-0.0024137	0.00340962	0.00614828	
0.000588713	-0.0261065	-0.0107881	
-0.00371594	-0.00462148	0.0341159	
0.00538389	-0.00100891	-0.0103227	
0.00751411	-0.000687232	-0.0121996	
0.0175253	0.000457048	-0.016495	
0.00341649	0.00302792	-0.0063326	
0.00772405	0.000218681	-0.0109623	
0.00977798	0.00292494	-0.0119205	
0.0100088	0.000281736	-0.0117905	
0.0126409	0.00950914	0.0448271	
0.00193588	-0.00335757	0.00441044	
0.00146371	0.00267137	0.0286911	
-0.000150561	0.00290774	0.000718503	
0.00773714	0.00209562	-0.00898126	
0.00259456	0.00306779	-0.0055833	
0.000643238	0.00330115	-0.00239466	
-0.000650628	0.00222886	-0.00165185	
0.00813439	0.00826189	0.0318814	
0.00550707	-0.00736241	0.00971543	
0.00271052	0.0041066	0.0333955	
-0.000114089	-3.34034e-05	0.000162326	
0.0063286	-0.00386008	0.0105073	
-8.2456e-05	4.67768e-05	-0.000133653	
-0.00278547	7.72549e-05	0.0245815	
-2.53898e-06	6.86959e-05	-2.3841e-05	
-0.000846927	0.00286894	0.00062685	
0.00119363	0.00124339	-0.000155391	
-0.00145781	0.000335083	0.0107966	
-0.000619396	0.00156493	-0.00139076	
-0.00100567	0.000128446	0.0125758	
0.0010911	0.00365274	-0.00499672	
2.66097e-05	-0.000571155	-1.42367e-05	
-0.00023214	0.00280644	-0.000208859	
0.0009939	0.00224141	0.000210542	
0.00114684	0.000250325	-0.000375398	
0.00114282	0.00178647	0.000116339	
-0.00351226	-0.0128402	-0.00354733	
-0.0457742	-0.0548488	-0.150251	
-0.00374077	-0.00769149	-0.000741701	
0.00216839	0.00600529	0.00268288	
-0.00167123	-0.00283669	0.000433628	
0.0070242	0.0139388	0.00880792	
-0.0148722	-0.0220355	-0.00689105	
0.00645603	0.00778047	0.0037273	
-0.00197338	-0.00685551	-0.0037808	
0.00260844	-0.00092878	0.00557083	
0.00132826	0.00287679	0.0037894	
-0.00108219	-0.00836913	-0.0117162	
0.00702817	0.00804612	0.00449783	
-0.000795665	-0.00220672	0.000816221	
0.00441944	0.0105103	0.00569783	
0.00654599	0.00754588	0.00377555	
0.000275264	-0.000678777	0.0016012	
-0.00470975	-0.0152976	-0.0097834	
-0.00185375	-0.00499126	-0.00272307	
-0.000124643	-0.000521047	0.00199848	
-0.000407637	0.000483124	-0.000195001	
0.000448313	-0.00047989	0.000586052	
-0.000585026	0.000409573	0.00015009	
-0.000172737	-0.000275222	0.00185465	
-0.000113905	0.000164601	-0.000397166	
0.0112486	0.0220048	0.0122013	
0.00638513	0.00765536	0.00312043	
0.0108127	0.0161991	0.00579062	
0.0103923	0.0274655	0.0109168	
-0.000629104	7.86937e-05	0.00183485	
3.90669e-05	-1.93581e-05	-0.00017456	
-0.000589235	0.000212821	0.00221875	
0.00260865	0.00572369	0.00226905	
0.000136625	3.65112e-05	-0.000537831	
-7.12226e-05	-0.000302455	0.00205058	
6.3743e-05	-0.000537664	0.00162096	
-0.000314612	-0.000166082	0.00242211	
0.0295523	-0.0147278	0.00779668	
0.00679629	0.0029075	-0.0272572	
-0.00594229	0.022323	-0.00384256	
0.00139458	-0.00283001	-0.000269053	
-0.00599956	0.019734	-0.00569069	
-0.0079007	0.0270174	-0.00441495	
-0.00814087	0.0115498	-0.00978019	
-0.00721621	0.00848184	-0.0062781	
0.00183291	-0.0075543	0.00382911	
0.000603444	-0.00475773	0.00253098	
-0.000542067	0.00227708	-0.00111092	
-0.00155113	0.000231395	0.00363928	
-0.000235489	-6.07902e-05	-0.00247399	
-0.0230469	0.0286136	-0.0233518	
-0.00979396	0.0252991	-0.0139362	
0.00144642	-0.00232583	-0.00186796	
0.000940805	-0.0039705	0.0017011	
0.000725222	-0.0037741	0.00183767	
0.000388832	-0.00340939	0.000969992	
-0.00189871	0.00712108	-0.00309991	
0.000315882	-0.000142785	0.000159081	
-0.000227827	-0.000134554	-8.68885e-05	
0.00015594	-3.06454e-05	-0.000139232	
0.000194877	-6.307e-05	-0.000307495	
-0.000804981	-0.00145999	3.63701e-05	
0.0347243	-0.0586872	0.020766	
0.00371958	-0.0039057	-0.00125558	
-0.00129561	-0.00160137	-0.00240625	
-0.00491252	0.0171631	-0.00489652	
-0.00038047	-0.000594846	-0.000537897	
0.000113253	-0.00208425	-0.0022908	
0.000380565	-0.000170333	-0.000518192	
0.0120054	-0.00695883	0.00115038	
-1.36756e-05	-0.00180301	-0.00134215	
-0.00010092	-0.000772552	-0.000802751	
-3.33228e-05	-0.000222366	-0.000316135	
0.000267098	-3.00399e-05	-0.000379485	
-0.00266734	0.00371558	0.0056627	
0.00345641	-0.0262463	-0.0043263	
-0.00669212	0.000567313	0.0347302	
0.00566937	-0.00104375	-0.0103666	
0.00735874	-0.00111694	-0.0126505	
0.0125039	-0.0033406	-0.0213965	
0.00157427	0.00206639	-0.00792541	
0.00703169	-0.000863053	-0.011855	
0.0052926	0.000357195	-0.0152848	
0.00842069	-0.00145113	-0.0134311	
0.0135424	0.00802845	0.0458251	
0.00295814	-0.0029222	0.00501761	
0.00162935	0.00256181	0.029155	
0.00138869	0.00372364	-0.000309793	
0.00418932	0.000486208	-0.0117842	
0.00143052	0.0025549	-0.00668171	
0.00093025	0.00343094	-0.00257343	
-0.000949047	0.00233727	-0.00173175	
0.00823203	0.00779896	0.0326153	
0.00534213	-0.00690332	0.0104088	
0.00302928	0.00404554	0.0338957	
7.31241e-05	-0.000114043	-9.26467e-05	
0.00623386	-0.0045318	0.0109273	
-5.99871e-06	0.000112773	-0.000129491	
-0.00217834	0.000791038	0.0252874	
-1.63015e-05	0.000251389	-9.83867e-05	
-0.000874467	0.00355265	-4.57148e-05	
0.0011346	0.00125071	-0.000199192	
-0.00278094	0.00285207	0.0105959	
-0.000770764	0.00151958	-0.00133891	
-0.00148071	0.000995778	0.013014	
0.00164792	0.00339196	-0.00559445	
-6.61723e-07	-0.000573069	-1.55014e-05	
-0.00019888	0.00338039	-0.000918822	
0.00125763	0.00255733	-1.06185e-05	
0.00119556	0.000274795	-0.000390625	
0.00131236	0.001928	3.70246e-05	
-0.00450575	-0.0128724	-0.0029266	
-0.0156878	-0.0545263	-0.163155	
-0.0037537	-0.00601445	-0.000365946	
0.00265174	0.00571733	0.00258125	
-0.00164086	-0.00272342	0.000495037	
0.00654823	0.0132179	0.00862563	
-0.0113317	-0.023254	-0.00704428	
0.00514213	0.0089512	0.00424879	
-0.00258169	-0.00691009	-0.00399721	
0.00330479	0.00144587	0.00583493	
0.00165787	0.00334148	0.00421382	
-0.00420462	-0.0046664	-0.0128157	
0.00534675	0.00954975	0.00487087	
-0.000470635	-0.00189022	0.000711559	
0.00537005	0.0110482	0.00556159	
0.00508809	0.00896261	0.00392037	
0.000524084	-0.000368864	0.00191025	
-0.00519914	-0.0157447	-0.00946536	
-0.00181594	-0.00508192	-0.00277197	
-0.000394739	-0.001177	0.00162278	
-0.00051022	0.000232555	-0.000414414	
0.000631626	-0.000413425	0.000576159	
0.00043836	0.000474743	-0.000372983	
-0.000163252	-0.000296524	0.00184947	
-8.52204e-05	0.000121857	-0.000293349	
0.0119093	0.0216764	0.0122672	
0.00530477	0.00878968	0.00304517	
0.0102007	0.0170653	0.00549331	
0.0128441	0.0258659	0.0103759	
-0.000523015	0.000102822	0.00159592	
2.99214e-05	-1.43718e-05	-0.000121439	
-0.000568005	0.0002577	0.00194874	
0.00290473	0.00564204	0.00224689	
0.000142669	2.09715e-05	-0.000520169	
-5.97051e-05	-0.00028053	0.00162793	
7.18072e-05	-0.000594026	0.00169052	
-0.000283178	-0.000152924	0.00230898	
0.0284301	-0.015464	0.0128083	
0.00410289	0.00244914	-0.0266963	
-0.00737536	0.0222356	-0.00476196	
0.0013557	-0.00289273	0.000571953	
-0.00607382	0.0201577	-0.00551929	
-0.00866802	0.0271964	-0.00483652	
-0.00599951	0.0135113	-0.00913794	
-0.00507127	0.0102189	-0.00634589	
0.00157506	-0.0071068	0.00418857	
0.000617938	-0.00443628	0.00266877	
-0.000634519	0.00248945	-0.000837723	
0.000483559	0.000588853	0.00363532	
-1.60604e-05	-4.68983e-05	-0.00252279	
-0.0179052	0.0338491	-0.0231283	
-0.0125673	0.0239154	-0.0152755	
0.00078554	-0.00242159	-0.00176838	
0.000909113	-0.00359139	0.00202748	
0.000729098	-0.0033977	0.0021162	
0.000407976	-0.00309135	0.00136012	
-0.00180991	0.00749794	-0.00291583	
2.22732e-05	0.000148655	-1.20812e-05	
9.28333e-05	5.05263e-05	3.74333e-05	
-5.44996e-05	6.17662e-05	3.34796e-05	
7.48376e-05	-2.65254e-05	-0.000119259	
-0.000888625	-0.00130525	0.000101783	
0.0334912	-0.0598232	0.0194279	
0.00260246	-0.00480366	-0.000658911	
-0.000489489	-0.00171477	-0.00219535	
-0.00626087	0.0166983	-0.00604477	
-0.000417432	-0.000751286	-0.000611052	
2.82962e-05	-0.00208758	-0.00221271	
0.000419863	-0.000187212	-0.000561989	
0.0100598	-0.0081485	0.00451502	
-8.11971e-05	-0.00177458	-0.00121989	
-0.000109731	-0.000719592	-0.000871956	
6.22726e-06	4.3821e-05	6.25442e-05	
0.000191728	-1.86525e-05	-0.000264855	
-0.00307494	0.00354685	0.00544735	
0.0105267	-0.02314	-0.00182609	
-0.00719631	0.000583994	0.0354198	
0.00588602	-0.00110266	-0.0107388	
0.0070282	-0.00122099	-0.0133393	
0.0106519	-0.00441345	-0.0230694	
0.00225624	0.00179388	-0.00773471	
0.00631848	-0.00137594	-0.0128215	
0.00609874	4.32073e-05	-0.0150994	
0.00724296	-0.00227844	-0.0146708	
0.0138617	0.00817411	0.0466666	
0.00298692	-0.0024366	0.00594458	
0.00169933	0.00297877	0.0295799	
-0.00104934	0.00459268	0.000697128	
0.00441316	-0.000255954	-0.0118015	
0.0020081	0.00217945	-0.00648781	
0.00111393	0.0033575	-0.00285034	
-0.00111622	0.00239213	-0.00188088	
0.00838648	0.00817334	0.0332035	
0.00448751	-0.00645829	0.011318	
0.00332828	0.00464685	0.0347192	
0.000153681	9.00739e-05	2.30064e-06	
0.00649595	-0.00511767	0.0111452	
7.34527e-05	7.80895e-05	0.000102951	
-0.00209127	0.00115308	0.0259923	
-1.14676e-05	0.000122278	-5.25874e-05	
-0.000838297	0.00321018	8.8788e-05	
0.00122	0.0013493	-0.000225484	
-0.00288905	0.00280541	0.0108639	
-0.000994457	0.00177484	-0.00163905	
-0.0014277	0.00126759	0.0135689	
0.00181959	0.00320772	-0.0055832	
-7.84047e-06	-0.000518667	-1.75721e-05	
-0.000173628	0.00309396	-0.000790531	
0.00135489	0.00275017	3.35416e-05	
0.00117679	0.000218831	-0.000346787	
0.00141407	0.00209878	4.13525e-05	
-0.0054665	-0.0127632	-0.00246746	
-0.0233562	-0.0684112	-0.163855	
-0.00313044	-0.00515446	-0.000267391	
0.003039	0.00551794	0.00258888	
-0.00153972	-0.0026294	0.000316347	
0.00626225	0.0129962	0.00823356	
-0.0123391	-0.0222516	-0.00670583	
0.00559055	0.00896263	0.00397069	
-0.00270456	-0.00708696	-0.00444314	
0.000453895	0.00199504	0.00534241	
0.00172087	0.00366054	0.00420197	
-0.00403894	-0.00692402	-0.011307	
0.00569633	0.00964286	0.00467828	
-0.000426895	-0.00146692	0.000579305	
0.00586326	0.0116581	0.00560558	
0.00509124	0.00918862	0.003899	
0.000517135	-0.000226967	0.00173989	
-0.00489136	-0.0155218	-0.00986325	
-0.00263422	-0.00487805	-0.00254402	
-0.000433914	-0.0012616	0.00120633	
0.000369777	0.000206278	-0.000152801	
0.000527432	-0.000474471	0.00051131	
0.000506376	0.000220602	-0.000247536	
-0.000143549	-0.000269798	0.00167261	
-7.24193e-05	0.000103134	-0.000249403	
0.0120182	0.0219361	0.011936	
0.00509008	0.00911523	0.00306003	
0.00990919	0.0175169	0.00553424	
0.0126288	0.0254866	0.0100269	
-0.000448021	0.000108607	0.00132694	
1.4989e-06	-1.85806e-06	-8.46266e-06	
-0.000499143	0.000230681	0.00168752	
0.00304477	0.0055793	0.00243108	
7.95502e-05	8.57199e-06	-0.000281722	
-5.82364e-05	-0.000218075	0.00132014	
8.34996e-05	-0.000559768	0.0015895	
-0.000232132	-0.000120141	0.00192695	
0.0262621	-0.0163686	0.0172343	
0.00404314	0.0024256	-0.026782	
-0.00752899	0.0225114	-0.00464529	
0.001297	-0.0029049	0.0012917	
-0.00617053	0.0202675	-0.0055847	
-0.00862573	0.027419	-0.00508998	
-0.00676556	0.0131836	-0.0094675	
-0.00567619	0.00988558	-0.00664112	
0.00159718	-0.00716433	0.00402831	
0.000614443	-0.00451248	0.00257006	
-0.000636284	0.00251877	-0.000919315	
0.000432126	0.000788656	0.00363546	
-2.81274e-05	1.93715e-06	-0.00224348	
-0.0202619	0.0333773	-0.0239933	
-0.0129158	0.0244991	-0.0149694	
0.000669124	-0.00221762	-0.00154528	
0.000874527	-0.00362479	0.001894	
0.000728687	-0.00349176	0.00199535	
0.000375482	-0.0031717	0.00121772	
-0.00184816	0.0074863	-0.0029936	
-4.22789e-07	-1.08104e-05	2.62908e-07	
-9.48684e-06	-5.36695e-06	-3.98795e-06	
6.02629e-06	-1.73652e-06	-3.03148e-06	
8.03528e-05	-2.70243e-05	-0.000125557	
-0.00077134	-0.000882715	7.2975e-05	
0.0337573	-0.0588428	0.0200342	
0.00225179	-0.00473291	-6.42691e-05	
-0.000129386	-0.00174529	-0.0016364	
-0.00647819	0.0168936	-0.00587699	
-0.000282365	-0.000507311	-0.000435068	
-1.08011e-05	-0.00175848	-0.00179566	
0.000276722	-0.000123318	-0.000375199	
0.00831231	-0.00856392	0.00642666	
-0.000132814	-0.00160117	-0.00103852	
-0.000101867	-0.000684344	-0.000798835	
-4.30223e-06	-3.09443e-05	-4.41219e-05	
0.000150288	-1.65026e-05	-0.000207615	
-0.00299085	0.00384447	0.00481414	
0.012822	-0.0212219	-0.00146571	
-0.0063929	-0.00113438	0.0363218	
0.00575694	-0.000835209	-0.0111853	
0.006672	-0.00156051	-0.0138305	
0.0117499	-0.0051763	-0.0226646	
0.00253534	0.00125474	-0.00789451	
0.00585124	-0.00164539	-0.0131305	
0.00633629	-0.000532401	-0.0150245	
0.00703032	-0.00294879	-0.0146864	
0.0145948	0.00772609	0.0469894	
0.00319212	-0.00254495	0.00615784	
0.00241498	0.00225163	0.0302551	
-0.00261351	0.00422236	0.00107286	
0.00484368	-0.000495039	-0.0116879	
0.00220571	0.00178104	-0.00675438	
0.000709401	0.00262243	-0.00167872	
-0.000801115	0.00162859	-0.00132802	
0.00880221	0.00791479	0.0335993	
0.00449746	-0.00642172	0.0114757	
0.00396455	0.0040495	0.0353798	
6.6241e-05	3.95448e-05	2.46645e-05	
0.00688107	-0.00550569	0.0111335	
1.72529e-05	4.11902e-05	4.93394e-05	
-0.00152497	0.000166866	0.0265778	
-6.28487e-05	0.000561798	-0.000256943	
-0.000838519	0.00315746	0.000252774	
0.000635217	0.000696598	-0.000140303	
-0.00270471	0.00147632	0.0114775	
-0.000697405	0.001159	-0.00111708	
-0.00149957	0.000330346	0.0140833	
0.00164356	0.00281092	-0.00537693	
-2.3501e-06	-0.000234767	-2.11822e-05	
-0.000148391	0.00292772	-0.00074568	
0.000797262	0.00159012	8.87137e-06	
0.000507229	9.52992e-05	-0.000168214	
0.000784538	0.00113823	2.15737e-06	
-0.00594057	-0.0126063	-0.0019005	
0.00360189	-0.0655486	-0.170682	
-0.00289044	-0.00500315	-0.000433915	
0.00329709	0.00542572	0.0029385	
-0.00149246	-0.0027038	-5.57623e-05	
0.0060673	0.0130041	0.00792528	
-0.0121278	-0.0223187	-0.00621038	
0.00571161	0.00896514	0.00453905	
-0.00281268	-0.00728392	-0.00480055	
1.66773e-05	0.0014152	0.00513545	
0.0016279	0.00369253	0.0038341	
-0.00450193	-0.00533081	-0.012109	
0.00565186	0.00961356	0.00545187	
-0.000285311	-0.00131194	0.000784376	
0.00583141	0.0120439	0.00561412	
0.00504725	0.00918623	0.00467386	
0.000312728	-0.000266169	0.00114735	
-0.00483003	-0.0153899	-0.0101729	
-0.002168	-0.0048883	-0.00307325	
-0.000340627	-0.00102913	0.000814493	
0.000242171	0.000148088	-0.000115298	
0.000424116	-0.000329161	0.000289691	
0.000313922	-0.000194283	0.000101652	
-0.000113181	-0.0002305	0.00142361	
4.76332e-06	-6.57721e-06	1.67491e-05	
0.0118587	0.0223419	0.0118149	
0.00507053	0.0092585	0.00399938	
0.00984422	0.0178939	0.0063303	
0.0121296	0.0258188	0.00990505	
-0.000465445	0.000123914	0.00135415	
-0.000210269	9.91557e-05	0.000793019	
-0.000437683	0.000208927	0.00145524	
0.00306336	0.00560925	0.00294215	
-0.000115208	-1.16327e-05	0.000399737	
-6.96692e-05	-0.000202726	0.00133917	
7.12575e-05	-0.000443984	0.00125997	
-0.00019068	-8.514e-05	0.00155301	
0.023566	-0.0185142	0.0204722	
0.00324938	0.00323676	-0.02649	
-0.00765094	0.0227492	-0.00451387	
0.00105014	-0.0030302	0.00157862	
-0.00619549	0.0204301	-0.0056336	
-0.00871504	0.0275905	-0.00524249	
-0.00728001	0.0134463	-0.00908773	
-0.00611588	0.0101798	-0.00611573	
0.00153326	-0.00705886	0.00402737	
0.000656526	-0.00443192	0.00258775	
-0.00065733	0.002584	-0.000913531	
0.000934494	-0.000147115	0.003563	
-0.000227369	0.000323771	-0.00170947	
-0.0207814	0.0345042	-0.0235713	
-0.012868	0.0250156	-0.0147928	
0.00070378	-0.00189262	-0.00112424	
0.000849223	-0.00353533	0.00189772	
0.00071254	-0.00343041	0.00201444	
0.000343546	-0.00312126	0.00124909	
-0.00184934	0.00757719	-0.0030028	
5.50707e-06	3.86427e-05	-1.47522e-05	
2.31695e-05	1.33176e-05	1.02916e-05	
-1.64417e-05	1.72695e-05	4.88482e-06	
6.52902e-05	-2.23867e-05	-0.000102082	
-0.00105695	-0.00103124	7.81151e-05	
0.0325862	-0.0591226	0.0203484	
0.00238823	-0.00422344	0.000341872	
-7.02543e-05	-0.00152666	-0.00130007	
-0.0065985	0.0170075	-0.00570561	
-0.000214242	-0.000379133	-0.000338358	
-9.53203e-06	-0.00137868	-0.00136468	
0.00021629	-9.44891e-05	-0.000293375	
0.00744718	-0.00868742	0.00726906	
-0.000173802	-0.00162895	-0.00103646	
-6.83567e-05	-0.000443935	-0.000527895	
-7.97961e-07	-5.96162e-06	-8.43634e-06	
0.00012526	-1.38323e-05	-0.000174597	
-0.00317702	0.00351689	0.00478354	
0.0131811	-0.0202845	-0.00191861	
-0.00563703	-0.00215599	0.0367878	
0.00607795	-0.00146111	-0.0110851	
0.00678139	-0.00202328	-0.0135351	
0.0120483	-0.0058688	-0.0226364	
0.00247763	0.000458595	-0.00728165	
0.00644893	-0.00242541	-0.0127341	
0.00647324	-0.00131181	-0.0150924	
0.00754355	-0.00348363	-0.0143524	
0.0148156	0.00715488	0.0472934	
0.00361751	-0.00265571	0.0060543	
0.00265651	0.00177153	0.0305987	
-0.00172681	0.0048232	-0.00134716	
0.00511789	-0.00128412	-0.0115358	
0.00203749	0.00062047	-0.00600494	
0.000653274	0.00100858	-0.00128746	
-0.000531962	0.00106861	-0.000880245	
0.00898832	0.00758363	0.0338587	
0.00458062	-0.00623285	0.0116015	
0.00422554	0.00368218	0.0356847	
2.85518e-06	9.80794e-06	7.01778e-05	
0.00706938	-0.0055943	0.0111738	
1.36667e-06	4.64732e-05	3.60129e-05	
-0.00113014	-0.000332388	0.0267262	
-1.84251e-05	0.000140571	-6.53433e-05	
-0.000703909	0.0014782	0.00109821	
0.000352674	0.00038552	-8.36447e-05	
-0.00240564	0.000334831	0.0117669	
-0.000439098	0.000711727	-0.00069068	
-0.00142065	-0.000194438	0.0142774	
0.00154816	0.000999767	-0.00499893	
-4.83101e-06	-0.000165868	-1.63711e-05	
-4.91937e-05	0.00110104	-0.000281849	
0.000362455	0.000723502	-7.27443e-06	
0.000322849	6.1607e-05	-0.000110812	
0.0003626	0.000524115	-5.00262e-06	
-0.00677852	-0.0125341	-0.00220325	
-0.00087645	-0.0591276	-0.176138	
-0.00193225	-0.00341996	-0.000320133	
0.00335254	0.00546835	0.00211007	
-0.001253	-0.00246934	-0.000551878	
0.00541006	0.0120994	0.00673682	
-0.0121074	-0.0212854	-0.0073668	
0.00559766	0.00933357	0.00301397	
-0.00270516	-0.00719869	-0.00535115	
-0.000634458	0.0012964	0.0054128	
0.00186867	0.00476033	0.00381231	
-0.00285794	-0.0043678	-0.0133461	
0.00600019	0.00984661	0.00390542	
-0.000298288	-0.000724122	5.63721e-05	
0.00639671	0.0127606	0.00482018	
0.00566277	0.00922237	0.00311894	
0.000647617	0.000687432	0.00170135	
-0.00513643	-0.0155543	-0.0108838	
-0.00242033	-0.00426416	-0.00402799	
-0.000755114	-0.0021752	-8.4097e-05	
0.000179797	0.000123127	-8.08106e-05	
0.000220989	-0.000272817	0.000253353	
0.000289447	-0.000111584	8.63755e-05	
-4.9823e-05	-0.000114061	0.000693815	
-0.000135875	0.000193654	-0.000472502	
0.0117993	0.0224564	0.0111142	
0.00563056	0.00907258	0.00229199	
0.0103432	0.0177387	0.00483978	
0.0115903	0.0249413	0.00849156	
-0.000188728	5.04952e-05	0.000546313	
0.000217415	-0.000106172	-0.00082562	
-0.000295572	0.000140237	0.000969504	
0.00329825	0.00569252	0.00189347	
0.000247544	1.52052e-05	-0.000872024	
-3.56304e-05	-9.02764e-05	0.000621964	
3.01391e-05	-0.000205795	0.000590396	
-0.000153442	-7.50697e-05	0.00130614	
0.0221363	-0.0186047	0.0219233	
0.00286328	0.00360716	-0.0263546	
-0.00777138	0.0228397	-0.00439146	
0.00167372	-0.00245118	0.00210599	
-0.00619931	0.0204529	-0.00563913	
-0.00879208	0.02769	-0.00522443	
-0.0075664	0.0136626	-0.00878213	
-0.00646479	0.0105237	-0.00578936	
0.00151565	-0.00702103	0.00398453	
0.000677199	-0.00443242	0.0025379	
-0.000670399	0.00262145	-0.000923004	
0.00103698	-0.000555573	0.0034729	
-0.000172778	0.00027974	-0.00136497	
-0.0210314	0.0353638	-0.0233494	
-0.0129189	0.0254127	-0.0147047	
0.000413023	-0.0011654	-0.000743788	
0.000831273	-0.00350026	0.00186168	
0.000697325	-0.00342933	0.00198978	
0.000327409	-0.00311785	0.00122669	
-0.00185786	0.00761534	-0.00304047	
2.34573e-06	1.47969e-05	-7.38573e-06	
8.18576e-06	4.79839e-06	3.76689e-06	
-5.98596e-06	7.35338e-06	1.27663e-06	
3.14969e-05	-1.14144e-05	-4.96916e-05	
-0.000154971	-0.000135491	8.49772e-06	
0.0318368	-0.0592947	0.0201965	
0.00233156	-0.00408521	0.000446796	
0.000538139	-0.00174879	-0.000423599	
-0.00676854	0.0171137	-0.00556777	
-0.000131888	-0.000232549	-0.000211809	
-1.5859e-05	-0.00124095	-0.00125485	
0.000108801	-4.78105e-05	-0.000147271	
0.00729826	-0.00772441	0.00764101	
-5.42382e-05	-0.000472143	-0.000285626	
-4.44634e-05	-0.000309031	-0.000377571	
-1.6055e-06	-1.22826e-05	-1.74382e-05	
6.01947e-05	-7.53151e-06	-8.48636e-05	
-0.00325919	0.00337532	0.00478175	
0.00913166	-0.0218179	-0.00271782	
-0.00563837	-0.00217093	0.0370168	
0.00611749	-0.00168478	-0.0112251	
0.00692538	-0.00225847	-0.0137086	
0.0119189	-0.00596612	-0.0233086	
0.00230458	0.000135541	-0.00681922	
0.0063208	-0.00235229	-0.0131436	
0.00615922	-0.00167887	-0.0147467	
0.00748505	-0.00345044	-0.0147445	
0.0149482	0.00671294	0.0473754	
0.00404799	-0.00305187	0.00591845	
0.00282323	0.00167124	0.0307436	
-0.000750821	0.00534681	-0.00199588	
0.00495425	-0.00128177	-0.0119438	
0.00188662	0.000288243	-0.00569239	
0.000612123	0.000938782	-0.00116556	
-0.000666534	0.00132442	-0.00109821	
0.0090803	0.00736888	0.0340274	
0.00474058	-0.00611605	0.0116787	
0.00434911	0.00364059	0.0359241	
-3.12789e-05	-3.09704e-06	-3.79916e-05	
0.00716147	-0.00582633	0.0111391	
-9.91237e-06	6.10155e-05	1.17785e-05	
-0.00102852	-0.000279101	0.0268889	
-6.2636e-06	4.27627e-05	-2.035e-05	
-0.000688332	0.00127332	0.0013128	
0.000332395	0.000368635	-8.11798e-05	
-0.00237259	0.000274008	0.0118765	
-0.000566654	0.000904893	-0.000893519	
-0.00136327	-0.00014835	0.0143411	
0.00145786	0.000918999	-0.00496809	
-1.25753e-06	-0.000201746	-2.35175e-05	
-3.88115e-05	0.000969001	-0.000244058	
0.000345589	0.000688713	-7.8764e-06	
0.000324037	6.71641e-05	-0.000112844	
0.000354118	0.000518787	-6.20898e-06	
-0.00655974	-0.0125653	-0.00158448	
-0.0131787	-0.0506306	-0.18238	
-0.0020974	-0.0034291	6.95129e-05	
0.00341	0.0053918	0.00300838	
-0.00139016	-0.00248902	6.4581e-05	
0.00555649	0.0120275	0.00745321	
-0.011512	-0.0218733	-0.00553725	
0.00576012	0.00925067	0.00504336	
-0.00309593	-0.00763993	-0.00506329	
-0.000470392	0.00164231	0.00497904	
0.00207451	0.00469052	0.00453761	
-0.00232144	-0.00370464	-0.0134574	
0.0056104	0.0100185	0.00590756	
6.2657e-05	-0.000841452	0.00119932	
0.00607072	0.0128738	0.00580897	
0.00510711	0.00959792	0.00499973	
0.000748386	0.000509167	0.00193229	
-0.0048714	-0.0153864	-0.0108466	
-0.00184018	-0.00479648	-0.00381584	
-0.000889151	-0.00237994	0.00012491	
0.000292999	-0.000151833	-2.10288e-05	
0.000387129	-0.000415054	0.000401451	
0.000416818	5.97561e-06	2.98492e-05	
-0.000100135	-0.000236649	0.0014253	
4.0768e-05	-5.817e-05	0.000143598	
0.0115673	0.022538	0.0117539	
0.0050778	0.00941809	0.00411517	
0.0100068	0.0181291	0.00660947	