<VTKFile type="UnstructuredGrid" version="0.1" byte_order="LittleEndian">
	<UnstructuredGrid>
		<Piece NumberOfPoints="19092" NumberOfCells="19092">
			<CellData Scalars="scalars">
				<DataArray type="Float64" Name="Strength" NumberOfComponents="3" Format="ascii">
-0.0101777	-0.0136175	0.0144709	
-0.0124917	-0.0211397	-0.0211338	
0.00622727	0.0684542	0.0288064	
0.00564232	-0.00742938	-0.00624708	
0.00622869	-0.000722108	-0.0113677	
0.010505	0.0501432	-0.0425913	
0.0121442	0.0856981	-0.0372123	
-0.00133162	0.0100351	-0.02309	
0.00956426	0.0816085	-0.0443544	
0.0011715	0.0211436	-0.0345846	
0.00424058	0.0262612	0.0381255	
0.00536924	-0.00178464	-0.00154539	
-0.00157997	0.0444857	0.00492819	
0.00182675	0.00125275	-0.00165473	
0.0100688	0.0653198	-0.048175	
0.00473138	0.0869221	-0.0312461	
-0.00889538	0.0958708	0.0205003	
0.00537661	0.0460615	-0.0549105	
0.00692408	0.0198432	0.0245391	
0.00267815	-0.012961	0.00656735	
-0.00619674	0.040104	0.00888309	
-0.00130797	0.00453694	0.000233183	
0.000789111	-0.00647356	0.00983604	
0.00090456	0.00145279	-0.00198808	
0.00372573	0.0514151	0.00813433	
-0.00134961	-0.0125848	0.00467617	
0.0048597	0.089696	-0.0241709	
-0.00865114	0.0377916	0.021686	
-0.00133719	0.0858386	0.0267215	
-0.00767488	0.0278741	-0.0433963	
-0.00634394	0.0517017	0.0207646	
-0.00424126	0.093808	0.003345	
0.000625669	-3.97642e-05	0.000243653	
-0.00108675	0.0899118	-0.0126108	
-0.0106354	0.0810957	0.00868499	
0.00371879	-0.00181765	0.022174	
-0.0216875	0.0554455	0.020002	
-0.0157482	-0.00756445	-0.0234176	
-0.141507	-0.00227171	-0.0496909	
0.028417	-0.00449888	0.0449812	
0.000115672	0.0120637	-0.0140928	
0.00561275	-0.0267997	0.0498621	
-0.00568615	-0.00413918	0.0696599	
-0.0142051	-0.00457083	0.0606012	
0.013948	-0.0196792	0.052469	
0.0228012	-0.015124	0.0326376	
0.0114201	-0.00413205	0.0167746	
0.0104342	-0.0263102	0.0522342	
0.0453589	-0.0152976	-0.0161847	
0.0118726	-0.00203148	0.0495029	
0.000378555	-0.00940337	0.0275984	
0.0112371	0.0158268	0.0532424	
0.00773097	0.00929922	0.0401717	
0.0322606	-0.0242181	0.0334359	
0.00999479	-0.0207201	0.0263466	
-0.00130946	-0.0165749	0.0123028	
0.00757053	-0.0191176	0.055772	
-0.0149701	0.010658	0.0471882	
0.00684299	-0.0254224	0.0040877	
0.00246849	-0.0033401	0.0198383	
0.0100748	-0.019613	0.057038	
-0.0091406	0.00764091	-0.0198485	
0.0207109	0.000611962	0.0407779	
0.00460144	0.0114669	0.030638	
0.00882353	0.0161374	0.0148421	
-0.00431751	-0.00696998	0.0798104	
0.000179977	0.021066	0.0364416	
-0.00414308	0.00549089	0.0184872	
0.0139542	0.0112572	0.0424128	
0.00471508	0.0083148	-0.01088	
0.00155643	-2.34371e-05	-0.00480741	
0.000965986	-0.00163338	0.0258263	
0.0214711	-0.0168387	0.0511688	
0.0105207	-0.00489897	0.0525399	
0.0117627	-0.0608178	0.00569961	
-0.0037242	-0.0101032	-0.0366038	
-0.00752155	0.0023917	-0.0327961	
-0.00663236	-0.0446845	0.00552845	
-0.0109273	0.0144142	-0.00975414	
-0.0144994	0.00972962	-0.0241951	
-0.000453112	0.00455353	-0.0550443	
0.00216601	-0.000549414	-0.060129	
0.00294252	-0.00975894	0.000707083	
0.00186884	-0.00728765	0.00114038	
0.000581102	0.00128042	-0.00339179	
0.00580745	0.00192348	0.00579503	
0.00513794	-0.0140735	-0.0699189	
-0.0133977	-0.0146576	-0.0488955	
-0.0111299	-0.0476918	-0.0224114	
0.0113951	-0.0342564	-0.0648026	
0.00112996	-0.00500787	0.000681091	
3.98759e-05	-0.0061448	-0.000687451	
-0.000170397	-0.00470678	-0.00322877	
-0.00207393	0.00541562	-0.00457047	
0.0009668	0.00228271	0.00343776	
-0.00188499	-0.00245457	0.000610471	
-0.000483608	-0.00289355	2.63117e-06	
0.00732487	0.00311965	-0.00787811	
-0.0121142	-0.0454196	0.0221045	
0.0493517	-0.039037	-0.0648329	
0.0106408	-0.0436151	-0.058444	
0.000209405	-0.0600541	-0.0396057	
-0.00918377	0.000679755	-0.0347786	
0.00515133	-0.059249	-0.0141401	
0.00338831	-0.0510241	-0.0490529	
-0.0123967	0.00357282	-0.041501	
0.00164503	-0.0557677	-0.0258537	
-0.00238804	-0.0713564	-0.0386455	
0.00396174	-0.00995371	-0.0149124	
1.24284e-06	6.70439e-06	9.41013e-06	
0.00788292	0.0143297	-0.0161387	
-0.00113669	0.00373692	0.00662406	
0.0240905	-0.0142728	-0.0120795	
-0.0253224	-0.00198529	0.0237115	
0.00400237	-0.00200467	-0.0110042	
0.00697709	-0.000670371	-0.0131413	
0.0163273	0.0205458	-0.0043328	
0.00174001	0.0144836	0.00141484	
0.00755805	0.00224347	-0.0124439	
0.00208209	0.0202428	0.00401429	
0.0111572	0.00613422	-0.0120283	
0.0246543	-0.00586103	0.0402832	
-0.00331726	-0.00211331	0.0034379	
-0.0025645	-0.00110362	0.0284714	
-0.00161943	0.000998466	0.00140469	
0.00390961	0.0167793	-0.00164099	
0.000830149	0.0134368	0.00373316	
0.00199496	0.00777345	0.00843617	
0.001624	0.00574683	-0.0089958	
0.0183875	-0.00168598	0.0284111	
0.011761	0.00523174	0.00407828	
0.00347713	0.00353992	0.0330315	
0.000141831	-4.11737e-05	0.000284532	
0.00356947	-0.00399553	0.0111694	
-0.000317023	-0.000282122	2.11865e-05	
-0.0091344	-0.00304499	0.0229341	
-2.65847e-07	0.000185414	-8.71779e-05	
-0.000626051	0.0112755	-0.00056523	
0.00543529	-0.000433034	0.00171901	
-0.00957786	0.00584333	0.00689765	
-0.000792876	0.00270671	-0.0079806	
-0.00420084	-0.00128334	0.0125251	
0.00202133	0.00844587	0.00825815	
-4.17925e-05	0.0013557	0.000332762	
-0.0007555	0.0100933	0.00253457	
0.00395969	0.00129071	0.00788244	
0.000707569	-0.00271753	-0.000308497	
0.00522215	0.000732449	0.00506451	
-0.000995908	-0.01275	-0.00584643	
0.0256081	-0.104781	-0.121454	
-0.0106693	0.00241923	0.00306725	
6.98942e-05	0.00696071	0.00162251	
-0.00379955	-0.00395619	0.00396957	
0.0153409	-0.00251269	0.0148441	
-0.0275276	0.000135933	0.00888349	
0.0115735	-0.00166128	0.00314685	
0.00288524	-0.00773978	-0.00117	
-0.00105679	0.00184379	0.00680698	
0.00191816	-0.00219814	0.00743616	
-0.0048362	-0.00559683	-0.0112509	
0.0110013	-0.000564543	0.0062491	
-0.00164639	-0.00160062	0.00500146	
0.00953579	0.00157912	0.0103739	
0.00957697	0.00167781	0.00610321	
0.000281472	-0.00296564	0.00494407	
-0.00368729	-0.0158111	-0.00787122	
0.00290928	-0.00446645	-0.00283966	
0.000176957	-0.00302755	0.00641123	
-0.00176856	-0.00138456	0.00108105	
0.00266578	-0.00128881	0.00075269	
0.000365434	0.00222955	0.000859838	
-0.00109108	-0.00310737	0.00551972	
-0.000609121	0.000473689	-0.00129527	
0.0240628	0.00670903	0.0165598	
0.00915183	0.00393213	0.00463273	
0.0130441	0.015359	0.00449835	
0.0285517	-0.00562167	0.0183453	
-0.00124383	0.00400068	0.00438784	
-0.000237613	0.000383441	0.000686061	
0.000317536	0.00348711	0.00614879	
0.00181076	0.00645663	0.00102437	
0.000415266	-0.000134208	-0.000878869	
0.000112607	0.000599485	0.00623871	
0.000156051	-0.00295121	0.00545178	
-0.00121231	-0.00179801	0.00733242	
0.0245109	-0.0221171	-0.0103101	
0.0160989	-0.0112381	-0.0175266	
-0.0165916	0.0169071	0.00079565	
0.000375263	-0.00679767	0.00020073	
-0.00592344	0.0211655	0.000243223	
-0.01307	0.0254857	0.00439278	
-0.00891479	-0.00334187	-0.0155592	
-0.00636486	-0.00222237	-0.0119675	
0.000658004	-0.00606546	0.00583552	
-0.000114672	-0.00327462	0.00390145	
-0.00095701	0.00262748	0.00037285	
-0.00340621	0.000324866	0.0019508	
0.000441262	0.000858318	-0.00841432	
-0.02905	-0.0190013	-0.0254513	
-0.0246302	0.0166925	-0.00744658	
0.0024269	-0.00180761	-0.00942593	
0.000900403	-0.00308511	0.0030612	
0.000557014	-0.00238166	0.00318149	
0.000159273	-0.00246042	0.00230492	
-0.00121854	0.008503	-0.00116295	
3.77583e-05	0.00151713	0.000165255	
0.00106336	-0.000186676	-0.000124375	
0.000538382	0.000622025	0.000153592	
-0.000414784	-8.45844e-05	0.000222494	
-0.000289244	-0.0041969	0.00360671	
0.0451991	-0.0314935	-0.0486977	
0.0041279	-0.00300789	-0.0100126	
-0.0011552	-0.0084419	-0.00434862	
-0.0128134	0.0134738	-0.00210809	
-0.00163116	-0.00227057	-0.00103353	
0.000702323	-0.00689311	-0.007154	
0.00120474	0.00077466	-0.000703917	
0.00927801	-0.00799984	-0.0115729	
0.000237218	-0.00653146	-0.00334071	
0.00128338	-0.00281107	-0.00302211	
0.000124882	0.000683477	0.00109021	
0.000145686	9.47123e-05	-4.36466e-05	
-0.00149676	0.00423877	0.00618095	
0.0127298	-0.0208156	-0.0152628	
-0.00326872	-0.0124958	0.0328968	
0.00553165	-0.00259865	-0.0103392	
0.0088072	-0.00176771	-0.0116826	
0.0217242	0.00310119	-0.0112935	
0.0036666	0.0029046	-0.0064777	
0.00928789	-0.000136721	-0.0101663	
0.0114655	0.00322943	-0.0107842	
0.0124098	0.000815763	-0.00986572	
0.0128543	0.0149555	0.0442117	
-0.000994944	-0.00420047	0.00413417	
0.000783519	0.000135287	0.0294016	
-0.00177947	0.00255264	-5.49195e-05	
0.00947518	0.00249711	-0.00748659	
0.00264364	0.00294839	-0.00581893	
0.000743688	0.00368115	-0.00191865	
-0.000713215	0.00109459	-0.00261005	
0.00927012	0.00896936	0.0320568	
0.0062196	-0.00249961	0.0118537	
0.00353473	0.00386441	0.0340004	
-0.000237193	1.76132e-05	-2.48279e-05	
0.00425162	-0.00514324	0.0112645	
-4.89978e-05	-4.35518e-05	0.000157423	
-0.00131805	-0.00437978	0.0248152	
-7.15732e-06	6.45219e-05	-3.71231e-05	
-0.000773946	0.00291049	0.000836911	
0.00176216	-6.22367e-05	-7.84943e-05	
-0.000793932	-0.00144015	0.011008	
-0.000623631	0.000363108	-0.00211897	
-0.000152823	-0.00318733	0.0124703	
0.000838068	0.00432923	-0.00466997	
-0.000557058	0.000153294	7.06954e-05	
-0.000125741	0.00288208	0.000102839	
0.00198038	0.00146928	0.000480032	
0.000530827	-0.00113829	1.94726e-05	
0.00202965	0.000737923	0.000186611	
-0.00128156	-0.0133998	-0.00436472	
-0.0345526	-0.117042	-0.117791	
-0.00401768	-0.00777076	0.000560328	
0.000908767	0.00658449	0.00253459	
-0.00195416	-0.00269505	0.000634463	
0.00782429	0.0149381	0.00709504	
-0.0166657	-0.0225849	-0.00166211	
0.0071461	0.00820806	0.00185368	
-0.00212052	-0.00665341	-0.00434819	
0.00245602	-0.000623688	0.00581799	
0.00154044	0.00300773	0.00373812	
-0.00433085	-0.0115637	-0.00801936	
0.00774127	0.00826011	0.00360927	
-0.000838621	-0.0020999	0.00115972	
0.00352836	0.0119983	0.00362276	
0.00759173	0.00731502	0.00296612	
0.000369137	-0.000749165	0.00158868	
-0.00622874	-0.0147464	-0.0104339	
-0.0013574	-0.00418833	-0.00420899	
-0.000118495	-0.000464922	0.00205498	
-0.000432606	0.000438257	-0.000272011	
0.000663685	-0.000546904	0.000252363	
-0.000630204	0.000338742	0.000203213	
-0.000395166	3.25801e-05	0.00188026	
-0.000185207	0.00014107	-0.000392479	
0.0122073	0.0235128	0.00958423	
0.00777623	0.00710033	0.00197703	
0.0124537	0.0164973	0.00278373	
0.00833661	0.0306194	0.00402791	
-0.00124053	0.00073066	0.00136502	
6.83166e-05	-0.000104152	-0.000136498	
-0.00131253	0.000955016	0.00170549	
0.00211943	0.00627828	0.00181258	
0.000281151	-0.000135812	-0.000478188	
-0.000218442	5.78734e-05	0.00210872	
9.18206e-05	-0.00058072	0.00164063	
-0.000734402	0.000458121	0.00234469	
0.0275554	-0.0197525	-0.00808191	
0.0142931	-0.00279902	-0.024794	
-0.00722744	0.0219648	0.00606631	
0.00140704	-0.00292633	0.000145603	
-0.00621883	0.020913	-0.000189187	
-0.0075185	0.027218	0.00692828	
-0.0103337	0.00944361	-0.0106528	
-0.00836646	0.00783295	-0.00632664	
0.00208237	-0.00769147	0.003782	
5.02705e-05	-0.00486973	0.00258997	
-0.00047808	0.0025189	-0.000630722	
-0.0027068	9.8555e-05	0.00318964	
9.97817e-05	0.000919923	-0.00237171	
-0.0347608	0.0125741	-0.0248697	
-0.00832945	0.0267869	-0.0135338	
0.00175811	-0.00165091	-0.00239281	
0.000965812	-0.00409091	0.00160838	
0.000848095	-0.00377631	0.00195346	
0.000193593	-0.00355514	0.000696085	
-0.00200076	0.00757335	-0.0022341	
0.000281144	3.01209e-05	0.000359179	
-0.000267441	-7.47408e-05	5.64759e-05	
-6.29347e-05	-0.000112373	-0.000174914	
0.000332516	5.55527e-05	-0.000168663	
-0.000170223	-0.000953659	0.00141147	
0.0432209	-0.0583612	0.00568616	
0.00438783	-0.00300234	-0.00199175	
-0.00143898	-0.00229467	-0.00179422	
-0.00513285	0.0181494	0.00123664	
-0.000657901	-0.000569578	-0.00025465	
0.00014389	-0.00223091	-0.00225825	
0.000650502	5.01432e-05	-0.000189036	
0.0127867	-0.00578071	-0.00270892	
1.59513e-06	-0.00212426	-0.00089612	
0.000125751	-0.000848863	-0.000756502	
-4.17938e-05	-0.000203295	-0.000336155	
0.000442202	0.000124455	-0.000119422	
-0.00199435	0.00468486	0.00548851	
0.00288895	-0.027083	-0.00287058	
-0.00755308	-0.00107587	0.0352966	
0.00620918	-0.00261568	-0.0101642	
0.00874717	-0.00281038	-0.0119608	
0.0140175	-0.00901413	-0.0194978	
0.000642751	1.55555e-05	-0.00851461	
0.00852162	-0.00277163	-0.0109957	
0.00402374	-0.00372217	-0.0156416	
0.0102739	-0.00405796	-0.012042	
0.0182231	0.00918732	0.0449271	
0.00613565	0.00255727	6.20565e-05	
0.000632896	0.00158868	0.0298363	
0.00214226	0.00345078	-0.001689	
0.00327365	-0.00321836	-0.0119787	
0.00110973	0.0011781	-0.00728837	
0.00117033	0.00356213	-0.00245826	
-0.00174096	0.000966091	-0.00242337	
0.0113359	0.00939356	0.0319446	
0.00454296	0.000242541	0.0130599	
0.00362888	0.00483682	0.0344011	
-7.0477e-05	-6.07912e-05	-0.000141782	
0.00313706	-0.00611298	0.0117518	
-5.33465e-05	0.000168085	-1.352e-05	
-0.00288996	-0.00190777	0.0256739	
-4.02752e-05	0.000225741	-0.00015715	
-0.00114909	0.00350838	-0.000618997	
0.00171938	0.000221599	-4.85513e-05	
-0.00316595	0.00276979	0.0107688	
-0.00120272	0.000257148	-0.00185148	
-0.00134988	-0.000749307	0.0133157	
0.00200156	0.00336897	-0.00567511	
-0.00049525	0.000268689	0.000151571	
-0.000290682	0.00332571	-0.00131533	
0.00226463	0.0017883	0.000376347	
0.000755581	-0.00107256	-2.03047e-05	
0.00220316	0.000860354	0.000273994	
-0.00279801	-0.0137344	-0.00298236	
-0.0237838	-0.0237213	-0.172634	
-0.00460186	-0.00558828	0.000426828	
0.00193	0.00627322	0.00242388	
-0.00195582	-0.00253975	0.000711654	
0.00764748	0.0139786	0.00709618	
-0.00999006	-0.0254485	-0.00249798	
0.0048639	0.010075	0.00238462	
-0.00294448	-0.00652772	-0.00466941	
0.00500637	0.00266381	0.00407821	
0.00200839	0.00343123	0.00414131	
-0.00744645	-0.00606436	-0.0109107	
0.00491908	0.0107701	0.0032693	
-0.000174802	-0.00188719	0.000954754	
0.00565401	0.0120434	0.00357921	
0.00503704	0.00989831	0.00214775	
0.000696744	-0.000523747	0.00185907	
-0.00630166	-0.0155555	-0.00982671	
-0.000299228	-0.00407235	-0.00463369	
-0.000507201	-0.00112628	0.00167829	
-0.000706571	1.77026e-05	-6.69039e-05	
0.000887029	-0.000187538	0.000337124	
0.000393859	0.000620181	-0.000197023	
-0.000377736	-3.82664e-05	0.00188087	
-0.00013857	0.000105926	-0.000289117	
0.0122165	0.0228649	0.0111683	
0.00579226	0.00927927	0.00104151	
0.011366	0.0177921	0.00170623	
0.0145314	0.0272761	0.0051925	
-0.00099944	0.000677891	0.0012244	
5.91481e-05	-7.18147e-05	-8.97998e-05	
-0.0010614	0.00104849	0.00146333	
0.0027011	0.00610191	0.00182505	
0.000294274	-0.000161831	-0.000441309	
-0.000195437	-4.16092e-05	0.00167881	
0.000107289	-0.000605933	0.00172143	
-0.000622481	0.000430258	0.00225687	
0.031546	-0.0168462	-0.000505687	
0.0165776	-0.00653177	-0.0210669	
-0.00904572	0.0224931	0.00281165	
0.00132826	-0.00263174	0.00155522	
-0.00628671	0.0212811	-0.000449384	
-0.00932713	0.0274935	0.00547374	
-0.00681307	0.0145504	-0.00764818	
-0.00551259	0.0112866	-0.0045832	
0.00157049	-0.00716747	0.0043888	
0.000138124	-0.00452059	0.00277154	
-0.000656166	0.00265054	-0.000358957	
-0.00142508	0.00126555	0.0033179	
0.000500782	0.000845003	-0.00239086	
-0.0224225	0.031734	-0.0242308	
-0.0137633	0.0233346	-0.0164616	
0.000761657	-0.00218908	-0.00217348	
0.000871944	-0.00371305	0.00198588	
0.000780686	-0.00335377	0.00230116	
0.000319783	-0.00320058	0.0012788	
-0.00181988	0.0079569	-0.00198968	
8.2374e-05	0.000151403	1.45799e-05	
0.000110285	1.77578e-05	-2.32909e-05	
8.1894e-05	1.74865e-05	-3.55529e-05	
0.000126117	2.22595e-05	-7.05094e-05	
-0.000502296	-0.000477077	0.00147078	
0.030832	-0.0652902	0.00955482	
0.00260305	-0.00495518	-0.00071517	
-0.000643637	-0.00213008	-0.00186384	
-0.00671905	0.017858	-0.00237675	
-0.000670684	-0.000814829	-0.000216545	
-5.08398e-05	-0.00231039	-0.0020975	
0.000683438	9.48171e-05	-0.000271781	
0.0109208	-0.00741839	0.00488998	
-0.000240903	-0.00210815	-0.000623526	
-9.48536e-05	-0.000794057	-0.00084284	
8.43816e-06	3.9783e-05	6.66031e-05	
0.000306718	9.20516e-05	-9.59581e-05	
-0.00272841	0.00465841	0.00505782	
0.0197747	-0.00770285	0.0149789	
-0.00919069	-0.00114616	0.0357316	
0.00665519	-0.00273388	-0.0103976	
0.00823732	-0.0037703	-0.0126363	
0.0109925	-0.011697	-0.0210335	
0.00220379	0.000168007	-0.00815859	
0.00735487	-0.00451729	-0.0119645	
0.00656881	-0.00308418	-0.015026	
0.00828926	-0.00640732	-0.0133396	
0.0170804	0.0128409	0.0455059	
0.00538708	-0.000918486	0.00474653	
0.00139154	0.0030471	0.0301777	
-0.00265609	0.00103188	-0.00401295	
0.00461746	-0.0034968	-0.0115502	
0.00224909	0.00111582	-0.00685568	
0.00143457	0.00352378	-0.00265995	
-0.00197057	0.000858111	-0.00253602	
0.0107158	0.0105357	0.0325643	
0.00768617	-0.00286458	0.0113856	
0.00341894	0.00619631	0.0351615	
-0.000116601	-3.80145e-05	-0.000123433	
0.00405329	-0.00394973	0.0129453	
0.000148624	-2.36984e-05	-1.47665e-05	
-0.00314156	-0.000763466	0.0264348	
-2.52054e-05	0.000105277	-8.43556e-05	
-0.00113845	0.00316721	-0.00045616	
0.00185276	0.00024799	-4.12549e-05	
-0.00341877	0.00253942	0.0110434	
-0.00168267	0.000231105	-0.00207349	
-0.00166871	-0.000276914	0.0138829	
0.00222032	0.00326277	-0.00558774	
-0.000466715	0.000220345	0.000112966	
-0.00024788	0.00305811	-0.00113432	
0.00243825	0.00188991	0.000536444	
0.000703081	-0.00105721	3.9626e-05	
0.00235528	0.000976993	0.000417363	
-0.00433442	-0.0137217	-0.00170994	
-0.0191523	-0.119255	-0.136642	
-0.0038386	-0.00480733	0.000436134	
0.00275404	0.0059666	0.00240397	
-0.0018139	-0.00249214	0.000519717	
0.00719483	0.0138155	0.00669944	
-0.012559	-0.0237916	-0.00154397	
0.00592996	0.00971491	0.00205242	
-0.00326978	-0.00645081	-0.00528869	
0.000641668	0.000734527	0.00574631	
0.00202344	0.00378231	0.00412251	
-0.00862423	-0.00150674	-0.0110705	
0.00586538	0.0104174	0.00346734	
-0.000258149	-0.0014377	0.000814058	
0.00655225	0.0124852	0.00344407	
0.00510144	0.0100711	0.00217762	
0.000772831	-0.000421432	0.00164337	
-0.00657795	-0.0147387	-0.0107433	
-0.0049297	-0.00276431	-0.00257163	
-0.000565621	-0.00121032	0.00125682	
0.000422241	9.10804e-05	0.00015552	
0.000752585	-0.000439909	0.000185172	
-0.000378738	0.00027832	0.000399072	
-0.000338309	-3.50827e-05	0.00170129	
-0.000118555	9.18927e-05	-0.000244706	
0.013104	0.0230679	0.00996338	
0.00531773	0.0097757	0.000939654	
0.0105203	0.0186214	0.00151025	
0.0141673	0.0269804	0.0045544	
-0.000822522	0.000643817	0.000985362	
3.03121e-06	-6.30665e-06	-6.13084e-06	
-0.000928574	0.000936136	0.00124458	
0.00299064	0.00599748	0.00200397	
0.000164035	-9.25663e-05	-0.000234669	
-0.000177547	9.7763e-06	0.00135838	
0.000101923	-0.000621405	0.00160049	
-0.000522636	0.000375043	0.00187845	
0.0329159	-0.0137345	0.00730874	
0.015928	-0.00591553	-0.0218472	
-0.00919707	0.0227533	0.00278394	
0.00115047	-0.00224696	0.00246367	
-0.00642972	0.0213938	-0.00049396	
-0.00939814	0.0278487	0.00485325	
-0.00645934	0.0142518	-0.00890928	
-0.00600638	0.0107468	-0.00557077	
0.00169357	-0.00727503	0.00410918	
5.08963e-05	-0.00463982	0.00260299	
-0.000644415	0.00270332	-0.00040885	
-0.00128171	0.00150394	0.00333249	
0.000250366	0.000746062	-0.00215994	
-0.0210773	0.0325771	-0.0263791	
-0.0143556	0.0240327	-0.0158316	
0.000579894	-0.00207558	-0.0018725	
0.00087477	-0.00374678	0.00182646	
0.000823123	-0.00347272	0.00213807	
0.000278546	-0.00327668	0.00113315	
-0.00188146	0.00796416	-0.00201815	
8.12783e-06	-6.56983e-06	7.03977e-06	
-1.13314e-05	-2.25787e-06	2.45403e-06	
-3.69679e-06	-5.91137e-06	-1.29157e-06	
0.000133533	2.51015e-05	-7.3725e-05	
-0.00061329	-5.69997e-05	0.00103837	
0.0349811	-0.0625697	0.00943728	
0.00218141	-0.00491355	1.04486e-05	
-0.000295455	-0.0020665	-0.00130123	
-0.0071	0.0179335	-0.00231354	
-0.000452142	-0.000559603	-0.000178672	
-0.000115166	-0.00200384	-0.00161955	
0.000451097	5.59494e-05	-0.000189854	
0.00852356	-0.00731418	0.00822731	
-0.000368688	-0.00187245	-0.000464633	
-0.00013501	-0.000733917	-0.000782264	
-5.83747e-06	-2.79844e-05	-4.70695e-05	
0.000238529	7.27844e-05	-8.08471e-05	
-0.00279294	0.00488968	0.00423675	
0.0232369	0.00120988	0.00996822	
-0.00781673	-0.00415924	0.0366288	
0.00650027	-0.00271607	-0.0108886	
0.00770023	-0.00449665	-0.0131258	
0.0128669	-0.0114137	-0.020464	
0.00260265	-0.000379323	-0.00817601	
0.00653391	-0.00525744	-0.0122779	
0.0070615	-0.00351828	-0.014741	
0.0078417	-0.0071343	-0.0132843	
0.0138764	0.0156584	0.0462137	
0.00258734	-0.00227137	0.0066889	
0.00208926	0.00211933	0.0308905	
-0.00514793	-0.000122557	-0.000865326	
0.00519439	-0.00351788	-0.0113681	
0.00244717	0.000648101	-0.00706074	
0.00088439	0.00273199	-0.00155123	
-0.00134921	0.000538695	-0.00179204	
0.0106336	0.0108517	0.0329593	
0.00720335	-0.00544851	0.0108913	
0.004235	0.00567907	0.0358313	
-3.06728e-06	7.27557e-05	-3.7699e-05	
0.00679071	-0.00478139	0.0118337	
6.07371e-05	2.91509e-05	-7.10085e-06	
-0.00235156	-0.00202198	0.0269852	
-0.000130509	0.000469722	-0.000412558	
-0.001119	0.00314932	-0.00027886	
0.000964007	9.48236e-05	-8.41358e-05	
-0.00307457	0.00104251	0.0117003	
-0.00116649	0.000113252	-0.00136644	
-0.00157844	-0.0013143	0.0143126	
0.00197661	0.00283428	-0.00541974	
-0.000239146	-6.07157e-06	1.79177e-05	
-0.000210352	0.00289909	-0.00106078	
0.00144386	0.0010737	0.000253075	
0.000316773	-0.000453686	-6.1032e-06	
0.00130781	0.000504152	0.000165274	
-0.00525223	-0.0134535	-0.000645939	
0.0262225	-0.0111164	-0.183958	
-0.00349042	-0.00477048	0.000333802	
0.00325853	0.0058083	0.00270636	
-0.00173276	-0.00262912	0.000137876	
0.00685887	0.0138968	0.00631532	
-0.0120417	-0.0238999	-0.00105537	
0.00609716	0.00980295	0.00266002	
-0.00316965	-0.00666666	-0.00572766	
0.00273841	-0.00285288	0.00371484	
0.00188626	0.0038188	0.00375447	
-0.0101499	-0.00423146	-0.00903029	
0.00567626	0.0105443	0.00432187	
-9.10595e-05	-0.00124675	0.000984917	
0.00645816	0.0130168	0.00297236	
0.00507275	0.0101847	0.00304448	
0.000489554	-0.000391985	0.00107242	
-0.00493525	-0.0153366	-0.0108719	
-0.000394797	-0.00561892	-0.0027779	
-0.000427871	-0.00100426	0.000848949	
9.19177e-05	0.00026753	-0.000131654	
0.000586526	-0.00020267	3.24693e-05	
0.000302165	-0.000118565	-0.000216044	
-0.000262687	-2.76891e-05	0.00145232	
7.77976e-06	-5.84047e-06	1.64752e-05	
0.012918	0.0237133	0.00927537	
0.00520582	0.0101941	0.00182726	
0.0100349	0.0194193	0.00218767	
0.0133784	0.0275491	0.00380027	
-0.000853112	0.000688355	0.00097865	
-0.000428199	0.00043735	0.000588312	
-0.000822204	0.000824916	0.00104903	
0.00298992	0.00611626	0.00243985	
-0.00023853	0.000128957	0.000331148	
-0.000206485	5.09181e-05	0.00137103	
9.66115e-05	-0.000505968	0.00126294	
-0.000421741	0.000324445	0.00150902	
0.0314894	-0.0128118	0.0153894	
0.0160405	-0.00537518	-0.0215102	
-0.00926407	0.022929	0.00321954	
0.000856418	-0.00211751	0.00287646	
-0.00650564	0.0215541	-0.000480806	
-0.00948269	0.0280727	0.00477953	
-0.00711268	0.0139967	-0.00923536	
-0.00668964	0.0107034	-0.00528496	
0.0016112	-0.00715917	0.00413253	
8.23457e-05	-0.00452294	0.00269406	
-0.000667008	0.00276915	-0.000376848	
-0.00124573	0.000422845	0.0035773	
-5.64451e-05	0.000869065	-0.00157299	
-0.0224111	0.0322183	-0.027258	
-0.0141618	0.0248668	-0.0153543	
0.000660457	-0.00173746	-0.00147027	
0.000858993	-0.00365286	0.00183598	
0.000809037	-0.00340335	0.00216572	
0.000289869	-0.00321992	0.00117361	
-0.00186468	0.0080661	-0.00200182	
-1.13091e-05	4.60892e-05	-2.92716e-06	
2.80523e-05	5.43814e-06	-5.76233e-06	
2.33086e-05	3.27928e-06	-8.13111e-06	
0.000108842	2.06436e-05	-5.95353e-05	
-0.0009258	0.000163373	0.00119522	
0.0358836	-0.0619791	0.00821127	
0.00255419	-0.00427855	0.000267313	
-0.000198255	-0.00179204	-0.000997866	
-0.0070292	0.0181062	-0.001956	
-0.000346111	-0.000417705	-0.000152759	
-9.31942e-05	-0.00156979	-0.00122158	
0.000354643	4.21734e-05	-0.000143066	
0.00762348	-0.00719948	0.0091657	
-0.000456839	-0.00188042	-0.000470801	
-0.000105538	-0.000487566	-0.000503915	
-1.13354e-06	-5.41628e-06	-8.98789e-06	
0.000199752	6.2287e-05	-6.74342e-05	
-0.0032191	0.00455543	0.00411388	
0.0238679	-0.00542662	0.00340316	
-0.00643068	-0.00584411	0.0370739	
0.0069561	-0.0030037	-0.0106782	
0.00769117	-0.00460077	-0.0129001	
0.013384	-0.0119657	-0.0201722	
0.00257072	-0.00107651	-0.00738519	
0.00728261	-0.00525021	-0.0118676	
0.00726176	-0.00436102	-0.0146062	
0.0085146	-0.00707898	-0.0129476	
0.0129804	0.0165958	0.0464553	
0.00386457	-0.00195422	0.00634106	
0.00229354	0.00180088	0.031239	
-0.00487911	9.12394e-05	-0.00245776	
0.00562734	-0.00420412	-0.010951	
0.00220398	-0.000452945	-0.00612446	
0.000746624	0.00105314	-0.00125451	
-0.000897716	0.00034064	-0.00118043	
0.010746	0.0111609	0.0330702	
0.00580915	-0.00929483	0.00902368	
0.00433149	0.00592846	0.0360896	
-2.43173e-05	-4.19657e-05	5.3724e-05	
0.00628311	-0.0056472	0.0119305	
2.47751e-05	3.40831e-05	4.25225e-05	
-0.00177637	-0.0025493	0.0271233	
-3.73484e-05	0.000115644	-0.000104787	
-0.000865729	0.00160789	0.000859362	
0.000534542	4.65059e-05	-6.01536e-05	
-0.00259119	-0.000160858	0.0120003	
-0.000725085	5.811e-05	-0.000842843	
-0.00146198	-0.00178459	0.014464	
0.00180944	0.000943452	-0.00505226	
-0.000162208	3.11356e-05	3.89724e-05	
-7.04299e-05	0.00109038	-0.000400873	
0.000661754	0.00048926	7.98861e-05	
0.000209909	-0.000284557	-4.20232e-06	
0.000609037	0.000224727	4.53467e-05	
-0.00655953	-0.0132871	-0.000466283	
0.0195591	-0.0582933	-0.17895	
-0.0023104	-0.00328877	0.000268373	
0.00360798	0.00563992	0.0018258	
-0.0014017	-0.00248813	-0.000382616	
0.00594704	0.0129745	0.00517263	
-0.0121785	-0.0230782	-0.0022912	
0.00588507	0.009909	0.00109102	
-0.00295363	-0.00684753	-0.00596729	
-0.00246509	-0.00383506	0.00343715	
0.00206363	0.00494646	0.00368982	
-0.00276482	-0.0020669	-0.0142047	
0.00643242	0.010311	0.00287765	
-0.000258108	-0.000735513	0.000195783	
0.00728302	0.0134139	0.00206283	
0.00621554	0.00955913	0.00191429	
0.00097952	0.000529091	0.0016422	
-0.0064807	-0.0138416	-0.0129634	
-0.000952701	-0.0030127	-0.00564011	
-0.000874197	-0.00218105	-3.71736e-05	
0.000203642	2.1674e-05	-0.000118873	
0.000353613	-0.000250774	8.17436e-05	
0.000297455	0.000135981	-2.8128e-05	
-0.000124824	-1.31703e-05	0.000708396	
-0.000227515	0.000185432	-0.000456899	
0.0130778	0.0236643	0.00844771	
0.00634666	0.00923038	0.000603914	
0.0110129	0.0186459	0.00111007	
0.0128689	0.02634	0.0025368	
-0.0003458	0.00027918	0.000392908	
0.000436314	-0.000461408	-0.000615446	
-0.000557995	0.000549614	0.000693296	
0.00353562	0.00590249	0.00147811	
0.000513455	-0.000290423	-0.000721588	
-0.000107145	3.22313e-05	0.000634218	
4.46423e-05	-0.000241069	0.000589315	
-0.000356971	0.000271993	0.0012683	
0.0288781	-0.0143719	0.018765	
0.0159756	-0.00519704	-0.021443	
-0.00936354	0.0229789	0.00337493	
0.00177027	-0.00195314	0.00265408	
-0.00656002	0.021566	-0.000445833	
-0.00946489	0.0282206	0.00469602	
-0.00737106	0.0142245	-0.00894698	
-0.0071151	0.0109455	-0.0049853	
0.00164259	-0.00712566	0.00406433	
0.000140633	-0.00453357	0.00263189	
-0.000682201	0.00280895	-0.000374426	
-0.00133558	3.24708e-05	0.00355171	
-2.91818e-05	0.000727642	-0.00124105	
-0.0229086	0.0332055	-0.0268319	
-0.0142294	0.025395	-0.0150719	
0.000385506	-0.00105247	-0.00096626	
0.000862599	-0.00361504	0.00179436	
0.000771334	-0.00340653	0.00214584	
0.000292726	-0.00321415	0.00115132	
-0.00188252	0.00810987	-0.00203353	
-1.53842e-05	1.12496e-05	3.52444e-07	
9.98125e-06	2.00583e-06	-2.09187e-06	
8.24057e-06	2.42517e-06	-4.67587e-06	
5.27245e-05	9.464e-06	-2.95526e-05	
-0.000138832	3.90555e-05	0.0001555	
0.0357672	-0.0618084	0.00796419	
0.00249591	-0.00414197	0.000350741	
0.00050011	-0.00185843	-0.000137596	
-0.00709178	0.0182175	-0.00190033	
-0.000214252	-0.000256663	-9.87374e-05	
-8.92709e-05	-0.00140497	-0.00114084	
0.000178921	1.99187e-05	-7.06626e-05	
0.00798223	-0.0063878	0.00874027	
-0.000127879	-0.000538029	-0.000137272	
-8.12085e-05	-0.000342228	-0.00035712	
-2.24665e-06	-1.1127e-05	-1.86047e-05	
9.67681e-05	2.9543e-05	-3.32155e-05	
-0.0034191	0.00436844	0.00409923	
0.0164526	-0.0130021	0.0121829	
-0.0063069	-0.00588265	0.0373327	
0.00702272	-0.00312034	-0.010817	
0.00779365	-0.0047647	-0.0130984	
0.0132407	-0.0126112	-0.0206335	
0.00236834	-0.00135246	-0.00685322	
0.00709761	-0.00542626	-0.0122822	
0.00687312	-0.00483272	-0.0141685	
0.00842795	-0.00734149	-0.0132772	
0.0134253	0.0166078	0.0463948	
0.00308698	-0.00383267	0.00623006	
0.00239105	0.00203934	0.0313808	
-0.00285904	0.00250179	-0.00450712	
0.00534034	-0.00454605	-0.0113359	
0.00198445	-0.000776313	-0.00576834	
0.000698375	0.000977715	-0.00113567	
-0.00113233	0.000401749	-0.00146346	
0.0114301	0.0105065	0.0332177	
0.00537879	-0.01078	0.00764366	
0.00447227	0.00632087	0.0362693	
2.35977e-05	-8.15717e-06	4.26984e-05	
0.00564833	-0.00643935	0.0119871	
1.2851e-05	5.03439e-05	3.74686e-05	
-0.00167631	-0.00237315	0.0273111	
-1.30764e-05	3.46934e-05	-3.20543e-05	
-0.000816628	0.0014418	0.00112159	
0.000507925	4.53116e-05	-5.84651e-05	
-0.00251462	-0.000254805	0.0121239	
-0.000934107	5.58245e-05	-0.00108077	
-0.0014963	-0.00166014	0.0145382	
0.00168983	0.00085227	-0.00503548	
-0.000170468	0.000100304	6.02603e-05	
-5.53395e-05	0.000961503	-0.000345752	
0.000628643	0.000469312	6.90195e-05	
0.000212352	-0.000286406	-1.05759e-06	
0.000598759	0.000226481	4.21293e-05	
-0.0062925	-0.0132492	-1.6007e-05	
0.0312848	-0.0121683	-0.190669	
-0.00257951	-0.00314601	0.000581079	
0.00363143	0.00566906	0.0026919	
-0.00161303	-0.00241028	0.000244897	
0.0061698	0.0129423	0.00595518	
-0.0109503	-0.0235177	-0.000564994	
0.00596889	0.0102776	0.00320675	
-0.00324875	-0.00711701	-0.00600414	
-0.000164192	-0.00190759	0.00501291	
0.00242075	0.00483203	0.00442747	
-0.00275539	-0.00389835	-0.0136207	
0.00552993	0.0111354	0.0045784	
0.00029701	-0.000695451	0.00129687	
0.0067153	0.0139348	0.00280497	
0.00515198	0.0106947	0.00317723	
0.00107275	0.000327725	0.00186391	
-0.00497545	-0.0146155	-0.0124282	
-0.000649409	-0.00357715	-0.00541425	
-0.00106365	-0.00236013	0.000174623	
0.000325682	-8.11984e-05	-3.61202e-05	
0.0005868	-0.000397561	-1.17694e-06	
0.000346338	-2.94387e-05	-0.000247334	
-0.000252343	-3.08311e-05	0.00145638	
6.84927e-05	-5.66853e-05	0.00013857	
0.0126451	0.0240039	0.00895234	
0.0053189	0.0103495	0.00183117	
0.0102282	0.0197213	0.00243608	
0.0126743	0.0269442	0.00384132	
-0.000896383	0.00072413	0.00101254	