<VTKFile type="UnstructuredGrid" version="0.1" byte_order="LittleEndian">
	<UnstructuredGrid>
		<Piece NumberOfPoints="9213" NumberOfCells="9213">
			<CellData Scalars="scalars">
				<DataArray type="Float64" Name="Strength" NumberOfComponents="3" Format="ascii">
-0.00789715	-0.0152351	0.0131983	
0.0126784	-0.00988056	-0.0264996	
-0.0166602	0.0708268	-0.00339802	
0.00467347	-0.0068984	-0.00701252	
0.00584564	0.000149448	-0.0111614	
0.0127023	0.0538676	-0.0337734	
0.00165655	0.0853773	-0.0337516	
0.00167784	0.0166324	-0.0178953	
0.00675716	0.0835937	-0.0352814	
0.00334705	0.0298993	-0.0254707	
0.00261856	0.0106988	0.0442125	
0.00487069	-0.00266937	-0.00149857	
-0.0107833	0.0411354	0.010689	
0.000648898	-0.00130932	0.00221834	
0.00377729	0.0715326	-0.0348957	
0.00141341	0.0866586	-0.0248633	
0.00362785	0.0959094	-0.00502852	
-0.00606285	0.0615309	-0.0328056	
0.000299126	0.0149876	0.027892	
0.0068199	-0.0105985	0.00714471	
-0.0109377	0.0345124	0.0185649	
-0.00229358	-0.00230064	0.000361715	
0.00526236	-0.00476816	0.00913871	
0.00248857	0.000480182	-0.000584188	
-0.014836	0.0487956	0.0022644	
-0.000976454	-0.0126683	0.0031323	
-0.00322312	0.0877433	-0.0227957	
0.00712678	0.0404174	0.0143368	
-0.00561007	0.0874546	-0.00566101	
-0.00698011	0.0438554	-0.0245135	
-0.00451406	0.0536702	0.0103078	
2.10934e-05	0.0911533	-0.010049	
-0.000379348	0.000502743	0.000196471	
-0.00260258	0.0871009	-0.0159048	
-0.00549285	0.0779288	0.0188307	
0.0171414	0.0112977	0.0081803	
0.00257263	0.0573992	0.0216477	
-0.0122022	-0.00557061	-0.0249854	
-0.00204146	-0.102364	-0.0974409	
-0.0064247	0.00938801	0.0509224	
0.000676181	0.0119395	-0.0134631	
0.00616533	-0.00720781	0.0548252	
0.0122127	-0.0259364	0.0621654	
-0.0160677	-0.0274175	0.0518654	
0.0166138	-0.0126461	0.0522243	
0.0159236	-0.0238975	0.0302324	
0.0120692	0.000816794	0.0163071	
0.00153322	-0.0152584	0.0560798	
-0.0133661	-0.0113537	-0.0195762	
0.00908662	-0.00415627	0.0485765	
0.00235295	-0.0111586	0.0260449	
0.00590316	0.00335024	0.0549553	
0.00514157	0.0013278	0.040474	
0.0131014	-0.0288303	0.0402911	
0.0257696	-0.0135075	0.018085	
-0.00588055	-0.0173665	0.00789804	
0.0071051	-0.0205597	0.0539509	
0.0238987	-0.00373536	0.0129844	
0.000827229	-0.0257632	0.00296075	
-0.0105428	-0.0032289	0.0165819	
0.000128918	-0.0100074	0.0589593	
-0.00528383	0.00857895	-0.0200915	
0.0214594	0.00764031	0.0384048	
0.004706	0.00345815	0.031601	
0.00937456	0.0128951	0.0165235	
0.028653	-0.0189246	0.0704866	
-0.00420381	0.000751974	0.0408948	
-0.00144696	-0.00144229	0.0190663	
0.000521915	0.00202501	0.0449533	
0.00310464	0.00888472	-0.01044	
0.000557491	0.000936416	-0.00478379	
0.00144737	-0.00554951	0.0246078	
0.00762233	-0.0238298	0.0509328	
0.00018907	-0.00741863	0.0520745	
0.0150504	-0.0581392	-0.0063352	
-0.00138495	0.0168808	-0.0326468	
-0.0106929	-9.14443e-05	-0.0311778	
-0.00860027	-0.0388215	-0.0193557	
-0.00908111	0.0144295	-0.0106585	
-0.0155466	0.0110431	-0.0220754	
0.00219208	-0.0114656	-0.0525478	
0.00407104	-0.019715	-0.0550541	
0.00241752	-0.00948702	0.00212352	
-0.000102063	-0.00735305	0.00115457	
-6.87113e-05	0.000449019	-0.00356583	
0.00459392	0.0018392	0.00552801	
0.00496803	-0.032647	-0.0613131	
-0.018224	-0.00818786	-0.0474037	
-0.0278096	-0.0293919	-0.0336226	
0.0035857	-0.0438962	-0.057225	
0.000910145	-0.00489656	0.000985305	
0.000584878	-0.00603319	-0.000182287	
0.000780268	-0.00541812	-0.00114326	
-0.00196026	0.00497178	-0.00487259	
0.000895713	-0.000528667	0.00377305	
-0.00198023	-0.00213028	-0.00105835	
0.000477009	-0.00176537	-0.0021726	
0.00422464	-0.00295114	-0.0096664	
-0.0182268	-0.0441746	-0.016189	
0.0535939	-0.0629437	-0.0306975	
0.00658188	-0.0476012	-0.0532487	
-0.0022317	-0.0490786	-0.0498226	
-0.00615677	-0.00373871	-0.034402	
-0.0154243	-0.0482616	-0.0315771	
0.00287364	-0.0463771	-0.0509383	
0.00716511	-0.00915428	-0.0408297	
0.00948914	-0.0492255	-0.0325405	
0.000799837	-0.0593532	-0.0520371	
0.000912003	-0.0114179	-0.0137646	
1.0369e-06	6.79391e-06	9.04128e-06	
0.00784022	-0.00218396	-0.0209309	
-0.00216829	0.00303555	0.00645517	
0.00245343	-0.0238207	-0.0178805	
-0.0202972	-0.00158148	0.0271852	
0.00440911	-0.000216408	-0.0106417	
0.00643566	0.00101784	-0.0129	
0.0195884	0.0104985	-0.0132491	
0.00528586	0.0126154	-0.00412699	
0.00671242	0.00347524	-0.0121433	
0.0125136	0.014794	-0.0057308	
0.00967312	0.00536366	-0.0129355	
0.017033	-0.00118831	0.0433994	
0.00163461	-0.00385279	0.00293581	
0.000135688	-0.00223487	0.0279183	
3.54203e-05	0.00124765	0.00188139	
0.00906424	0.0123574	-0.00702205	
0.00492011	0.0124388	-0.0025812	
0.00233257	0.0110299	0.00151005	
-0.00145243	0.00861955	-0.00584654	
0.0103571	0.000587334	0.031536	
0.00616559	-0.00685102	0.00937151	
0.0035255	-0.000848435	0.0325098	
-6.7725e-05	-0.00011416	0.000197092	
0.00556345	-0.00414295	0.00996544	
0.00018558	5.94143e-05	-0.000370254	
-0.00685616	-0.000691122	0.0233373	
5.57192e-06	0.000189736	-5.51754e-05	
-0.00160086	0.0108397	-0.00127423	
0.00345167	0.0042896	0.000991829	
-0.00850623	0.0057511	0.00775475	
-0.00159897	0.00650985	-0.00478054	
-0.00364393	0.00186475	0.0123188	
0.00418554	0.0109282	4.51334e-05	
0.000306711	-0.00128694	-0.000350572	
-0.00043218	0.010174	-0.000141814	
0.00292473	0.0069223	0.00441235	
0.0024795	0.00100681	-0.000698147	
0.0032984	0.00558516	0.00300378	
-0.00359902	-0.0122407	-0.00483841	
-0.020122	-0.0640695	-0.144101	
-0.00907229	-0.00589347	0.00247969	
0.00163871	0.00649775	0.00178999	
-0.00273664	-0.00457415	0.00392812	
0.0111478	0.00722306	0.0162748	
-0.0232326	-0.0159403	-3.78606e-05	
0.0097633	0.00348996	0.00560231	
-0.000695194	-0.00814142	-0.000191559	
-0.00102726	0.000568748	0.00688765	
0.00132995	-0.00102358	0.00763346	
-0.000316813	-0.00414066	-0.0125125	
0.00938732	0.00419504	0.00678788	
-0.00104385	-0.00316267	0.00420654	
0.00788964	0.00562511	0.00989519	
0.00794156	0.00501098	0.00603788	
0.000922672	-0.00291711	0.00475409	
-0.00447935	-0.015066	-0.00811313	
-0.00131259	-0.00569128	-0.000913144	
0.000252758	-0.00257426	0.00644095	
-0.00202545	0.00100152	-0.000910548	
0.00138213	-0.00167721	0.00205951	
-0.000252557	0.0022483	0.000692585	
-0.000544632	-0.00275293	0.00562344	
-0.000359222	0.000552008	-0.00130905	
0.0190841	0.0153498	0.0159856	
0.00734335	0.00603257	0.00487585	
0.0112902	0.0152148	0.00656445	
0.0240235	0.0146775	0.0183527	
-0.00147172	0.000531878	0.00571377	
-0.000118587	1.30673e-05	0.000789786	
-0.00116994	0.000470564	0.00679792	
0.00236807	0.0059713	0.00143452	
0.000172694	0.000124214	-0.000928563	
9.24451e-05	-0.000915824	0.00604539	
0.000447992	-0.00295152	0.00528596	
-0.000590715	-0.00214756	0.00713197	
0.0279877	-0.0172013	0.00686272	
0.00443563	0.00309602	-0.0251364	
-0.0117366	0.0193309	-0.00497912	
0.000276759	-0.00621777	-0.00224734	
-0.00555	0.0201361	-0.00510935	
-0.0104311	0.0258889	-0.00484854	
-0.0110981	0.00372652	-0.0133734	
-0.00868309	0.00150639	-0.010067	
0.00100871	-0.00635451	0.00520658	
0.000197386	-0.00353729	0.00352579	
-0.00070179	0.00267024	-6.5214e-05	
-0.000926857	0.000247517	0.0034495	
0.000279772	-0.00257869	-0.00782921	
-0.032437	0.0101718	-0.0245773	
-0.0205046	0.0191486	-0.0104918	
0.00232277	-0.00530499	-0.00769957	
0.000928778	-0.00297559	0.00303525	
0.000613958	-0.00255299	0.00293105	
0.000340769	-0.00240472	0.00225012	
-0.00131961	0.00806756	-0.00229	
0.00021484	0.00116806	0.000582926	
0.000851802	0.000416122	0.000487086	
0.000715973	-6.35536e-05	0.000384475	
-0.000224245	9.89086e-05	0.000398254	
-0.0021586	-0.00486435	-0.000810942	
0.0514969	-0.0499644	-0.000295225	
0.00465745	-0.00682046	-0.00716572	
-0.00199582	-0.00620123	-0.00664299	
-0.0100088	0.0141177	-0.00587978	
-0.00110068	-0.00197646	-0.00183101	
0.00035419	-0.00652826	-0.0071503	
0.00081081	-0.00014309	-0.00132348	
0.012668	-0.00963091	-0.00384873	
8.17356e-05	-0.00551977	-0.00452461	
-9.80772e-05	-0.00307964	-0.00287658	
0.000109602	0.00073926	0.00102278	
9.09944e-05	-5.99405e-06	-0.000149511	
-0.00238662	0.00335155	0.00615864	
0.00505655	-0.0234483	-0.0148142	
-0.00303738	-0.00523662	0.0340039	
0.0052212	-0.00106329	-0.0103543	
0.00743131	-0.000835737	-0.0121832	
0.0166783	6.09497e-05	-0.01725	
0.00285048	0.00296161	-0.00660964	
0.00771585	6.97998e-06	-0.0109152	
0.00859657	0.00275284	-0.012778	
0.00984889	-3.89401e-06	-0.011861	
0.0121891	0.00172448	0.0458063	
0.00196965	-0.003794	0.00400724	
0.00158634	0.000875033	0.028728	
-0.000768701	0.00247187	0.00150702	
0.00694629	0.00198717	-0.0095827	
0.00219338	0.00298808	-0.00577093	
0.000648946	0.00329244	-0.00238585	
-0.000684519	0.00227002	-0.00156529	
0.00776179	0.00345999	0.0327653	
0.00632511	-0.00745739	0.00908443	
0.00263673	0.00126117	0.0335525	
-3.79407e-05	8.63765e-05	-0.000176611	
0.00608477	-0.00424705	0.0104705	
0.000135959	3.28659e-05	-8.48701e-05	
-0.00231009	-0.00068819	0.0245599	
-1.38224e-06	6.87335e-05	-2.30485e-05	
-0.000601768	0.00289853	0.00072299	
0.00101362	0.00139201	-0.000122192	
-0.000890905	0.000206987	0.010833	
-0.000578864	0.00162079	-0.00133241	
-0.000844563	-0.000163874	0.0125563	
0.000919773	0.00364642	-0.00501418	
0.00026608	-0.000476107	-0.000167623	
-7.03367e-05	0.00280989	-0.000166592	
0.00100313	0.00222977	0.000214503	
0.00106631	0.000504629	-0.000346366	
0.00107897	0.00181739	0.000144321	
-0.00383756	-0.0126807	-0.0035959	
-0.0433927	-0.0647781	-0.146543	
-0.00335024	-0.00782311	-0.000946564	
0.00214968	0.00598322	0.00268542	
-0.00157674	-0.00288267	0.00042257	
0.00668268	0.0139392	0.00897769	
-0.0137035	-0.0225952	-0.00717431	
0.00601793	0.00800706	0.00388185	
-0.00205563	-0.00683341	-0.00373806	
0.00240521	-0.000987011	0.00563474	
0.00125328	0.00288239	0.0037953	
0.00100668	-0.00854969	-0.0115483	
0.00660579	0.00821721	0.00472687	
-0.000668092	-0.00225288	0.000782857	
0.00394917	0.0104751	0.00602395	
0.00625029	0.00761842	0.00402455	
0.000252926	-0.000676092	0.0016016	
-0.00449745	-0.0151391	-0.0100486	
-0.00187237	-0.00485011	-0.00292822	
-0.000104991	-0.000534237	0.0019912	
-0.000379175	0.000487499	-0.000232661	
0.000397189	-0.000503537	0.000599933	
-0.000540913	0.000486064	3.5188e-05	
-0.000139789	-0.000311683	0.00184691	
-0.000109852	0.000165768	-0.000396151	
0.0106708	0.0219449	0.0126504	
0.00623135	0.00765932	0.00330174	
0.0108639	0.0160529	0.00585944	
0.00910973	0.0274429	0.0118481	
-0.00064924	7.73299e-06	0.00182408	
3.51908e-05	-1.30084e-05	-0.000175331	
-0.00060826	0.000108907	0.00221501	
0.00260339	0.00569633	0.00227565	
0.000125343	4.51925e-05	-0.00053798	
-3.00085e-05	-0.000346648	0.00203886	
6.52463e-05	-0.000540495	0.00161582	
-0.000276219	-0.000233312	0.00241489	
0.0289718	-0.0141844	0.0101176	
0.00470939	0.00579115	-0.0271642	
-0.00690951	0.0218443	-0.00454476	
0.0014254	-0.00280704	-0.000219455	
-0.00601612	0.0195286	-0.00616604	
-0.00844538	0.0266184	-0.00528129	
-0.00826112	0.0114166	-0.00974635	
-0.00711331	0.00838894	-0.00644062	
0.00168748	-0.0075462	0.00386845	
0.000525216	-0.00483959	0.00236301	
-0.000556503	0.00224575	-0.00115268	
0.000562586	-0.00179634	0.00346143	
-0.000174791	-0.000102919	-0.00247025	
-0.0228744	0.0285835	-0.0233217	
-0.00924062	0.0250959	-0.0144914	
0.00137252	-0.00241658	-0.0017885	
0.000852248	-0.00396837	0.00172708	
0.000642512	-0.0037707	0.00185381	
0.000192242	-0.00341184	0.000992148	
-0.00186781	0.00706662	-0.00319445	
-0.000184109	-0.00016779	0.000273483	
-0.000208356	-0.00013705	-0.000122529	
7.80845e-05	-0.000196647	-1.8e-06	
0.000172667	-7.92556e-05	-0.000315781	
-0.00076031	-0.00147647	-6.63351e-05	
0.0273979	-0.0617338	0.022145	
0.00350807	-0.00412136	-0.00108653	
-0.00121434	-0.00151308	-0.00249122	
-0.00553178	0.0167649	-0.00540494	
-0.000401354	-0.000566815	-0.000548882	
0.000116112	-0.00207169	-0.00228894	
0.000374867	-0.000184331	-0.00051523	
0.0117331	-0.00716758	0.00188339	
2.6522e-05	-0.00177247	-0.00137034	
-0.000124098	-0.000762175	-0.000804981	
-3.47608e-05	-0.000224335	-0.000313495	
0.000246723	-4.34642e-05	-0.000390371	
-0.00261866	0.00365934	0.00568813	
0.00822527	-0.0233127	-0.0102438	
-0.00650679	-0.000258922	0.0346763	
0.00556499	-0.00109828	-0.0103691	
0.00736751	-0.00121161	-0.0125771	
0.0116243	-0.00316407	-0.0218232	
0.00130087	0.00218608	-0.00791654	
0.0070379	-0.000931423	-0.0117917	
0.00445916	0.000553108	-0.0154909	
0.00828336	-0.00145956	-0.0134536	
0.0131529	0.000539692	0.0465223	
0.00227193	-0.00315316	0.00519628	
0.00187806	0.000642908	0.0291769	
-0.00108612	0.00376356	0.000338422	
0.00359359	0.000651999	-0.011932	
0.00129323	0.00262947	-0.00665695	
0.000828587	0.00344219	-0.00257272	
-0.000949536	0.00240278	-0.00162219	
0.00801714	0.0027852	0.033393	
0.00587963	-0.00728151	0.00980559	
0.0027671	0.00102365	0.0340653	
0.000118797	-7.25055e-05	8.90214e-05	
0.00647484	-0.00430473	0.0108448	
0.000149641	7.93479e-05	2.95879e-05	
-0.00205392	-0.000313506	0.025246	
-1.23694e-05	0.000251726	-9.54382e-05	
-0.000730377	0.00357405	3.95437e-05	
0.000957759	0.0013925	-0.000142916	
-0.00270036	0.00268961	0.0106272	
-0.000737698	0.00156975	-0.00128783	
-0.00147923	0.000599036	0.0130059	
0.00152336	0.00341575	-0.00559249	
0.000251629	-0.000485303	-0.000168204	
-0.000140909	0.00338617	-0.000868259	
0.00115176	0.00259856	4.82689e-06	
0.00111148	0.000534976	-0.000357758	
0.00117187	0.00200842	7.47526e-05	
-0.00474906	-0.0127063	-0.00302863	
-0.0215701	-0.0573928	-0.161062	
-0.00360913	-0.00607612	-0.000435107	
0.00264225	0.00569145	0.00258584	
-0.00156836	-0.00275757	0.000490305	
0.00635873	0.0132013	0.00870656	
-0.0104831	-0.0234692	-0.00733567	
0.00484078	0.00900773	0.00438992	
-0.00261154	-0.00693556	-0.00389248	
0.000890237	0.00121486	0.00598713	
0.00160282	0.00334804	0.00421186	
-0.004774	-0.00414342	-0.0127576	
0.00508466	0.00953733	0.00507547	
-0.000381906	-0.00191441	0.00068226	
0.00533982	0.0108991	0.00579387	
0.00489192	0.00891421	0.00417013	
0.000482642	-0.000345028	0.00192068	
-0.0052252	-0.0156708	-0.00948963	
-0.00183409	-0.00508998	-0.00271451	
-0.00037366	-0.00118434	0.00161656	
-0.000353097	0.000404508	-0.0004421	
0.000437582	-0.000526722	0.000654627	
0.000494584	0.000452798	-0.000323461	
-0.000122515	-0.000325609	0.00184298	
-8.12717e-05	0.000122675	-0.00029286	
0.0115927	0.0215719	0.0125799	
0.00518854	0.0087255	0.00329519	
0.0102938	0.0168688	0.00566682	
0.0126571	0.0256682	0.0108503	
-0.000485596	3.99262e-05	0.00160586	
2.78673e-05	-1.00881e-05	-0.000121913	
-0.000501147	0.000171643	0.00197102	
0.00291489	0.0056054	0.00225595	
0.000133986	2.8816e-05	-0.000520226	
-3.2039e-05	-0.000315268	0.00161763	
5.42613e-05	-0.000587793	0.00168897	
-0.000212416	-0.000212029	0.00230591	
0.027797	-0.0149617	0.0143664	
0.00485836	0.00444082	-0.0262472	
-0.00817482	0.0217714	-0.00526419	
0.00132365	-0.00289609	0.000566949	
-0.00599663	0.0199953	-0.00596768	
-0.0089911	0.026878	-0.00553771	
-0.00607347	0.013289	-0.00931513	
-0.00506839	0.0100417	-0.006547	
0.00144495	-0.00709855	0.00421193	
0.000494034	-0.00441182	0.00271325	
-0.000629214	0.00246869	-0.000881528	
-0.001099	-0.000775286	0.00342908	
2.44945e-05	-9.78443e-05	-0.00251373	
-0.0174898	0.0337392	-0.0233521	
-0.0125725	0.0236834	-0.015463	
0.000739348	-0.00245418	-0.0017257	
0.000838298	-0.00358758	0.00204506	
0.0006377	-0.00339572	0.00213176	
0.000181211	-0.00307783	0.00141997	
-0.00176164	0.00744924	-0.00301512	
0.000128261	-4.80628e-05	-5.36346e-05	
8.49868e-05	5.22631e-05	5.0599e-05	
3.70765e-05	7.77202e-05	2.25553e-05	
6.54964e-05	-3.29098e-05	-0.000122674	
-0.000855314	-0.00132462	2.13179e-05	
0.0282101	-0.0619059	0.0205111	
0.00241036	-0.00489309	-0.000581013	
-0.000459202	-0.0016653	-0.00222819	
-0.00682524	0.0163053	-0.00634532	
-0.000443972	-0.000728122	-0.000615417	
4.0606e-05	-0.00206294	-0.00222221	
0.000400519	-0.000202516	-0.000568197	
0.00957669	-0.00844489	0.00486732	
-6.97035e-05	-0.00173891	-0.00125893	
-0.000131947	-0.000715553	-0.000867959	
6.73905e-06	4.42509e-05	6.19692e-05	
0.000168934	-3.37358e-05	-0.000277537	
-0.00300236	0.00349557	0.00548596	
0.01001	-0.0220969	-0.00767014	
-0.00694672	-0.000236159	0.0353781	
0.0058456	-0.00114161	-0.0107062	
0.00712642	-0.00124371	-0.0132246	
0.0100561	-0.00403958	-0.0233134	
0.00225753	0.0018826	-0.00768635	
0.00632708	-0.00130574	-0.0127704	
0.00600817	0.000237961	-0.0150791	
0.0070861	-0.00211627	-0.0147098	
0.0136553	0.000545085	0.0473205	
0.00256201	-0.00266917	0.00602755	
0.00182766	0.000922907	0.029638	
-0.000677318	0.00452126	0.0013022	
0.0042861	-4.33746e-05	-0.0118102	
0.00199221	0.00222034	-0.00645511	
0.00100204	0.00336913	-0.00285809	
-0.00103014	0.00250193	-0.00176677	
0.00833617	0.00294187	0.0339977	
0.00543187	-0.00713472	0.0104252	
0.0028503	0.00149114	0.0349596	
8.29953e-05	4.30077e-05	-0.000125583	
0.00677389	-0.00453902	0.0111942	
8.03492e-05	3.94537e-05	0.000118034	
-0.00204	-7.55505e-06	0.0259584	
-9.85453e-06	0.000122669	-5.08203e-05	
-0.000749809	0.00322011	0.000137468	
0.00103097	0.00150177	-0.000157643	
-0.00285	0.00266882	0.0108755	
-0.00092144	0.00187195	-0.00155847	
-0.00148478	0.000826438	0.0135631	
0.00169212	0.00321495	-0.0055964	
0.00022769	-0.000438831	-0.000153904	
-0.000126057	0.00309401	-0.000761125	
0.00123142	0.00279842	4.85702e-05	
0.00109775	0.000480147	-0.000331667	
0.0012538	0.0021894	8.61325e-05	
-0.00562762	-0.0126073	-0.00261451	
-0.010397	-0.0784089	-0.160257	
-0.00300835	-0.00520489	-0.000325535	
0.00303516	0.0054841	0.00260315	
-0.00146818	-0.00266219	0.000310564	
0.00607517	0.0129712	0.00832741	
-0.0118834	-0.0223368	-0.00693002	
0.00547697	0.00894633	0.00406452	
-0.00267599	-0.007167	-0.00428982	
0.000514612	0.00203952	0.00530601	
0.00166157	0.00366454	0.00420291	
-0.00308582	-0.00670941	-0.0116935	
0.00568038	0.00953859	0.00480707	
-0.000385469	-0.00148096	0.000559096	
0.00589551	0.0114983	0.00580272	
0.00502178	0.0090895	0.00410859	
0.000479836	-0.000196726	0.00174969	
-0.00488585	-0.0153985	-0.00997778	
-0.00236174	-0.00467809	-0.00308959	
-0.000411787	-0.00126766	0.00120144	
0.000369771	0.000205652	-0.000150974	
0.000360647	-0.000496262	0.000619994	
0.000520898	0.000226347	-0.000205451	
-0.00010698	-0.000296822	0.00166652	
-6.82955e-05	0.000103889	-0.000249165	
0.0118512	0.0217579	0.0122451	
0.00504163	0.00901395	0.00330138	
0.00997211	0.0173175	0.00578312	
0.0125444	0.0252609	0.0104541	
-0.000409254	5.78702e-05	0.00133865	
1.42007e-06	-1.41243e-06	-8.48995e-06	
-0.000432279	0.000155928	0.00170955	
0.00307636	0.00552792	0.00244349	
7.46319e-05	1.27703e-05	-0.000281897	
-3.64277e-05	-0.00024083	0.0013131	
5.5874e-05	-0.000548197	0.00159054	
-0.00017012	-0.000173273	0.0019244	
0.0259331	-0.0158599	0.0179373	
0.0050122	0.00461055	-0.0262646	
-0.00826545	0.0220715	-0.00514485	
0.00126869	-0.0029258	0.00124035	
-0.00610096	0.0201042	-0.00602651	
-0.0089889	0.0270834	-0.00578975	
-0.0068795	0.0128709	-0.00971554	
-0.00577578	0.00966276	-0.00680183	
0.00151052	-0.00714879	0.00405035	
0.00048299	-0.00449518	0.0026054	
-0.000632625	0.00249621	-0.000963007	
-0.00127066	-0.000889362	0.00337081	
-6.10128e-05	-6.44292e-05	-0.00223515	
-0.0199412	0.0331369	-0.0243375	
-0.0128339	0.0243135	-0.0151656	
0.000608319	-0.00224781	-0.00151033	
0.000824903	-0.0036181	0.00190835	
0.00064687	-0.00348621	0.00201466	
0.000139231	-0.00315436	0.00128931	
-0.00180522	0.00743697	-0.00308856	
-9.09631e-06	3.25638e-06	4.30043e-06	
-8.71204e-06	-5.4945e-06	-5.29221e-06	
3.35738e-07	-6.94206e-06	-4.95724e-07	
7.01566e-05	-3.43672e-05	-0.000129347	
-0.000744404	-0.000902677	3.04952e-05	
0.0300543	-0.0603986	0.0205813	
0.0021227	-0.00477432	-2.96061e-05	
-0.000105518	-0.00171179	-0.00166211	
-0.0069065	0.0165531	-0.00618892	
-0.000301329	-0.000495211	-0.000433009	
1.46304e-06	-0.00173367	-0.00180861	
0.000265203	-0.000134168	-0.000378083	
0.00789275	-0.00885022	0.00647207	
-0.000125204	-0.00156257	-0.00108558	
-0.000125693	-0.000683217	-0.000792363	
-4.69487e-06	-3.12381e-05	-4.37204e-05	
0.000132883	-2.77424e-05	-0.00021723	
-0.00287853	0.00379263	0.00488692	
0.0100136	-0.0209027	-0.00883859	
-0.00600838	-0.00192037	0.0362571	
0.00579251	-0.000851278	-0.0111143	
0.00678069	-0.00150699	-0.0137229	
0.0115685	-0.00481399	-0.0227408	
0.0025401	0.00132888	-0.00785353	
0.00596285	-0.00151278	-0.0130415	
0.00631463	-0.000380423	-0.0149829	
0.00693746	-0.00270845	-0.014713	
0.0146025	1.25673e-05	0.0475023	
0.00278706	-0.00275805	0.00624449	
0.00243868	0.000211679	0.0302642	
-0.000155581	0.00505691	0.000427259	
0.00484969	-0.000335283	-0.0116488	
0.00217337	0.00181758	-0.00673099	
0.000635693	0.00263019	-0.00167915	
-0.000703454	0.00171664	-0.00125895	
0.00889083	0.00258818	0.0343143	
0.0053126	-0.00720002	0.0105942	
0.00342831	0.000841749	0.0355738	
2.55034e-05	3.26938e-05	-6.6885e-05	
0.00695887	-0.00468729	0.0114188	
2.16514e-05	3.46639e-05	5.22911e-05	
-0.00140398	-0.000966949	0.0265017	
-5.57382e-05	0.000563727	-0.000248793	
-0.000760682	0.00316322	0.000296209	
0.00053683	0.000778191	-0.000100226	
-0.00264863	0.00134218	0.0114737	
-0.000623305	0.0012409	-0.00106265	
-0.00143455	-0.00014881	0.0140579	
0.00152847	0.00282495	-0.00538236	
0.000104717	-0.000193883	-8.21737e-05	
-0.000110608	0.00292725	-0.000717635	
0.000725182	0.00161888	1.82523e-05	
0.000471839	0.000212491	-0.000159425	
0.000698599	0.00118835	2.81045e-05	
-0.00601996	-0.012484	-0.00208037	
-0.00447675	-0.0673642	-0.169522	
-0.00278611	-0.00503792	-0.00050282	
0.00330053	0.0053799	0.00296101	
-0.00142499	-0.0027312	-6.41144e-05	
0.00588579	0.0129697	0.00803135	
-0.0115728	-0.0224429	-0.00648138	
0.00558426	0.00895124	0.00463143	
-0.00273302	-0.00732539	-0.00474211	
0.000247805	0.00145595	0.00510522	
0.00157227	0.00369295	0.0038372	
-0.00277857	-0.00534085	-0.0125758	
0.00568182	0.00948076	0.00556042	
-0.00024527	-0.00132751	0.000762396	
0.00587714	0.0118582	0.00585647	
0.00512014	0.00900683	0.00484523	
0.000289693	-0.000253776	0.00115306	
-0.00481553	-0.0153972	-0.0100866	
-0.00218836	-0.00474323	-0.00325735	
-0.00032381	-0.00103407	0.000809756	
0.000243058	0.000146794	-0.000113414	
0.000335374	-0.000340265	0.000377935	
0.000370104	-7.95832e-05	5.09915e-05	
-8.32356e-05	-0.000253762	0.00141812	
4.49331e-06	-6.67653e-06	1.67066e-05	
0.0117819	0.0221047	0.0121488	
0.00515284	0.0090755	0.00419971	
0.00992902	0.0176598	0.00660785	
0.0121035	0.0255379	0.0104045	
-0.000421252	7.01165e-05	0.00136835	
-0.000184028	6.48335e-05	0.000800165	
-0.000378465	0.000142804	0.00147548	
0.00310373	0.00554298	0.00296799	
-0.000107341	-1.85338e-05	0.00040021	
-4.59186e-05	-0.00022904	0.00133203	
4.55842e-05	-0.000435397	0.00126078	
-0.000140434	-0.000129347	0.00155126	
0.0238206	-0.0179535	0.0204501	
0.00552808	0.00477405	-0.0258111	
-0.00828859	0.0223353	-0.00506935	
0.00105769	-0.003062	0.0014816	
-0.00611234	0.0202759	-0.00605616	
-0.00895961	0.0272944	-0.00591584	
-0.00723481	0.0132062	-0.0093683	
-0.00613031	0.00999769	-0.00631097	
0.00148462	-0.00703709	0.0040456	
0.000469716	-0.00438949	0.00267682	
-0.000650811	0.00256286	-0.000956239	
-0.000818958	-0.000246946	0.00356873	
-0.000256885	0.00027494	-0.00170842	
-0.0204771	0.0341816	-0.0240336	
-0.0127248	0.0248476	-0.0150148	
0.000652893	-0.00191767	-0.00109687	
0.000817594	-0.0035261	0.0019086	
0.000636517	-0.00342282	0.00203479	
0.000142278	-0.0030922	0.00133737	
-0.00180977	0.00752849	-0.00309357	
3.26583e-05	-1.91677e-05	-1.56471e-05	
2.13406e-05	1.36026e-05	1.32595e-05	
1.33681e-05	1.99958e-05	3.89744e-06	
5.68527e-05	-2.83318e-05	-0.000105216	
-0.00101639	-0.00106645	3.20409e-05	
0.0297591	-0.0602642	0.0206352	
0.00232013	-0.00424274	0.000349807	
-5.51091e-05	-0.00150017	-0.00132155	
-0.00685816	0.0167212	-0.00606613	
-0.000227685	-0.000372674	-0.00033429	
-2.45172e-06	-0.0013602	-0.00137455	
0.000207352	-0.000104629	-0.00029504	
0.00721552	-0.00892199	0.00713263	
-0.000149793	-0.00158848	-0.0010896	
-8.64786e-05	-0.000445319	-0.00052141	
-8.84832e-07	-6.01237e-06	-8.36213e-06	
0.000111102	-2.35951e-05	-0.000182261	
-0.00306171	0.00346759	0.00485833	
0.00763304	-0.0208302	-0.00963995	
-0.00515592	-0.00293441	0.0367039	
0.00612092	-0.00143955	-0.0110108	
0.00692703	-0.00196002	-0.0134088	
0.0119235	-0.00553093	-0.0226873	
0.00246768	0.000534756	-0.0072547	
0.00657937	-0.00229174	-0.0126339	
0.00647033	-0.00114232	-0.0150513	
0.00757978	-0.00325275	-0.0143209	
0.014854	-0.000471213	0.0476968	
0.0032313	-0.00288677	0.00614877	
0.00263913	-0.000287033	0.030574	
-0.000973732	0.00480429	0.00193942	
0.00511281	-0.00112761	-0.0115107	
0.00197365	0.00066705	-0.0060008	
0.000615246	0.00102154	-0.00128923	
-0.000465267	0.00112693	-0.000836499	
0.00920768	0.00229551	0.0344761	
0.00510431	-0.00722292	0.0107399	
0.00360406	0.000442937	0.035852	
2.21265e-05	3.09173e-05	-5.79521e-05	
0.00685864	-0.00486091	0.0116019	
5.83024e-06	4.54122e-05	3.66943e-05	
-0.00108884	-0.00150197	0.0266198	
-1.66589e-05	0.00014109	-6.33841e-05	
-0.000657265	0.00147386	0.00112198	
0.000297988	0.000431546	-5.91543e-05	
-0.00235383	0.000201814	0.0117467	
-0.000385317	0.000765907	-0.000658482	
-0.00137443	-0.000706698	0.0142288	
0.00146694	0.00102679	-0.00500176	
7.62957e-05	-0.000134876	-6.03467e-05	
-3.83799e-05	0.00110097	-0.000270167	
0.000329158	0.000736809	-2.17703e-06	
0.000299608	0.000138019	-0.000104319	
0.000319757	0.000549314	5.69644e-06	
-0.00676548	-0.0124424	-0.00241773	
-0.00187891	-0.0576932	-0.176148	
-0.00186734	-0.00343836	-0.000371024	
0.00336798	0.00541626	0.0021444	
-0.00120332	-0.00248369	-0.000561573	
0.00522688	0.0120667	0.00685266	
-0.0114641	-0.0214358	-0.00768059	
0.00541799	0.00935641	0.00313453	
-0.0026595	-0.00729034	-0.00520894	
-0.000431252	0.00116906	0.00544835	
0.00179608	0.00475981	0.00382127	
-0.00205152	-0.0046058	-0.0133794	
0.00602569	0.00973686	0.00401431	
-0.000275235	-0.000731595	4.4312e-05	
0.00645238	0.0125849	0.00507359	
0.00573668	0.00907893	0.00326194	
0.00060641	0.000708517	0.00170242	
-0.00461496	-0.0156649	-0.010876	
-0.00242148	-0.00424927	-0.00402062	
-0.000722606	-0.00218006	-9.00444e-05	
0.000179915	0.000122142	-8.06723e-05	
0.00020344	-0.000259549	0.000278961	
0.000315943	-1.54965e-05	5.6112e-05	
-3.77217e-05	-0.000124715	0.000690943	
-0.000127729	0.000196021	-0.000471741	
0.0118109	0.0221907	0.0114357	
0.00570187	0.00894016	0.00244965	
0.010428	0.0175307	0.0050978	
0.0115587	0.0246802	0.00901197	
-0.000168929	2.87282e-05	0.000552696	
0.00018555	-6.91631e-05	-0.000834201	
-0.000253399	9.54923e-05	0.000983923	
0.00333957	0.00563012	0.00192348	
0.00022635	3.33984e-05	-0.000874137	
-2.38047e-05	-0.000103289	0.000618704	
1.42681e-05	-0.000200815	0.000591096	
-0.000114997	-0.00011168	0.00130398	
0.0227929	-0.0180367	0.0215097	
0.00561778	0.00537928	-0.0255375	
-0.00830705	0.0224578	-0.00496917	
0.00171496	-0.00248436	0.00201	
-0.00610149	0.0203087	-0.0060366	
-0.00902577	0.0273997	-0.00588122	
-0.00732899	0.0134955	-0.00912669	
-0.00638975	0.0103777	-0.00603458	
0.00150449	-0.00699188	0.00400164	
0.000466237	-0.00437822	0.002654	
-0.000660993	0.00260168	-0.000963557	
-0.000560255	1.99443e-05	0.00360787	
-0.000200399	0.000237426	-0.00136488	
-0.0205115	0.0351065	-0.0239119	
-0.01274	0.0252668	-0.0149198	
0.00038409	-0.00118077	-0.000725951	
0.000818265	-0.00348778	0.0018702	
0.00062974	-0.00341923	0.00201132	
0.000133731	-0.00308151	0.00133004	
-0.00182097	0.0075675	-0.00312557	
1.24332e-05	-8.49077e-06	-6.76021e-06	
7.55475e-06	4.89146e-06	4.76677e-06	
6.41683e-06	6.99496e-06	1.26944e-06	
2.73874e-05	-1.42101e-05	-5.11851e-05	
-0.000147559	-0.000142693	2.18132e-06	
0.0299184	-0.0599694	0.0204392	
0.00227923	-0.00409683	0.000452537	
0.000538832	-0.00173786	-0.000440345	
-0.0068726	0.0168831	-0.00595327	
-0.000139434	-0.000230202	-0.00020801	
-1.05984e-05	-0.0012254	-0.00126232	
0.000104168	-5.35231e-05	-0.000147958	
0.00716744	-0.00794413	0.00746061	
-4.27009e-05	-0.00045967	-0.000303798	
-5.74865e-05	-0.000311113	-0.000372265	
-1.79569e-06	-1.23912e-05	-1.72797e-05	
5.34956e-05	-1.20727e-05	-8.8396e-05	
-0.00313169	0.00332381	0.00486655	
0.00735668	-0.0208954	-0.00857538	
-0.00503238	-0.00295348	0.0369476	
0.00619235	-0.00163922	-0.0111364	
0.00713572	-0.00215324	-0.0135537	
0.0118691	-0.00554371	-0.023335	
0.00229454	0.000226941	-0.00679645	
0.00656445	-0.0021777	-0.0129941	
0.00619797	-0.00146915	-0.0146978	
0.00759146	-0.00318439	-0.0146818	
0.0149447	-0.000738985	0.047721	
0.00329893	-0.00299411	0.00637666	
0.00275059	-0.000351935	0.030716	
-0.000605893	0.00522997	0.00227139	
0.00498414	-0.0010678	-0.0119082	
0.00182771	0.00034411	-0.00568909	
0.000580416	0.000951903	-0.00116475	
-0.00058593	0.00139723	-0.00104273	
0.00935033	0.00216998	0.0345872	
0.00483383	-0.00725032	0.0109308	
0.00362596	0.000426954	0.036096	
4.66347e-05	-7.15361e-06	1.61868e-05	
0.00671908	-0.00506055	0.0117343	
-9.67637e-06	6.07489e-05	1.26128e-05	
-0.00106096	-0.00145728	0.0267807	
-5.69671e-06	4.30114e-05	-1.96453e-05	
-0.000644467	0.00126418	0.00133497	
0.000280424	0.000412015	-5.69259e-05	
-0.0023325	0.000140093	0.0118514	
-0.000495162	0.000977187	-0.000851634	
-0.00136502	-0.000661927	0.0142886	
0.00139781	0.000949641	-0.00496334	
9.75178e-05	-0.000161099	-7.45658e-05	
-3.08501e-05	0.000968868	-0.000233384	
0.000312701	0.000701916	-3.53287e-06	
0.000299953	0.000143947	-0.000104452	
0.000311135	0.000543703	3.75172e-06	
-0.00648106	-0.0125176	-0.00181498	
-0.0160838	-0.0690529	-0.175498	
-0.00201492	-0.00346605	2.34537e-05	
0.00341875	0.00533091	0.00304912	
-0.00132129	-0.00251822	5.46738e-05	
0.00536357	0.0119976	0.00755954	
-0.0107656	-0.022057	-0.00594172	
0.0056035	0.00922623	0.00517028	
-0.00285917	-0.00774188	-0.00500285	
-0.000512495	0.00156633	0.00498725	
0.00199799	0.00469316	0.00454315	
-0.0016193	-0.00380073	-0.0135022	
0.00571697	0.00983106	0.00602483	
8.73086e-05	-0.000857964	0.00118065	
0.0061986	0.0126433	0.00606211	
0.0052831	0.00936473	0.00515653	
0.000695186	0.000534071	0.00193953	
-0.00454582	-0.0155406	-0.0106835	
-0.00227818	-0.00452355	-0.00388496	
-0.000844423	-0.00238973	0.000118812	
0.000329624	7.86514e-06	3.3305e-06	
0.000317377	-0.000406029	0.000464027	
0.000346744	-0.0001568	0.000169523	
-7.11254e-05	-0.000260184	0.00141913	
3.8551e-05	-5.90899e-05	0.00014321	
0.0116828	0.0222184	0.0120576	
0.00524165	0.00919722	0.00429296	