<VTKFile type="UnstructuredGrid" version="0.1" byte_order="LittleEndian">
	<UnstructuredGrid>
		<Piece NumberOfPoints="11322" NumberOfCells="11322">
			<CellData Scalars="scalars">
				<DataArray type="Float64" Name="Strength" NumberOfComponents="3" Format="ascii">
-0.00774438	-0.0151064	0.013626	
-6.35716e-05	-0.0166021	-0.026425	
0.00683975	0.0726181	-0.00546757	
0.00520438	-0.00682483	-0.00679987	
0.00609835	0.000289566	-0.0111003	
0.0104828	0.0542003	-0.0345965	
0.00687996	0.0854588	-0.0340522	
0.000828981	0.0163807	-0.0183523	
0.00826043	0.0837184	-0.0357507	
0.00168459	0.029546	-0.026335	
0.000304766	0.0175964	0.042195	
0.00474026	-0.0022931	-0.00235844	
-0.00348514	0.0433426	0.00678978	
0.00177482	-0.00105085	0.00172077	
0.0033777	0.0712295	-0.0363712	
0.0079964	0.0869031	-0.0242566	
0.0213846	0.0941193	0.000261076	
-0.00782665	0.0601334	-0.0356028	
0.00237974	0.018679	0.0255892	
0.00591558	-0.011158	0.00719694	
-0.00539587	0.037936	0.0141003	
-0.000357549	-0.00125444	0.00357484	
0.00294233	-0.00518675	0.00996553	
0.000449536	0.00164059	-0.0019399	
-0.000541313	0.0512435	-0.000847888	
-0.000670421	-0.0126888	0.00341485	
0.00597064	0.0881006	-0.0225041	
0.0123371	0.0384885	0.0164503	
0.0160227	0.0866524	-0.00337901	
-0.00971155	0.0426096	-0.0262319	
0.00890125	0.0532284	0.0108678	
0.0147276	0.0906113	-0.00750895	
-6.01633e-06	0.000658884	5.74637e-05	
0.00925447	0.0872676	-0.0146758	
0.00674946	0.0780132	0.0194238	
0.0184585	0.00624125	0.0105967	
0.0121315	0.0553811	0.0241844	
-0.0120346	-0.00632034	-0.0250686	
0.0200266	-0.118031	-0.0770886	
-0.0024208	0.0135039	0.0505682	
0.00113905	0.0118269	-0.0136596	
0.0136079	-0.00783998	0.0536065	
0.0112081	-0.0277476	0.0618532	
-0.0161232	-0.024297	0.0536903	
0.0175038	-0.0129227	0.0521462	
0.0122655	-0.0182902	0.0355845	
0.0125429	0.00092566	0.0160291	
0.00720819	-0.0127049	0.056499	
-0.0196104	-0.0160065	-0.0075204	
0.0100202	-0.00344473	0.048692	
0.00249334	-0.0106555	0.0263766	
0.00422982	0.00609114	0.0551002	
0.00540796	0.00265258	0.0405772	
0.0188665	-0.0169401	0.0447509	
0.0241795	-0.0142203	0.0198801	
-0.0019195	-0.0163606	0.0114253	
0.0102631	-0.0196481	0.0540089	
0.0251084	0.0022037	0.0111584	
-0.0115624	-0.0225929	0.00579309	
-0.0010343	0.00654721	0.0187984	
0.0062562	-0.00945159	0.058957	
-0.00521272	0.00825611	-0.0203811	
0.0216125	0.00766579	0.038532	
0.00413434	0.00460506	0.0316962	
0.00905813	0.0132832	0.0165614	
0.023191	-0.0199302	0.0725313	
-0.00567659	0.00409578	0.0406848	
-0.00221294	-0.000589302	0.0191364	
-0.000270769	0.0050626	0.0448978	
0.00358601	0.00873278	-0.0105141	
0.000738543	0.000831513	-0.00480504	
0.0014414	-0.00475079	0.0248842	
0.00985064	-0.0213876	0.0518548	
0.00192846	-0.00564814	0.0524726	
0.0141117	-0.0586959	-0.00638917	
0.00218454	0.0101961	-0.0355177	
-0.00702745	-9.03745e-05	-0.0323374	
-0.0109315	-0.0392667	-0.0177139	
-0.00952596	0.0141396	-0.0108003	
-0.0148052	0.00985907	-0.0232656	
0.0078602	-0.0102485	-0.0525094	
0.0113374	-0.0176359	-0.0550319	
0.00250405	-0.00957404	0.00176747	
0.00176594	-0.00713598	0.00146583	
0.000102535	0.000579181	-0.00355938	
0.00349224	0.00360246	0.00569657	
0.0128624	-0.0296622	-0.0620512	
-0.0169779	-0.0107277	-0.0476116	
-0.0229743	-0.0335344	-0.0337385	
0.0113007	-0.0424814	-0.0577277	
0.000987043	-0.00491469	0.000909378	
0.00044115	-0.00605424	-0.000420507	
0.000289496	-0.00529328	-0.00183937	
-0.00203491	0.00504617	-0.0048033	
0.000506029	-0.00266348	0.0028946	
-0.00214527	-0.00217844	-0.000540397	
0.00162284	-0.000283927	-0.00231075	
0.00554593	-0.0017511	-0.00933339	
-0.0207301	-0.0445565	-0.0125083	
0.0573533	-0.0568314	-0.0363986	
0.0122125	-0.0467553	-0.0534754	
-0.00129696	-0.0501299	-0.0492772	
-0.00227957	-0.00255637	-0.0351232	
-0.00920794	-0.0514068	-0.0294349	
0.00590988	-0.0463811	-0.0511238	
0.00942894	-0.00470954	-0.0413019	
0.00748143	-0.0495796	-0.0330676	
-0.000270662	-0.0602154	-0.0516353	
0.00104461	-0.0116744	-0.0136428	
1.27702e-06	6.81224e-06	9.05625e-06	
0.0103757	0.00136239	-0.0199735	
-0.0020591	0.00315313	0.00648213	
0.000892283	-0.0230001	-0.019231	
-0.0203066	-0.00110291	0.027371	
0.00468302	-0.000186261	-0.0105932	
0.00668188	0.00115569	-0.0128508	
0.0201135	0.0115908	-0.0117153	
0.00548455	0.0129465	-0.00288088	
0.00672729	0.00369023	-0.0121598	
0.0126734	0.0155752	-0.00299451	
0.00962252	0.00574399	-0.0129237	
0.018333	0.00805955	0.042292	
0.0011843	-0.00339932	0.00365434	
-0.000873845	0.00107782	0.0280738	
0.000319521	0.00151819	0.00167233	
0.00949652	0.0128763	-0.00555524	
0.00480616	0.0127409	-0.00134873	
0.00167583	0.0110848	0.00217528	
-0.00114942	0.00838115	-0.00632838	
0.0111512	0.0073045	0.0305274	
0.00330192	-0.00635885	0.0110762	
0.00279977	0.00397895	0.0324633	
-0.000245193	1.22567e-05	-9.74548e-06	
0.00380274	-0.00324841	0.0111098	
-0.000143974	0.000337621	-0.000200232	
-0.00752217	0.000384473	0.0232345	
-3.82915e-07	0.000189764	-5.97693e-05	
-0.00167409	0.0108437	-0.00153693	
0.0039276	0.00392476	0.000838423	
-0.00932188	0.00530036	0.00720249	
-0.00180134	0.00624446	-0.00511975	
-0.00371699	0.00221336	0.0122916	
0.00369908	0.0110857	0.0012269	
-0.000569761	-0.00122198	0.000259395	
-0.000713493	0.0102021	-0.000110425	
0.00282703	0.00687075	0.00461863	
0.00262499	0.000238546	-0.000870014	
0.00361435	0.00545965	0.00293728	
-0.00288682	-0.0125167	-0.00482501	
0.026431	-0.0886361	-0.13012	
-0.0100931	-0.00386515	0.00271966	
0.00162458	0.00654358	0.00178075	
-0.00361059	-0.0039912	0.0039001	
0.0122743	0.00495394	0.0164203	
-0.0245521	-0.0140574	0.00081901	
0.0102079	0.00273067	0.00534364	
-0.000124597	-0.00819742	-0.00019649	
-0.0011159	0.000465431	0.00690514	
0.000849024	-0.000941752	0.00774174	
-0.000991494	-0.00428319	-0.0124788	
0.00999372	0.00339681	0.00647208	
-0.00120326	-0.00294687	0.00434797	
0.00875486	0.00495782	0.00960045	
0.00851129	0.00452562	0.00574173	
0.00066355	-0.00295967	0.00479441	
-0.00385361	-0.0153737	-0.00798917	
0.000710096	-0.00580918	-0.000993345	
-0.000469558	-0.00233693	0.00654595	
-0.00196448	0.00125733	-0.000732739	
0.00145722	-0.00178531	0.00192744	
-0.000186318	0.00227632	0.000649271	
-0.00117524	-0.0025626	0.00564398	
-0.000360738	0.000535346	-0.00132402	
0.0201377	0.0149389	0.015297	
0.00769098	0.00584031	0.00468962	
0.0113893	0.0153063	0.00650803	
0.0267902	0.0108989	0.017386	
-0.0014286	0.00100014	0.00568708	
-0.000145053	5.22973e-05	0.000787706	
-0.000886219	0.00100789	0.00681091	
0.00244032	0.00598229	0.00142972	
0.000206616	9.99173e-05	-0.000929698	
4.81013e-05	-0.000655949	0.00610557	
-0.000265945	-0.00284588	0.00538055	
-0.00106034	-0.00182692	0.00719819	
0.0288538	-0.0171844	0.00325251	
0.00333654	-0.00133396	-0.0255746	
-0.0105638	0.0201965	-0.00459174	
5.28227e-05	-0.00630189	-0.00212482	
-0.00483626	0.020536	-0.00455425	
-0.00907743	0.0266108	-0.00428326	
-0.0102388	0.00275829	-0.0143657	
-0.00819044	0.000858926	-0.0106232	
0.00138065	-0.0063323	0.0051931	
0.000193397	-0.00347636	0.00360921	
-0.0006803	0.00268702	-1.03345e-05	
-0.000859243	0.0021482	0.00283683	
0.000550102	-0.0022745	-0.00794862	
-0.0323072	0.0067249	-0.0262089	
-0.0217558	0.0188774	-0.00865507	
0.00272546	-0.00485481	-0.00791913	
0.00112385	-0.00298072	0.0029854	
0.000839547	-0.00252569	0.00291648	
0.000563589	-0.00243374	0.00218943	
-0.00119709	0.00816539	-0.00211716	
0.00107143	0.000585683	0.000557331	
0.000973544	0.00032403	0.000301969	
8.8003e-05	0.000699372	0.000411999	
-0.000267644	7.8694e-05	0.000377582	
-0.00228881	-0.00489111	-0.000329203	
0.0590923	-0.040331	-0.00869481	
0.00513421	-0.00615785	-0.00751269	
-0.00192444	-0.00654931	-0.00638761	
-0.00901441	0.014982	-0.00557644	
-0.0010757	-0.00209895	-0.00172581	
0.00068275	-0.00657945	-0.00714275	
0.000820693	-7.26336e-05	-0.00133064	
0.0125857	-0.00930492	-0.00507926	
-3.73476e-06	-0.00564413	-0.00442587	
7.70429e-05	-0.00317683	-0.00279789	
0.00011633	0.000725913	0.00103704	
0.000107429	1.66813e-06	-0.000139202	
-0.00228415	0.00345871	0.00618814	
9.11557e-05	-0.0251049	-0.0130587	
-0.00222411	-0.00425481	0.0343411	
0.00555995	-0.000960507	-0.0102596	
0.00780454	-0.000615015	-0.0120532	
0.0181351	0.000543683	-0.0158856	
0.00338477	0.00307379	-0.00634367	
0.00798874	0.00027749	-0.0108004	
0.0100648	0.00313321	-0.0116612	
0.0103004	0.000328541	-0.011573	
0.0129622	0.0118342	0.0442361	
0.00166857	-0.00299304	0.00477729	
0.00109396	0.00301975	0.0287106	
3.80597e-05	0.00235438	0.00186781	
0.00803834	0.00219714	-0.00871596	
0.00241896	0.00308778	-0.00566475	
0.000454322	0.00329617	-0.00245456	
-0.000645724	0.00217615	-0.00173047	
0.00887973	0.00969131	0.0313185	
0.0044199	-0.00697368	0.0105452	
0.00257784	0.00495882	0.033334	
0.000130986	-9.07868e-06	0.000157924	
0.00536234	-0.003775	0.0110804	
-0.000107102	0.000113014	-5.26716e-05	
-0.00270526	0.000152923	0.0246241	
-3.68726e-06	6.85879e-05	-2.44197e-05	
-0.000997511	0.00283473	0.000583191	
0.0012634	0.00117653	-0.000150519	
-0.00118951	0.000442188	0.0108413	
-0.000610585	0.00153186	-0.00143675	
-0.000799364	0.000158122	0.012608	
0.000812432	0.00361969	-0.00508553	
-8.17214e-05	-0.000564843	4.51036e-05	
-0.000387591	0.00278947	-0.00025998	
0.00100422	0.00224509	0.000154363	
0.00117164	0.000133505	-0.000363717	
0.00117979	0.00176866	6.40308e-05	
-0.00312767	-0.0129679	-0.00355	
-0.0164015	-0.0734496	-0.14883	
-0.00389321	-0.00763278	-0.000708823	
0.00216716	0.00601153	0.00270394	
-0.00169443	-0.00282738	0.000440495	
0.00708807	0.0139747	0.00875195	
-0.0145626	-0.0223504	-0.00671855	
0.0064384	0.00783676	0.00369267	
-0.0019817	-0.0068388	-0.00382877	
0.00249849	-0.000823086	0.00564719	
0.0013246	0.00289793	0.00378358	
-0.00190477	-0.0079214	-0.0119411	
0.00722003	0.00793545	0.00444285	
-0.000786378	-0.00220225	0.000848656	
0.00472946	0.0104604	0.00558204	
0.00682946	0.00737677	0.00366075	
0.000287272	-0.000680859	0.00160072	
-0.00474061	-0.0153131	-0.00979032	
-0.00182467	-0.00499998	-0.00274373	
-0.000135271	-0.000508978	0.00200386	
-0.000402517	0.000497501	-0.000170425	
0.000437349	-0.000515039	0.000565838	
-0.000609574	0.000367003	0.000166341	
-0.000198757	-0.000252604	0.00185798	
-0.000112984	0.00016258	-0.000399183	
0.011589	0.0220386	0.0119142	
0.00662657	0.00752673	0.00299231	
0.0109759	0.016175	0.0056873	
0.0108104	0.0274678	0.010634	
-0.000663042	0.000146172	0.00182184	
3.97104e-05	-2.32605e-05	-0.000174305	
-0.000643332	0.000285917	0.00219904	
0.00266486	0.00570783	0.00228085	
0.000142767	2.99447e-05	-0.000537732	
-9.68516e-05	-0.000260784	0.00205846	
6.28097e-05	-0.000532959	0.00162493	
-0.000354399	-0.000127773	0.00242244	
0.0302662	-0.0140361	0.00650959	
0.00801551	0.00242054	-0.0270015	
-0.00499313	0.0226314	-0.00359292	
0.00142299	-0.00282068	-0.000284779	
-0.00585799	0.0199157	-0.00530436	
-0.00736076	0.0273007	-0.00383617	
-0.00738909	0.0115242	-0.0104353	
-0.00680185	0.00859997	-0.00661459	
0.00199009	-0.00754767	0.00378787	
0.000592048	-0.00477348	0.00251829	
-0.000520767	0.00230236	-0.00107642	
-0.000556699	-0.00179994	0.00348253	
-0.000237772	-4.42768e-05	-0.00247825	
-0.0222649	0.0281153	-0.0248032	
-0.00933844	0.0255722	-0.0138444	
0.0014145	-0.00233146	-0.00189508	
0.00100971	-0.00397195	0.00167243	
0.000751239	-0.00377334	0.00184085	
0.000362758	-0.00340554	0.00100887	
-0.001889	0.00717089	-0.00301652	
0.000112784	0.000349393	0.00012648	
-0.000238867	-0.000126827	-6.78664e-05	
0.00019105	5.14235e-05	-7.70327e-05	
0.000207935	-5.46117e-05	-0.00030114	
-0.000775222	-0.0014769	9.4068e-05	
0.0386033	-0.05684	0.0193625	
0.00373743	-0.00388492	-0.00130771	
-0.00133768	-0.0016614	-0.00234913	
-0.00383761	0.0174759	-0.00485564	
-0.000410088	-0.000608332	-0.000502015	
8.43327e-05	-0.00212403	-0.00226262	
0.000398882	-0.000175996	-0.000503605	
0.0121294	-0.00682956	0.000898296	
-3.52588e-05	-0.00182716	-0.00131537	
-9.9683e-05	-0.000794704	-0.000783465	
-3.49437e-05	-0.000220463	-0.000317887	
0.00028606	-2.4803e-05	-0.000366685	
-0.00255605	0.00375733	0.00570516	
0.00269764	-0.0261449	-0.00562274	
-0.00608843	0.000935631	0.0348845	
0.0058985	-0.000978429	-0.0102716	
0.0077044	-0.00105325	-0.0124818	
0.0129309	-0.00336965	-0.0211896	
0.00148127	0.00196498	-0.00798326	
0.00733934	-0.000823202	-0.0116997	
0.00540071	0.00024618	-0.0152775	
0.00871164	-0.00143376	-0.0132809	
0.0142027	0.0103653	0.045214	
0.00464802	-0.00276288	0.00365984	
0.00118668	0.00309895	0.0291627	
-0.00183261	0.00355937	-0.00053532	
0.00426007	0.000384832	-0.0117855	
0.00131404	0.00248275	-0.00674568	
0.000959422	0.00342626	-0.00258019	
-0.00102358	0.00225755	-0.00180293	
0.00892516	0.0094262	0.0320432	
0.00418141	-0.00636919	0.0112681	
0.00272209	0.00520458	0.0338084	
7.67188e-05	-1.64485e-05	-0.000148177	
0.00506095	-0.0043945	0.0115903	
-7.6973e-05	9.64768e-05	-0.000118752	
-0.00237103	0.00097692	0.0252998	
-1.9671e-05	0.000251109	-9.98919e-05	
-0.000947985	0.00353895	-8.91936e-05	
0.00120628	0.00118487	-0.000200893	
-0.00277268	0.00293787	0.0105923	
-0.000795487	0.00147576	-0.00137912	
-0.00151508	0.00104861	0.0130251	
0.00170659	0.00337215	-0.00560175	
-0.00010687	-0.000562126	4.29007e-05	
-0.000222174	0.00337532	-0.00095316	
0.00133073	0.00252474	-2.79882e-05	
0.00122236	0.000157835	-0.000377823	
0.001394	0.00187433	2.18417e-05	
-0.0041306	-0.0130288	-0.00291794	
-0.0211907	-0.0506139	-0.164058	
-0.00380083	-0.00599814	-0.00034595	
0.0026928	0.00570132	0.00260849	
-0.00165451	-0.00271878	0.000504284	
0.00659105	0.0132572	0.00858099	
-0.0108345	-0.0235885	-0.00688341	
0.00504592	0.00905053	0.00420399	
-0.00246088	-0.00693183	-0.0040581	
0.00368186	0.000919361	0.0057226	
0.00167215	0.00335307	0.00420966	
-0.00507611	-0.00618256	-0.011843	
0.00547017	0.00953788	0.00480898	
-0.000455406	-0.00188976	0.000732288	
0.00553713	0.0110388	0.00546581	
0.00530409	0.00890418	0.00382313	
0.000533027	-0.000384399	0.0019075	
-0.0051698	-0.0157753	-0.00947988	
-0.00156754	-0.00514521	-0.0028236	
-0.000402427	-0.00117226	0.00162783	
-0.000496179	0.000261276	-0.000415634	
0.000687559	-0.000392863	0.00052627	
0.00039434	0.000415079	-0.000481295	
-0.000183053	-0.000280588	0.00185276	
-8.59907e-05	0.000121536	-0.000293955	
0.0122623	0.0215956	0.0121592	
0.00550339	0.00872972	0.00293483	
0.0103779	0.0170429	0.00537998	
0.0130285	0.0259031	0.010186	
-0.00054863	0.000142018	0.001587	
3.09566e-05	-1.71631e-05	-0.000121075	
-0.000594037	0.000299717	0.00193816	
0.00299136	0.0056086	0.00225577	
0.000147719	1.39618e-05	-0.000520107	
-9.04052e-05	-0.000253597	0.00163359	
6.97489e-05	-0.000593711	0.00169324	
-0.000309515	-0.000126277	0.0023105	
0.0294265	-0.0146729	0.011617	
0.00739109	0.00168482	-0.0260842	
-0.00693741	0.0224756	-0.0044567	
0.00137699	-0.00288918	0.000571875	
-0.00598042	0.0203206	-0.00513015	
-0.00855406	0.0273823	-0.0041995	
-0.00486604	0.0136727	-0.00961477	
-0.00452862	0.0103703	-0.00655255	
0.00172839	-0.00709851	0.00416332	
0.000424569	-0.00443016	0.00272863	
-0.000621629	0.00250845	-0.000801711	
-0.00101745	0.000529668	0.00353739	
-1.86082e-05	-3.66277e-05	-0.00252705	
-0.0163924	0.0338979	-0.0242923	
-0.012326	0.0240842	-0.0152996	
0.000726586	-0.00244326	-0.00177299	
0.000983313	-0.00359202	0.00200283	
0.000763022	-0.00339382	0.00212025	
0.000469323	-0.00306968	0.00139895	
-0.0018063	0.00754359	-0.00282952	
-6.51419e-05	0.000136919	-5.24713e-06	
9.74336e-05	4.72802e-05	2.95801e-05	
-5.03253e-05	2.94981e-05	6.722e-05	
7.98405e-05	-2.25071e-05	-0.000117077	
-0.000868237	-0.00131527	0.000171422	
0.0372906	-0.0581285	0.0179863	
0.00254751	-0.00484549	-0.000647136	
-0.000556256	-0.00175829	-0.00215104	
-0.00556017	0.0169853	-0.00601718	
-0.000423821	-0.000772512	-0.000582215	
-4.48482e-05	-0.00213356	-0.00217577	
0.000445347	-0.000182279	-0.000545205	
0.0101635	-0.00815294	0.00434506	
-0.000129695	-0.00180077	-0.00118351	
-0.000131746	-0.000738221	-0.000855542	
6.65734e-06	4.34726e-05	6.2862e-05	
0.000204359	-8.67369e-06	-0.000256392	
-0.00298221	0.00358354	0.00549387	
0.00950944	-0.0236731	0.000487956	
-0.00666523	0.00093538	0.0355713	
0.00615178	-0.00103277	-0.0106239	
0.00739468	-0.00117492	-0.0131774	
0.0108454	-0.00449785	-0.0230138	
0.00225179	0.00174557	-0.00776159	
0.00661194	-0.00136663	-0.0127037	
0.00617187	-3.69725e-05	-0.0150993	
0.0074723	-0.0022853	-0.0145882	
0.0140115	0.0108518	0.0461368	
0.00236954	-0.00223509	0.0063026	
0.0014898	0.00366257	0.0295547	
-0.000460278	0.00450939	-0.00151072	
0.00443617	-0.000336427	-0.011814	
0.00197958	0.00214718	-0.00652007	
0.00116461	0.00335514	-0.00284391	
-0.00120181	0.00231735	-0.00193096	
0.00896064	0.0100411	0.0325811	
0.00303078	-0.00597594	0.0120635	
0.00321537	0.00578206	0.0346061	
-2.61057e-05	3.40213e-05	-0.000170074	
0.00492948	-0.00522058	0.0118978	
5.53063e-05	9.86715e-05	9.6712e-05	
-0.00230829	0.00141415	0.0259986	
-1.28356e-05	0.000122136	-5.32272e-05	
-0.00086556	0.00320902	6.71636e-05	
0.00130128	0.00127418	-0.000229482	
-0.00289317	0.00287034	0.0108643	
-0.00105366	0.00171259	-0.001675	
-0.00150373	0.0013444	0.0135732	
0.00189639	0.00320821	-0.00557037	
-0.000105621	-0.000507375	3.5313e-05	
-0.000184711	0.00309399	-0.000808775	
0.0014422	0.00271081	2.17247e-05	
0.00119942	0.000104221	-0.000328039	
0.0015131	0.00203342	3.04588e-05	
-0.00513036	-0.0129367	-0.00244145	
-0.0241864	-0.0777704	-0.15979	
-0.00316764	-0.00514298	-0.000247405	
0.0031078	0.00548646	0.00260844	
-0.001553	-0.0026259	0.000322346	
0.00629334	0.0130411	0.00818714	
-0.0119322	-0.0225634	-0.00657251	
0.00550643	0.00905804	0.00392706	
-0.00256826	-0.00710477	-0.0045181	
0.000736726	0.00172578	0.00541168	
0.00173019	0.00367406	0.00419763	
-0.00435224	-0.00664295	-0.011381	
0.00577792	0.00964861	0.00462272	
-0.000410714	-0.00147043	0.000589664	
0.00601806	0.0116485	0.00551618	
0.00524062	0.00916194	0.0038236	
0.000526347	-0.000241072	0.00173779	
-0.00512231	-0.0155737	-0.00971097	
-0.00332998	-0.00437853	-0.00265541	
-0.000443017	-0.00125768	0.00121074	
0.000382914	0.00018883	-0.000146165	
0.000561132	-0.000485834	0.000464288	
0.000487706	0.00025685	-0.000252038	
-0.000162662	-0.000255344	0.00167551	
-7.43112e-05	0.00010358	-0.000249262	
0.0123781	0.0218585	0.0118137	
0.00523242	0.00909013	0.00296738	
0.0100385	0.0175228	0.00543577	
0.0127686	0.0255444	0.00983753	
-0.000462045	0.000138741	0.00132164	
1.55236e-06	-2.08419e-06	-8.43524e-06	
-0.000522708	0.000266213	0.00167794	
0.00314407	0.00553994	0.00243225	
8.1759e-05	4.83642e-06	-0.000281783	
-6.86824e-05	-0.000206325	0.0013237	
8.20856e-05	-0.000560548	0.00159164	
-0.000256571	-9.62025e-05	0.00192795	
0.0274465	-0.0155505	0.0162593	
0.00741902	0.00193627	-0.0261362	
-0.00708885	0.0227492	-0.00435291	
0.00132811	-0.00289351	0.00130206	
-0.00607741	0.0204288	-0.00520822	
-0.00852537	0.0276032	-0.00446813	
-0.0058709	0.0134202	-0.00978154	
-0.0052739	0.0100401	-0.00678266	
0.00175073	-0.00715564	0.00400229	
0.000461849	-0.00450042	0.00263544	
-0.000622337	0.00253905	-0.000883601	
-0.00120378	0.000330244	0.00353983	
-1.39945e-05	3.49274e-05	-0.00224701	
-0.0190431	0.0336182	-0.0247872	
-0.0126726	0.024678	-0.0149835	
0.000655278	-0.00221698	-0.00156061	
0.000947504	-0.00362478	0.00187079	
0.000764652	-0.00348909	0.00199709	
0.00043809	-0.00315389	0.00125415	
-0.00184812	0.00753139	-0.00290967	
6.23692e-06	-8.72259e-06	2.31948e-06	
-9.95365e-06	-5.08971e-06	-3.17212e-06	
5.77063e-06	1.13097e-06	-3.72268e-06	
8.55662e-05	-2.29534e-05	-0.000123171	
-0.00076447	-0.000884858	0.000131887	
0.0376833	-0.0569847	0.018747	
0.00222793	-0.00475442	-5.10636e-05	
-0.000181165	-0.00177349	-0.00160717	
-0.00578498	0.0171865	-0.00584432	
-0.000283961	-0.000521707	-0.000418527	
-6.3939e-05	-0.00179034	-0.00176917	
0.000292264	-0.000120554	-0.000365147	
0.00840511	-0.00856737	0.00635196	
-0.000181977	-0.00162239	-0.00100372	
-0.000110074	-0.000694223	-0.000791396	
-4.50882e-06	-3.07004e-05	-4.43589e-05	
0.000160177	-8.83114e-06	-0.000201046	
-0.00292886	0.00387126	0.00485029	
0.0125533	-0.0214522	0.000959126	
-0.00587492	-0.000828485	0.0364738	
0.00602855	-0.000774046	-0.0110742	
0.00701848	-0.00153444	-0.0136951	
0.0117748	-0.0052476	-0.0226874	
0.00255102	0.00122529	-0.00790867	
0.00611238	-0.00164689	-0.0130407	
0.00643487	-0.000570191	-0.015011	
0.00720048	-0.0029584	-0.0146353	
0.0148179	0.0107012	0.0463962	
0.00258918	-0.00283716	0.00632306	
0.00243127	0.00294638	0.0302354	
-0.00106947	0.00499301	6.96037e-05	
0.00487691	-0.000536907	-0.0116955	
0.00218761	0.00175735	-0.00677954	
0.000737725	0.00262193	-0.00167675	
-0.000848709	0.00159056	-0.00135099	
0.00929708	0.00997118	0.0329594	
0.00320517	-0.00591137	0.0121826	
0.00391236	0.0052844	0.0352696	
4.06788e-05	1.52473e-05	-6.57144e-05	
0.00529981	-0.00576225	0.0118685	
1.09021e-05	4.74967e-05	4.54621e-05	
-0.00180799	0.000451316	0.026594	
-6.76994e-05	0.000561505	-0.000259237	
-0.00086726	0.0031567	0.000233753	
0.000677718	0.000655988	-0.000146246	
-0.00269701	0.00153588	0.0114902	
-0.000740739	0.0011198	-0.00113374	
-0.0016179	0.000433288	0.0140878	
0.00171249	0.00281061	-0.00536727	
-4.76791e-05	-0.000231027	4.87325e-06	
-0.000161475	0.00292798	-0.000761381	
0.00084364	0.0015692	-1.83753e-06	
0.000517573	4.3486e-05	-0.000160151	
0.000835046	0.00110427	-8.73673e-06	
-0.00564892	-0.0127756	-0.00185886	
0.00237674	-0.0668507	-0.170441	
-0.00293478	-0.00498957	-0.000404887	
0.00337815	0.00538936	0.00294488	
-0.00150336	-0.00270269	-5.1735e-05	
0.00609017	0.0130532	0.00787589	
-0.0117437	-0.0226001	-0.00611258	
0.00562825	0.00905764	0.00450996	
-0.00266217	-0.00732438	-0.00484801	
0.000181957	0.000924973	0.00525434	
0.00163405	0.00370368	0.00383168	
-0.00503411	-0.00479067	-0.0121438	
0.00571885	0.0096272	0.00540771	
-0.000274394	-0.00131131	0.000794237	
0.00596928	0.0120552	0.00550146	
0.00516367	0.00918443	0.00460083	
0.000321412	-0.000272058	0.0011453	
-0.00469056	-0.0154503	-0.0101941	
-0.00234684	-0.0047229	-0.00321298	
-0.000349025	-0.00102642	0.000817346	
0.000242665	0.000147941	-0.000115426	
0.00043674	-0.000346214	0.000250084	
0.000285104	-0.000217261	0.000135768	
-0.000130084	-0.000218556	0.00142606	
4.94007e-06	-6.60953e-06	1.67259e-05	
0.012205	0.0222931	0.011662	
0.00515071	0.00927453	0.00391889	
0.00990978	0.0179344	0.00624803	
0.0122483	0.0259028	0.00967651	
-0.000479283	0.000155664	0.00134846	
-0.000223286	0.000113983	0.000789103	
-0.000458164	0.000240949	0.00144639	
0.00315583	0.0055803	0.0029321	
-0.000118741	-6.428e-06	0.000399674	
-7.92171e-05	-0.000190049	0.00134273	
7.02362e-05	-0.000444678	0.00126166	
-0.000211748	-6.52172e-05	0.00155345	
0.0248103	-0.0177655	0.0197773	
0.00569048	0.0019643	-0.0262419	
-0.00716019	0.0230037	-0.00421203	
0.00107434	-0.00301654	0.00160291	
-0.00611614	0.0205852	-0.00526818	
-0.00866925	0.0277584	-0.00463766	
-0.00639583	0.0137135	-0.00940637	
-0.00574375	0.0103457	-0.00624506	
0.00168461	-0.0070494	0.00400541	
0.000447995	-0.00442248	0.00266057	
-0.000644812	0.00260366	-0.000877942	
-0.000599624	0.00110307	0.00346937	
-0.000212581	0.000348368	-0.00170948	
-0.0196428	0.0348295	-0.024214	
-0.0126935	0.0251836	-0.0147609	
0.000717693	-0.0018797	-0.00114494	
0.000922236	-0.00353443	0.00187703	
0.000752623	-0.00342735	0.00201533	
0.000456262	-0.00309425	0.00129096	
-0.00185289	0.00762086	-0.00292067	
-1.29753e-05	3.81517e-05	1.01188e-05	
2.43154e-05	1.27357e-05	8.29422e-06	
-1.59138e-05	9.57506e-06	1.5787e-05	
6.92764e-05	-1.91229e-05	-0.000100327	
-0.00105465	-0.00102949	0.000151474	
0.0365289	-0.0572765	0.0192919	
0.00242285	-0.00421409	0.00033294	
-9.82328e-05	-0.00154437	-0.00128279	
-0.00590322	0.0173121	-0.00564734	
-0.000213909	-0.000389886	-0.00032755	
-2.37271e-05	-0.00139239	-0.0013554	
0.000227105	-9.25734e-05	-0.000286484	
0.00749415	-0.00869951	0.00725166	
-0.000223441	-0.00164644	-0.00100543	
-6.95966e-05	-0.000448565	-0.000525258	
-8.26755e-07	-5.92008e-06	-8.47945e-06	
0.000133364	-7.78848e-06	-0.000169274	
-0.00312899	0.00353585	0.00482031	
0.0127133	-0.0206057	0.00175621	
-0.00508102	-0.00187625	0.0369411	
0.00633924	-0.00140054	-0.0109751	
0.00709185	-0.00198868	-0.0134146	
0.0120673	-0.00589908	-0.0226723	
0.00249884	0.00043332	-0.00728921	
0.00665738	-0.00240053	-0.0126623	
0.00657606	-0.00134615	-0.015074	
0.00762282	-0.00347628	-0.0143468	
0.0147414	0.0102919	0.0467997	
0.00308832	-0.00311951	0.00613819	
0.00263071	0.00255094	0.030586	
-0.0032978	0.00407551	0.000761481	
0.00515926	-0.00131349	-0.0115374	
0.00202869	0.000599352	-0.00602113	
0.00066671	0.00100559	-0.00128665	
-0.000563465	0.00104447	-0.000893844	
0.00939322	0.00979144	0.0332239	
0.00354802	-0.00565494	0.0122606	
0.00420976	0.00502521	0.0355702	
5.91391e-05	3.71061e-05	-5.61501e-06	
0.00555474	-0.0059574	0.0118456	
-2.99992e-06	4.61396e-05	3.64413e-05	
-0.00140359	6.87302e-06	0.0267522	
-1.94632e-05	0.000140538	-6.57985e-05	
-0.000721649	0.00148004	0.00108997	
0.000376389	0.00036232	-8.85007e-05	
-0.00238116	0.000391039	0.0117891	
-0.00046545	0.000689394	-0.000698931	
-0.00156597	-6.65381e-05	0.0142841	
0.00160778	0.00099367	-0.00499016	
-4.08202e-05	-0.000161778	2.80038e-06	
-5.57276e-05	0.001101	-0.000288023	
0.000381746	0.000714867	-1.34014e-05	
0.000329751	2.74859e-05	-0.000105526	
0.000384795	0.000509124	-1.13939e-05	
-0.00653598	-0.0127043	-0.00214408	
-0.00310734	-0.0658764	-0.173943	
-0.0019622	-0.0034115	-0.000298906	
0.00343147	0.00543788	0.00210337	
-0.00125977	-0.00247094	-0.000548908	
0.00543133	0.0121425	0.00668957	
-0.0117714	-0.0215437	-0.00730864	
0.00553552	0.0094023	0.00298751	
-0.00251876	-0.00723777	-0.00541038	
-0.000753808	0.000997433	0.00547063	
0.00187986	0.00477078	0.00380809	
-0.00298915	-0.00337424	-0.0136233	
0.00607784	0.00984342	0.00385881	
-0.000291933	-0.000727795	5.97447e-05	
0.00653313	0.0127661	0.00469388	
0.00579048	0.00918948	0.00305287	
0.000666458	0.000676602	0.00170137	
-0.00528089	-0.0155874	-0.0108123	
-0.00230098	-0.0044716	-0.00388348	
-0.000770829	-0.00217304	-8.0873e-05	
0.00018021	0.00012297	-8.09424e-05	
0.000230195	-0.000283816	0.000233246	
0.000281089	-0.000117494	0.000105465	
-5.81201e-05	-0.000108392	0.000695072	
-0.00014192	0.000194784	-0.00047138	
0.0121255	0.0224191	0.0109461	
0.00571603	0.00905906	0.00222746	
0.0103854	0.0177775	0.00477854	
0.011728	0.0250085	0.00824915	
-0.000194422	6.31956e-05	0.000543946	
0.000230529	-0.000120172	-0.000821798	
-0.000309874	0.000161745	0.000963283	
0.00338933	0.00566114	0.00187532	
0.000255515	4.09485e-06	-0.000871652	
-4.04912e-05	-8.41928e-05	0.000623512	
3.15077e-05	-0.000207135	0.000590707	
-0.000170415	-5.83686e-05	0.00130676	
0.0232749	-0.0179978	0.0213561	
0.00494022	0.00199368	-0.0262553	
-0.00725721	0.0230999	-0.00409367	
0.00170876	-0.00244012	0.00210192	
-0.00613043	0.0205999	-0.00529232	
-0.00872863	0.027856	-0.00465229	
-0.00671689	0.0139634	-0.0090565	
-0.00610146	0.0107092	-0.00589682	
0.00166183	-0.00701206	0.00396435	
0.000509123	-0.00442352	0.00260537	
-0.000658904	0.00264035	-0.000888996	
-0.000270538	0.0011563	0.0034821	
-0.000159505	0.000300466	-0.00136455	
-0.0199269	0.035755	-0.0238814	
-0.0127659	0.025574	-0.0146635	
0.000424221	-0.00115577	-0.0007571	
0.000902081	-0.0034986	0.00184356	
0.000739911	-0.00342654	0.00198966	
0.000439376	-0.00309633	0.0012574	
-0.00186394	0.00765762	-0.00296133	
-4.20027e-06	1.52175e-05	5.28269e-06	
8.58956e-06	4.62355e-06	3.05556e-06	
-6.40675e-06	4.45997e-06	5.56522e-06	
3.33671e-05	-9.89475e-06	-4.8898e-05	
-0.000155557	-0.000134519	1.78332e-05	
0.0357243	-0.0575017	0.0192474	
0.00236714	-0.00407534	0.000436062	
0.000531849	-0.00175647	-0.000414642	
-0.00608801	0.0174232	-0.00549121	
-0.000130298	-0.000239031	-0.000206365	
-2.33146e-05	-0.0012503	-0.00124982	
0.000113706	-4.69219e-05	-0.000144195	
0.00732919	-0.0077482	0.0076277	
-6.44381e-05	-0.000475757	-0.0002794	
-4.42357e-05	-0.000311856	-0.000376322	
-1.63746e-06	-1.21999e-05	-1.75281e-05	
6.40589e-05	-4.76774e-06	-8.23772e-05	
-0.00322714	0.00338612	0.00481499	
0.0112557	-0.0210306	0.000201425	
-0.0051392	-0.00189378	0.0371608	
0.00636148	-0.00163227	-0.0111266	
0.0071936	-0.00222372	-0.0136109	
0.0119181	-0.00600847	-0.0233526	
0.00232086	0.000107354	-0.00682623	
0.00648515	-0.00233831	-0.0130979	
0.00624347	-0.00172779	-0.0147336	
0.00753577	-0.00344233	-0.014756	
0.0145764	0.00994675	0.0469857	
0.00337939	-0.00360717	0.00603956	
0.00275891	0.00251405	0.0307326	
-0.00120816	0.00522583	-0.00210588	
0.0049819	-0.00133009	-0.0119508	
0.00187677	0.000267023	-0.00570673	
0.000625842	0.00093549	-0.00116444	
-0.000704569	0.00129428	-0.00111559	
0.009446	0.00970129	0.0333852	
0.00397995	-0.00547131	0.0122871	
0.00438928	0.00507621	0.0357923	
-4.78266e-05	-1.07052e-05	6.3458e-07	
0.00580928	-0.00620595	0.0117295	
-1.11781e-05	6.10623e-05	1.0784e-05	
-0.00129608	0.000104084	0.0269164	
-6.626e-06	4.27257e-05	-2.05036e-05	
-0.000703548	0.00127616	0.0013066	
0.000355393	0.00034621	-8.66865e-05	
-0.00234728	0.000328776	0.011899	
-0.000601398	0.00087623	-0.000903104	
-0.00151214	-3.52459e-06	0.0143474	
0.00151305	0.000911285	-0.00496176	
-4.72678e-05	-0.000197708	1.44635e-06	
-4.50392e-05	0.000968999	-0.000249291	
0.000363398	0.000680742	-1.3341e-05	
0.000331563	3.15149e-05	-0.000107868	
0.000375332	0.000504689	-1.20843e-05	
-0.00632981	-0.012721	-0.00152562	
-0.0186434	-0.05283	-0.181533	
-0.00213315	-0.00341347	8.72498e-05	
0.00348078	0.00537449	0.00299056	
-0.00140275	-0.00248623	6.66422e-05	
0.00556322	0.0120758	0.00741459	
-0.0112381	-0.0220765	-0.00548944	
0.00568821	0.00932921	0.00502894	
-0.00291957	-0.00768253	-0.00512597	
-0.00105571	0.00205082	0.00474654	
0.00208127	0.00470166	0.00453645	
-0.00267773	-0.00316981	-0.0135485	
0.00566288	0.0100481	0.00585578	
5.72583e-05	-0.000832906	0.0012084	
0.00616655	0.0129154	0.00567616	
0.0052064	0.00961099	0.00492266	
0.000769181	0.000496994	0.00193031	
-0.00477881	-0.0154173	-0.0108856	
-0.00172747	-0.00466466	-0.00403869	
-0.000905471	-0.00237708	0.000127822	
0.00027903	-0.000153841	9.76818e-05	
0.000416719	-0.000409406	0.000378466	
0.000417523	1.33449e-05	2.15825e-05	
-0.000117814	-0.000225118	0.00142779	
4.24827e-05	-5.83186e-05	0.000143378	
0.0118413	0.0225415	0.0115767	
0.00513365	0.00944469	0.00404234	
0.0100046	0.0182014	0.00654547	