<VTKFile type="UnstructuredGrid" version="0.1" byte_order="LittleEndian">
	<UnstructuredGrid>
		<Piece NumberOfPoints="11988" NumberOfCells="11988">
			<CellData Scalars="scalars">
				<DataArray type="Float64" Name="Strength" NumberOfComponents="3" Format="ascii">
-0.00774638	-0.0149133	0.0139063	
-0.00589848	-0.017121	-0.0255612	
0.0123526	0.0719996	-0.00523929	
0.00530623	-0.00683715	-0.00674569	
0.0062082	0.000280859	-0.0110696	
0.0137558	0.0536729	-0.0345108	
0.0146332	0.0843656	-0.0347375	
0.00100057	0.0162031	-0.0185674	
0.0150296	0.0827315	-0.0362299	
0.0025844	0.0293347	-0.0266177	
-0.00106218	0.0192348	0.0415273	
0.00437109	-0.00275352	-0.00258821	
-0.00300275	0.0435867	0.00579975	
0.00180375	0.000686453	0.00187486	
0.00908141	0.0704297	-0.0372525	
0.0150074	0.0859431	-0.0248826	
0.025268	0.0932639	0.00252615	
-0.00339894	0.0596034	-0.0374074	
0.00271256	0.0191189	0.0252824	
0.00445665	-0.0112233	0.00812548	
-0.00596579	0.0383263	0.0129375	
0.00367025	0.00149336	0.000146588	
0.00204564	-0.00492721	0.0103302	
0.000659047	0.00179843	-0.00173379	
0.00166156	0.0512827	-0.00129355	
-0.000583542	-0.0126653	0.0036165	
0.013457	0.0871332	-0.0235824	
0.0104543	0.038343	0.0181866	
0.0208594	0.0857888	-0.00187072	
-0.00788603	0.0424186	-0.0273308	
0.00867072	0.0531189	0.0119496	
0.020725	0.089616	-0.00690947	
5.72426e-05	0.000658215	4.47319e-05	
0.0161363	0.0863404	-0.0150129	
0.00559689	0.0785306	0.0181931	
0.0176216	0.00482809	0.0126307	
0.00892187	0.0555725	0.0253735	
-0.012087	-0.00671697	-0.0250065	
-0.0270508	-0.135812	-0.0356209	
0.00494479	0.0152645	0.0499673	
0.00129067	0.0117305	-0.013776	
0.019368	-0.00808058	0.0518482	
0.0136326	-0.0274679	0.0616001	
-0.0143574	-0.0226436	0.0550246	
0.0195062	-0.0133211	0.0514444	
0.01428	-0.0159597	0.0360148	
0.012562	0.000919588	0.016048	
0.0123965	-0.0109974	0.0560343	
-0.0186594	-0.0176436	-0.00615874	
0.0117489	-0.00343772	0.0484009	
0.00331262	-0.0104318	0.02643	
0.00780726	0.00706719	0.054681	
0.00673212	0.00304163	0.0404295	
0.0224563	-0.0158831	0.043542	
0.0222984	-0.0173736	0.0196549	
-0.000191482	-0.0178961	0.00908653	
0.013507	-0.0181121	0.0539159	
0.0256777	0.000830881	0.0103515	
-0.0117226	-0.0221878	0.00706749	
0.00183518	0.00610485	0.0189011	
0.0123719	-0.00847551	0.0582191	
-0.00531782	0.00797475	-0.0205159	
0.0233561	0.00698644	0.0377221	
0.00488507	0.00497341	0.0315969	
0.00912748	0.0134206	0.0164733	
0.0267623	-0.0206515	0.0712146	
-0.00377787	0.00551956	0.0408055	
-0.00205689	-0.000275528	0.0191978	
0.00341897	0.00625316	0.0446918	
0.00382866	0.00865414	-0.0105304	
0.000817647	0.000782769	-0.00481022	
0.0021197	-0.00442365	0.0249388	
0.0136872	-0.0185668	0.0521528	
0.00726455	-0.00440816	0.0521989	
0.0150871	-0.0586367	-0.0058491	
0.00306246	0.0127725	-0.034683	
-0.00701242	-0.000192612	-0.0323921	
-0.00913829	-0.0400709	-0.0171357	
-0.00992613	0.0140946	-0.0105532	
-0.0155769	0.00944367	-0.022989	
0.00934623	-0.00936764	-0.0525222	
0.0129616	-0.0161321	-0.0552369	
0.00259847	-0.00958567	0.00164087	
0.0013534	-0.00723587	0.00146353	
0.000137868	0.000642316	-0.00355276	
3.88609e-05	0.00134435	0.00753331	
0.0145594	-0.0279889	-0.0625833	
-0.0161127	-0.0121692	-0.0476592	
-0.020644	-0.0360289	-0.0327847	
0.0138913	-0.0416037	-0.0579579	
0.000984044	-0.00492732	0.000883191	
0.000496808	-0.00604974	-0.000526114	
0.000544284	-0.0052878	-0.00181886	
-0.00201715	0.00509199	-0.00477829	
0.000717535	-0.00078871	0.00386445	
-0.00209226	-0.00224765	-0.00048449	
0.00160781	-0.000511776	-0.00228695	
0.00565459	-0.00121217	-0.00937337	
-0.0192121	-0.0457375	-0.0109894	
0.0581454	-0.054154	-0.0394409	
0.0150108	-0.0461711	-0.0534415	
0.00195435	-0.0507821	-0.0487662	
-0.00186397	-0.00218486	-0.0352261	
-0.00643844	-0.0529259	-0.0276064	
0.00856203	-0.0464442	-0.0508618	
0.0090662	-0.00264942	-0.0416324	
0.0102323	-0.0491621	-0.0331551	
0.0033444	-0.0605914	-0.0513104	
0.00128686	-0.0117235	-0.0136191	
1.27836e-06	6.80122e-06	9.08809e-06	
0.010115	0.00298322	-0.01997	
-0.00187358	0.00323967	0.00651399	
0.00606929	-0.0212499	-0.0203568	
-0.01954	-0.000267969	0.0280074	
0.00468863	-0.000225769	-0.0106169	
0.00688906	0.00116561	-0.012774	
0.0209206	0.011602	-0.0103227	
0.00551477	0.0130368	-0.00251261	
0.00703492	0.00369459	-0.0120189	
0.0126081	0.0158484	-0.00187341	
0.0101712	0.00568892	-0.0125694	
0.0202744	0.0082214	0.041435	
0.000799642	-0.00330804	0.00384612	
-0.000245252	0.0014218	0.0281122	
-9.43465e-05	0.00193947	0.00122446	
0.00982222	0.0129653	-0.00482234	
0.00473983	0.012819	-0.00103524	
0.00180555	0.0110148	0.00249608	
-0.000650262	0.00821659	-0.0066395	
0.0132067	0.00786947	0.0296015	
0.00199674	-0.00631172	0.0114274	
0.0038092	0.0047489	0.0323039	
-6.1656e-05	-0.000149235	0.000184673	
0.00298895	-0.00316478	0.0113953	
-0.00030541	0.000121638	-0.000263299	
-0.0069907	0.000459584	0.0234372	
-2.47991e-06	0.000189382	-6.24187e-05	
-0.00163357	0.0108416	-0.00171275	
0.00419351	0.00367176	0.000751096	
-0.00899804	0.00547318	0.00751527	
-0.00153442	0.00615217	-0.00534028	
-0.00338933	0.00215618	0.012417	
0.00365605	0.0110736	0.00158312	
-0.000801026	-0.00106112	0.000349352	
-0.00072075	0.0102172	-0.000142124	
0.00338212	0.00659031	0.00468016	
0.00260621	-0.000101236	-0.00096256	
0.00405673	0.00516616	0.00291865	
-0.00248712	-0.0126337	-0.00482491	
0.00330402	-0.0881334	-0.133251	
-0.0103609	-0.00332237	0.00248622	
0.00149565	0.00659239	0.0017693	
-0.00372104	-0.00404339	0.00375561	
0.0117136	0.00485735	0.01689	
-0.0247895	-0.0136241	0.00197667	
0.010414	0.00257139	0.00506747	
-4.01911e-05	-0.00820842	-0.000230201	
-0.00116211	0.000416048	0.00690971	
0.000535927	-0.00090414	0.00778478	
-0.00122164	-0.00445734	-0.0124157	
0.0102312	0.00301143	0.00633568	
-0.00108887	-0.00283503	0.00446271	
0.00910722	0.00457854	0.0094914	
0.00881032	0.00415918	0.00560879	
0.000667302	-0.00298039	0.0047896	
-0.0035596	-0.0155169	-0.00789741	
0.0013296	-0.00567949	-0.00113972	
-0.000697913	-0.00235553	0.00652861	
-0.0020156	0.00123234	-0.000642364	
0.00158692	-0.00180086	0.00181365	
-0.000154331	0.00228177	0.000649738	
-0.00139399	-0.00255414	0.00560773	
-0.000366712	0.000518578	-0.00133222	
0.0212592	0.0141396	0.0146182	
0.00799518	0.00559223	0.00452803	
0.0116093	0.0152465	0.00637735	
0.0271476	0.00956934	0.0177079	
-0.00132197	0.00126606	0.00566988	
-0.000141329	7.05778e-05	0.000788469	
-0.000864925	0.00128502	0.00677762	
0.00242902	0.00599959	0.00143669	
0.000224771	8.71474e-05	-0.000928738	
0.000216839	-0.000522368	0.00612503	
-0.000401983	-0.00289236	0.00535626	
-0.00135877	-0.00172738	0.00718369	
0.0295493	-0.016326	0.00185856	
0.00799704	-0.00235499	-0.0244983	
-0.0104335	0.0202381	-0.00487923	
0.000250843	-0.0063279	-0.0020716	
-0.00472216	0.0206605	-0.00425545	
-0.00921294	0.0266564	-0.00398949	
-0.00976571	0.00170413	-0.0148864	
-0.00782545	0.000278856	-0.010953	
0.00139581	-0.00632555	0.00521521	
4.79419e-05	-0.00347636	0.00362271	
-0.000686431	0.00268968	1.82063e-05	
-0.00193733	-0.000812264	0.00302274	
0.000708469	-0.00212555	-0.00799174	
-0.0320938	0.00346084	-0.0272044	
-0.0214342	0.0192608	-0.00877358	
0.00281018	-0.00468361	-0.00801257	
0.00115544	-0.00299787	0.00296477	
0.000811419	-0.00251747	0.00293855	
0.000515962	-0.0024334	0.00220791	
-0.0011209	0.00820977	-0.00203537	
-0.000722589	0.000832127	0.000829275	
0.00101013	0.000255849	0.000247054	
0.000115084	0.000635463	0.000502228	
-0.000290029	6.42612e-05	0.000364455	
-0.00209262	-0.00499933	-0.000118142	
0.0597233	-0.0380906	-0.0138846	
0.00526195	-0.00590565	-0.00765441	
-0.00170847	-0.00677257	-0.00623933	
-0.00849402	0.0151436	-0.00602938	
-0.00118209	-0.00211958	-0.00163632	
0.000854263	-0.00665125	-0.00708138	
0.000922773	-5.04825e-05	-0.00126625	
0.0129102	-0.00871935	-0.00539527	
0.000191655	-0.00569931	-0.00437191	
0.000236867	-0.0032214	-0.00274826	
0.00012527	0.000721361	0.00104134	
0.000118058	8.14374e-06	-0.000130439	
-0.00210627	0.00353976	0.00622477	
0.00290066	-0.0245355	-0.0138917	
-0.000463136	-0.00405718	0.0344866	
0.00568784	-0.000923674	-0.0102209	
0.00813243	-0.000513171	-0.0118757	
0.0187132	0.000726811	-0.0152677	
0.00315372	0.00306056	-0.00648472	
0.00833087	0.000375074	-0.0105711	
0.0100095	0.00332199	-0.0116946	
0.0106844	0.000410588	-0.0112605	
0.0131311	0.0125718	0.0440499	
0.00145697	-0.00258322	0.00508459	
0.000962247	0.00287308	0.0287731	
0.000524168	0.00279009	0.00104546	
0.0081454	0.0023188	-0.00861514	
0.00211436	0.00301976	-0.00583536	
0.000284132	0.00327847	-0.00251358	
-0.00067549	0.00209928	-0.00182046	
0.00970792	0.0100801	0.0309982	
0.00337179	-0.00666959	0.011134	
0.00265662	0.00525581	0.0333312	
0.000169864	-1.11012e-05	-0.000120064	
0.00450372	-0.00383237	0.0114557	
-0.000158463	4.53148e-05	2.25603e-05	
-0.0022696	-5.31274e-05	0.0247065	
-4.61667e-06	6.84191e-05	-2.5167e-05	
-0.00105321	0.00282293	0.000568028	
0.00132986	0.00110671	-0.000137468	
-0.000704883	0.000544297	0.0108953	
-0.000604959	0.00148389	-0.00149487	
-0.000460967	4.53693e-05	0.0126455	
0.000476153	0.00354646	-0.00519076	
-0.000175252	-0.000540959	7.17812e-05	
-0.000475568	0.00277604	-0.000302404	
0.00108633	0.0022142	9.35506e-05	
0.00118415	1.21339e-05	-0.000353524	
0.00126712	0.00171264	1.03662e-05	
-0.00272436	-0.0130884	-0.00355562	
-0.012412	-0.0844327	-0.14344	
-0.00391417	-0.00764114	-0.000660416	
0.00208378	0.00604594	0.00272963	
-0.00170285	-0.00282463	0.000461262	
0.00709047	0.0140721	0.00864669	
-0.0140131	-0.0229113	-0.00618089	
0.0063332	0.00800086	0.00357937	
-0.00205465	-0.00679413	-0.00389252	
0.00223249	-0.000592738	0.00579527	
0.00131645	0.00293667	0.00376589	
-0.00107749	-0.00836248	-0.011771	
0.00729937	0.00789622	0.0044405	
-0.000730391	-0.0022032	0.000907017	
0.00474796	0.010507	0.00552463	
0.00704789	0.00721428	0.00363194	
0.000297627	-0.000682509	0.00160081	
-0.00464869	-0.0153429	-0.00983603	
-0.00135179	-0.00507315	-0.00290448	
-0.000138049	-0.000491311	0.00201106	
-0.000400046	0.000498306	-0.000177264	
0.000428218	-0.000542776	0.000548394	
-0.000633627	0.000322095	0.000173213	
-0.000221514	-0.000224774	0.00186168	
-0.000115145	0.000159491	-0.000400798	
0.0117378	0.0221836	0.0116002	
0.00686743	0.00736945	0.00291047	
0.0112209	0.0160985	0.00556445	
0.010711	0.0276675	0.0103541	
-0.000734656	0.000220398	0.00179011	
4.09303e-05	-2.82517e-05	-0.000173657	
-0.000739521	0.000361001	0.00216121	
0.00268208	0.00570666	0.00230322	
0.000153265	2.07004e-05	-0.000536422	
-0.000113354	-0.000208236	0.00206712	
6.80049e-05	-0.000524369	0.00163004	
-0.000396807	-8.31102e-05	0.00242157	
0.0310966	-0.0130657	0.0047404	
0.00987596	-0.000903737	-0.0265192	
-0.00440663	0.0228423	-0.00324076	
0.00145353	-0.00281081	-0.000295728	
-0.00569538	0.0201082	-0.00486797	
-0.00697822	0.0275351	-0.00313749	
-0.00679466	0.0111934	-0.0112177	
-0.00640559	0.00856427	-0.00708246	
0.00208869	-0.00755902	0.00373872	
0.000476754	-0.00483504	0.0024392	
-0.000496564	0.00233094	-0.00103467	
0.000427701	0.00108926	0.00382716	
-0.000190612	-1.64601e-05	-0.00248697	
-0.022011	0.0267838	-0.0265727	
-0.0086657	0.025808	-0.013946	
0.00137727	-0.00235487	-0.0019039	
0.00104162	-0.00398368	0.00164064	
0.00075429	-0.0037751	0.00184924	
0.000255162	-0.00341563	0.00102438	
-0.00186374	0.00723088	-0.002918	
-0.000335279	0.000198407	6.55645e-05	
-0.000247891	-0.000116314	-5.44965e-05	
0.000165152	0.000132881	1.87522e-05	
0.000223812	-4.39234e-05	-0.000292076	
-0.00073236	-0.0014943	0.000180836	
0.0399721	-0.0564133	0.0182019	
0.00372326	-0.00391149	-0.00131203	
-0.00137017	-0.00172802	-0.00228947	
-0.00302071	0.0176857	-0.00477669	
-0.000458604	-0.000609935	-0.000458631	
5.43592e-05	-0.00217613	-0.00222136	
0.000436466	-0.000175612	-0.000473074	
0.0122498	-0.00669167	0.000688475	
-4.39265e-05	-0.00185518	-0.00128258	
-9.56019e-05	-0.000824274	-0.000755592	
-3.77207e-05	-0.000217953	-0.00031996	
0.000311211	-1.41322e-05	-0.000347199	
-0.00240301	0.00382956	0.0057443	
0.0037263	-0.0251301	-0.00885411	
-0.0055217	0.00114268	0.0350269	
0.00610394	-0.000896131	-0.0101877	
0.00809556	-0.000938923	-0.0122783	
0.0130887	-0.00347686	-0.0211344	
0.00126929	0.00180338	-0.00807313	
0.0076877	-0.000743582	-0.0115141	
0.00516264	2.13293e-05	-0.0153937	
0.0090055	-0.00139752	-0.0131263	
0.0150923	0.0112161	0.0447901	
0.0053028	-0.00221637	0.00309826	
0.000853218	0.00312786	0.0292156	
-0.000237918	0.0025436	0.00315534	
0.00408383	0.000191776	-0.0118781	
0.00116385	0.00236233	-0.00682976	
0.000974779	0.00342838	-0.00258319	
-0.00113445	0.00215738	-0.00186788	
0.00978161	0.0100369	0.0316564	
0.00319315	-0.00565034	0.0119732	
0.00269753	0.00564373	0.0337905	
9.71829e-05	0.000137622	-1.1262e-05	
0.00410746	-0.00418653	0.0120541	
-9.24526e-05	0.000127804	-6.82074e-05	
-0.00244009	0.000795899	0.0253395	
-2.3004e-05	0.000250585	-0.000102011	
-0.000976349	0.00353609	-0.000136133	
0.00127307	0.00111893	-0.000188699	
-0.00276177	0.00299979	0.0105963	
-0.00084253	0.00141522	-0.0014209	
-0.00154366	0.000934979	0.0130513	
0.00175224	0.00335298	-0.00561225	
-0.000193758	-0.000536323	6.93088e-05	
-0.000223451	0.00336935	-0.000994257	
0.00142849	0.00247564	-3.13446e-05	
0.00123732	4.16619e-05	-0.000366175	
0.00148854	0.00180499	2.56518e-05	
-0.00375142	-0.0131772	-0.0029075	
-0.0101779	-0.0418963	-0.167749	
-0.00385812	-0.00597734	-0.000306017	
0.00268129	0.00570186	0.00265629	
-0.00166492	-0.00271381	0.000526576	
0.00665303	0.0133177	0.00849098	
-0.0100688	-0.0241084	-0.00641854	
0.00486393	0.00922969	0.00408222	
-0.00236612	-0.00694239	-0.00412048	
0.00376832	0.00126156	0.00561218	
0.00169423	0.00337347	0.0041953	
-0.00565273	-0.00704551	-0.0111038	
0.00547644	0.00958403	0.00476741	
-0.000394942	-0.00189276	0.000768973	
0.00569954	0.0110184	0.00539342	
0.00542353	0.00888185	0.00377029	
0.000537073	-0.000402377	0.00190568	
-0.00518761	-0.0157819	-0.0095122	
-0.00147936	-0.00526401	-0.00266615	
-0.000410156	-0.00116598	0.00163419	
-0.000511646	0.000256899	-0.000400988	
0.000697581	-0.000422493	0.000491271	
0.000297779	0.000382068	-0.000570485	
-0.00019769	-0.000260701	0.00185702	
-8.8351e-05	0.000121004	-0.000294233	
0.0125131	0.0215405	0.0121051	
0.00565417	0.00868527	0.00285528	
0.0105965	0.0169928	0.00526482	
0.0132705	0.0259326	0.00994391	
-0.000589434	0.000186472	0.00157064	
3.27973e-05	-2.06377e-05	-0.000120307	
-0.000624756	0.000348315	0.00192377	
0.00305623	0.00557751	0.00228677	
0.000158226	3.92652e-06	-0.0005183	
-0.000113764	-0.000220205	0.00163974	
7.11401e-05	-0.000592603	0.00169632	
-0.000328147	-9.51565e-05	0.00231311	
0.0305803	-0.0137164	0.00989113	
0.00912564	0.000262502	-0.0256051	
-0.00680348	0.0226448	-0.00397624	
0.00136818	-0.00289719	0.000587504	
-0.00584731	0.0205057	-0.0046685	
-0.00847207	0.0275756	-0.00331976	
-0.0038234	0.0136143	-0.0102039	
-0.00400022	0.0104318	-0.0068384	
0.00181111	-0.00710678	0.00413701	
0.000342859	-0.00444727	0.0027252	
-0.000603454	0.00253055	-0.000758416	
-0.0011493	-0.00111125	0.00334914	
2.85586e-05	-1.8458e-05	-0.0025317	
-0.0147355	0.0334445	-0.0260598	
-0.012121	0.02418	-0.0154077	
0.000654504	-0.00247659	-0.00176451	
0.00101853	-0.00360394	0.00197603	
0.000733799	-0.0033996	0.00213188	
0.000396885	-0.00307672	0.00141691	
-0.0017725	0.00760197	-0.00272765	
-0.000103549	-3.10562e-05	-0.000112264	
0.000101517	4.21924e-05	2.34698e-05	
-7.1458e-05	-5.70653e-06	5.32587e-05	
8.51991e-05	-1.74793e-05	-0.000114401	
-0.000849988	-0.00131349	0.000274334	
0.0387153	-0.0577331	0.0166354	
0.00243412	-0.00492405	-0.000571446	
-0.000610719	-0.00180417	-0.00210461	
-0.00512635	0.0171848	-0.00592335	
-0.000454289	-0.000788487	-0.000539219	
-0.000109227	-0.00218956	-0.00212513	
0.000484655	-0.000166436	-0.00051758	
0.0101342	-0.00825146	0.00431133	
-0.000176685	-0.00182892	-0.00114098	
-0.000154463	-0.000764769	-0.000830573	
7.38853e-06	4.30138e-05	6.32269e-05	
0.0002176	3.9733e-06	-0.000246056	
-0.00284792	0.00365373	0.00553993	
0.00936548	-0.0237209	0.00150588	
-0.00625596	0.0010944	0.0356984	
0.00641575	-0.00092541	-0.0105074	
0.00780114	-0.00107776	-0.0129867	
0.0107625	-0.00470293	-0.0230694	
0.00225975	0.00167689	-0.00779073	
0.00690553	-0.00133641	-0.0125842	
0.00625534	-0.000145106	-0.0150984	
0.00763541	-0.00230175	-0.0145392	
0.0148414	0.0122056	0.0456072	
9.96555e-05	-0.00375313	0.00605926	
0.00169041	0.00389222	0.0295596	
-0.00169389	0.00418771	-0.00160808	
0.00444779	-0.000457651	-0.0118319	
0.0019769	0.00208902	-0.00655371	
0.00119989	0.00336358	-0.00283063	
-0.00129847	0.00223512	-0.00197535	
0.00976049	0.0109253	0.0321159	
0.00178627	-0.00568756	0.0124635	
0.00308524	0.0064428	0.0345543	
-0.000171412	-1.09706e-05	3.89096e-05	
0.00339279	-0.00517663	0.0124615	
4.35733e-05	0.000116726	8.17271e-05	
-0.00255424	0.00129632	0.0260231	
-1.42987e-05	0.000121928	-5.4018e-05	
-0.000875928	0.00321258	3.81257e-05	
0.00137478	0.0012018	-0.000213703	
-0.00292194	0.00289999	0.0108681	
-0.00112385	0.00164269	-0.00170714	
-0.00157539	0.00125602	0.0135959	
0.00194557	0.00321617	-0.00556191	
-0.000182645	-0.000483186	6.01937e-05	
-0.00018154	0.00309326	-0.000833147	
0.00155367	0.00265396	2.93581e-05	
0.00121068	-6.2014e-06	-0.000309796	
0.00162115	0.00195333	4.85277e-05	
-0.00479428	-0.0131051	-0.00240371	
-0.0348336	-0.0802965	-0.156811	
-0.00320605	-0.00513261	-0.000210106	
0.00314671	0.005458	0.00265913	
-0.00155964	-0.00262503	0.000340279	
0.00633454	0.0131073	0.00810245	
-0.011463	-0.0229712	-0.0061721	
0.00541923	0.00918463	0.00381389	
-0.00243956	-0.00712464	-0.00458259	
0.000724838	0.00164946	0.00544542	
0.00174676	0.00369497	0.00418422	
-0.00453257	-0.00613602	-0.0116204	
0.00586231	0.00964585	0.00458321	
-0.000372193	-0.00147583	0.000609313	
0.00620053	0.0116141	0.00544766	
0.00535301	0.00914564	0.00377137	
0.000530238	-0.000254897	0.00173747	
-0.00536569	-0.0155281	-0.00970363	
-0.00370711	-0.0038058	-0.00302919	
-0.000452045	-0.00125252	0.00121666	
0.000416861	0.000122205	-0.000123411	
0.000538322	-0.000521456	0.000454761	
0.000461498	0.000290553	-0.000267101	
-0.000177184	-0.000238408	0.00167917	
-7.71564e-05	0.000104329	-0.000248746	
0.0127052	0.0217568	0.0117612	
0.00534349	0.00907503	0.00289568	
0.0101742	0.0175238	0.00533737	
0.0129699	0.0255893	0.00961097	
-0.000486757	0.000174874	0.00131087	
1.65027e-06	-2.34229e-06	-8.38679e-06	
-0.000548788	0.000307839	0.00166556	
0.00323502	0.00549187	0.00246132	
8.72517e-05	-6.65987e-07	-0.000280783	
-7.77437e-05	-0.000192315	0.00132757	
8.19875e-05	-0.000560365	0.00159441	
-0.000273393	-6.98036e-05	0.00192992	
0.0288482	-0.0146364	0.0147691	
0.00880774	0.00089643	-0.0257826	
-0.00696983	0.0229112	-0.00387599	
0.00131703	-0.00289434	0.00132885	
-0.00593696	0.0206168	-0.00474947	
-0.00850288	0.0277862	-0.00358538	
-0.00499111	0.0134647	-0.0102525	
-0.00492888	0.0101177	-0.00697001	
0.00185556	-0.00716087	0.00396931	
0.000395086	-0.00451999	0.0026261	
-0.000602182	0.00256314	-0.000839741	
-0.00093831	-0.00130142	0.00338358	
7.57172e-06	7.69324e-05	-0.00225003	
-0.0176426	0.033444	-0.0261679	
-0.0124832	0.0247841	-0.0150697	
0.000616925	-0.0022242	-0.00157502	
0.000991123	-0.00363424	0.00184248	
0.000771977	-0.0034891	0.00200542	
0.000373549	-0.00315823	0.00127608	
-0.00182066	0.00759011	-0.00280682	
6.85828e-06	5.51683e-06	7.00016e-06	
-1.03873e-05	-4.60765e-06	-2.50166e-06	
6.14055e-06	3.29528e-06	-5.5327e-07	
9.12343e-05	-1.77232e-05	-0.000120223	
-0.000763187	-0.000872267	0.000216743	
0.0401389	-0.0560247	0.0168686	
0.00216195	-0.00479559	-1.88213e-06	
-0.000225711	-0.00180692	-0.00157061	
-0.00533753	0.017393	-0.00575151	
-0.000303366	-0.000533405	-0.000391285	
-0.00011048	-0.00182869	-0.00173395	
0.000317135	-0.00011118	-0.000347997	
0.00832396	-0.0086582	0.00639185	
-0.0002317	-0.00164307	-0.000966202	
-0.000127556	-0.000708117	-0.000778741	
-4.96068e-06	-3.03668e-05	-4.46309e-05	
0.00017042	1.33116e-06	-0.000193155	
-0.00281295	0.00392976	0.0048938	
0.0130678	-0.0210827	0.00230189	
-0.00533286	-0.000703251	0.036618	
0.00631106	-0.000670913	-0.0109544	
0.00739694	-0.00146364	-0.0135396	
0.0117853	-0.00536929	-0.0227139	
0.0025757	0.00118179	-0.00792407	
0.00636516	-0.00163027	-0.0129556	
0.00656152	-0.000617417	-0.0149887	
0.00730208	-0.00297023	-0.0146211	
0.0155292	0.0123885	0.045814	
0.0020658	-0.00315115	0.0063774	
0.00263339	0.00323196	0.0302358	
-0.00178958	0.00418167	-0.00235504	
0.00492797	-0.000594459	-0.011699	
0.00218309	0.00170988	-0.00680787	
0.000754786	0.00262794	-0.00166977	
-0.000890247	0.00155298	-0.00137526	
0.0100737	0.0110933	0.0324223	
0.00226821	-0.00551442	0.012592	
0.00376447	0.0060428	0.035219	
-1.73174e-06	-2.09947e-05	-7.49853e-05	
0.00381075	-0.00582084	0.0124197	
5.43732e-06	5.42747e-05	3.84487e-05	
-0.00202127	0.000397414	0.0266214	
-7.34326e-05	0.00056095	-0.000262128	
-0.000881443	0.00316053	0.000208707	
0.000716357	0.000616836	-0.000142212	
-0.00269839	0.00155883	0.0115064	
-0.000783134	0.00108142	-0.00114777	
-0.00168186	0.00036284	0.0141053	
0.00175316	0.00281834	-0.00536262	
-8.18023e-05	-0.000220991	1.60593e-05	
-0.000162473	0.00292796	-0.00078195	
0.000905096	0.00153792	-4.19734e-06	
0.000522767	-4.81904e-06	-0.000151727	
0.000892695	0.00106109	-6.67803e-06	
-0.00535611	-0.0129424	-0.00180249	
0.00130978	-0.0637525	-0.171906	
-0.00297827	-0.00497811	-0.000367181	
0.00344415	0.00534377	0.00298655	
-0.00150692	-0.00270645	-3.80652e-05	
0.00611474	0.0131243	0.00779348	
-0.0112355	-0.0230008	-0.00576335	
0.0055343	0.00918765	0.00441641	
-0.00251599	-0.00736348	-0.00489234	
0.000620161	-0.000473043	0.00529077	
0.00164321	0.00372247	0.00382191	
-0.00565772	-0.00430093	-0.0120769	
0.00579148	0.00962882	0.00538221	
-0.000238769	-0.00131143	0.000810629	
0.00613699	0.0120447	0.00540432	
0.00529068	0.00916228	0.00455781	
0.000324251	-0.000279778	0.0011446	
-0.00458319	-0.0155121	-0.0102004	
-0.002575	-0.00453072	-0.00333012	
-0.000355746	-0.00102386	0.000821	
0.000243169	0.000147793	-0.00011568	
0.000439954	-0.000371487	0.000206492	
0.000261021	-0.000274644	6.47474e-05	
-0.000143216	-0.000205209	0.00142907	
5.16979e-06	-6.68329e-06	1.66735e-05	
0.0125447	0.0222089	0.011573	
0.00525142	0.00927238	0.0038562	
0.00997878	0.0179767	0.00616523	
0.0124306	0.0259723	0.00941715	
-0.000502742	0.000193933	0.00133742	
-0.000237131	0.000129882	0.000784376	
-0.000480807	0.00027799	0.00143515	
0.00324467	0.00553927	0.00294793	
-0.000126068	9.0938e-07	0.000398379	
-8.75208e-05	-0.000175192	0.00134651	
7.02277e-05	-0.000444761	0.00126375	
-0.000226737	-4.39674e-05	0.00155465	
0.0263407	-0.0169153	0.0186487	
0.00874598	0.000442619	-0.0254908	
-0.006954	0.0231884	-0.00373937	
0.00106023	-0.00301037	0.00163909	
-0.00598901	0.0207676	-0.00481696	
-0.00862377	0.0279448	-0.00380983	
-0.00554477	0.013793	-0.00987755	
-0.00540443	0.0104382	-0.00644236	
0.00180036	-0.00705105	0.00397526	
0.000332804	-0.00444242	0.00265719	
-0.00062522	0.00262747	-0.000833364	
-0.00145825	-0.000896689	0.00328328	
-0.000198078	0.000381022	-0.00170749	
-0.0184782	0.0347707	-0.0253489	
-0.0125116	0.0253185	-0.0147953	
0.000708106	-0.00187071	-0.00117399	
0.000972479	-0.00354205	0.00184951	
0.000765185	-0.00342647	0.00202293	
0.00040316	-0.00309937	0.0013081	
-0.00182913	0.00767864	-0.00281692	
-3.10514e-05	8.52204e-06	-2.82331e-05	
2.54302e-05	1.16114e-05	6.548e-06	
-1.94355e-05	-4.52333e-07	1.4773e-05	
7.37858e-05	-1.50784e-05	-9.80107e-05	
-0.00105962	-0.00100691	0.00025952	
0.0393127	-0.0561101	0.0175878	
0.0024416	-0.00421465	0.000323343	
-0.000119182	-0.0015652	-0.00126169	
-0.00537734	0.017545	-0.00555183	
-0.000227546	-0.000399212	-0.000308108	
-3.58641e-05	-0.00140859	-0.00134369	
0.000245074	-8.68731e-05	-0.000273996	
0.00741868	-0.00876288	0.0073028	
-0.000267323	-0.0016618	-0.000976343	
-7.94281e-05	-0.000455753	-0.000519193	
-9.1148e-07	-5.86073e-06	-8.52904e-06	
0.00014203	5.12722e-07	-0.000162699	
-0.00303432	0.00358593	0.0048657	
0.0124963	-0.0206789	0.00271593	
-0.00444983	-0.00178001	0.0370874	
0.00662674	-0.00128596	-0.0108515	
0.00744971	-0.00190469	-0.0132697	
0.0120833	-0.00596125	-0.0227114	
0.00252113	0.000396681	-0.00729935	
0.00691667	-0.00233339	-0.0125704	
0.0067063	-0.00138322	-0.0150488	
0.00773025	-0.0034452	-0.0143362	
0.0153567	0.0122748	0.0461946	
0.00245908	-0.00364959	0.0061429	
0.00280249	0.00294606	0.0305827	
-0.0012451	0.00515705	0.000573256	
0.00521563	-0.00135243	-0.011536	
0.00201634	0.000558938	-0.00604195	
0.000676092	0.00100725	-0.00128449	
-0.000591425	0.00102085	-0.000907954	
0.0101069	0.0111195	0.0326455	
0.00283264	-0.0052027	0.0126608	
0.0040111	0.00594875	0.0355059	
4.38022e-05	-3.35455e-05	-4.34903e-05	
0.00420308	-0.00610792	0.0123369	
-6.08025e-06	4.82989e-05	3.3253e-05	
-0.00162468	2.09665e-05	0.0267826	
-2.08212e-05	0.000140448	-6.6379e-05	
-0.000730633	0.001487	0.00108095	
0.000397917	0.000340022	-8.78374e-05	
-0.00235006	0.000415239	0.0118139	
-0.000489814	0.00066844	-0.000705967	
-0.00164211	-0.000102101	0.0142986	
0.00164792	0.000994442	-0.00498688	
-6.71325e-05	-0.000152641	9.74376e-06	
-5.8282e-05	0.00110087	-0.00029579	
0.0004085	0.00070141	-1.66679e-05	
0.000333289	-3.5609e-06	-9.94473e-05	
0.000410788	0.000489722	-1.26138e-05	
-0.00627906	-0.0128832	-0.00205204	
-0.00548133	-0.0632167	-0.175141	
-0.00199098	-0.00340466	-0.000273896	
0.00351737	0.00539068	0.00212877	
-0.0012601	-0.002478	-0.000539615	
0.0054352	0.0122098	0.00661756	
-0.0112806	-0.0219538	-0.00701761	
0.00543117	0.00951355	0.00290345	
-0.00233292	-0.00728528	-0.00545341	
-0.000615534	-0.000389007	0.00557647	
0.00188386	0.00479072	0.00379784	
-0.00188687	-0.0029702	-0.0139465	
0.00617351	0.00982298	0.00383333	
-0.000276431	-0.000734538	6.84325e-05	
0.00671511	0.0127419	0.00458504	
0.00595436	0.00912204	0.00302401	
0.000677364	0.000665694	0.00170471	
-0.00545357	-0.0155591	-0.0108186	
-0.00240516	-0.00437089	-0.00394908	
-0.000783271	-0.0021725	-7.66051e-05	
0.000180601	0.000122927	-8.10669e-05	
0.000240135	-0.00029382	0.000210872	
0.000263448	-0.000160577	9.67992e-05	
-6.53996e-05	-0.000102118	0.000696509	
-0.000149563	0.000197267	-0.000469223	
0.0124835	0.0223299	0.0108422	
0.00584451	0.00901441	0.00218582	
0.0104597	0.0178007	0.0047223	
0.0119163	0.0250598	0.00799385	
-0.000203549	7.8478e-05	0.000539636	
0.000243243	-0.000134718	-0.000817812	
-0.0003252	0.000186306	0.00095566	
0.00349529	0.00561155	0.00188191	
0.000269615	-1.07014e-05	-0.000869304	
-4.48333e-05	-7.71449e-05	0.000625197	
2.92001e-05	-0.000208413	0.00059139	
-0.00018377	-4.0582e-05	0.00130778	
0.0247424	-0.0173048	0.0203863	
0.0086316	0.000770592	-0.0253907	
-0.00699102	0.0232987	-0.00363889	
0.0017363	-0.00244214	0.00208976	
-0.00597969	0.0207906	-0.00483801	
-0.00868586	0.0280436	-0.00381871	
-0.00583821	0.0140917	-0.00951846	
-0.00575497	0.0108235	-0.00608911	
0.00178909	-0.0070113	0.00393318	
0.000363243	-0.00444221	0.0026111	
-0.000639143	0.00266403	-0.000845104	
-0.00147061	-0.000546573	0.00334939	
-0.00014716	0.000327688	-0.00136226	
-0.018723	0.0358114	-0.0249176	
-0.0125749	0.0257198	-0.014687	
0.000421914	-0.00114768	-0.000775643	
0.000958454	-0.00350393	0.00181714	
0.000744537	-0.00342865	0.0019952	
0.000407215	-0.00309582	0.00128138	
-0.00184348	0.00771536	-0.00285723	
-1.3334e-05	5.60821e-06	-9.13967e-06	
8.99714e-06	4.25044e-06	2.39963e-06	
-7.1199e-06	4.0813e-07	6.41068e-06	
3.54662e-05	-8.07063e-06	-4.78581e-05	
-0.00015679	-0.000131125	3.18872e-05	
0.0387671	-0.0561858	0.0176055	
0.00239052	-0.00407378	0.000420264	
0.00052822	-0.00176453	-0.000401638	
-0.00550397	0.0176779	-0.00540083	
-0.000137404	-0.00024515	-0.000195226	
-3.07859e-05	-0.00126135	-0.00124342	
0.000122251	-4.44486e-05	-0.00013828	
0.00727827	-0.00782624	0.00764197	
-7.20216e-05	-0.000478572	-0.000274899	
-5.07225e-05	-0.000316864	-0.000372408	
-1.79457e-06	-1.20783e-05	-1.76329e-05	
6.81709e-05	-9.59074e-07	-7.9364e-05	
-0.00314313	0.00342813	0.00486276	
0.0118725	-0.0201924	0.00461817	
-0.00451227	-0.0017985	0.0373089	
0.00665241	-0.00152446	-0.0110044	
0.00753824	-0.00212803	-0.0134769	
0.0119173	-0.00606953	-0.0234023	
0.00233541	6.93932e-05	-0.00683669	
0.00673365	-0.00227141	-0.0130187	
0.00636349	-0.00177604	-0.0147115	
0.00762688	-0.00339812	-0.014759	
0.0150339	0.0121801	0.0463872	
0.00255066	-0.00404903	0.00617843	
0.00288398	0.0030018	0.0307245	
-0.00293701	0.00495833	-0.000405069	
0.00502166	-0.00138388	-0.0119567	
0.00185795	0.000229017	-0.00572689	
0.000635162	0.000936418	-0.00116255	
-0.00074064	0.00126432	-0.00113267	
0.0104516	0.0111741	0.0326739	
0.00337519	-0.00501394	0.0126777	
0.00419107	0.00608595	0.0357131	
-3.75645e-05	1.50967e-05	2.76268e-05	
0.00461199	-0.00633176	0.0122071	
-1.29018e-05	6.08462e-05	1.05695e-05	
-0.00154366	0.000178652	0.0269442	
-7.10641e-06	4.26771e-05	-2.06666e-05	
-0.000709404	0.00128398	0.00130122	
0.000376249	0.000324604	-8.68192e-05	
-0.00231613	0.000351488	0.0119258	
-0.000633062	0.000850015	-0.000910704	
-0.00162813	-1.82879e-05	0.0143579	
0.00155294	0.000911462	-0.00495939	
-8.18961e-05	-0.000185922	1.13047e-05	
-4.80894e-05	0.000969081	-0.000255533	
0.000388066	0.000668469	-1.65376e-05	
0.000335713	-5.4273e-07	-0.000101174	
0.000400556	0.000486232	-1.37153e-05	
-0.00605598	-0.0128979	-0.0014331	
-0.023943	-0.0380956	-0.185035	
-0.00216788	-0.00339907	0.00010852	
0.00355324	0.00534286	0.00299707	
-0.00140651	-0.00248911	7.61996e-05	
0.00555814	0.0121487	0.00735061	
-0.0107194	-0.0224434	-0.00524241	
0.00557453	0.00945963	0.00496585	
-0.00271993	-0.00773733	-0.00517986	
-0.0019	0.00102229	0.0048247	
0.00209024	0.00472123	0.00452856	
-0.00121905	-0.00208836	-0.0139907	
0.00573599	0.0100584	0.0058228	
7.65501e-05	-0.000821634	0.00121808	
0.00632187	0.0129253	0.00555419	
0.005346	0.00958848	0.00487528	
0.000787845	0.000480879	0.00193037	
-0.00467899	-0.0154586	-0.0109186	
-0.00187219	-0.00454328	-0.00412494	
-0.000919124	-0.00237592	0.000132458	
0.00032096	-7.84362e-05	4.11397e-05	
0.000445516	-0.000394726	0.000362726	
0.000408228	9.31151e-05	2.92749e-05	
-0.000132026	-0.000212996	0.00143075	
4.47788e-05	-5.88573e-05	0.000142833	
0.0121869	0.0224775	0.0114575	
0.00523493	0.00944103	0.00398807	
0.0100439	0.0182532	0.00649132	
0.0118445	0.0253403	0.00923973	