<VTKFile type="UnstructuredGrid" version="0.1" byte_order="LittleEndian">
	<UnstructuredGrid>
		<Piece NumberOfPoints="4884" NumberOfCells="4884">
			<CellData Scalars="scalars">
				<DataArray type="Float64" Name="Strength" NumberOfComponents="3" Format="ascii">
-0.00701903	-0.0157411	0.0127644	
-0.0022522	-0.0121015	-0.0280448	
-0.0218167	0.0680486	0.011192	
0.00462339	-0.00678208	-0.00699948	
0.00597161	0.000502231	-0.0109567	
0.0109471	0.0557281	-0.030181	
-0.00215231	0.0869775	-0.0270457	
0.00376129	0.0185186	-0.0152432	
0.00377291	0.0845531	-0.0314175	
0.00503346	0.0328668	-0.020549	
0.0052696	0.00482834	0.0447176	
0.00330136	-0.00441378	0.00145356	
-0.0102762	0.0385768	0.0174466	
0.000112871	0.000475628	-0.00254819	
0.00169143	0.0739446	-0.0279167	
-0.000219248	0.0866115	-0.022408	
-0.000350757	0.0939596	-0.016604	
-0.00525158	0.0661035	-0.0205799	
0.00116148	0.0115719	0.0292426	
0.00745964	-0.00938222	0.0079792	
-0.00682381	0.0316349	0.0242374	
-0.000769107	0.00225949	-9.4323e-05	
0.00394364	-0.00539162	0.00936399	
-0.00162469	0.00122466	0.00153884	
-0.0153248	0.0470119	0.0112545	
-0.000680942	-0.0126267	0.00285498	
-0.00521404	0.0879154	-0.0186323	
0.00778427	0.0423241	0.00363435	
-0.0107509	0.0864352	-0.00404455	
-0.00351283	0.0479255	-0.0148385	
-0.00386511	0.0539541	0.00640907	
-0.00097361	0.0896474	-0.0157975	
-0.000612022	-0.00013165	0.000195065	
-0.00438317	0.0865703	-0.0146872	
0.00618011	0.0794008	0.00498425	
0.011265	0.0188306	0.000854822	
0.00814181	0.0601992	0.00525628	
-0.010764	-0.00512357	-0.0254598	
0.0590624	-0.110187	0.0545291	
-0.016161	-0.00857443	0.0484802	
0.00142768	0.0113973	-0.0136778	
-0.00521327	-0.00725996	0.0545541	
0.0170485	-0.0084833	0.0652667	
-0.0136195	-0.036109	0.0464254	
0.0130732	-0.0116643	0.0529833	
0.00538752	-0.0224985	0.0343869	
0.0124229	0.0023232	0.0157511	
0.00093259	-0.014456	0.0559289	
-0.00189346	0.00817359	-0.0225773	
0.00831758	-0.00687305	0.0480022	
0.001497	-0.0116411	0.0256685	
0.00387245	-0.00157577	0.0548461	
0.0057431	-0.00300146	0.0399701	
0.00568284	-0.0229024	0.0451482	
0.00012283	-0.0157596	0.0301907	
0.0110725	-0.0138796	0.00891535	
0.00286834	-0.0142158	0.0559678	
0.0241301	0.0118927	-0.00549872	
0.00632171	-0.0233468	0.00892241	
0.0144912	-0.000671928	0.0134242	
-0.00229934	-0.0137088	0.0577619	
-0.00333782	0.0082574	-0.020438	
0.0172916	0.0113715	0.0392067	
0.00566683	-0.00026291	0.0313653	
0.00984882	0.0112286	0.0171694	
0.0291941	-0.000959024	0.0721879	
-0.00266512	-0.0064111	0.0402449	
-1.8834e-05	-0.00439894	0.0185038	
-0.00106005	-0.00606813	0.0442769	
0.0026737	0.00890903	-0.0103791	
0.00010288	0.001316	-0.00468241	
0.00144352	-0.0064282	0.0242079	
0.00320406	-0.020392	0.0524872	
-0.00125343	-0.0111457	0.0510218	
0.0193904	-0.0553335	-0.0118364	
-0.00242265	0.0182012	-0.0308582	
-0.0095139	0.000516071	-0.0313218	
-0.00342526	-0.0321701	-0.0295666	
-0.00758124	0.0144732	-0.0114954	
-0.012575	0.0122284	-0.0230671	
-0.00160849	-0.0164907	-0.0507778	
0.00132488	-0.0247976	-0.0525825	
0.00186319	-0.00935582	0.00285281	
0.000253013	-0.00716288	0.00161722	
-0.000345555	0.000134355	-0.00355321	
0.00177692	0.00390945	0.005054	
0.00402771	-0.0380796	-0.057484	
-0.0182064	-0.00449373	-0.0474839	
-0.0239938	-0.0172157	-0.0430849	
0.00200649	-0.045225	-0.0554895	
0.000846268	-0.00483244	0.00118041	
0.000446116	-0.00600722	0.000204857	
0.000817932	-0.00547854	-0.000458089	
-0.00184347	0.00473144	-0.00508757	
0.00090754	0.000328732	0.00363639	
-0.00129664	-0.00200715	-0.00193705	
-0.000875108	0.0013364	0.00231654	
0.00233287	-0.00506157	-0.00934277	
-0.00952062	-0.0380198	-0.0310302	
0.0441614	-0.0750006	-0.00905772	
0.00477507	-0.0478627	-0.0523905	
-0.00227955	-0.0440368	-0.0535468	
-0.00534196	-0.00498127	-0.0341338	
-0.0101739	-0.0408692	-0.0417065	
0.00239661	-0.0446412	-0.0517147	
0.00768218	-0.0185248	-0.0370615	
0.0109837	-0.0454076	-0.036412	
0.00219647	-0.0525429	-0.0579364	
-0.000360701	-0.0119236	-0.0131695	
8.99501e-07	6.95235e-06	8.82441e-06	
0.00514539	-0.00885788	-0.0198061	
-0.00277002	0.00268371	0.00629684	
-0.00839478	-0.0112291	-0.026184	
-0.0125373	0.00552342	0.0308333	
0.00494414	0.000262472	-0.0102878	
0.00657986	0.001733	-0.012606	
0.0158548	0.00866162	-0.0182276	
0.00424357	0.011309	-0.00742657	
0.00650366	0.00424357	-0.0118663	
0.0104092	0.011911	-0.0123236	
0.00853631	0.00595195	-0.0132858	
0.0110462	0.00102026	0.0449853	
0.00182204	-0.00257963	0.00398171	
0.00119504	0.00213478	0.0277141	
0.000822972	0.000258684	0.00204875	
0.00738673	0.010857	-0.0103641	
0.00390638	0.0111871	-0.00651201	
0.00165407	0.0106849	-0.00326093	
-0.00116403	0.00966561	-0.0037491	
0.00660429	0.00261135	0.0322043	
0.00503789	-0.00388013	0.0114113	
0.00311027	0.00277188	0.032226	
-0.000150996	0.000114019	4.00266e-05	
0.00440766	-0.00211152	0.0110319	
-0.000192356	9.28597e-06	0.000360529	
-0.004063	0.00431807	0.023438	
6.73725e-06	0.000190011	-4.50183e-05	
-0.00125516	0.0106908	-0.0019949	
0.0016039	0.00531313	-0.000274966	
-0.00569654	0.00787255	0.00829791	
-0.000905971	0.00759592	-0.00285123	
-0.00253668	0.00498998	0.0116184	
0.00320877	0.00988949	-0.00518513	
0.00126762	0.000208062	-0.000447251	
-0.000182733	0.00989876	-0.00204115	
0.00188707	0.00844074	0.000244836	
0.00134993	0.00233089	-0.000542609	
0.00182599	0.00685955	4.37916e-05	
-0.00483858	-0.0117275	-0.00468495	
-0.0360936	-0.102443	-0.114511	
-0.00648128	-0.00836356	0.00307449	
0.00244863	0.00622025	0.00160615	
-0.00208276	-0.00380171	0.00494672	
0.00804232	0.0127329	0.0144339	
-0.0185655	-0.0204512	-0.00424102	
0.0078047	0.00531311	0.00688583	
-0.000521028	-0.00809852	0.000305844	
-0.000164659	0.00331502	0.00610048	
0.00106057	0.00116851	0.00760559	
-0.00420347	-0.00573563	-0.0110015	
0.00778082	0.00600678	0.00725038	
-0.000942908	-0.00345822	0.00393968	
0.00623511	0.00730264	0.00984432	
0.00674175	0.00607253	0.00633532	
0.000603662	-0.00240199	0.00504605	
-0.00438706	-0.015443	-0.00716906	
-0.0014504	-0.00562834	-0.000874635	
0.000201938	-0.000929556	0.00683338	
-0.00180984	0.00130475	-0.000939744	
0.00105753	-0.00159212	0.00228364	
-4.91074e-05	0.00177569	-0.00153576	
-8.14973e-05	-0.00146453	0.00606957	
-0.00023053	0.000545269	-0.00132831	
0.0151386	0.0184583	0.0165196	
0.00637301	0.00655493	0.00534007	
0.0107102	0.0148237	0.0077662	
0.0181691	0.0222212	0.017007	
-0.000792233	-0.000531559	0.00580617	
-2.87239e-05	-0.0001492	0.000777846	
-0.000601004	-0.000428077	0.00682858	
0.00274834	0.0057367	0.00144149	
4.99007e-05	0.000232808	-0.000914146	
0.000186649	-0.00123251	0.00594238	
0.000306309	-0.0018433	0.00573861	
-0.000140771	-0.00127502	0.00731042	
0.0252755	-0.018167	0.0116207	
-0.00147713	0.0117293	-0.0226146	
-0.0089755	0.0191096	-0.00910618	
0.000865521	-0.00548841	-0.00348379	
-0.00523605	0.0192791	-0.00756738	
-0.0088305	0.0249418	-0.00956757	
-0.00947231	0.00655272	-0.0133531	
-0.00745441	0.00334237	-0.0104602	
0.0013226	-0.00630647	0.00511579	
0.000446875	-0.00348887	0.00350971	
-0.000579895	0.00266463	-0.00030468	
0.000928949	-0.000699397	0.00330839	
6.56181e-05	-0.00396476	-0.00715553	
-0.0254491	0.0199795	-0.0261723	
-0.0166166	0.019836	-0.0146435	
0.00183997	-0.0067595	-0.00649469	
0.000973931	-0.00287127	0.00308466	
0.000656483	-0.00253898	0.00290298	
0.0006073	-0.00221589	0.00235696	
-0.00141469	0.00781567	-0.00284422	
-0.000482237	0.000795631	0.000794449	
0.00051889	0.000642021	0.000663712	
0.000114148	-0.000494893	0.000630186	
-0.000112585	0.000207157	0.0004001	
-0.00127968	-0.00424705	-0.0029622	
0.0406009	-0.054151	0.0221103	
0.00378714	-0.00840139	-0.00570491	
-0.00162064	-0.00524163	-0.00741538	
-0.00804249	0.0138486	-0.00853514	
-0.000579581	-0.00201465	-0.00198856	
0.000374653	-0.00648201	-0.00707924	
0.000478849	-0.000730857	-0.00127661	
0.0113925	-0.0114536	-0.00139638	
0.00022951	-0.00492301	-0.00507757	
-0.000304283	-0.00303153	-0.00286582	
8.32279e-05	0.000776692	0.000987565	
4.86243e-05	-6.84266e-05	-0.000152252	
-0.00287963	0.00281668	0.00613037	
-0.0057309	-0.0119513	-0.0247067	
-0.00334972	0.0016087	0.0340986	
0.00539935	-0.000477119	-0.0101869	
0.00712683	-0.000233837	-0.0122428	
0.0134748	-0.000454161	-0.0196124	
0.00250862	0.0019199	-0.00705128	
0.00705162	0.000478496	-0.0112077	
0.00694167	0.000867886	-0.0138628	
0.00852205	0.000532841	-0.0126766	
0.01065	-0.000207802	0.0459059	
0.00206472	-0.0030229	0.00453073	
0.00183017	0.00109132	0.0285127	
0.000802974	0.000574209	0.00276318	
0.00552641	0.0011424	-0.0104882	
0.00185571	0.00199178	-0.00624065	
0.000583896	0.00266263	-0.00304683	
-0.000361393	0.00252889	-0.00118971	
0.00583218	0.00217718	0.0330472	
0.00573402	-0.0049469	0.0108901	
0.00310159	0.000896244	0.0333011	
-0.000143943	0.000115011	-3.11782e-05	
0.00477404	-0.00293519	0.0114542	
-6.59756e-05	1.5739e-05	0.000145895	
-0.00178393	0.000429417	0.0244454	
1.15883e-06	6.98467e-05	-1.67555e-05	
-0.000451573	0.00298377	0.000193316	
0.000479453	0.00163697	-0.000174558	
-0.00114741	0.00271125	0.0103871	
-0.000285768	0.00195252	-0.000873767	
-0.00114695	0.00119108	0.0123918	
0.00100833	0.00230883	-0.00569047	
0.000521146	0.000114465	-0.000192669	
-2.66908e-05	0.00268539	-0.000772163	
0.000511929	0.00236345	-0.000301563	
0.000563843	0.00104982	-0.000268691	
0.000545811	0.00202191	-0.00019891	
-0.00492469	-0.0121005	-0.00379745	
-0.0378254	-0.0883292	-0.134337	
-0.00332437	-0.00776163	-0.000986734	
0.00273753	0.00568891	0.00263185	
-0.00144557	-0.00292604	0.000413123	
0.00631529	0.0136481	0.00943319	
-0.0130432	-0.0224311	-0.00803056	
0.00558155	0.00806923	0.00414998	
-0.0018175	-0.00697874	-0.00347716	
0.000737662	0.0025151	0.00558524	
0.00119116	0.00291831	0.00374714	
-0.00486123	-0.00458148	-0.0126523	
0.0061461	0.00849411	0.00461307	
-0.000742816	-0.00221399	0.000767253	
0.00469724	0.0100848	0.0059638	
0.00578244	0.00783739	0.00405526	
0.000211721	-0.000607146	0.00162447	
-0.00419516	-0.0152679	-0.00977603	
-0.00188036	-0.00481372	-0.00291815	
-7.28036e-05	-0.000526685	0.0019822	
-0.000240185	0.000461255	-0.000400207	
0.00031935	-0.000460079	0.000670487	
0.000641813	-6.38301e-06	-0.000330341	
-3.42982e-05	-0.000382505	0.00182649	
-7.23389e-05	0.000171456	-0.000398559	
0.0108781	0.0218368	0.0122166	
0.00573757	0.00775573	0.00366378	
0.0105403	0.0154631	0.0072398	
0.0107621	0.0263368	0.0123761	
-0.000238544	-0.000171104	0.00190063	
9.03095e-06	2.62215e-05	-0.000175528	
-0.000189851	-0.000122588	0.00227348	
0.00290473	0.00543905	0.00236101	
4.02261e-05	0.000126223	-0.000533309	
8.23572e-05	-0.000372292	0.00201809	
6.82629e-05	-0.000516029	0.00161347	
-5.76649e-05	-0.000383308	0.00239462	
0.0252808	-0.0156042	0.0154111	
-0.00196371	0.0129997	-0.0247059	
-0.0067227	0.0204184	-0.00870668	
0.001518	-0.00270651	-0.000379722	
-0.00570603	0.0187104	-0.00818982	
-0.00807856	0.0252222	-0.0097692	
-0.00744491	0.0109799	-0.0106273	
-0.00611577	0.00794725	-0.00769765	
0.00153443	-0.0074545	0.00399267	
0.00070394	-0.00448179	0.00288966	
-0.000560736	0.00212545	-0.00132897	
0.000562434	-0.00285316	0.00247413	
-0.000268047	-0.000734253	-0.00233116	
-0.0194666	0.0289164	-0.0252885	
-0.0101104	0.0233058	-0.0163301	
0.00112128	-0.00286087	-0.00113558	
0.000835174	-0.00390529	0.00181007	
0.00057617	-0.00372217	0.00191455	
0.000421661	-0.00320889	0.00142653	
-0.00171852	0.00683587	-0.00362841	
0.0002495	-0.000241616	-9.55091e-05	
-0.000127013	-0.000170819	-0.000175889	
-5.04492e-05	0.000200192	3.28091e-05	
8.8185e-05	-0.000158254	-0.000317964	
-0.000453003	-0.00136356	-0.000804275	
0.0272252	-0.0557367	0.0336102	
0.00288816	-0.00464337	-0.000145203	
-0.000982984	-0.00133312	-0.00265583	
-0.00568838	0.0154095	-0.0081409	
-0.000195833	-0.00062107	-0.000590127	
0.000129273	-0.00219226	-0.00213466	
0.000197194	-0.000339501	-0.000528445	
0.0102402	-0.00840517	0.00365917	
9.21663e-05	-0.00163505	-0.00150021	
-6.10135e-05	-0.00080048	-0.000762117	
-2.65752e-05	-0.000233485	-0.000304625	
0.000131571	-0.000176871	-0.000404287	
-0.00295209	0.0029762	0.00583228	
-0.00389236	-0.0113609	-0.0237278	
-0.00564142	0.00134616	0.0345604	
0.00563743	-0.000391689	-0.0102586	
0.00718453	-0.000433959	-0.0125828	
0.011261	-0.00192425	-0.0219304	
0.00188672	0.00223719	-0.00771758	
0.00680396	-9.53791e-05	-0.0118248	
0.00519988	0.000631477	-0.0151284	
0.00788596	-0.00031942	-0.0136074	
0.0114593	-0.000771079	0.0466443	
0.00223374	-0.00309345	0.00519969	
0.00200613	0.000992371	0.0289635	
0.000326454	0.00228394	0.00312029	
0.00433538	0.000874694	-0.0115676	
0.00164338	0.0026062	-0.00652971	
0.000686174	0.00335267	-0.00267805	
-0.000389327	0.00270287	-0.00130239	
0.00605433	0.0019443	0.0336341	
0.00606154	-0.00518044	0.0108585	
0.00329463	0.000803477	0.0337986	
-4.62089e-05	0.000123092	-0.000101092	
0.00508576	-0.00309078	0.0118483	
-2.89187e-05	7.59412e-05	0.000148125	
-0.00144503	0.000265093	0.0251212	
2.57564e-06	0.00025969	-6.21371e-05	
-0.000516624	0.00358005	0.000136213	
0.000446805	0.00161501	-0.00017505	
-0.00239477	0.00303865	0.0105234	
-0.000288086	0.00191828	-0.000907788	
-0.00133843	0.00114439	0.0128972	
0.00140127	0.00328539	-0.00564556	
0.000521288	0.000113663	-0.000196769	
-8.58616e-05	0.00338415	-0.000771626	
0.000572348	0.00275188	-0.000252784	
0.000592595	0.00109432	-0.000282783	
0.000574871	0.00223311	-0.000143423	
-0.00541236	-0.0121123	-0.00370393	
-0.0297661	-0.0931028	-0.140864	
-0.00319531	-0.00619876	-0.000881059	
0.00295896	0.00541839	0.00266961	
-0.00142246	-0.00281889	0.000439386	
0.0059413	0.0128855	0.00923397	
-0.0113798	-0.0224449	-0.00835361	
0.00505215	0.00860376	0.00471759	
-0.00205455	-0.0071658	-0.00369454	
0.000356469	0.00262059	0.00554417	
0.00143418	0.00337182	0.0042074	
-0.00356725	-0.00593756	-0.0123564	
0.00547427	0.00919154	0.00506879	
-0.000548402	-0.00187306	0.000634492	
0.00552059	0.010166	0.00667262	
0.0052315	0.00852916	0.0043075	
0.000363648	-0.000262121	0.0019487	
-0.00464242	-0.0155116	-0.00982656	
-0.00203473	-0.00500627	-0.00265112	
-0.000305347	-0.00119855	0.00160511	
-0.000174076	0.000497962	-0.000445357	
0.000334054	-0.000499033	0.000726389	
0.000657589	6.93375e-05	-0.000330551	
-2.48046e-05	-0.000407094	0.00181891	
-5.43465e-05	0.000132286	-0.000292024	
0.0115614	0.0209067	0.0132708	
0.00537272	0.00829418	0.00377262	
0.0104256	0.0159583	0.00718211	
0.0124493	0.0243348	0.0132868	
-0.000182293	-0.000238908	0.00163958	
5.54985e-06	1.7385e-05	-0.000123005	
-0.000174071	-0.000230228	0.00200723	
0.00308044	0.00537195	0.00241605	
4.249e-05	0.000116106	-0.000518855	
6.49812e-05	-0.00037779	0.00159145	
4.61194e-05	-0.000561377	0.0016878	
-3.80336e-05	-0.000428672	0.00227007	
0.0241941	-0.0162348	0.018174	
-0.0007194	0.0123039	-0.0239018	
-0.00726191	0.020901	-0.00842811	
0.00153888	-0.00279862	0.000253435	
-0.0056842	0.0191581	-0.00811974	
-0.00834647	0.0256883	-0.00964878	
-0.00632632	0.0120064	-0.0105503	
-0.00497279	0.00881963	-0.00800882	
0.00142435	-0.00702423	0.00424401	
0.000634367	-0.00414277	0.00303014	
-0.000594203	0.00237376	-0.00109011	
-8.44223e-05	-0.00181845	0.0031576	
-0.000178692	-0.000756542	-0.00237116	
-0.0183658	0.0316473	-0.0248891	
-0.0120809	0.0237201	-0.0153554	
0.000702835	-0.00273067	-0.00119658	
0.000838052	-0.00351561	0.0021168	
0.000606635	-0.00335565	0.00215835	
0.000443552	-0.00288614	0.00169049	
-0.00166426	0.00720164	-0.00349493	
-4.18028e-05	0.000127271	6.225e-05	
5.06126e-05	6.82273e-05	7.16927e-05	
1.40309e-05	-8.07871e-05	3.16675e-05	
3.33094e-05	-6.21832e-05	-0.00012311	
-0.000468548	-0.00132165	-0.000687864	
0.0291254	-0.0575899	0.0284385	
0.00230021	-0.00492345	0.000144807	
-0.000335024	-0.0016939	-0.00219695	
-0.006375	0.015698	-0.00779149	
-0.000223293	-0.000711147	-0.000731054	
0.000115582	-0.002197	-0.00204803	
0.000205953	-0.000341303	-0.00059794	
0.00883563	-0.00880286	0.00525444	
6.78068e-05	-0.00162292	-0.00137575	
-4.38154e-05	-0.000761997	-0.000824879	
5.10006e-06	4.63281e-05	5.9996e-05	
9.04885e-05	-0.000121098	-0.000286895	
-0.00314756	0.00272843	0.00574321	
-0.00265867	-0.012022	-0.0220803	
-0.00582613	0.00127053	0.0353096	
0.00595698	-0.000301982	-0.0105747	
0.0073262	-0.000259026	-0.013019	
0.0110154	-0.00130154	-0.022965	
0.00248851	0.00259759	-0.00733451	
0.00671458	2.23043e-05	-0.012497	
0.00622079	0.00187194	-0.014747	
0.00755007	-0.000214295	-0.0144728	
0.0118519	-0.000858347	0.0474722	
0.00241	-0.00325615	0.00574454	
0.00214565	0.00121107	0.0294081	
-5.78526e-05	0.00299331	0.00361502	
0.0046506	0.00155014	-0.0114651	
0.00200342	0.00271302	-0.00620156	
0.000815171	0.00328913	-0.00295861	
-0.000405807	0.00292279	-0.00124997	
0.00619146	0.0019809	0.0342891	
0.00621841	-0.00521984	0.0109937	
0.00338096	0.00111267	0.0346949	
-9.804e-07	0.000102333	-9.79317e-05	
0.00532815	-0.00325067	0.0122635	
3.70607e-05	6.63702e-05	0.000126215	
-0.0013857	0.000571756	0.0258224	
1.27021e-07	0.000128377	-3.06806e-05	
-0.000597548	0.00320743	0.00036916	
0.000472134	0.0017427	-0.000196402	
-0.00253282	0.00304784	0.0107695	
-0.000342153	0.00232926	-0.00105982	
-0.00128562	0.00136868	0.0134477	
0.00147739	0.00312865	-0.00565052	
0.000470659	0.000105353	-0.000180133	
-7.77031e-05	0.00309675	-0.000647194	
0.000597485	0.00296653	-0.000240731	
0.000598423	0.00104312	-0.000282686	
0.000615082	0.00242561	-0.000151693	
-0.00589452	-0.0120815	-0.00363318	
-0.0253612	-0.097526	-0.146331	
-0.00271652	-0.00527252	-0.000738628	
0.00315292	0.00524648	0.00278811	
-0.0013427	-0.0027092	0.000261672	
0.00574464	0.0126116	0.00887764	
-0.011991	-0.0211667	-0.00924395	
0.00546019	0.00841278	0.00488714	
-0.00214271	-0.00743489	-0.00401684	
0.000393746	0.0035494	0.00441248	
0.00150795	0.00367367	0.0042039	
-0.00139613	-0.00763351	-0.0113617	
0.00578495	0.00907415	0.00529691	
-0.00047231	-0.00148232	0.000440387	
0.00591474	0.0107592	0.00686311	
0.00540154	0.00852434	0.00455066	
0.000354134	-0.000113713	0.00177703	
-0.00450907	-0.0153854	-0.00996877	
-0.00225198	-0.00485339	-0.00282605	
-0.000341574	-0.00128337	0.00119052	
0.000409107	0.000170687	-5.97634e-05	
0.000285565	-0.000456951	0.000680441	
0.000571886	-0.000179834	4.25382e-07	
-1.70798e-05	-0.000373069	0.00164421	
-4.61011e-05	0.000115247	-0.000246783	
0.0116493	0.0209988	0.0132671	
0.00541396	0.00838042	0.0039934	
0.01048	0.016108	0.00746023	
0.0122456	0.0238845	0.0130953	
-0.000152792	-0.000207208	0.00136771	
1.44673e-07	9.35432e-07	-8.48599e-06	
-0.000147506	-0.000216523	0.00173941	
0.00319926	0.00527956	0.00265304	
2.24748e-05	6.27466e-05	-0.00028161	
4.39737e-05	-0.000336823	0.00128203	
4.09585e-05	-0.0005249	0.00158936	
-2.16441e-05	-0.000362954	0.001893	
0.0232884	-0.0163842	0.0202613	
-0.00060306	0.0125412	-0.0238588	
-0.00733018	0.0211861	-0.00843937	
0.00164396	-0.00285299	0.000803013	
-0.00573395	0.0192473	-0.00825688	
-0.00823235	0.0258587	-0.00999789	
-0.00697511	0.0124616	-0.00992627	
-0.005586	0.00913187	-0.00745645	
0.0014288	-0.00707927	0.00409928	
0.00063509	-0.00421939	0.0029495	
-0.000604122	0.00238929	-0.0011791	
-0.000205966	-0.00178159	0.00319485	
-0.000207785	-0.000508504	-0.00214985	
-0.0193766	0.0333659	-0.0237944	
-0.0122897	0.0243717	-0.0150478	
0.000628368	-0.00241873	-0.00115136	
0.000812646	-0.00355587	0.00197464	
0.000593762	-0.00344896	0.0020462	
0.000405622	-0.00297223	0.00157918	
-0.00168972	0.00718493	-0.00357648	
-8.15001e-07	-9.98652e-06	-3.29285e-06	
-5.11429e-06	-7.05335e-06	-7.5199e-06	
-1.53909e-06	6.69552e-06	6.65718e-08	
3.45234e-05	-6.63123e-05	-0.000130082	
-0.000373571	-0.000983321	-0.000486874	
0.0287599	-0.0574257	0.0278486	
0.00217607	-0.00468022	0.000417415	
-8.67056e-06	-0.00170821	-0.00163828	
-0.00647919	0.0159245	-0.00770484	
-0.000150794	-0.00048335	-0.000509407	
8.53582e-05	-0.00178476	-0.00172443	
0.00013464	-0.000226014	-0.000398178	
0.00797154	-0.00889689	0.00602817	
5.36888e-05	-0.00143782	-0.00122445	
-5.45312e-05	-0.000680296	-0.000792197	
-3.60432e-06	-3.26538e-05	-4.23639e-05	
6.973e-05	-9.77519e-05	-0.000224172	
-0.00295174	0.00304966	0.0052569	
-0.00134377	-0.0116265	-0.0216809	
-0.00531372	6.22269e-05	0.0361604	
0.00610342	0.000141209	-0.0108495	
0.00731104	-0.000106816	-0.0133782	
0.0120129	-0.000760004	-0.0227723	
0.00269292	0.0021231	-0.007558	
0.00671845	0.000155025	-0.0126168	
0.00635063	0.00139622	-0.014777	
0.00767987	-0.000318568	-0.0144321	
0.0126999	-0.00154729	0.0476876	
0.00263797	-0.00342986	0.00591581	
0.00262802	0.000459439	0.0300432	
0.000227056	0.00335782	0.00372679	
0.00507112	0.00137954	-0.0113721	
0.00215648	0.0023751	-0.0065018	
0.000532501	0.00258088	-0.00174767	
-0.000295079	0.00206519	-0.000768807	
0.00656396	0.00143675	0.034663	
0.00645681	-0.00530499	0.0109587	
0.0038013	0.000365433	0.0353066	
3.89884e-05	3.75892e-05	-3.90197e-05	
0.00561421	-0.00352551	0.0124191	
2.79082e-05	3.91502e-05	4.53657e-05	
-0.000947126	-0.000278319	0.0263602	
-5.3395e-07	0.000596075	-0.00014325	
-0.000616158	0.00313771	0.000531184	
0.000241446	0.000906175	-0.000111252	
-0.00243187	0.00180888	0.0113723	
-0.000234907	0.00158415	-0.000663545	
-0.00114213	0.000396575	0.0139846	
0.0013709	0.00276582	-0.00540471	
0.00021082	5.33668e-05	-8.59535e-05	
-6.55728e-05	0.00293135	-0.000601535	
0.000346975	0.00172045	-0.000145534	
0.000256136	0.000455348	-0.000128694	
0.000334622	0.0013242	-9.44673e-05	
-0.00606872	-0.0120641	-0.00324414	
-0.0226328	-0.101395	-0.148836	
-0.00255676	-0.00504977	-0.000935206	
0.00334079	0.00513798	0.00318866	
-0.00131938	-0.00275876	-0.000120735	
0.00563488	0.0125493	0.00863644	
-0.0118222	-0.0212309	-0.00885589	
0.00557659	0.00834617	0.00546235	
-0.00217014	-0.00757717	-0.00452977	
0.000408939	0.00335099	0.00406933	
0.00144801	0.00367993	0.00385043	
-0.00207237	-0.00705687	-0.0117648	
0.00589411	0.00886939	0.00609023	
-0.000345644	-0.00135041	0.000651937	
0.00595289	0.0110084	0.007067	
0.00549604	0.00824139	0.0055154	
0.000204044	-0.000203683	0.00117484	
-0.00430458	-0.01528	-0.0102942	
-0.00233198	-0.00469705	-0.00315728	
-0.000276205	-0.00104516	0.000799211	
0.000297559	6.04413e-05	-1.30793e-05	
0.000187151	-0.000307673	0.000487001	
0.00031523	-0.000133704	0.000163511	
-6.50838e-06	-0.000324212	0.00139756	
3.0756e-06	-7.61177e-06	1.64461e-05	
0.011653	0.0212192	0.0133317	
0.00556361	0.00816389	0.00516821	
0.0106754	0.0161069	0.00851344	
0.0120804	0.0239324	0.0132371	
-0.000154388	-0.000214424	0.00139933	
-3.46248e-05	-0.000139436	0.000803999	
-0.000123575	-0.000191012	0.00150322	
0.00329391	0.00520357	0.00321503	
-3.08045e-05	-9.24629e-05	0.000399506	
4.23704e-05	-0.00033989	0.00129876	
3.37605e-05	-0.000416065	0.00126036	
-1.5313e-05	-0.000294819	0.00152511	
0.0229789	-0.0174813	0.021178	
-0.000895313	0.0127097	-0.023411	
-0.00739202	0.0213791	-0.00855628	
0.00162124	-0.00301855	0.000841849	
-0.00575788	0.0193826	-0.00836998	
-0.00830739	0.0259946	-0.0101911	
-0.00725635	0.0129117	-0.00949437	
-0.00585972	0.00957276	-0.00696417	
0.00140237	-0.00697556	0.00408179	
0.000562341	-0.00417021	0.00293779	
-0.000618109	0.00245504	-0.00118262	
-0.000186558	-0.00121502	0.00339517	
-0.000347526	-1.58978e-05	-0.00170012	
-0.0196177	0.0345328	-0.0235232	
-0.0122791	0.0247707	-0.0150237	
0.000630884	-0.00201001	-0.000881228	
0.000798705	-0.00346815	0.00196941	
0.000573621	-0.00339357	0.00205535	
0.000408719	-0.00291841	0.00159717	
-0.00169216	0.00726878	-0.00360096	
2.01871e-05	3.44961e-05	7.76606e-06	
1.23179e-05	1.73768e-05	1.87593e-05	
1.78244e-06	-2.25097e-05	8.27886e-06	
2.73621e-05	-5.4708e-05	-0.000105579	
-0.000486027	-0.00122605	-0.000624332	
0.0284073	-0.0573713	0.0277621	
0.00224762	-0.00421931	0.000481569	
2.8794e-05	-0.0014338	-0.0013679	
-0.00650044	0.0160071	-0.00773131	
-0.000114139	-0.000364504	-0.000390045	
6.11212e-05	-0.00132803	-0.00138079	
0.000104514	-0.000177393	-0.000310528	
0.00757926	-0.00919455	0.00608755	
4.67678e-05	-0.00142408	-0.0012781	
-3.55425e-05	-0.000441365	-0.00052369	
-6.85484e-07	-6.27839e-06	-8.10842e-06	
5.71922e-05	-8.34869e-05	-0.000187628	
-0.00304778	0.00270572	0.00524549	
-0.00104609	-0.0113238	-0.0211813	
-0.00482702	-0.000707039	0.0365983	
0.00634491	-0.000348331	-0.0108404	
0.0074635	-0.000433042	-0.0131036	
0.012156	-0.0012074	-0.0229659	
0.0025885	0.0013052	-0.00705364	
0.00707441	-0.0005156	-0.0124206	
0.00645376	0.000742178	-0.0149528	
0.008037	-0.000519598	-0.0142717	
0.0130264	-0.00182348	0.0478573	
0.0028077	-0.00346376	0.00599965	
0.00283709	9.48144e-05	0.0303521	
0.000893276	0.00385835	0.00339921	
0.00523459	0.000637061	-0.0113897	
0.00199601	0.00119972	-0.00586091	
0.000564208	0.00100086	-0.00131229	
-0.000190717	0.00136771	-0.000492703	
0.00673607	0.00126936	0.0348535	
0.006566	-0.00522387	0.0109883	
0.00396271	7.20439e-05	0.0355766	
5.65963e-05	6.22196e-06	-2.24246e-05	
0.00575617	-0.00362534	0.0125024	
3.06475e-05	3.80124e-05	3.22433e-05	
-0.000698455	-0.000683252	0.0264867	
-1.58837e-08	0.000150099	-3.53268e-05	
-0.000585601	0.00140012	0.00122563	
0.00013019	0.000503664	-6.45464e-05	
-0.00224765	0.000668111	0.0116646	
-0.000144421	0.000991464	-0.000380565	
-0.00100461	-0.000126075	0.0141793	
0.00134395	0.00100114	-0.00500279	
0.000147563	4.33975e-05	-6.06945e-05	
-2.11819e-05	0.00110306	-0.000223721	
0.000157147	0.000782399	-7.05681e-05	
0.000160044	0.000292788	-8.26326e-05	
0.000152457	0.000610529	-4.82782e-05	
-0.00655384	-0.0120888	-0.00369129	
-0.022004	-0.10281	-0.151519	
-0.00172586	-0.00342922	-0.000695588	
0.00331015	0.00525459	0.00242851	
-0.00114259	-0.0024802	-0.000607859	
0.00509303	0.0116485	0.00743941	
-0.0116516	-0.0201104	-0.00997746	
0.00544635	0.00887474	0.00402733	
-0.00220798	-0.00757443	-0.00491014	
0.000309522	0.00362599	0.00420595	
0.00169831	0.00472625	0.00384349	
-0.00229328	-0.00709378	-0.0121234	
0.00603054	0.00933643	0.00460455	
-0.000301236	-0.000715857	-2.39957e-05	
0.00637836	0.0118447	0.00645338	
0.00574533	0.00866019	0.00396993	
0.000496234	0.000762609	0.0017036	
-0.00420755	-0.015757	-0.0107118	
-0.00251574	-0.0046132	-0.00347719	
-0.0006429	-0.00218856	-0.000103193	
0.00022976	1.19669e-05	-3.80969e-06	
0.000130999	-0.000218246	0.000346623	
0.000266805	-0.000105277	0.000139905	
-1.7939e-07	-0.000159076	0.00068084	
-8.76146e-05	0.000218298	-0.000466409	
0.0116374	0.0213131	0.0127308	
0.00571205	0.00847311	0.00345014	
0.0108199	0.0162697	0.0072184	
0.0115168	0.0232023	0.011879	
-6.06423e-05	-8.93354e-05	0.000564736	
3.21698e-05	0.000158416	-0.000834491	
-7.96198e-05	-0.000132714	0.00100218	
0.00338365	0.00542253	0.00220082	
6.30251e-05	0.000204715	-0.000869911	
2.00652e-05	-0.000158624	0.000602678	
1.21177e-05	-0.000193066	0.000590406	
-6.8731e-06	-0.000253979	0.00128094	
0.0231217	-0.0170189	0.0213847	
-0.00104112	0.012703	-0.023262	
-0.00742681	0.0214761	-0.00855491	
0.00201481	-0.00257111	0.00149319	
-0.00574569	0.0193889	-0.00841406	
-0.00832008	0.026077	-0.0102837	
-0.00734803	0.0131716	-0.00930497	
-0.00605746	0.00998916	-0.0067413	
0.00139082	-0.00694357	0.00402663	
0.000533026	-0.00418422	0.00288572	
-0.000625716	0.00248942	-0.00120069	
-0.00017036	-0.000963919	0.00345544	
-0.000280307	-1.84749e-07	-0.00135991	
-0.0197775	0.0352978	-0.0235022	
-0.0123244	0.0251618	-0.0149421	
0.000371274	-0.00124111	-0.000595357	
0.000785916	-0.00343415	0.0019298	
0.000557077	-0.00339595	0.00202484	
0.000390902	-0.00292049	0.00157057	
-0.00169821	0.00730595	-0.00363395	
1.32513e-05	9.2971e-06	9.17488e-07	
4.27813e-06	6.18567e-06	6.76361e-06	
-1.02111e-07	-8.72422e-06	3.64107e-06	
1.29563e-05	-2.706e-05	-5.11761e-05	
-6.7865e-05	-0.000167583	-9.28007e-05	
0.0282561	-0.05725	0.027551	
0.00220332	-0.00407727	0.000552025	
0.000583029	-0.001668	-0.000562972	
-0.00653699	0.0161454	-0.00768399	
-7.01157e-05	-0.000223923	-0.000242742	
4.03911e-05	-0.001151	-0.00130935	
5.23844e-05	-8.98415e-05	-0.000155694	
0.00744259	-0.00858209	0.00614883	
1.09801e-05	-0.00039444	-0.000379558	
-2.32392e-05	-0.000309883	-0.000372092	
-1.40437e-06	-1.2942e-05	-1.67418e-05	
2.70662e-05	-4.13496e-05	-9.06592e-05	
-0.00308113	0.00257652	0.0052485	
-0.000280379	-0.0115614	-0.0205902	
-0.00474853	-0.000659322	0.0368357	
0.00648366	-0.000435657	-0.0109476	
0.00767472	-0.000389085	-0.0132682	
0.0121899	-0.000850742	-0.0235678	
0.00243137	0.00100375	-0.00662218	
0.00713702	-2.63815e-05	-0.0127303	
0.00625322	0.000516035	-0.0146124	
0.0080679	-0.000161497	-0.0146112	
0.0132104	-0.00185437	0.0478596	
0.00295879	-0.00347679	0.00623628	
0.00301852	0.00016242	0.0304836	
0.0011499	0.00437136	0.00346573	
0.00521342	0.000923714	-0.0117159	
0.00187976	0.000886151	-0.00556734	
0.000534249	0.00093281	-0.00118691	
-0.000229741	0.00170682	-0.000600258	
0.00685872	0.00128177	0.0349679	
0.00660142	-0.00504931	0.0111296	
0.00399517	0.000181162	0.0358162	
4.18966e-05	-2.01128e-05	-2.00648e-06	
0.00583107	-0.00356745	0.0126085	
3.85434e-05	4.397e-05	2.15982e-05	
-0.000672375	-0.000566267	0.0266455	
-1.11019e-07	4.60396e-05	-1.06578e-05	
-0.00059334	0.0011711	0.00141989	
0.000119448	0.000479549	-6.33439e-05	
-0.002216	0.00061656	0.0117727	
-0.00018051	0.00127779	-0.000475899	
-0.000977225	-6.07383e-05	0.0142371	
0.00129929	0.000929709	-0.00495598	
0.000177995	6.03346e-05	-7.23807e-05	
-1.60202e-05	0.000970539	-0.000192142	
0.000147073	0.000745348	-6.86968e-05	
0.000157096	0.00029725	-8.37473e-05	
0.000145113	0.000602703	-5.03484e-05	
-0.00632208	-0.0122356	-0.00294445	
-0.0197213	-0.103688	-0.155979	
-0.00180397	-0.00353396	-0.000308511	
0.00343097	0.00510131	0.00327549	
-0.00122065	-0.00254752	-7.33443e-06	
0.005197	0.0115299	0.0081795	
-0.0112297	-0.0208216	-0.00825158	
0.00568602	0.00850369	0.00602492	
-0.00237686	-0.00801626	-0.0047082	
0.000527185	0.00342534	0.00391114	
0.00183339	0.00466194	0.00458501	
-0.00237844	-0.00684419	-0.0120424	
0.00602023	0.00907518	0.00665305	
-2.22346e-05	-0.000931465	0.0011134	
0.00627924	0.01164	0.00754091	
0.00565031	0.0084808	0.00598794	
0.000546462	0.000613209	0.0019529	
-0.00447031	-0.0156405	-0.0103748	
-0.00238711	-0.0048311	-0.00336287	
-0.000732553	-0.00241003	9.14815e-05	
0.000275077	-0.000113507	0.000135796	
0.000215412	-0.000347746	0.000556274	
0.000350428	-0.000137855	0.000172279	
5.60162e-06	-0.00033629	0.00139668	
2.64859e-05	-6.52531e-05	0.000141855	
0.0116107	0.021169	0.0134691	
0.00561027	0.00822799	0.00538323	