<VTKFile type="UnstructuredGrid" version="0.1" byte_order="LittleEndian">
	<UnstructuredGrid>
		<Piece NumberOfPoints="9102" NumberOfCells="9102">
			<CellData Scalars="scalars">
				<DataArray type="Float64" Name="Strength" NumberOfComponents="3" Format="ascii">
-0.00784972	-0.015246	0.0132052	
0.0141824	-0.00954186	-0.0258202	
-0.0164683	0.0708551	-0.00343287	
0.00466429	-0.00689606	-0.00701674	
0.00584255	0.000140447	-0.0111595	
0.013231	0.0537633	-0.0337057	
0.00282764	0.0853594	-0.0336667	
0.00176584	0.0166477	-0.0178643	
0.00787428	0.0835126	-0.0351926	
0.00353583	0.0299206	-0.0254044	
0.00257404	0.0104094	0.0442765	
0.0048025	-0.00282715	-0.00142711	
-0.0109021	0.0410561	0.0108398	
0.000484517	-0.00117699	0.00232358	
0.00466739	0.0715281	-0.0347568	
0.00271341	0.0866131	-0.0248431	
0.00454071	0.0958369	-0.00531001	
-0.00536538	0.0616981	-0.0325791	
0.000221389	0.0147709	0.028002	
0.00671692	-0.0105536	0.00730286	
-0.0111324	0.0343554	0.0187227	
-0.00282886	-0.00146451	-0.00065065	
0.00517206	-0.00473282	0.00920661	
0.00250878	0.000639204	-0.000184318	
-0.0149002	0.0487637	0.0023176	
-0.000949652	-0.0126669	0.00313218	
-0.00193685	0.0877654	-0.0227869	
0.00706414	0.0404223	0.0143305	
-0.00506803	0.0874596	-0.00583806	
-0.00657004	0.0439908	-0.024357	
-0.00448485	0.0536739	0.0102453	
0.00114676	0.0911123	-0.0101905	
-0.000400259	0.000485027	0.00019907	
-0.00141804	0.0871026	-0.015942	
-0.00482991	0.0780061	0.0186389	
0.0170462	0.0114454	0.00816324	
0.0028079	0.057435	0.0214909	
-0.0121558	-0.0055573	-0.0250029	
-0.00829229	-0.105529	-0.0939998	
-0.00597156	0.00895053	0.051045	
0.000713619	0.0119328	-0.0134615	
0.00675707	-0.00721504	0.0547439	
0.0136357	-0.0258544	0.0618899	
-0.0156568	-0.0276556	0.0518504	
0.0168869	-0.0125717	0.0521412	
0.0162463	-0.0242261	0.0297832	
0.0119876	0.000798882	0.0163638	
0.00233866	-0.0154922	0.0559781	
-0.0138382	-0.010342	-0.0197803	
0.00931943	-0.00418822	0.0485185	
0.00252849	-0.0111636	0.0260195	
0.00644909	0.00318833	0.0548927	
0.0053297	0.00125552	0.0404427	
0.0131495	-0.0294205	0.0398322	
0.0260716	-0.0136415	0.0175292	
-0.00588936	-0.0175911	0.00736484	
0.00789678	-0.0206481	0.0537968	
0.0240089	-0.00332488	0.0128934	
0.00152465	-0.0257074	0.00312197	
-0.0103568	-0.00472311	0.0163472	
0.000976942	-0.0102128	0.0589055	
-0.00522775	0.00857884	-0.0201002	
0.0216825	0.00772311	0.0382517	
0.00483927	0.00339778	0.0315798	
0.00938617	0.0128785	0.0165218	
0.0299369	-0.0186973	0.0699942	
-0.00383205	0.000539125	0.0409264	
-0.00137458	-0.00149974	0.0190628	
0.00099975	0.00178856	0.0449471	
0.00311574	0.00888131	-0.0104347	
0.000551389	0.000941393	-0.00478222	
0.00160029	-0.00557183	0.024588	
0.00844481	-0.02401	0.0507061	
0.001054	-0.00765511	0.0520193	
0.0151744	-0.0580939	-0.00630759	
-0.00190177	0.0190898	-0.0313118	
-0.0106995	-0.000136085	-0.0311685	
-0.00821918	-0.0387764	-0.0195857	
-0.00910225	0.0144218	-0.0106441	
-0.0156144	0.0110235	-0.02203	
0.00243043	-0.0115513	-0.0525067	
0.00431109	-0.0197907	-0.0549948	
0.00241001	-0.00948405	0.00213771	
-0.000540866	-0.00732419	0.00118723	
-7.77453e-05	0.000443984	-0.00356569	
0.00532061	9.16634e-06	0.00518116	
0.00524134	-0.0327455	-0.061221	
-0.0179924	-0.00812056	-0.0474922	
-0.0275698	-0.0293722	-0.0338206	
0.00391239	-0.0439375	-0.0571506	
0.000906121	-0.0048959	0.000988181	
0.000590625	-0.00603184	-0.000176798	
0.00077027	-0.00541059	-0.00118108	
-0.00195305	0.00497029	-0.0048751	
0.000649281	-0.000556922	0.00381163	
-0.00195943	-0.00212267	-0.00110971	
0.000568087	-0.00196345	-0.00197806	
0.0041633	-0.00298398	-0.00968038	
-0.0178554	-0.0441866	-0.0165286	
0.0537744	-0.0629843	-0.0302382	
0.00698577	-0.0476075	-0.0531697	
-0.00168961	-0.0490077	-0.0498903	
-0.00602981	-0.00379413	-0.0344116	
-0.0151204	-0.0482328	-0.0317434	
0.00333978	-0.0463646	-0.0508991	
0.00741928	-0.00927443	-0.0407484	
0.00997706	-0.049127	-0.0325158	
0.00145005	-0.0592423	-0.0521182	
0.000932089	-0.0114171	-0.0137591	
1.02734e-06	6.7911e-06	9.0413e-06	
0.00776341	-0.0022887	-0.0209434	
-0.00215842	0.00302878	0.00645937	
0.00292191	-0.0235497	-0.0181618	
-0.0200589	-0.00160188	0.0273508	
0.00440821	-0.000216164	-0.0106389	
0.00644892	0.00100681	-0.0128899	
0.0196437	0.0102972	-0.0133141	
0.00534393	0.0125606	-0.00420753	
0.00673871	0.00345041	-0.0121317	
0.0126032	0.0146585	-0.00586488	
0.00970813	0.0053015	-0.0129292	
0.0171135	-0.00165377	0.0433443	
0.00155842	-0.0038609	0.0029654	
0.000270711	-0.00238844	0.0278996	
-0.000127233	0.00121376	0.00189762	
0.0091427	0.0122546	-0.0070911	
0.00497316	0.0123947	-0.00267388	
0.00235481	0.0110304	0.00145337	
-0.0013889	0.00864095	-0.00582621	
0.0105388	0.000285356	0.0314739	
0.00606958	-0.00683809	0.00944131	
0.00362588	-0.00107714	0.032486	
-0.000132733	-0.000100797	0.0001688	
0.00548559	-0.00416115	0.00999909	
0.000231997	7.21357e-05	-0.000340204	
-0.00671615	-0.000760138	0.0233708	
5.29922e-06	0.000189708	-5.50717e-05	
-0.00156265	0.0108412	-0.00128659	
0.00341491	0.00431902	0.000985594	
-0.00841047	0.00575839	0.00784851	
-0.00154482	0.00653634	-0.00475894	
-0.00358791	0.00184206	0.0123359	
0.00419331	0.0109226	-4.51454e-05	
0.000355057	-0.00126583	-0.000379606	
-0.000401677	0.0101726	-0.000169107	
0.00296291	0.00693165	0.00436834	
0.00246133	0.00105082	-0.000695685	
0.00330082	0.00559421	0.00298058	
-0.00359865	-0.012234	-0.00484565	
-0.0215375	-0.0698814	-0.141068	
-0.00903	-0.00596293	0.00245799	
0.00164831	0.00649339	0.00179028	
-0.0027299	-0.00458848	0.00391403	
0.0109652	0.00735068	0.0163357	
-0.0230763	-0.0161543	-6.5466e-05	
0.00972814	0.00356289	0.00561132	
-0.000766308	-0.0081333	-0.000199224	
-0.00102722	0.000568284	0.00688651	
0.00127035	-0.00100877	0.00764424	
-0.000303948	-0.0041103	-0.0125206	
0.00937178	0.00423719	0.00677759	
-0.0010087	-0.00317562	0.004204	
0.00788987	0.00565887	0.00987154	
0.00794031	0.00502771	0.00602041	
0.000918435	-0.00291577	0.00475467	
-0.00445889	-0.0150733	-0.00810423	
-0.00131644	-0.00569142	-0.000899907	
0.000214509	-0.0025745	0.00644096	
-0.00203375	0.000980909	-0.000913236	
0.00134189	-0.0016756	0.002087	
-0.000240999	0.0022593	0.000659348	
-0.000566082	-0.00274397	0.00562436	
-0.000355274	0.00055201	-0.00130975	
0.0191147	0.0153932	0.0158955	
0.00734595	0.00603975	0.0048572	
0.0112907	0.0152107	0.00655807	
0.0239284	0.0148223	0.0183486	
-0.00143875	0.000514539	0.00572255	
-0.0001149	1.06617e-05	0.000790183	
-0.0011558	0.000459716	0.00679981	
0.00237704	0.00596563	0.00143545	
0.000170765	0.000125372	-0.000928528	
0.000126619	-0.000923652	0.00604226	
0.000431528	-0.00295266	0.00528554	
-0.000610265	-0.00213995	0.00713116	
0.0279688	-0.0171219	0.00709248	
0.00397865	0.00375074	-0.0251141	
-0.0116421	0.0193596	-0.00506789	
0.000318972	-0.00620923	-0.00226064	
-0.00553269	0.0201287	-0.00513815	
-0.0104153	0.0258771	-0.00491081	
-0.0109954	0.00376317	-0.0134431	
-0.0086226	0.00153087	-0.0101115	
0.00102052	-0.00635079	0.0052066	
0.000189669	-0.00352676	0.00353561	
-0.000698733	0.00267044	-6.76414e-05	
-0.000645462	0.000581922	0.00346261	
0.000298832	-0.00259899	-0.00781984	
-0.0322072	0.0103081	-0.0248063	
-0.0203623	0.0192443	-0.0105765	
0.00233391	-0.00532888	-0.00767706	
0.000935336	-0.00297335	0.00303447	
0.000611069	-0.00255214	0.0029315	
0.000335045	-0.00239645	0.00225897	
-0.00131674	0.00806468	-0.00229639	
0.000551705	0.00111722	0.000430753	
0.000847757	0.00041909	0.000491167	
0.000704683	-0.000112298	0.000395027	
-0.00022285	0.000100319	0.000398566	
-0.00212493	-0.00487057	-0.000852597	
0.0514237	-0.05002	1.23612e-06	
0.00467261	-0.00684746	-0.00712632	
-0.00195292	-0.00619195	-0.00666116	
-0.00988896	0.0141662	-0.0059551	
-0.00110571	-0.00197644	-0.00182709	
0.000387069	-0.00653264	-0.00714153	
0.00081219	-0.000155202	-0.00132088	
0.0127046	-0.00962523	-0.00372253	
0.000117026	-0.00551228	-0.00453016	
-8.62438e-05	-0.00307811	-0.00287735	
0.000111273	0.000739868	0.00102191	
9.08771e-05	-6.78639e-06	-0.000149509	
-0.00237513	0.00334374	0.00616489	
0.00501732	-0.023292	-0.0150604	
-0.00278845	-0.00524485	0.0340175	
0.00522937	-0.00106562	-0.0103465	
0.00745144	-0.000853192	-0.0121655	
0.0166403	-7.57973e-06	-0.017279	
0.00280477	0.00295034	-0.00663208	
0.00773388	-2.21679e-05	-0.0108983	
0.00853002	0.00273064	-0.0128225	
0.00984828	-4.38036e-05	-0.0118565	
0.0121873	0.00119495	0.0458146	
0.00190085	-0.00383331	0.00400219	
0.00154349	0.000747416	0.0287288	
-0.00106971	0.00248563	0.00124886	
0.00690895	0.0019649	-0.00961064	
0.0021387	0.00297985	-0.00579372	
0.000622321	0.00329073	-0.00239383	
-0.000681973	0.00227112	-0.00156367	
0.00781824	0.00313567	0.0327783	
0.0061991	-0.00746706	0.00916035	
0.00261304	0.00107441	0.0335549	
-9.46496e-06	6.12298e-05	-0.000190021	
0.00590502	-0.00429667	0.0105506	
0.000145392	2.51752e-05	-7.0648e-05	
-0.00230169	-0.000750435	0.0245544	
-1.40687e-06	6.87317e-05	-2.2991e-05	
-0.000602994	0.00289786	0.000721719	
0.000998877	0.00140258	-0.000118038	
-0.000819423	0.000214385	0.0108363	
-0.000570586	0.00162594	-0.00132891	
-0.000832055	-0.000183025	0.0125544	
0.000869173	0.00363896	-0.00502689	
0.000282119	-0.000464226	-0.000174151	
-7.99555e-05	0.00280868	-0.000172279	
0.000994126	0.00223394	0.000207147	
0.00105835	0.000522712	-0.000343091	
0.00106942	0.00182276	0.000141096	
-0.00383438	-0.0126743	-0.0036075	
-0.0435999	-0.065699	-0.146038	
-0.00334034	-0.00782331	-0.000963992	
0.00215997	0.00597721	0.00268586	
-0.00157039	-0.00288579	0.000420546	
0.00665612	0.0139365	0.00899503	
-0.0135439	-0.0226647	-0.00723257	
0.00597112	0.00802755	0.00390437	
-0.00204982	-0.00683414	-0.0037368	
0.00238949	-0.000989651	0.00563967	
0.00124409	0.00288347	0.00379637	
0.000952883	-0.00851272	-0.0115765	
0.00659159	0.00821863	0.00473643	
-0.00065719	-0.00225634	0.000780222	
0.00396838	0.0104577	0.00603631	
0.00625744	0.00760774	0.00402571	
0.000252017	-0.000675838	0.00160148	
-0.00447069	-0.0151357	-0.0100598	
-0.00188628	-0.00483649	-0.00293962	
-0.000105342	-0.000534753	0.00199069	
-0.000372891	0.000490508	-0.00023617	
0.000395877	-0.00050066	0.000602988	
-0.000537496	0.000489882	3.1909e-05	
-0.000139202	-0.000314011	0.00184623	
-0.000108778	0.000165851	-0.00039629	
0.0106823	0.0219281	0.0126573	
0.00624194	0.00764816	0.00329982	
0.0108812	0.0160361	0.00585629	
0.00910739	0.0274107	0.0119082	
-0.000649493	7.35242e-06	0.00182362	
3.46165e-05	-1.25163e-05	-0.000175435	
-0.000611638	0.000105808	0.00221377	
0.00261644	0.00568864	0.00227494	
0.000123868	4.5866e-05	-0.000538126	
-2.92241e-05	-0.00034763	0.00203825	
6.43189e-05	-0.000540298	0.00161561	
-0.000275582	-0.000237581	0.00241408	
0.0289463	-0.0140619	0.0103294	
0.00493401	0.00634358	-0.0269892	
-0.00686305	0.0218394	-0.00461457	
0.00143265	-0.00280281	-0.000214168	
-0.00600687	0.0195202	-0.00618862	
-0.00843283	0.0266051	-0.00534062	
-0.0081454	0.0114472	-0.00980151	
-0.00703166	0.00841813	-0.0064866	
0.0016967	-0.00754122	0.00387079	
0.000501699	-0.00483442	0.00237686	
-0.000556156	0.00224429	-0.00115463	
6.87538e-06	-0.00192603	0.00343621	
-0.000172912	-0.000110061	-0.00246956	
-0.0226584	0.0286301	-0.023458	
-0.00917177	0.0250914	-0.0145301	
0.00136096	-0.0024279	-0.00178056	
0.000854741	-0.00396669	0.00172778	
0.00063848	-0.00376917	0.00185673	
0.00017377	-0.00340836	0.0010055	
-0.00186457	0.00706403	-0.00319862	
-0.00023406	-0.000129457	0.000254017	
-0.000207256	-0.000137063	-0.000124264	
5.51504e-05	-0.000204225	-7.45938e-06	
0.000170908	-8.05335e-05	-0.000316334	
-0.000751388	-0.00148002	-7.72575e-05	
0.0274004	-0.0616972	0.0221968	
0.0034875	-0.00414112	-0.00107087	
-0.00120891	-0.00150947	-0.00249512	
-0.00543961	0.0167737	-0.00545908	
-0.00040412	-0.000567114	-0.000546248	
0.000114056	-0.00207529	-0.00228481	
0.000373233	-0.000187991	-0.000514921	
0.0117078	-0.00718318	0.0019531	
2.79406e-05	-0.00177126	-0.00137099	
-0.000125599	-0.000763192	-0.000803477	
-3.48801e-05	-0.000224446	-0.000313311	
0.000245348	-4.53683e-05	-0.000390912	
-0.00260558	0.00365029	0.00569732	
0.00794192	-0.0232015	-0.0106942	
-0.00638757	-0.000308301	0.0346911	
0.00558332	-0.00110172	-0.0103549	
0.00740602	-0.00122656	-0.0125489	
0.011608	-0.00315145	-0.0218269	
0.00127483	0.00219102	-0.00791737	
0.0070715	-0.000945191	-0.0117666	
0.00442668	0.000563851	-0.0154957	
0.00830302	-0.00146658	-0.0134357	
0.0131183	4.26232e-05	0.0465262	
0.00214472	-0.00320197	0.00521978	
0.00183732	0.000520922	0.0291767	
-0.000761888	0.00384558	0.000293435	
0.00357583	0.000658795	-0.0119339	
0.00126745	0.00263377	-0.0066584	
0.000821269	0.00344231	-0.00257316	
-0.000952079	0.00240278	-0.00161932	
0.00807705	0.00246372	0.0333975	
0.00575116	-0.00730242	0.00986379	
0.002724	0.000836195	0.0340678	
9.49546e-05	-8.17483e-05	0.000107653	
0.00627662	-0.00433787	0.0109457	
0.000154001	6.28478e-05	4.35418e-05	
-0.00206941	-0.000391999	0.0252394	
-1.22718e-05	0.000251768	-9.51319e-05	
-0.000728945	0.00357347	4.41631e-05	
0.000944055	0.00140197	-0.000137544	
-0.00268716	0.00268229	0.0106299	
-0.000732212	0.00157298	-0.00128612	
-0.0014898	0.000571764	0.0130037	
0.00151566	0.00341582	-0.00559266	
0.000268966	-0.000473407	-0.000174736	
-0.000140378	0.00338606	-0.000865594	
0.00114242	0.00260205	2.54137e-06	
0.00110348	0.000553167	-0.000353975	
0.00116127	0.00201403	7.50351e-05	
-0.00473605	-0.0127025	-0.00304827	
-0.0197141	-0.0569872	-0.16141	
-0.00359666	-0.00608137	-0.000440244	
0.00265402	0.00568379	0.00258607	
-0.00156133	-0.00276103	0.000489191	
0.00633806	0.0132008	0.00871593	
-0.010352	-0.0235019	-0.007392	
0.00480676	0.00901335	0.00440835	
-0.00258169	-0.00694641	-0.00388996	
0.000891138	0.00118373	0.00599206	
0.00159641	0.0033493	0.00421191	
-0.00486925	-0.00413644	-0.0127208	
0.00508724	0.00952611	0.00508691	
-0.000375832	-0.00191609	0.000679404	
0.00536044	0.0108789	0.00580697	
0.00491195	0.0088953	0.00417921	
0.000479662	-0.000342949	0.00192141	
-0.00520168	-0.0156772	-0.00948536	
-0.00184151	-0.00507952	-0.00273077	
-0.00037191	-0.00118471	0.00161619	
-0.000327742	0.000413463	-0.000453318	
0.000434311	-0.000523386	0.000659214	
0.000500058	0.000449419	-0.000319361	
-0.000120355	-0.000327691	0.00184239	
-8.0615e-05	0.000122812	-0.000292892	
0.0116127	0.0215459	0.0125931	
0.0052082	0.00870612	0.00330552	
0.0103262	0.0168408	0.00567261	
0.0126573	0.0256429	0.0108911	
-0.000480934	3.60247e-05	0.00160702	
2.75572e-05	-9.78749e-06	-0.000121975	
-0.000494179	0.00016467	0.00197295	
0.002931	0.00559579	0.00225391	
0.000132521	2.93813e-05	-0.000520438	
-3.29125e-05	-0.000316887	0.00161692	
5.12195e-05	-0.000586822	0.00168907	
-0.000207366	-0.000216822	0.00230546	
0.027799	-0.0148087	0.0144976	
0.00531417	0.00451471	-0.0261405	
-0.00817182	0.0217549	-0.00531423	
0.0013272	-0.00289377	0.000565686	
-0.00598561	0.019988	-0.00598867	
-0.00901216	0.026856	-0.0055812	
-0.00592504	0.0133174	-0.00936353	
-0.00498775	0.0100532	-0.00658555	
0.00145791	-0.00709362	0.00421304	
0.000477527	-0.00440298	0.00272875	
-0.000627684	0.00246778	-0.000883706	
-0.000991058	-0.000561456	0.00350707	
2.26329e-05	-0.000106253	-0.00251287	
-0.0172508	0.0337885	-0.0234413	
-0.0125454	0.0236807	-0.0154786	
0.000728314	-0.0024606	-0.00171992	
0.000844233	-0.00358535	0.00204507	
0.000635039	-0.00339389	0.00213409	
0.000168687	-0.00307162	0.00143349	
-0.00175919	0.00744634	-0.00301986	
0.000121711	-6.3545e-05	-5.33067e-05	
8.45453e-05	5.23717e-05	5.11781e-05	
4.65814e-05	7.25747e-05	2.19602e-05	
6.4781e-05	-3.33647e-05	-0.000122897	
-0.00084672	-0.00132971	1.461e-05	
0.0283813	-0.0618066	0.0205226	
0.00238753	-0.00490376	-0.000572453	
-0.000464619	-0.00166495	-0.00222647	
-0.0067708	0.0163107	-0.00637991	
-0.000443507	-0.000729029	-0.00061433	
3.22913e-05	-0.00206585	-0.00221869	
0.000399043	-0.000205276	-0.00056807	
0.00954567	-0.00846613	0.00488139	
-7.38881e-05	-0.00173771	-0.00125943	
-0.000135983	-0.000716874	-0.000865921	
6.79546e-06	4.42832e-05	6.19243e-05	
0.000167465	-3.48856e-05	-0.000278204	
-0.00298729	0.00348529	0.00549796	
0.00982652	-0.021892	-0.00845095	
-0.00683269	-0.000284333	0.0353928	
0.00587441	-0.00114517	-0.0106863	
0.00718161	-0.00125164	-0.0131896	
0.0100519	-0.00399494	-0.0233156	
0.00225759	0.0018911	-0.00768217	
0.0063683	-0.00130144	-0.012746	
0.00601034	0.000258283	-0.0150735	
0.00710922	-0.00209783	-0.0146964	
0.0136166	5.88564e-05	0.0473259	
0.00241137	-0.00273679	0.0060589	
0.00179417	0.000800864	0.0296377	
-0.000358046	0.00453292	0.00137182	
0.00428286	-2.06441e-05	-0.0118081	
0.00198419	0.00222548	-0.00645405	
0.000996492	0.00336943	-0.00285824	
-0.00102727	0.0025074	-0.00175922	
0.00839848	0.00262164	0.0340019	
0.00531516	-0.00717674	0.0104545	
0.00279911	0.0013016	0.0349647	
0.000116363	5.58211e-05	-8.79507e-05	
0.00655399	-0.00456476	0.0113122	
7.83812e-05	3.68055e-05	0.000120174	
-0.00206386	-8.28199e-05	0.025951	
-9.77109e-06	0.00012272	-5.06177e-05	
-0.00074422	0.00322049	0.000141829	
0.00101706	0.00151131	-0.000151913	
-0.00283927	0.00266396	0.010877	
-0.00091654	0.00187785	-0.00155315	
-0.00150123	0.000798154	0.0135605	
0.00168848	0.00321467	-0.00559598	
0.000243566	-0.000428075	-0.000159428	
-0.000124356	0.00309387	-0.000759016	
0.00122174	0.002802	4.60966e-05	
0.00109037	0.000498199	-0.000328479	
0.00124311	0.00219492	8.67825e-05	
-0.00560505	-0.0126076	-0.00264199	
-0.00515276	-0.0776573	-0.160836	
-0.00299878	-0.00520862	-0.000331764	
0.0030472	0.00547533	0.00260283	
-0.00146159	-0.00266534	0.000309233	
0.00605376	0.0129705	0.00833741	
-0.011784	-0.0223638	-0.00698642	
0.005454	0.00894916	0.00408142	
-0.00263676	-0.00718274	-0.00428447	
0.000496408	0.00204249	0.00530557	
0.00165453	0.00366566	0.00420325	
-0.00315964	-0.00662474	-0.0117195	
0.00569018	0.00952498	0.00481481	
-0.000381425	-0.00148265	0.000556212	
0.00591434	0.0114786	0.00581563	
0.0050409	0.00907016	0.00411981	
0.000476044	-0.000193962	0.00175068	
-0.0048525	-0.0154066	-0.00997497	
-0.0024139	-0.0046498	-0.00308993	
-0.000410055	-0.00126806	0.00120115	
0.000369091	0.0002059	-0.000152076	
0.000356382	-0.000494457	0.00062368	
0.000524594	0.000223108	-0.00019912	
-0.000105174	-0.000298687	0.00166598	
-6.78659e-05	0.000104062	-0.000249131	
0.0118801	0.0217277	0.0122573	
0.00506137	0.00899409	0.00331594	
0.0100012	0.0172881	0.00580134	
0.012546	0.0252374	0.010491	
-0.000403769	5.40698e-05	0.00134017	
1.40764e-06	-1.37734e-06	-8.49291e-06	
-0.000425535	0.000149553	0.00171143	
0.00309461	0.00551687	0.00244032	
7.37452e-05	1.30975e-05	-0.000282033	
-3.49019e-05	-0.000242685	0.0013125	
5.24239e-05	-0.000546947	0.00159079	
-0.000166032	-0.000177493	0.00192395	
0.0259988	-0.0156815	0.01798	
0.00553896	0.00461086	-0.026153	
-0.0082526	0.0220593	-0.00519526	
0.0012768	-0.00292406	0.00123369	
-0.00608963	0.0200964	-0.0060496	
-0.0090076	0.0270606	-0.00583778	
-0.00676342	0.0128957	-0.00975705	
-0.00572496	0.00966911	-0.00683052	
0.00152537	-0.00714331	0.00405176	
0.000466233	-0.00448605	0.00262257	
-0.000631184	0.00249516	-0.000965353	
-0.00120503	-0.000623401	0.00345892	
-6.39102e-05	-7.09848e-05	-0.00223436	
-0.01975	0.0331909	-0.0244008	
-0.0127938	0.0243177	-0.0151797	
0.000601646	-0.00225155	-0.00150618	
0.000831787	-0.00361571	0.0019084	
0.000644967	-0.00348424	0.00201743	
0.000126863	-0.00314801	0.00130458	
-0.00180322	0.00743388	-0.00309351	
-8.58502e-06	4.3925e-06	4.38049e-06	
-8.66792e-06	-5.50608e-06	-5.34851e-06	
-5.25102e-07	-6.92044e-06	-5.9143e-07	
6.93213e-05	-3.49033e-05	-0.000129618	
-0.000737508	-0.000907995	2.82038e-05	
0.0303144	-0.0602546	0.0205726	
0.00210907	-0.00477905	-2.54959e-05	
-0.000111514	-0.00171183	-0.00166088	
-0.00683986	0.0165644	-0.00622204	
-0.000300544	-0.000496162	-0.000432244	
-4.6421e-06	-0.0017345	-0.00180697	
0.000264121	-0.000136122	-0.000378014	
0.00787808	-0.00886979	0.00645582	
-0.000129865	-0.00156039	-0.00108732	
-0.000127544	-0.000683824	-0.000791214	
-4.72298e-06	-3.126e-05	-4.36907e-05	
0.000131837	-2.86011e-05	-0.000217688	
-0.00286365	0.00378191	0.00490117	
0.00950778	-0.0207772	-0.0096488	
-0.00588434	-0.00196694	0.0362674	
0.00583076	-0.000852822	-0.0110902	
0.00683703	-0.00150405	-0.0136905	
0.0115588	-0.0047614	-0.0227491	
0.00254306	0.00133765	-0.00784892	
0.00601407	-0.00149979	-0.013015	
0.00632435	-0.000362051	-0.0149749	
0.00695992	-0.00267682	-0.0147029	
0.0145638	-0.000453799	0.047502	
0.0027099	-0.00282616	0.00624692	
0.00240121	9.23208e-05	0.0302612	
-0.000142841	0.00502075	0.000782815	
0.00485498	-0.000315442	-0.0116437	
0.00216599	0.00182321	-0.00673005	
0.00063177	0.00263043	-0.00167907	
-0.000696509	0.00172361	-0.00125224	
0.00895785	0.00227738	0.0343124	
0.00518961	-0.00725065	0.0106184	
0.00337867	0.000653671	0.0355758	
5.01167e-05	3.86668e-05	-4.53689e-05	
0.00672274	-0.00471757	0.0115448	
2.03698e-05	3.50956e-05	5.24918e-05	
-0.0014291	-0.00103891	0.0264918	
-5.51305e-05	0.000564067	-0.000247744	
-0.000755825	0.00316323	0.000300301	
0.000529543	0.000783318	-9.70244e-05	
-0.00263814	0.00133674	0.0114743	
-0.000618357	0.00124702	-0.00105756	
-0.0014496	-0.000179039	0.0140528	
0.00152627	0.00282536	-0.0053813	
0.00011216	-0.000188676	-8.42806e-05	
-0.000110325	0.0029271	-0.000715657	
0.0007187	0.00162138	1.67651e-05	
0.00046854	0.000220504	-0.000157926	
0.000691738	0.00119201	2.84113e-05	
-0.00599307	-0.0124876	-0.00211085	
-0.00370689	-0.0679193	-0.16929	
-0.00277873	-0.00503984	-0.000509469	
0.00331257	0.0053705	0.00296011	
-0.00141846	-0.00273384	-6.57869e-05	
0.00586518	0.0129677	0.00804229	
-0.0114747	-0.0224677	-0.00654597	
0.00556024	0.0089528	0.00464973	
-0.00268837	-0.00733694	-0.00474667	
0.000227044	0.0014543	0.00510578	
0.00156584	0.00369343	0.00383768	
-0.00283445	-0.00530961	-0.0125738	
0.00569489	0.00946484	0.00556686	
-0.000242734	-0.00132914	0.000759659	
0.00589756	0.0118368	0.00587147	
0.00514556	0.00898382	0.0048539	
0.000286866	-0.000252597	0.0011538	
-0.00478204	-0.0154035	-0.0100863	
-0.002331	-0.00466332	-0.00327141	
-0.000322922	-0.0010343	0.000809367	
0.000242996	0.000146455	-0.00011386	
0.000313462	-0.000347857	0.000389442	
0.000372493	-6.82995e-05	4.83183e-05	
-8.18608e-05	-0.000255377	0.00141758	
4.47304e-06	-6.69307e-06	1.66995e-05	
0.0118181	0.0220707	0.0121617	
0.005174	0.0090531	0.00421379	
0.00995453	0.0176289	0.00663427	
0.0121124	0.0255082	0.0104465	
-0.000415147	6.59438e-05	0.00137015	
-0.00018182	6.18244e-05	0.000800684	
-0.000372473	0.000137198	0.0014772	
0.00312161	0.00553153	0.00296596	
-0.00010607	-1.90968e-05	0.000400407	
-4.4087e-05	-0.000231266	0.00133141	
4.27599e-05	-0.000434395	0.00126096	
-0.000137173	-0.000132873	0.00155091	
0.0239741	-0.0177648	0.0204176	
0.00565271	0.00517584	-0.0257007	
-0.00826372	0.0223268	-0.00512392	
0.0010698	-0.00306231	0.00146995	
-0.006101	0.0202676	-0.00607922	
-0.00897852	0.0272715	-0.00596279	
-0.00710674	0.0132429	-0.00940705	
-0.00607418	0.0100101	-0.0063395	
0.00150196	-0.00703096	0.00404693	
0.000455375	-0.00437941	0.00269414	
-0.000649265	0.00256182	-0.00095855	
-0.000578573	6.75943e-06	0.00361842	
-0.000258666	0.000270232	-0.00170857	
-0.0202791	0.0342395	-0.0241007	
-0.0126836	0.0248513	-0.0150284	
0.000651904	-0.00191896	-0.00109416	
0.000825738	-0.00352338	0.00190853	
0.000635645	-0.00342051	0.00203752	
0.000132681	-0.00308531	0.00135274	
-0.00180831	0.00752516	-0.00309836	
2.90445e-05	-2.33199e-05	-1.73194e-05	
2.12369e-05	1.36388e-05	1.33772e-05	
1.57355e-05	1.83114e-05	3.27473e-06	
5.61582e-05	-2.87699e-05	-0.000105439	
-0.0010075	-0.00107438	3.02647e-05	
0.0300817	-0.0600921	0.0206218	
0.00231808	-0.00424258	0.00035068	
-5.81837e-05	-0.00149881	-0.00132227	
-0.0067808	0.016736	-0.00609987	
-0.000226711	-0.000373594	-0.000333724	
-3.77387e-06	-0.00135938	-0.00137476	
0.000206303	-0.000106314	-0.000295058	
0.00721457	-0.00894273	0.00710084	
-0.00015286	-0.00158552	-0.00109264	
-8.71544e-05	-0.000445777	-0.000520709	
-8.89601e-07	-6.0164e-06	-8.3564e-06	
0.000110131	-2.44434e-05	-0.000182683	
-0.00304755	0.00345632	0.00487257	
0.00733378	-0.0207835	-0.00995396	
-0.00502542	-0.0029827	0.0367102	
0.00615692	-0.00143651	-0.010987	
0.00697998	-0.00195193	-0.0133777	
0.0119165	-0.00547794	-0.0226959	
0.00247064	0.00054376	-0.00725097	
0.00662025	-0.00227484	-0.0126109	
0.00648234	-0.0011223	-0.0150431	
0.00759608	-0.00321854	-0.0143149	
0.0148206	-0.00090229	0.0476912	
0.00307842	-0.00293668	0.00620281	
0.00259444	-0.000404077	0.0305712	
-0.0010659	0.0046379	0.00225051	
0.00511925	-0.00110735	-0.0115064	
0.00196597	0.000674289	-0.0060009	
0.000613713	0.00102238	-0.00128878	
-0.000460355	0.00113178	-0.000832007	
0.00927844	0.00200555	0.034468	
0.00496719	-0.0072879	0.0107575	
0.003552	0.000260523	0.0358514	
3.99573e-05	3.21132e-05	-4.69434e-05	
0.00661232	-0.00489775	0.0117259	
6.32498e-06	4.53464e-05	3.66814e-05	
-0.00112002	-0.00157485	0.0266096	
-1.64527e-05	0.000141193	-6.31095e-05	
-0.000654371	0.00147287	0.00112419	
0.000293981	0.000434414	-5.72661e-05	
-0.00234255	0.000194532	0.0117464	
-0.000381335	0.000770451	-0.000655032	
-0.00139087	-0.000737946	0.0142229	
0.00146711	0.00102849	-0.00500011	
8.14764e-05	-0.000131176	-6.16032e-05	
-3.84837e-05	0.00110093	-0.000269227	
0.000325788	0.000738112	-2.70082e-06	
0.000297424	0.000143201	-0.000103337	
0.000316161	0.000551254	5.94924e-06	
-0.0067314	-0.0124497	-0.00245295	
-0.000812456	-0.0558785	-0.176704	
-0.00186329	-0.00343912	-0.000375515	
0.00337803	0.00540788	0.00214419	
-0.00119878	-0.00248496	-0.000563061	
0.00520884	0.0120646	0.0068641	
-0.0113649	-0.0214562	-0.0077517	
0.00539448	0.00935939	0.00315577	
-0.00262548	-0.00730552	-0.00520204	
-0.000431232	0.00116395	0.00544854	
0.00178968	0.00475996	0.00382223	
-0.00204842	-0.00459937	-0.0133793	
0.00603695	0.00972335	0.00402018	
-0.000273025	-0.000732373	4.22961e-05	
0.00647136	0.0125648	0.00508852	
0.00575855	0.00905944	0.00326688	
0.000602014	0.000710008	0.00170292	
-0.00454964	-0.0156802	-0.0108754	
-0.0024358	-0.00425079	-0.00400879	
-0.000721028	-0.00218012	-9.05249e-05	
0.000179617	0.000122216	-8.11113e-05	
0.000198919	-0.000258685	0.00028289	
0.00031651	-6.00163e-06	5.35357e-05	
-3.72262e-05	-0.000125438	0.000690701	
-0.000127196	0.000196434	-0.000471569	
0.0118511	0.0221566	0.0114473	
0.0057174	0.00892382	0.00246053	
0.0104435	0.0175065	0.00512661	
0.0115713	0.0246527	0.0090528	
-0.000166353	2.69962e-05	0.000553442	
0.000182853	-6.5639e-05	-0.000834853	
-0.000249193	9.1704e-05	0.000985129	
0.00335418	0.0056199	0.00192138	
0.000223367	3.50405e-05	-0.000874604	
-2.29039e-05	-0.000104414	0.000618419	
1.30361e-05	-0.000200391	0.000591142	
-0.000112368	-0.000114544	0.00130371	
0.0229897	-0.0178599	0.0214312	
0.00552871	0.00574909	-0.0254711	
-0.00827136	0.0224527	-0.00502438	
0.00172762	-0.00248529	0.00199637	
-0.00609089	0.0203002	-0.00605952	
-0.00904343	0.0273765	-0.00592954	
-0.00719158	0.0135409	-0.00916214	
-0.00632702	0.0103959	-0.00606343	
0.00152363	-0.00698522	0.00400331	
0.000453426	-0.00436725	0.00267271	
-0.000659447	0.0026006	-0.000965833	
-0.000310629	0.000217571	0.00362448	
-0.000201877	0.000233421	-0.00136505	
-0.0203018	0.0351738	-0.0239722	
-0.0126989	0.0252722	-0.0149314	
0.000384154	-0.00118151	-0.000724108	
0.000827391	-0.00348475	0.00187029	
0.000629841	-0.00341678	0.00201419	
0.000126011	-0.00307427	0.00134618	
-0.00182036	0.00756394	-0.00313028	
1.06376e-05	-1.01211e-05	-7.62996e-06	
7.5179e-06	4.90752e-06	4.80496e-06	
7.22314e-06	6.21742e-06	9.33571e-07	
2.70458e-05	-1.44205e-05	-5.12913e-05	
-0.000146252	-0.000143953	1.83426e-06	
0.030297	-0.0597618	0.0204369	
0.00227874	-0.00409585	0.000453245	
0.000537939	-0.00173717	-0.000442117	
-0.00678571	0.0169019	-0.00598488	
-0.000138537	-0.000230884	-0.000207738	
-1.07074e-05	-0.00122431	-0.00126284	
0.000103551	-5.44148e-05	-0.000148013	
0.00717147	-0.00796768	0.00742594	
-4.2666e-05	-0.000458442	-0.00030539	
-5.7778e-05	-0.00031148	-0.00037177	
-1.8024e-06	-1.24005e-05	-1.72677e-05	
5.30228e-05	-1.24942e-05	-8.8592e-05	
-0.00311778	0.0033117	0.00488106	
0.00728026	-0.0207454	-0.00898562	
-0.00490292	-0.00300303	0.0369534	
0.0062283	-0.00163321	-0.0111126	
0.00718889	-0.00214184	-0.0135221	
0.0118691	-0.00548136	-0.0233416	
0.00229676	0.000237561	-0.00679363	
0.00660917	-0.00215631	-0.0129703	
0.00621119	-0.00144509	-0.0146905	
0.00761137	-0.00314485	-0.0146747	
0.0149082	-0.00113176	0.0477148	
0.00312174	-0.00303932	0.0064429	
0.00270003	-0.000460049	0.030713	
-0.000725303	0.00518179	0.00234314	
0.00499208	-0.00104187	-0.0119036	
0.00182108	0.000351773	-0.00568924	
0.000579429	0.000952597	-0.00116421	
-0.000579704	0.00140353	-0.00103698	
0.00942254	0.00190481	0.034576	
0.00468589	-0.00731848	0.0109469	
0.00357556	0.000255757	0.0360958	
4.0893e-05	-1.55218e-05	2.43291e-05	
0.0064678	-0.00509364	0.0118575	
-9.43813e-06	6.07768e-05	1.26048e-05	
-0.0010962	-0.00152714	0.0267698	
-5.63687e-06	4.30493e-05	-1.955e-05	
-0.000642013	0.00126261	0.00133699	
0.000276643	0.000414673	-5.51755e-05	
-0.00232235	0.000133215	0.011851	
-0.000489835	0.000983401	-0.000846994	
-0.00138403	-0.000690077	0.0142822	
0.00139924	0.000951348	-0.00496146	
0.00010367	-0.000156578	-7.57469e-05	
-3.1059e-05	0.000968851	-0.00023252	
0.000309333	0.000703233	-4.00959e-06	
0.000297637	0.000149172	-0.000103508	
0.000307751	0.000545459	3.9611e-06	
-0.00644545	-0.0125264	-0.00185094	
-0.0121281	-0.0689993	-0.175781	
-0.00200875	-0.00346872	1.90388e-05	
0.0034268	0.00532289	0.00304964	
-0.00131497	-0.00252098	5.26576e-05	
0.00534259	0.0119957	0.00757207	
-0.0106739	-0.0220735	-0.00601919	
0.00557974	0.00922367	0.00519337	
-0.00280231	-0.00775612	-0.00500964	
-0.000510801	0.00157931	0.0049824	
0.00198862	0.00469385	0.00454469	
-0.00140636	-0.00396083	-0.0134761	
0.00573661	0.00981136	0.00603113	
8.57479e-05	-0.000859518	0.00117924	
0.00622113	0.0126207	0.0060783	
0.00531516	0.00933898	0.00516341	
0.000689206	0.000535836	0.00194079	
-0.00451412	-0.0155526	-0.0106735	
-0.00230088	-0.00452081	-0.00387308	
-0.000840965	-0.00239051	0.000117961	
0.000329124	1.38187e-05	1.08028e-05	
0.000309482	-0.000405415	0.000469685	
0.000345667	-0.000159562	0.000168944	
-6.98936e-05	-0.0002619	0.00141861	
3.8388e-05	-5.92182e-05	0.000143155	
0.0117244	0.022183	0.0120684	