<VTKFile type="UnstructuredGrid" version="0.1" byte_order="LittleEndian">
	<UnstructuredGrid>
		<Piece NumberOfPoints="18759" NumberOfCells="18759">
			<CellData Scalars="scalars">
				<DataArray type="Float64" Name="Strength" NumberOfComponents="3" Format="ascii">
-0.00997835	-0.0136771	0.014518	
-0.0142243	-0.0218582	-0.0191087	
0.00587543	0.068966	0.027477	
0.00566126	-0.00740289	-0.00624127	
0.00623234	-0.000742745	-0.0113496	
0.0119198	0.050106	-0.0421618	
0.015616	0.0849958	-0.0373095	
-0.00119071	0.0102774	-0.0229639	
0.0128395	0.0813021	-0.0439005	
0.00147895	0.0214998	-0.0343065	
0.00373579	0.0254671	0.0386708	
0.00535391	-0.00185507	-0.00150045	
-0.00172712	0.0443979	0.00535195	
0.00197437	0.00145677	-0.00132427	
0.0122846	0.0652069	-0.0476786	
0.00827256	0.0865681	-0.031247	
-0.00671931	0.0961993	0.0194013	
0.00614433	0.0464957	-0.0543718	
0.00673763	0.0194907	0.0248397	
0.00251275	-0.0125426	0.00737273	
-0.00625627	0.0399341	0.00944683	
0.00285831	0.00383901	-0.000436775	
0.000654672	-0.00634534	0.00991967	
0.000967963	0.00149896	-0.00192031	
0.00312444	0.0514033	0.00819536	
-0.0011934	-0.0125796	0.00469294	
0.00864317	0.0892297	-0.0245288	
-0.00868073	0.0375496	0.0220258	
-8.50104e-05	0.086193	0.0253559	
-0.00733854	0.0287951	-0.0427908	
-0.00718891	0.0516622	0.0204612	
-0.000804985	0.0938548	0.00246669	
0.000631465	1.65437e-05	0.000229471	
0.00280905	0.0897379	-0.0130354	
-0.0111657	0.0810448	0.00782202	
0.0040966	-0.00221708	0.022054	
-0.0226331	0.055126	0.0196712	
-0.0155376	-0.00753426	-0.0235304	
-0.144252	0.00415448	-0.0405105	
0.0301366	-0.00251471	0.04395	
0.000258677	0.0120221	-0.0141016	
0.00859741	-0.0271916	0.0491672	
-0.00395545	-0.00627951	0.0695626	
-0.0136063	-0.00530143	0.0606185	
0.0150861	-0.0194166	0.0521893	
0.0217054	-0.0153741	0.0332153	
0.01085	-0.00380763	0.0172042	
0.0125519	-0.0269064	0.0514068	
0.0420883	-0.0215719	-0.0176205	
0.0124182	-0.00202366	0.0493177	
0.000924159	-0.00942272	0.0275512	
0.0122842	0.0154174	0.0530796	
0.00809208	0.00912185	0.0400971	
0.0320302	-0.0238294	0.0338666	
0.00883673	-0.0211419	0.0263859	
-0.00121992	-0.0178304	0.0103864	
0.00749645	-0.0222452	0.0545556	
-0.0127146	0.0107694	0.0477778	
0.00838459	-0.0250719	0.00308512	
0.00207135	-0.00374824	0.0197959	
0.0129959	-0.0196232	0.0563852	
-0.00891863	0.00762223	-0.0199288	
0.021603	0.000969004	0.0402612	
0.00482779	0.0112465	0.0306489	
0.00883224	0.0160681	0.0148762	
-0.000945266	-0.0093535	0.0796088	
0.00049039	0.020428	0.0367608	
-0.0039639	0.00523868	0.0185783	
0.0144953	0.011393	0.0421525	
0.0047522	0.00828925	-0.0108635	
0.00153515	-2.67024e-06	-0.00480908	
0.00129566	-0.0016962	0.0257853	
0.0199821	-0.0181919	0.0512514	
0.0123514	-0.00488838	0.0520935	
0.0113895	-0.0608273	0.00564339	
-0.00148844	-0.00617713	-0.0375453	
-0.0078437	0.00213024	-0.0327114	
-0.00632515	-0.0447911	0.00456849	
-0.0109889	0.0144052	-0.00966474	
-0.0150693	0.00960544	-0.0238657	
2.58821e-05	0.00421581	-0.055024	
0.00282926	-0.000842745	-0.0600458	
0.00292999	-0.00975158	0.000757022	
0.00175887	-0.00730536	0.00117063	
0.000562365	0.00126198	-0.00339886	
0.00263382	0.000516422	0.0080845	
0.00602742	-0.0144431	-0.069709	
-0.013284	-0.0146224	-0.0488876	
-0.0112061	-0.0476208	-0.0224267	
0.0122875	-0.0346126	-0.064372	
0.00110539	-0.00500901	0.000685772	
6.85574e-05	-0.00614138	-0.000678299	
-3.55071e-05	-0.00466305	-0.0032896	
-0.00206155	0.00541405	-0.00456932	
0.00271497	0.000751164	0.00308751	
-0.00190856	-0.00244718	0.000553571	
-0.00100581	-0.0027092	-0.000555487	
0.00716591	0.00302393	-0.00804749	
-0.0125795	-0.0457952	0.0209168	
0.0495509	-0.0399193	-0.0640324	
0.0119728	-0.0437745	-0.0579799	
0.00157543	-0.0597989	-0.0398286	
-0.00895697	0.000435609	-0.0348139	
0.00484686	-0.0592534	-0.0140202	
0.00487919	-0.0509018	-0.048955	
-0.0113892	0.0033814	-0.0417719	
0.0031849	-0.0554207	-0.0263044	
-0.000688131	-0.0709578	-0.0392737	
0.00373409	-0.0100424	-0.014892	
1.24468e-06	6.69077e-06	9.40851e-06	
0.00757334	0.0141266	-0.0164383	
-0.00111359	0.00372055	0.00662794	
0.0239671	-0.0137847	-0.0128148	
-0.0250912	-0.00213039	0.0239033	
0.00402215	-0.00198022	-0.0109885	
0.00700144	-0.000693308	-0.0131099	
0.0171437	0.0198072	-0.00446086	
0.00197556	0.0144614	0.00118175	
0.00760943	0.00216656	-0.0124085	
0.00276048	0.0201892	0.00377557	
0.0112917	0.0058748	-0.0120067	
0.0257643	-0.00595998	0.0395228	
-0.00333504	-0.00238082	0.00323287	
-0.00224499	-0.0016718	0.0284481	
-0.0019158	0.000784313	0.00113694	
0.00449254	0.0166002	-0.00179741	
0.00109608	0.0134613	0.00352555	
0.00230624	0.00778738	0.00832977	
0.00166928	0.00570759	-0.009	
0.0190952	-0.0015871	0.027913	
0.0110849	0.00343434	0.00687842	
0.00376981	0.00284768	0.0330397	
9.6099e-06	-0.000198625	0.000254671	
0.00323141	-0.00437013	0.0111213	
-0.000310531	-0.000289133	1.58284e-05	
-0.00898306	-0.00346074	0.0229142	
-2.29998e-06	0.000185216	-8.69772e-05	
-0.000651467	0.0112591	-0.000659483	
0.00546411	-0.000276456	0.00164418	
-0.00935893	0.00582432	0.00718806	
-0.000783292	0.002841	-0.00792621	
-0.00413138	-0.00143457	0.012521	
0.00237387	0.00849438	0.0080988	
-0.000179116	0.00131815	0.000421891	
-0.000667845	0.0101083	0.00246188	
0.00410354	0.00126493	0.00780475	
0.000868115	-0.00265355	-0.000417481	
0.0052143	0.000750072	0.00506177	
-0.00095398	-0.0127388	-0.00584285	
0.0290066	-0.101312	-0.123418	
-0.010752	0.00220283	0.00290118	
0.000113405	0.0069553	0.00161101	
-0.00377443	-0.00409238	0.00384395	
0.0149298	-0.00192853	0.0153169	
-0.027521	-0.000804597	0.00877508	
0.0115759	-0.00137568	0.00322888	
0.00305556	-0.00767287	-0.0011258	
-0.00135292	0.0015616	0.00681946	
0.00181482	-0.00218728	0.00745862	
-0.00459385	-0.00564678	-0.0113139	
0.0109978	-0.000387428	0.00624312	
-0.00154537	-0.00166735	0.0050061	
0.00975647	0.00177312	0.0101185	
0.00961473	0.00177619	0.00599295	
0.000278525	-0.00296679	0.00493804	
-0.00357543	-0.0158124	-0.00788718	
0.00293743	-0.00445446	-0.00281844	
0.000111165	-0.00310341	0.00637008	
-0.00178089	-0.00142899	0.00099858	
0.00256336	-0.00144724	0.000810236	
0.00032464	0.0022333	0.000860728	
-0.00114516	-0.0031498	0.0054786	
-0.00059292	0.000473133	-0.00130125	
0.0244319	0.00711625	0.0157851	
0.00917214	0.00400979	0.00449761	
0.0130113	0.0153726	0.00445426	
0.0286245	-0.00479105	0.0184137	
-0.00116453	0.00392538	0.00446992	
-0.000229003	0.000373276	0.000693582	
0.00028927	0.00349047	0.00614153	
0.00184709	0.0064381	0.00102993	
0.000407832	-0.000128812	-0.00088206	
0.00022611	0.000558911	0.00623369	
0.000100276	-0.00301107	0.00541452	
-0.00134399	-0.00177636	0.00730822	
0.0250041	-0.0218066	-0.00964276	
0.0148146	-0.0130614	-0.0173744	
-0.0165062	0.0169793	0.000449143	
0.000457956	-0.00678732	0.000136531	
-0.00597171	0.0211353	0.000177116	
-0.0132959	0.0253669	0.00426069	
-0.00874269	-0.00326898	-0.0156533	
-0.00626397	-0.00213226	-0.0120233	
0.000715676	-0.00604631	0.00584002	
-0.000123778	-0.0031641	0.00398698	
-0.000950251	0.00262833	0.000368674	
-0.00310391	0.00228958	0.000603262	
0.000563551	0.000805303	-0.00840483	
-0.0290335	-0.0185165	-0.0257621	
-0.0242332	0.0170949	-0.00773397	
0.00248357	-0.00191246	-0.00938094	
0.000927917	-0.00307494	0.0030589	
0.000564428	-0.00237338	0.00318285	
0.000167111	-0.00244208	0.00232065	
-0.00117857	0.00849934	-0.00118498	
0.000403612	0.00141447	0.000420073	
0.00106545	-0.00017788	-0.000112345	
0.000404194	0.00063998	0.000353681	
-0.00041093	-8.62546e-05	0.000228166	
-0.000372853	-0.00425702	0.0035191	
0.0459017	-0.0321435	-0.0475092	
0.00420784	-0.00315958	-0.00992027	
-0.00115932	-0.00841748	-0.00437422	
-0.0125668	0.0136289	-0.00245157	
-0.00164801	-0.00226017	-0.00102257	
0.000730038	-0.00693109	-0.00710112	
0.00122741	0.00073551	-0.000704114	
0.00964469	-0.00791226	-0.0113058	
0.000267245	-0.00651627	-0.00335219	
0.00126417	-0.00283432	-0.00300306	
0.000129137	0.000685407	0.00108743	
0.000145058	9.47235e-05	-4.51483e-05	
-0.00147185	0.00421154	0.00619558	
0.0133046	-0.0208154	-0.0147231	
-0.00270368	-0.0127142	0.0328339	
0.00556898	-0.00257778	-0.0103101	
0.00885887	-0.00185092	-0.0116113	
0.0217761	0.00272243	-0.0112386	
0.00350421	0.00290192	-0.00655877	
0.00934906	-0.000275429	-0.0100875	
0.0112908	0.00325923	-0.0109349	
0.0124675	0.000581969	-0.00978283	
0.0134997	0.0137428	0.0443697	
-0.00090548	-0.00393345	0.00440288	
0.000693403	-0.000184617	0.0293803	
-0.00136378	0.00278448	0.000317125	
0.00943083	0.0024498	-0.00753777	
0.0024412	0.00294596	-0.00589997	
0.00068343	0.00368331	-0.0019292	
-0.000701087	0.00108995	-0.0026121	
0.0096454	0.00827895	0.0321016	
0.00636753	-0.00278468	0.0116993	
0.00350865	0.00342012	0.0340232	
-0.000213986	6.17608e-05	-8.87848e-05	
0.00391288	-0.00541179	0.011249	
-6.19048e-05	-0.000104732	0.000120251	
-0.00130269	-0.0045659	0.0247616	
-7.63991e-06	6.45039e-05	-3.68983e-05	
-0.000807383	0.0028994	0.000833726	
0.00176187	9.35136e-06	-7.72337e-05	
-0.000589457	-0.00145533	0.011009	
-0.000607293	0.000395653	-0.00211553	
-8.85142e-05	-0.00324546	0.0124448	
0.000682312	0.00431834	-0.00469768	
-0.000563716	0.000117457	8.21385e-05	
-0.000169343	0.00287796	8.59621e-05	
0.0019681	0.00148992	0.00045544	
0.000592876	-0.00110609	-2.363e-05	
0.0020128	0.000777191	0.000188952	
-0.00123254	-0.0133845	-0.00437755	
-0.0296208	-0.113888	-0.121901	
-0.00407097	-0.00773859	0.000499117	
0.000960003	0.00657089	0.00253019	
-0.00193866	-0.0027056	0.000622173	
0.00776196	0.0149183	0.00716497	
-0.0161955	-0.0228669	-0.0019561	
0.00704049	0.00825692	0.00197074	
-0.00211669	-0.0066524	-0.00433901	
0.00238145	-0.000642626	0.00584079	
0.00151264	0.00301502	0.003738	
-0.00325317	-0.0111694	-0.00898973	
0.00774332	0.00821996	0.00365614	
-0.000806639	-0.00211341	0.00115249	
0.00377797	0.0119098	0.00362409	
0.00764567	0.00724728	0.00295211	
0.000365005	-0.000745515	0.00158965	
-0.00622562	-0.0147236	-0.0104397	
-0.0012244	-0.00418144	-0.00424911	
-0.000125063	-0.000464305	0.0020529	
-0.000452553	0.000427953	-0.000253973	
0.000653803	-0.00055108	0.000266195	
-0.000630378	0.000336767	0.00020359	
-0.000396167	2.36465e-05	0.00187856	
-0.000180419	0.000141316	-0.000394071	
0.0122914	0.0234741	0.00949693	
0.00781442	0.00705594	0.00192238	
0.012472	0.0164593	0.0027671	
0.00877117	0.0304438	0.00421132	
-0.00121655	0.00074371	0.00137704	
6.6084e-05	-0.000102648	-0.00013846	
-0.00129198	0.000974845	0.00170718	
0.00216902	0.00625221	0.00181666	
0.000275266	-0.000132997	-0.000481696	
-0.000208381	5.35174e-05	0.00210786	
9.00958e-05	-0.000577245	0.00164039	
-0.000737694	0.000444482	0.00234403	
0.0281033	-0.019218	-0.00728286	
0.0145752	-0.00411643	-0.0244187	
-0.00718893	0.022033	0.00578464	
0.00144852	-0.00290252	0.000139813	
-0.00621866	0.020895	-0.000308556	
-0.00773191	0.0271922	0.00669947	
-0.00999665	0.0095894	-0.0108173	
-0.00809029	0.00799534	-0.00645796	
0.00212106	-0.00767297	0.00378428	
-3.3502e-05	-0.00483933	0.00263908	
-0.000474758	0.00251463	-0.000642525	
-0.00298868	0.0011152	0.00270321	
0.000123828	0.000900278	-0.00237565	
-0.0340912	0.0130764	-0.0254609	
-0.00815491	0.0267522	-0.0136519	
0.00172199	-0.00169864	-0.00238121	
0.000978153	-0.00408458	0.00160864	
0.00084232	-0.00377175	0.00195832	
0.000195751	-0.00353979	0.000758791	
-0.00197745	0.00756927	-0.00224776	
5.5582e-05	-0.000284065	0.000348151	
-0.000268245	-7.39094e-05	5.26928e-05	
-9.31884e-05	-4.9683e-05	-0.000189829	
0.000330323	5.52239e-05	-0.000172421	
-0.000192914	-0.000979128	0.00138885	
0.0426489	-0.0586249	0.00642929	
0.00431431	-0.00311194	-0.0019689	
-0.00146889	-0.00227817	-0.00178499	
-0.00492152	0.0182081	0.000999099	
-0.000660419	-0.000569249	-0.000246138	
0.000107322	-0.00224834	-0.00223865	
0.00064961	3.65441e-05	-0.000193383	
0.0128057	-0.00574259	-0.00261992	
-1.65445e-05	-0.00212193	-0.000895393	
0.000124296	-0.000851094	-0.000752687	
-4.28312e-05	-0.000203554	-0.000335548	
0.000440422	0.000125733	-0.000123169	
-0.00197059	0.00464724	0.00551815	
0.00379423	-0.0268903	-0.00337258	
-0.00722059	-0.00132822	0.0353268	
0.00626553	-0.00260328	-0.0101173	
0.00885425	-0.00286559	-0.0118481	
0.0142309	-0.00887598	-0.019372	
0.000622422	4.89998e-05	-0.00850746	
0.00860972	-0.00282088	-0.0108944	
0.00408328	-0.00364029	-0.0156281	
0.0103702	-0.00406913	-0.0119317	
0.0184973	0.00841204	0.0449255	
0.00619595	0.00238614	0.000200703	
0.000485081	0.00115591	0.0298337	
0.00225865	0.00380799	0.000124493	
0.0033724	-0.00314938	-0.0119559	
0.00104935	0.00120944	-0.00728492	
0.00115537	0.00356427	-0.0024552	
-0.00172147	0.00096177	-0.00243496	
0.0114345	0.00875358	0.0320595	
0.00430481	-0.000169603	0.0131305	
0.00352139	0.00432513	0.034451	
-5.97321e-05	-7.16515e-05	-0.000141459	
0.00290674	-0.00626428	0.0117194	
-3.3398e-05	0.00016953	3.48749e-05	
-0.00286213	-0.00222971	0.0256298	
-4.10962e-05	0.000226171	-0.000155795	
-0.00114871	0.00350849	-0.000597836	
0.00171162	0.000266765	-4.4748e-05	
-0.00311811	0.00273138	0.010782	
-0.00117437	0.000282482	-0.00186327	
-0.00137607	-0.000890669	0.0132933	
0.00197908	0.00337117	-0.00567421	
-0.000510435	0.000227266	0.000166576	
-0.000291977	0.00332688	-0.00130316	
0.00224076	0.00181664	0.000364363	
0.000798928	-0.00103784	-6.01223e-05	
0.00218566	0.000898844	0.000273747	
-0.00273645	-0.0137195	-0.00303285	
-0.0244144	-0.023645	-0.172417	
-0.00456744	-0.0056088	0.000417541	
0.00198673	0.00624704	0.00242435	
-0.00193665	-0.00255313	0.000703847	
0.00758232	0.0139746	0.00713786	
-0.00965687	-0.0255265	-0.00270892	
0.00480119	0.0100702	0.00247577	
-0.00295595	-0.00651522	-0.00466695	
0.00496802	0.00270022	0.00409135	
0.00198637	0.00343438	0.00414297	
-0.00667759	-0.00580619	-0.0115095	
0.00499289	0.0107033	0.0033291	
-0.000166793	-0.00188853	0.00094914	
0.00574438	0.0119742	0.00362238	
0.00516254	0.00981009	0.00219289	
0.000706788	-0.000522899	0.00185366	
-0.00611706	-0.0155314	-0.00995149	
-0.000181506	-0.00401292	-0.00468504	
-0.000501878	-0.00112997	0.00167537	
-0.000706041	1.72509e-05	-6.66876e-05	
0.000875348	-0.000196662	0.000359568	
0.000393453	0.000619558	-0.000197311	
-0.000370873	-4.73237e-05	0.00188045	
-0.000135404	0.000106481	-0.00029	
0.0122329	0.0228038	0.0112127	
0.00590418	0.00919178	0.00106457	
0.0114625	0.0177015	0.00171815	
0.0145536	0.0272098	0.00531117	
-0.000982469	0.000670838	0.00123986	
5.74194e-05	-7.12344e-05	-9.11724e-05	
-0.00104085	0.00103086	0.00148784	
0.0027608	0.00606703	0.00182378	
0.000287291	-0.000160148	-0.000445777	
-0.000206996	-4.61661e-05	0.00167577	
0.000108057	-0.000606218	0.00171972	
-0.000609218	0.000411533	0.00226181	
0.031836	-0.0162108	0.000352278	
0.0164707	-0.00593925	-0.0213006	
-0.00908594	0.0224764	0.00264357	
0.00138528	-0.00261597	0.00152425	
-0.00627662	0.0212646	-0.000543151	
-0.00944343	0.0274674	0.00528265	
-0.00628502	0.0146967	-0.00778375	
-0.00521652	0.0113762	-0.0046726	
0.00161474	-0.00715336	0.00438453	
0.000151756	-0.00449199	0.00281039	
-0.000646589	0.00264962	-0.000367719	
-0.00142766	0.000312288	0.00352068	
0.000499104	0.000819946	-0.00239744	
-0.0215949	0.0319467	-0.0246205	
-0.0136959	0.0233564	-0.0164371	
0.000727699	-0.00220723	-0.0021625	
0.000893217	-0.00370554	0.00198423	
0.000774226	-0.00335153	0.00230151	
0.000329061	-0.00318308	0.00131354	
-0.00180247	0.0079511	-0.00200392	
0.00012702	9.56722e-05	-6.99927e-05	
0.000110494	1.78072e-05	-2.18392e-05	
6.84162e-05	1.43537e-05	-5.78102e-05	
0.000124741	2.19221e-05	-7.27921e-05	
-0.00051498	-0.000514414	0.00145184	
0.0310051	-0.0651008	0.00980625	
0.0025188	-0.00499412	-0.000703632	
-0.000687129	-0.00212198	-0.00185281	
-0.00670139	0.017833	-0.00248691	
-0.000666074	-0.000817724	-0.000215527	
-0.000100439	-0.00232104	-0.00207934	
0.000682262	8.71968e-05	-0.000275665	
0.0109851	-0.00737461	0.0047674	
-0.000259562	-0.00210165	-0.000629575	
-9.93973e-05	-0.000797298	-0.000837787	
8.75692e-06	3.98775e-05	6.64426e-05	
0.000303923	9.2954e-05	-0.000102843	
-0.00270109	0.0046113	0.00510369	
0.0207175	-0.00856361	0.013113	
-0.00883493	-0.00139236	0.0357808	
0.00674577	-0.00272463	-0.0103246	
0.00840267	-0.00378516	-0.0125012	
0.0111655	-0.0114222	-0.021059	
0.00221253	0.000212473	-0.0081464	
0.00751552	-0.00447181	-0.0118616	
0.006596	-0.00298635	-0.0150152	
0.0084566	-0.00628133	-0.0132715	
0.0170229	0.011967	0.0457216	
0.00541505	-0.000598365	0.00475605	
0.00121363	0.00266646	0.0301966	
-0.00251864	0.00203192	-0.00371447	
0.00463252	-0.0033792	-0.0115647	
0.0022254	0.00114125	-0.00685136	
0.00142254	0.00352534	-0.00265739	
-0.0019516	0.000893577	-0.002534	
0.0109037	0.00990954	0.0326663	
0.00697223	-0.003306	0.0117056	
0.00331411	0.00567989	0.0352292	
-0.000104308	-4.01502e-05	-0.000133195	
0.00369193	-0.0040336	0.0130151	
0.000148466	-2.48954e-05	-1.30666e-05	
-0.00322189	-0.00108998	0.0263928	
-2.51438e-05	0.000105776	-8.35131e-05	
-0.00112827	0.00316974	-0.000439067	
0.00184431	0.000296173	-3.47647e-05	
-0.0033881	0.00250495	0.0110496	
-0.00165423	0.000266479	-0.00208844	
-0.00172235	-0.000415747	0.0138616	
0.00220836	0.00326376	-0.00558451	
-0.000481337	0.000177189	0.000124913	
-0.000247012	0.00305828	-0.00112534	
0.0024111	0.00192359	0.000523934	
0.000754906	-0.00102032	6.26955e-06	
0.00233701	0.00101414	0.000418362	
-0.00425748	-0.0137182	-0.00179706	
-0.0221624	-0.117489	-0.137511	
-0.00381069	-0.00482333	0.000426747	
0.00281157	0.00593051	0.00240497	
-0.00179589	-0.00250343	0.000512653	
0.00712964	0.0138097	0.00674508	
-0.0122673	-0.0238966	-0.00179987	
0.00585726	0.00972394	0.00215131	
-0.00326566	-0.00646475	-0.00526234	
0.000589142	0.000797541	0.00573838	
0.00200472	0.00378431	0.00412289	
-0.00871025	-0.00125284	-0.0110205	
0.00591993	0.0103562	0.00351138	
-0.000253606	-0.00144201	0.000804683	
0.00662058	0.0124256	0.00347492	
0.00521783	0.00998603	0.00223057	
0.000766768	-0.000411946	0.00164693	
-0.00618889	-0.0149323	-0.0106814	
-0.00494384	-0.00271106	-0.00258926	
-0.000559511	-0.00121232	0.00125547	
0.000421614	0.00010391	0.000147933	
0.00070859	-0.000499846	0.000201425	
-0.000380939	0.000282497	0.000393226	
-0.000332475	-4.29232e-05	0.00170082	
-0.000116489	9.26491e-05	-0.000245056	
0.0131973	0.0229732	0.00998829	
0.00542648	0.00969641	0.000995569	
0.0106534	0.0185112	0.00158699	
0.0141872	0.026917	0.00468171	
-0.000803688	0.000635714	0.00100418	
2.93683e-06	-6.2186e-06	-6.23233e-06	
-0.000908805	0.000919387	0.00126904	
0.00306077	0.00595523	0.00199706	
0.000159988	-9.18457e-05	-0.000237318	
-0.00017558	3.0813e-06	0.00135742	
9.33874e-05	-0.00061821	0.00160078	
-0.000512652	0.000358519	0.00188262	
0.0329949	-0.0130261	0.00801612	
0.0160623	-0.0053031	-0.0218832	
-0.00924719	0.0227311	0.002621	
0.00123244	-0.00224301	0.00242187	
-0.00642221	0.0213766	-0.000585255	
-0.00952366	0.0278107	0.00468374	
-0.00597145	0.0143766	-0.00901778	
-0.00581435	0.0108005	-0.0056413	
0.00174174	-0.00725822	0.00410667	
7.12307e-05	-0.00461178	0.0026449	
-0.00063566	0.00270176	-0.000418752	
-0.00119452	0.00042701	0.00365304	
0.00024022	0.000728616	-0.00216486	
-0.0201904	0.0328833	-0.0266168	
-0.0141804	0.0241157	-0.0158103	
0.00058125	-0.00207871	-0.00186462	
0.000897787	-0.0037384	0.00182546	
0.0008191	-0.0034692	0.00213992	
0.000290884	-0.00326089	0.00116806	
-0.00186694	0.00795738	-0.00203378	
6.14639e-06	-1.05442e-05	1.4883e-06	
-1.13515e-05	-2.26505e-06	2.31236e-06	
-4.19185e-06	-5.62688e-06	-1.01167e-06	
0.00013212	2.47438e-05	-7.6111e-05	
-0.000616685	-9.54371e-05	0.00103208	
0.0353456	-0.0623046	0.00937061	
0.00214231	-0.0049252	1.29524e-05	
-0.000321083	-0.00205828	-0.00130328	
-0.00704797	0.0179247	-0.00240883	
-0.00044819	-0.000562037	-0.000178479	
-0.000141309	-0.00200381	-0.00161345	
0.000450144	5.03334e-05	-0.000192664	
0.0086748	-0.00729792	0.00805697	
-0.000373308	-0.00186581	-0.000478567	
-0.000142216	-0.000736985	-0.000776748	
-6.03871e-06	-2.80552e-05	-4.69556e-05	
0.000236288	7.35022e-05	-8.59388e-05	
-0.00276806	0.00484414	0.00429217	
0.0229491	0.00286702	0.0102293	
-0.00739724	-0.00435985	0.0366599	
0.00663009	-0.00269654	-0.0107974	
0.00790428	-0.00446233	-0.012994	
0.0129172	-0.011137	-0.020547	
0.00261994	-0.000333807	-0.00816327	
0.00673772	-0.00516403	-0.0121869	
0.00711043	-0.00343367	-0.0147177	
0.0079808	-0.00695111	-0.013275	
0.0143113	0.0146455	0.0463677	
0.00239826	-0.00253214	0.00665898	
0.0021823	0.00176302	0.0308824	
-0.00493956	-0.0011971	-0.00113516	
0.00522687	-0.00341127	-0.011371	
0.00242251	0.00067672	-0.00705838	
0.000874352	0.00273307	-0.00154902	
-0.00133242	0.000579937	-0.00178871	
0.0109788	0.010348	0.032976	
0.00703444	-0.00554383	0.0109392	
0.00416437	0.00521091	0.0358817	
2.59612e-06	8.1396e-05	7.95259e-06	
0.00630428	-0.00503996	0.011981	
5.97025e-05	3.0177e-05	-1.03475e-05	
-0.00240026	-0.0023166	0.0269358	
-0.000128459	0.000473201	-0.000408111	
-0.00111154	0.00314985	-0.000262974	
0.000960124	0.000124004	-8.18931e-05	
-0.00303507	0.00101022	0.0117024	
-0.00115065	0.000149369	-0.00137383	
-0.00164437	-0.00143308	0.0142823	
0.0019673	0.00283816	-0.00541424	
-0.000238291	-1.65623e-05	1.97148e-05	
-0.000212131	0.00289895	-0.00105223	
0.00142786	0.00109452	0.000243225	
0.000338565	-0.000436754	-1.87063e-05	
0.00129784	0.000526275	0.000165151	
-0.00515425	-0.0134686	-0.000764069	
0.0231694	-0.0113999	-0.184203	
-0.00346894	-0.00478053	0.000322276	
0.00331545	0.00576614	0.00270662	
-0.00171582	-0.0026376	0.00012999	
0.00680064	0.0138868	0.00636372	
-0.0117621	-0.0239965	-0.00132738	
0.00602137	0.00980844	0.00275876	
-0.003088	-0.00670989	-0.00571024	
0.00256049	-0.00290975	0.0037902	
0.00187182	0.00381842	0.00375517	
-0.010027	-0.00389197	-0.0092976	
0.00574638	0.0104755	0.00435839	
-9.03299e-05	-0.0012512	0.000976989	
0.00653515	0.0129536	0.00301734	
0.00517639	0.0101042	0.0030918	
0.000485356	-0.000384591	0.00107588	
-0.00487795	-0.0153286	-0.0108835	
-0.000434583	-0.00561136	-0.00277737	
-0.000425512	-0.00100496	0.000847509	
0.000112156	0.000260216	-0.000130112	
0.000586696	-0.000201392	2.86524e-05	
0.000298987	-0.000128314	-0.000214346	
-0.000260826	-3.41786e-05	0.00145131	
7.67427e-06	-5.91089e-06	1.64756e-05	
0.0130289	0.023602	0.00932715	
0.00528846	0.0101236	0.00190243	
0.0101691	0.0193062	0.0023158	
0.0134179	0.0274788	0.00395077	
-0.000832637	0.00067938	0.00100049	
-0.000419393	0.000430467	0.000598314	
-0.000804493	0.000810756	0.00107156	
0.00306418	0.00607038	0.00243835	
-0.00023302	0.000127906	0.000334846	
-0.00020316	4.22187e-05	0.00137059	
9.01924e-05	-0.000502608	0.0012636	
-0.000413548	0.000311047	0.00151269	
0.0315745	-0.0121001	0.0156906	
0.0159845	-0.00540912	-0.0215221	
-0.0092517	0.0229341	0.00306227	
0.000940614	-0.00213745	0.00282988	
-0.00649577	0.0215369	-0.000574582	
-0.00960303	0.0280342	0.00460914	
-0.00668292	0.014127	-0.00932641	
-0.00650782	0.0107691	-0.00534759	
0.00166853	-0.00714147	0.00412911	
0.000109423	-0.00449509	0.00273266	
-0.000658349	0.00276769	-0.000386571	
-0.00159439	-0.000249939	0.00343801	
-6.27115e-05	0.000856375	-0.00157788	
-0.0216033	0.0325747	-0.0274113	
-0.0140162	0.024932	-0.0153264	
0.000663868	-0.00173858	-0.00146378	
0.00088653	-0.00364361	0.00183474	
0.000809162	-0.00339929	0.00216693	
0.000310262	-0.00320386	0.00120545	
-0.0018557	0.00805795	-0.00201717	
4.82024e-06	4.17209e-05	-2.34405e-05	
2.80767e-05	5.52155e-06	-5.46023e-06	
2.01021e-05	3.579e-06	-1.41411e-05	
0.000107745	2.03181e-05	-6.14041e-05	
-0.000928344	0.000106611	0.00119767	
0.0364906	-0.0615424	0.00827756	
0.00254936	-0.00427597	0.000264465	
-0.000208316	-0.00178334	-0.0010069	
-0.00694334	0.0181117	-0.00205583	
-0.000342474	-0.000419955	-0.000153049	
-9.65138e-05	-0.00156524	-0.00122391	
0.000353766	3.73032e-05	-0.000145726	
0.00775564	-0.00723506	0.00900269	
-0.000454052	-0.00187289	-0.00049393	
-0.000110326	-0.000487646	-0.00050193	
-1.16216e-06	-5.42947e-06	-8.96716e-06	
0.00019802	6.26877e-05	-7.14726e-05	
-0.00318974	0.004506	0.00417771	
0.023857	-0.00441711	0.00460613	
-0.00599134	-0.00602576	0.0370867	
0.00709496	-0.00297421	-0.0105763	
0.0079098	-0.00454636	-0.0127643	
0.0134336	-0.0116893	-0.0202631	
0.00259145	-0.0010301	-0.00737593	
0.00745086	-0.00514114	-0.0117899	
0.00731769	-0.00426784	-0.0145855	
0.00861661	-0.00689427	-0.0129553	
0.0127557	0.0155621	0.0468289	
0.0032519	-0.00203828	0.00664208	
0.00238804	0.00144826	0.0312259	
-0.00450432	0.00109161	-0.00289745	
0.00566368	-0.00409897	-0.0109562	
0.0021872	-0.000418923	-0.00612587	
0.00074225	0.00105613	-0.00125236	
-0.000884689	0.000369873	-0.00117941	
0.0110613	0.0107214	0.0330806	
0.00580774	-0.00911141	0.00919301	
0.00432118	0.00540968	0.0361438	
-2.52802e-05	-5.40196e-05	4.0731e-05	
0.00599169	-0.0059233	0.0119324	
2.67703e-05	3.43153e-05	4.10371e-05	
-0.00182537	-0.00282147	0.0270707	
-3.65575e-05	0.000116717	-0.000103598	
-0.00086225	0.00160286	0.000867578	
0.000532591	6.25551e-05	-5.89639e-05	
-0.00254996	-0.000191664	0.0119979	
-0.000714818	8.44025e-05	-0.000847806	
-0.00152331	-0.00189806	0.0144312	
0.00180767	0.000951522	-0.00504608	
-0.000164262	2.28138e-05	3.528e-05	
-7.29792e-05	0.00109032	-0.000397427	
0.000653764	0.000499372	7.60145e-05	
0.000222325	-0.000274395	-1.19484e-05	
0.000603983	0.000236467	4.57985e-05	
-0.00644425	-0.0133196	-0.00060749	
0.0166844	-0.0549275	-0.18015	
-0.00230194	-0.00329129	0.000258339	
0.00365404	0.0056005	0.00182635	
-0.00139034	-0.00249068	-0.000389422	
0.00590525	0.0129598	0.00521933	
-0.0119081	-0.0231607	-0.0025836	
0.0058257	0.00991914	0.00119267	
-0.00288079	-0.00684017	-0.00599994	
-0.0026924	-0.00353554	0.0035758	
0.00205602	0.00494223	0.0036904	
-0.00284385	-0.00201307	-0.0141851	
0.00648324	0.0102566	0.00290385	
-0.000253818	-0.000738022	0.000188813	
0.00733935	0.0133608	0.00210854	
0.00629535	0.00948904	0.00193116	
0.000967233	0.000541666	0.00164361	
-0.00645154	-0.0139393	-0.0128502	
-0.000756862	-0.0032148	-0.00555216	
-0.000873499	-0.00217927	-3.97185e-05	
0.00020895	2.82143e-05	-0.00010731	
0.000353667	-0.000252587	7.37793e-05	
0.000303612	0.000121265	-2.7118e-05	
-0.00012412	-1.586e-05	0.000707858	
-0.000224799	0.00018727	-0.000456777	
0.0131932	0.0235526	0.00849693	
0.00639615	0.00917894	0.000643229	
0.0110916	0.0185623	0.0012483	
0.0128997	0.0262827	0.00268132	
-0.000337305	0.000275362	0.000402114	
0.000427052	-0.00045209	-0.000627371	
-0.000546082	0.000540094	0.000708772	
0.00359575	0.00585818	0.0014723	
0.000501599	-0.000286908	-0.000729947	
-0.000105104	2.80415e-05	0.00063416	
4.40013e-05	-0.00023932	0.000589539	
-0.000349554	0.000261103	0.00127146	
0.0292592	-0.0135741	0.0186865	
0.0161723	-0.00546392	-0.0212049	
-0.00931835	0.0229975	0.00322378	
0.00183783	-0.00194838	0.00260523	
-0.00654549	0.0215512	-0.000533731	
-0.00956428	0.0281904	0.00452438	
-0.0069311	0.0143601	-0.00904894	
-0.00691346	0.0110314	-0.00504509	
0.0017068	-0.00710568	0.00406141	
0.000170081	-0.00450526	0.00267165	
-0.00067365	0.0028076	-0.000383542	
-0.00183956	-0.000243353	0.00330884	
-3.40704e-05	0.000717123	-0.00124553	
-0.0220699	0.0335936	-0.0269734	
-0.0140944	0.0254602	-0.0150311	
0.000390388	-0.00105309	-0.000961434	
0.000892583	-0.00360489	0.00179363	
0.00077439	-0.00340212	0.00214649	
0.000317293	-0.00319816	0.0011824	
-0.00187615	0.00810119	-0.00204759	
-9.55519e-06	1.53875e-05	-6.48214e-06	
9.98577e-06	2.05056e-06	-1.99114e-06	
6.77845e-06	2.26562e-06	-6.64099e-06	
5.22006e-05	9.2953e-06	-3.04269e-05	
-0.000139381	3.03868e-05	0.000156621	
0.0365416	-0.0612636	0.00809712	
0.00249682	-0.00413588	0.000349044	
0.000493928	-0.0018569	-0.000151539	
-0.00697692	0.0182358	-0.00199299	
-0.000211305	-0.00025859	-9.90493e-05	
-9.10048e-05	-0.00140078	-0.00114294	
0.00017827	1.70271e-05	-7.26154e-05	
0.00805901	-0.00643481	0.00861153	
-0.000125715	-0.000535756	-0.000145384	
-8.23045e-05	-0.000342311	-0.000356179	
-2.29835e-06	-1.11565e-05	-1.8562e-05	
9.59498e-05	2.97027e-05	-3.51307e-05	
-0.00339194	0.00431471	0.0041648	
0.0165371	-0.0128881	0.0121535	
-0.00586884	-0.00606797	0.0373422	
0.00716807	-0.0030726	-0.0107157	
0.00801062	-0.00468244	-0.0129736	
0.0132895	-0.012313	-0.0207423	
0.00238655	-0.00130129	-0.00684856	
0.00725607	-0.00529649	-0.0122254	
0.00692807	-0.00472188	-0.0141592	
0.00852358	-0.00714141	-0.013301	
0.0128074	0.0156452	0.0468568	
0.00266037	-0.00384455	0.00640913	
0.00246291	0.001706	0.03137	
-0.00305732	0.00326543	-0.00382536	
0.00538692	-0.00441712	-0.0113479	
0.00197181	-0.000740031	-0.00577068	
0.000695746	0.000980154	-0.00113306	
-0.00111546	0.000439464	-0.00146298	
0.0117718	0.0102056	0.0331621	
0.0053087	-0.0104756	0.00808536	
0.00449848	0.00584637	0.0363171	
2.81663e-05	-3.83671e-06	4.04004e-05	
0.00543306	-0.00664031	0.0119627	
1.16753e-05	5.0694e-05	3.73016e-05	
-0.00174019	-0.00262289	0.0272611	
-1.27784e-05	3.5058e-05	-3.16952e-05	
-0.00081396	0.0014349	0.00112887	
0.00050603	6.04376e-05	-5.75455e-05	
-0.00248114	-0.000285936	0.0121191	
-0.000920159	9.12162e-05	-0.00108832	
-0.0015663	-0.00176688	0.0145057	
0.00169362	0.000860374	-0.00502757	
-0.000179536	8.4803e-05	5.69862e-05	
-5.80507e-05	0.000961463	-0.000342606	
0.00062038	0.00047939	6.68832e-05	
0.000225049	-0.000276068	-8.35798e-06	
0.000593639	0.000238117	4.24983e-05	
-0.00617493	-0.0132856	-0.000155934	
0.0205517	-0.0105062	-0.192072	
-0.0025653	-0.00315418	0.00057448	
0.00368034	0.00562685	0.00269255	
-0.00159787	-0.00241835	0.000236099	
0.00611258	0.0129316	0.00600255	
-0.0107398	-0.0235793	-0.000863544	
0.00591225	0.0102613	0.00331597	
-0.00326753	-0.007118	-0.00598025	
-1.98524e-05	-0.00176965	0.00506239	
0.00240407	0.00483197	0.00442768	
-0.00198543	-0.00432763	-0.013616	
0.00561543	0.0110584	0.00462345	
0.000285821	-0.000699508	0.0012956	
0.00677312	0.0138788	0.00286601	
0.00526565	0.0106103	0.00322574	
0.00105631	0.000332995	0.00187048	
-0.00498427	-0.0146085	-0.0124078	
-0.000440718	-0.00369168	-0.00535064	
-0.00106977	-0.00235496	0.000176764	
0.000324602	-8.44583e-05	-3.5973e-05	
0.000583594	-0.000400911	1.80151e-05	
0.000353098	-7.81832e-05	-0.000224961	
-0.000250911	-3.70401e-05	0.00145522	
6.77167e-05	-5.72453e-05	0.000138507	
0.0127598	0.0238915	0.00900834	
0.00539409	0.0102828	0.00190384	
0.0103261	0.0196203	0.00260343	
0.0126986	0.0268805	0.00400094	
-0.000874286	0.000712991	0.0010375	