<VTKFile type="UnstructuredGrid" version="0.1" byte_order="LittleEndian">
	<UnstructuredGrid>
		<Piece NumberOfPoints="11433" NumberOfCells="11433">
			<CellData Scalars="scalars">
				<DataArray type="Float64" Name="Strength" NumberOfComponents="3" Format="ascii">
-0.00773029	-0.0150814	0.0136736	
-0.00133453	-0.0179008	-0.0256125	
0.00817773	0.0724886	-0.00555683	
0.00522748	-0.0068231	-0.00678994	
0.00611781	0.00029064	-0.0110945	
0.0109799	0.0541245	-0.0345989	
0.00829261	0.0853094	-0.0341825	
0.000851264	0.0163572	-0.0183831	
0.00944362	0.0835839	-0.0358389	
0.00180205	0.0295183	-0.0263785	
3.09209e-05	0.0179308	0.0420669	
0.00468424	-0.00235558	-0.00241195	
-0.00326663	0.0434016	0.00659153	
0.00186764	-0.000792222	0.00176332	
0.00432788	0.0711314	-0.0365134	
0.00937478	0.0867581	-0.0243733	
0.0225391	0.0938746	0.000580482	
-0.00714451	0.0600873	-0.0358672	
0.00244605	0.0187846	0.0255154	
0.00567137	-0.0111991	0.00733597	
-0.00537178	0.0380343	0.0138723	
0.000832597	-0.00200735	0.00313539	
0.00274632	-0.00514053	0.0100478	
0.000491908	0.00168085	-0.00189462	
9.76026e-05	0.0512562	-0.000976379	
-0.0006462	-0.012686	0.00344646	
0.00744718	0.0879629	-0.0226982	
0.012219	0.0384184	0.016731	
0.0172949	0.0864349	-0.0032204	
-0.00945488	0.0425946	-0.0263813	
0.00921367	0.0531597	0.0110096	
0.0161304	0.0904005	-0.0074628	
6.09502e-06	0.000659326	5.37888e-05	
0.0107196	0.0871088	-0.0147662	
0.00703041	0.0780531	0.0192493	
0.0183682	0.00597447	0.0109151	
0.0120099	0.0553328	0.024394	
-0.0120263	-0.0063874	-0.0250668	
0.0224128	-0.124122	-0.0666945	
-0.00127867	0.0137914	0.0505486	
0.00117868	0.0118115	-0.0136774	
0.0147054	-0.0078179	0.0533318	
0.011744	-0.0277325	0.0617764	
-0.0158024	-0.0240632	0.0539124	
0.0178564	-0.0129581	0.0520377	
0.0126429	-0.0179004	0.0356614	
0.0125461	0.000924297	0.0160324	
0.00821314	-0.01241	0.0564407	
-0.0194279	-0.0166355	-0.00655449	
0.0103206	-0.00342805	0.0486478	
0.00264681	-0.0106159	0.0263875	
0.00477498	0.00625284	0.0550535	
0.00562885	0.00272309	0.0405565	
0.0195137	-0.0166	0.0446135	
0.0238648	-0.0147887	0.019863	
-0.00119047	-0.0165833	0.0112102	
0.0109035	-0.0194022	0.0539862	
0.0250409	0.00177723	0.0113987	
-0.011449	-0.0225785	0.00609662	
-0.000383191	0.00668068	0.0187767	
0.00738645	-0.00928137	0.0588674	
-0.0052121	0.00821369	-0.0204066	
0.0219013	0.00760275	0.0383955	
0.0042475	0.00466771	0.0316836	
0.00906192	0.0133066	0.0165505	
0.0238553	-0.0200001	0.0723189	
-0.00538769	0.00430888	0.0407141	
-0.00219309	-0.000542486	0.0191464	
0.000291374	0.00524645	0.04489	
0.00363141	0.008719	-0.010516	
0.000751673	0.000824056	-0.00480592	
0.00156625	-0.00469597	0.0248946	
0.0105293	-0.0209016	0.0519336	
0.00286973	-0.00545161	0.0524641	
0.0142328	-0.0586944	-0.00632349	
0.00129098	0.00957587	-0.0357336	
-0.00693818	-0.000122316	-0.0323639	
-0.0106826	-0.0393783	-0.0176519	
-0.00959604	0.0141233	-0.0107693	
-0.0149092	0.00976633	-0.0232476	
0.00824683	-0.0101328	-0.0524883	
0.0117804	-0.0174188	-0.0550254	
0.00252047	-0.00957637	0.00174391	
0.00171777	-0.00716395	0.00139239	
0.000108859	0.000589003	-0.00355849	
0.00245932	0.00451175	0.00554411	
0.0133363	-0.0294019	-0.0620974	
-0.0167988	-0.0109706	-0.0476357	
-0.0225158	-0.0339566	-0.0336463	
0.0118973	-0.0423479	-0.0577335	
0.000987192	-0.00491667	0.000904695	
0.000447993	-0.00605371	-0.000438853	
0.000341167	-0.00528853	-0.00184772	
-0.00203261	0.00505355	-0.00479908	
0.000495864	-0.00259074	0.00295139	
-0.00213829	-0.00218841	-0.000531297	
0.00162891	-0.000294673	-0.00230585	
0.00557688	-0.0016605	-0.00933484	
-0.02053	-0.0447224	-0.0123118	
0.0576179	-0.0563108	-0.0368426	
0.0128038	-0.0466655	-0.0534441	
-0.000724442	-0.0502351	-0.0492129	
-0.00210324	-0.00249847	-0.0351464	
-0.00864518	-0.0516701	-0.0291733	
0.00643453	-0.0463925	-0.0510783	
0.0095014	-0.00436439	-0.0413345	
0.00790093	-0.0495236	-0.0330846	
0.000340339	-0.0602659	-0.0516097	
0.00108273	-0.011686	-0.0136364	
1.28134e-06	6.81026e-06	9.06079e-06	
0.010383	0.00163284	-0.0199554	
-0.0020298	0.00316563	0.00648836	
0.00158764	-0.0227417	-0.0195027	
-0.0201488	-0.000992612	0.0275027	
0.00469011	-0.000189005	-0.0105943	
0.00671778	0.00115855	-0.0128377	
0.0202493	0.0115706	-0.0115184	
0.00550628	0.0129558	-0.00281816	
0.00677208	0.0036903	-0.012141	
0.0126956	0.0156	-0.00280894	
0.00970127	0.00573127	-0.0128779	
0.0186224	0.00822353	0.0421453	
0.00111509	-0.00337565	0.00369903	
-0.000782716	0.00116887	0.0280801	
0.00043087	0.0015964	0.00157224	
0.0095722	0.0128766	-0.00543816	
0.00480746	0.0127501	-0.001295	
0.00166943	0.0110791	0.00222451	
-0.00106476	0.00835972	-0.00637655	
0.0114867	0.00749416	0.0303655	
0.00303275	-0.00629971	0.0111899	
0.00294738	0.00415117	0.032437	
-0.000241064	-3.71334e-05	2.37936e-05	
0.00364018	-0.00320697	0.011179	
-0.000175064	0.000314992	-0.000213777	
-0.00743986	0.000402198	0.0232676	
-8.52673e-07	0.000189716	-6.01771e-05	
-0.00166572	0.010844	-0.0015652	
0.00396609	0.00389179	0.000821159	
-0.00928147	0.00530808	0.00725508	
-0.00176238	0.0062327	-0.00515168	
-0.00366071	0.00220956	0.012313	
0.00368056	0.0110886	0.00128455	
-0.00061104	-0.00119787	0.000278657	
-0.000718162	0.0102044	-0.000116458	
0.00290446	0.00683753	0.00462454	
0.00262401	0.000190395	-0.000887109	
0.00368124	0.00542283	0.00292726	
-0.00281781	-0.0125378	-0.00482504	
0.0219008	-0.0921249	-0.128575	
-0.0101451	-0.00375826	0.00268707	
0.00161006	0.00654986	0.00178021	
-0.00364484	-0.00399011	0.00387188	
0.0121821	0.00491136	0.0165082	
-0.0245834	-0.0140102	0.000982608	
0.0102389	0.00270784	0.00530419	
-0.00010463	-0.00819956	-0.000204775	
-0.00112683	0.000454358	0.00690558	
0.000784536	-0.000932426	0.00775142	
-0.0010448	-0.00428547	-0.0124771	
0.0100366	0.00333656	0.00644464	
-0.00118396	-0.00293117	0.00436582	
0.00882253	0.00489914	0.009574	
0.00856469	0.00447064	0.00571294	
0.00066419	-0.00296271	0.00479404	
-0.00369527	-0.0154316	-0.00796092	
0.000815483	-0.00578405	-0.00106347	
-0.000523137	-0.00233405	0.00654452	
-0.00196067	0.0012693	-0.000724071	
0.00147754	-0.00178909	0.0019094	
-0.000182392	0.00227731	0.000649019	
-0.00122469	-0.00255659	0.00563777	
-0.000360582	0.000532881	-0.00132561	
0.0203178	0.0148395	0.0151714	
0.00773969	0.00580674	0.00465934	
0.0114177	0.0153017	0.0064889	
0.0268787	0.0106587	0.0174159	
-0.00140695	0.00104062	0.00568694	
-0.000144366	5.49712e-05	0.000787916	
-0.000876545	0.00105201	0.00680731	
0.00244286	0.00598336	0.00143131	
0.000209316	9.79964e-05	-0.000929636	
7.6811e-05	-0.000634854	0.00610928	
-0.000302873	-0.00284976	0.00537812	
-0.00111649	-0.0018065	0.00719673	
0.0289643	-0.0170584	0.0030447	
0.00405326	-0.000755069	-0.0255163	
-0.0104932	0.0202285	-0.00464197	
8.12033e-05	-0.00630604	-0.00211772	
-0.00479773	0.0205596	-0.00451251	
-0.00905437	0.0266309	-0.00425127	
-0.0101372	0.00260301	-0.0144728	
-0.00812125	0.000772403	-0.0106877	
0.00139467	-0.00633063	0.00519449	
0.000157638	-0.00347654	0.00361229	
-0.000679549	0.00268794	-6.16179e-06	
-0.00138887	0.00193913	0.00276915	
0.000579381	-0.00225302	-0.00795517	
-0.0322352	0.00624756	-0.0264347	
-0.0217127	0.0189491	-0.0086322	
0.00274715	-0.0048269	-0.00793222	
0.00113435	-0.00298259	0.00298098	
0.000841948	-0.00252423	0.00291823	
0.000565145	-0.00243373	0.00219012	
-0.00118262	0.00817298	-0.00210438	
0.000895956	0.000806911	0.000585747	
0.000980515	0.000313719	0.000290945	
7.79224e-05	0.00069949	0.000413688	
-0.000271393	7.67877e-05	0.000375433	
-0.00226102	-0.00490772	-0.000300535	
0.0593445	-0.039809	-0.00950249	
0.00516595	-0.00611434	-0.00753151	
-0.00188573	-0.00658412	-0.00636748	
-0.008893	0.0150338	-0.00564695	
-0.00109076	-0.00210399	-0.00171143	
0.00072016	-0.00658986	-0.00713355	
0.000834511	-7.08235e-05	-0.0013226	
0.0126363	-0.00922206	-0.00512056	
2.66071e-05	-0.00565282	-0.00441804	
0.000103869	-0.00318493	-0.00278959	
0.000118057	0.000725195	0.00103771	
0.000109205	2.44098e-06	-0.000137858	
-0.0022553	0.0034703	0.00619552	
0.000493363	-0.024988	-0.0132809	
-0.00192141	-0.00420575	0.034374	
0.00558681	-0.00095256	-0.0102502	
0.00786061	-0.000600212	-0.0120235	
0.018238	0.000565566	-0.0157779	
0.00335731	0.00307795	-0.00635927	
0.00804523	0.000290387	-0.0107642	
0.0100787	0.00317189	-0.0116453	
0.0103615	0.000338469	-0.0115251	
0.0130073	0.0120701	0.0441704	
0.00160809	-0.00293962	0.00483221	
0.0010508	0.00303006	0.0287183	
0.00027372	0.00233478	0.00187667	
0.00807004	0.00221988	-0.00868594	
0.00237275	0.00308375	-0.00568898	
0.000421452	0.0032941	-0.00246503	
-0.000648073	0.00216493	-0.00174495	
0.00902399	0.00983148	0.0312419	
0.00424361	-0.0069041	0.0106662	
0.00255198	0.00503962	0.033332	
0.00016654	-1.94979e-06	0.000121218	
0.00521821	-0.00376102	0.0111566	
-0.000110654	0.00011564	-3.68649e-05	
-0.00265405	0.000136702	0.0246362	
-3.87373e-06	6.85638e-05	-2.45351e-05	
-0.00101489	0.00283028	0.000579182	
0.00127452	0.00116539	-0.000148701	
-0.00111403	0.000459959	0.0108514	
-0.000609056	0.00152506	-0.00144566	
-0.000750762	0.000148483	0.0126145	
0.000755262	0.00361029	-0.00510305	
-9.78769e-05	-0.000561725	5.2448e-05	
-0.000409074	0.00278646	-0.000267546	
0.00101217	0.00224288	0.000143862	
0.00117458	0.000113966	-0.000361891	
0.00119026	0.00176264	5.4503e-05	
-0.00305804	-0.01299	-0.00355056	
-0.015634	-0.0783098	-0.146445	
-0.00390667	-0.00762874	-0.000705379	
0.00215951	0.00601499	0.00270867	
-0.00169659	-0.00282668	0.000442801	
0.00709014	0.013987	0.0087396	
-0.0144762	-0.0224346	-0.00665845	
0.00642447	0.00785793	0.00368121	
-0.00198976	-0.00683332	-0.00383829	
0.00245995	-0.000790786	0.0056702	
0.00132297	0.0029034	0.00378159	
-0.00183226	-0.0078331	-0.0120147	
0.00724225	0.00792194	0.00443996	
-0.00077979	-0.00220231	0.000856528	
0.00476095	0.0104568	0.00557017	
0.00687368	0.0073462	0.0036497	
0.000288919	-0.000681236	0.00160075	
-0.00472946	-0.0153153	-0.00980028	
-0.00181159	-0.00500597	-0.00274451	
-0.000136248	-0.000506471	0.00200495	
-0.000402777	0.000497139	-0.000171453	
0.000437251	-0.000519395	0.00056222	
-0.000616446	0.000356356	0.000164968	
-0.000202942	-0.000248326	0.00185855	
-0.000113051	0.000162131	-0.00039952	
0.0116296	0.0220534	0.0118641	
0.00666963	0.00750069	0.00297475	
0.0110132	0.0161651	0.00566748	
0.0108292	0.0274849	0.0105954	
-0.000672759	0.00015843	0.00181786	
3.98473e-05	-2.40161e-05	-0.000174237	
-0.00065796	0.000298562	0.00219372	
0.00267185	0.00570596	0.00228416	
0.000144208	2.85796e-05	-0.000537604	
-0.000100668	-0.000252691	0.00205986	
6.28905e-05	-0.000532055	0.0016257	
-0.000361632	-0.000120916	0.00242238	
0.0304045	-0.013881	0.00625054	
0.00859395	0.00189974	-0.0268785	
-0.0048564	0.0226748	-0.00354449	
0.00142821	-0.00281895	-0.000286933	
-0.00582798	0.0199485	-0.00523145	
-0.00726535	0.0273464	-0.0037403	
-0.0072642	0.0114905	-0.0105672	
-0.00672296	0.00860791	-0.00669161	
0.0020123	-0.00754813	0.00377956	
0.0005803	-0.00478136	0.00250838	
-0.000516604	0.002307	-0.0010698	
-0.000123143	-0.00154702	0.00366006	
-0.000233409	-4.04764e-05	-0.00247945	
-0.0221641	0.0279518	-0.0250976	
-0.00922149	0.0256207	-0.0138491	
0.00140749	-0.0023347	-0.00189812	
0.0010183	-0.00397321	0.00166682	
0.000753121	-0.00377351	0.00184184	
0.000348984	-0.00340628	0.00101408	
-0.00188522	0.00718039	-0.00300056	
3.38067e-05	0.000383127	6.26117e-05	
-0.000240573	-0.000125144	-6.51641e-05	
0.000195458	6.15238e-05	-5.62358e-05	
0.000210444	-5.30404e-05	-0.000299779	
-0.000768238	-0.00148028	0.000106159	
0.0390292	-0.0566522	0.0191187	
0.00373627	-0.00388693	-0.00131238	
-0.00134412	-0.00167203	-0.00233917	
-0.003668	0.0175186	-0.0048483	
-0.000417336	-0.000609555	-0.000494899	
7.88246e-05	-0.00213211	-0.0022565	
0.000403857	-0.000176621	-0.000499627	
0.0121499	-0.00680694	0.000859582	
-3.80206e-05	-0.00183154	-0.00131032	
-9.97584e-05	-0.000799182	-0.000779309	
-3.53686e-05	-0.000220064	-0.000318217	
0.000289934	-2.35229e-05	-0.000363863	
-0.00253245	0.00376722	0.00571259	
0.00332164	-0.0258593	-0.00658302	
-0.00598043	0.000984459	0.0349102	
0.00593754	-0.000965139	-0.0102553	
0.0077724	-0.00103758	-0.0124473	
0.0129799	-0.00337785	-0.0211681	
0.00145141	0.00194321	-0.00799688	
0.00740029	-0.0008122	-0.0116678	
0.00538347	0.00022079	-0.0152899	
0.00876483	-0.00142815	-0.013253	
0.0143587	0.0106121	0.0451188	
0.00487316	-0.0025928	0.00348616	
0.00111803	0.00314047	0.0291687	
-0.00192217	0.0035711	0.000228832	
0.00424648	0.000361348	-0.0117956	
0.00128858	0.00246644	-0.00675901	
0.000963088	0.00342618	-0.00258096	
-0.00104039	0.0022419	-0.00181437	
0.00906643	0.00960157	0.0319602	
0.00399237	-0.00624935	0.0114069	
0.00269438	0.00533186	0.0337998	
0.000101224	1.40097e-05	-0.000135072	
0.00486656	-0.00436108	0.0116892	
-8.30849e-05	9.90724e-05	-0.000112396	
-0.0023974	0.000971943	0.0253043	
-2.0283e-05	0.000251035	-0.000100215	
-0.000956197	0.00353766	-9.62793e-05	
0.00121757	0.00117414	-0.000199562	
-0.00277097	0.00295042	0.0105924	
-0.000801946	0.0014668	-0.00138614	
-0.00151741	0.00104197	0.0130289	
0.00171561	0.00336874	-0.00560321	
-0.00012271	-0.00055845	4.94491e-05	
-0.000223903	0.00337434	-0.000959553	
0.00134528	0.00251778	-2.99089e-05	
0.00122566	0.000138794	-0.000375748	
0.00140893	0.00186392	2.09666e-05	
-0.00406298	-0.0130557	-0.00291615	
-0.0202113	-0.0466161	-0.165427	
-0.00380929	-0.00599537	-0.000340824	
0.00269589	0.00569957	0.00261526	
-0.00165632	-0.00271814	0.000507072	
0.00659921	0.0132662	0.00856984	
-0.0107135	-0.0236683	-0.00682893	
0.00501856	0.00907613	0.00419046	
-0.00244167	-0.00693487	-0.00406891	
0.00367148	0.000961666	0.00572435	
0.00167518	0.00335596	0.00420795	
-0.00509232	-0.00643835	-0.0117023	
0.0054802	0.00954057	0.00480193	
-0.000448051	-0.00189023	0.000737234	
0.0055668	0.0110344	0.00545252	
0.0053334	0.00889592	0.00381192	
0.000533872	-0.000387245	0.00190723	
-0.00516884	-0.0157779	-0.00948526	
-0.00152864	-0.00516777	-0.00280699	
-0.000403717	-0.00117134	0.00162883	
-0.00049639	0.000264063	-0.000413888	
0.000695421	-0.000391703	0.000517116	
0.000379497	0.000402744	-0.000503278	
-0.000185927	-0.00027759	0.00185341	
-8.62276e-05	0.000121462	-0.00029404	
0.0123147	0.0215819	0.0121467	
0.00553436	0.00871947	0.00291991	
0.0104149	0.0170347	0.00536098	
0.0130663	0.0259093	0.0101464	
-0.000554415	0.000149137	0.00158478	
3.11998e-05	-1.77004e-05	-0.00012098	
-0.000598731	0.000307273	0.00193612	
0.00300545	0.00560219	0.00225954	
0.000149044	1.24932e-05	-0.000519941	
-9.52417e-05	-0.000248432	0.00163454	
6.94024e-05	-0.000593561	0.00169377	
-0.000313154	-0.000121561	0.00231088	
0.0296187	-0.0145104	0.0113643	
0.0080611	0.00131776	-0.0259103	
-0.00689017	0.0225102	-0.00438923	
0.00137786	-0.00288974	0.000572797	
-0.00595599	0.0203524	-0.00505541	
-0.008538	0.0274149	-0.00406888	
-0.0046683	0.0136781	-0.00971341	
-0.00443139	0.0103879	-0.00659893	
0.00174911	-0.00709834	0.00415838	
0.000400928	-0.00443548	0.00272558	
-0.00061863	0.00251206	-0.000794827	
-0.00119337	0.000153483	0.00352562	
-1.45415e-05	-3.43621e-05	-0.00252785	
-0.0160955	0.0338627	-0.0245613	
-0.0122838	0.0241066	-0.0153132	
0.000714024	-0.00244852	-0.00177249	
0.000992874	-0.00359305	0.0019981	
0.000765464	-0.00339348	0.00212159	
0.000462757	-0.00306986	0.00140251	
-0.00180223	0.00755271	-0.00281304	
-7.71886e-05	0.000127021	-3.60157e-05	
9.81831e-05	4.65129e-05	2.83829e-05	
-5.19736e-05	2.27773e-05	6.85643e-05	
8.07267e-05	-2.17266e-05	-0.000116661	
-0.000864401	-0.00131638	0.0001862	
0.0377309	-0.0579418	0.0177375	
0.00253053	-0.00485717	-0.00063945	
-0.000567232	-0.00176544	-0.00214342	
-0.00545608	0.0170269	-0.00601122	
-0.000427307	-0.000775746	-0.000575799	
-5.74228e-05	-0.00214242	-0.00216797	
0.000450948	-0.000180767	-0.000541333	
0.0101665	-0.00816575	0.0043278	
-0.000138514	-0.00180536	-0.00117674	
-0.000136347	-0.000742091	-0.00085186	
6.77056e-06	4.34015e-05	6.29188e-05	
0.000206551	-6.73455e-06	-0.000254798	
-0.00296089	0.00359335	0.00550255	
0.00930563	-0.0237465	0.000929435	
-0.0065798	0.000977239	0.0355962	
0.00620068	-0.00101668	-0.0106022	
0.00746634	-0.00116193	-0.0131443	
0.0108523	-0.00451967	-0.0230155	
0.0022521	0.00173612	-0.00776645	
0.00666596	-0.00136182	-0.0126813	
0.00618477	-5.23801e-05	-0.0150995	
0.00750768	-0.00228566	-0.0145764	
0.0141376	0.0111799	0.0460313	
0.00226295	-0.00221526	0.00635009	
0.00151435	0.00373217	0.029552	
-0.000459822	0.0044084	-0.00177464	
0.00443589	-0.00035244	-0.0118182	
0.00197644	0.00213964	-0.00652601	
0.00117198	0.00335583	-0.00284209	
-0.00121765	0.00230405	-0.00193862	
0.0090847	0.0102618	0.0324866	
0.00277682	-0.00589445	0.0121681	
0.00316221	0.00595782	0.0345903	
-7.38034e-05	4.50215e-05	-0.000153716	
0.00464884	-0.00521611	0.012016	
5.26925e-05	0.00010197	9.47769e-05	
-0.00235211	0.00142135	0.0260011	
-1.30792e-05	0.000122109	-5.33445e-05	
-0.000868359	0.00320939	6.30223e-05	
0.00131398	0.00126202	-0.000228029	
-0.00289578	0.00287852	0.0108648	
-0.00106474	0.00170142	-0.00168067	
-0.00151954	0.00134092	0.0135754	
0.00190721	0.003209	-0.00556844	
-0.000119964	-0.000503825	4.11237e-05	
-0.000185151	0.00309395	-0.000812397	
0.00145944	0.00270255	2.12796e-05	
0.00120209	8.59597e-05	-0.000324715	
0.0015308	0.002021	3.12177e-05	
-0.00507003	-0.0129671	-0.00243584	
-0.0263519	-0.0792179	-0.158782	
-0.00317306	-0.00514174	-0.000242663	
0.00311803	0.00548053	0.00261487	
-0.00155401	-0.00262589	0.000324432	
0.00629797	0.013051	0.00817642	
-0.0118477	-0.0226304	-0.00652598	
0.00548953	0.0090784	0.00391391	
-0.00254511	-0.00710826	-0.00452958	
0.00075747	0.001706	0.00541653	
0.00173185	0.00367732	0.0041961	
-0.00430827	-0.00659151	-0.0114316	
0.00579289	0.00964807	0.00461513	
-0.00040538	-0.00147139	0.000592244	
0.00604893	0.0116437	0.00550369	
0.00526351	0.00915717	0.00381449	
0.000527103	-0.000243376	0.00173769	
-0.0051654	-0.0155734	-0.00969677	
-0.00342463	-0.00426742	-0.00271829	
-0.000444441	-0.00125694	0.00121164	
0.000390971	0.000174456	-0.000142797	
0.000555975	-0.000494863	0.000461276	
0.000483481	0.000261668	-0.000255553	
-0.000165403	-0.000252779	0.00167607	
-7.46932e-05	0.000103688	-0.000249213	
0.0124392	0.0218403	0.0118005	
0.00525511	0.00908566	0.00295465	
0.0100637	0.0175216	0.00542011	
0.0127968	0.0255533	0.00980315	
-0.000465291	0.000144349	0.00132029	
1.56439e-06	-2.12505e-06	-8.42886e-06	
-0.00052673	0.000272599	0.00167618	
0.00316187	0.00553141	0.00243511	
8.23794e-05	4.04008e-06	-0.000281717	
-7.02445e-05	-0.000204097	0.00132434	
8.19211e-05	-0.000560566	0.00159208	
-0.000259899	-9.21858e-05	0.00192822	
0.0276795	-0.0153903	0.0160407	
0.00794655	0.00151243	-0.0260106	
-0.00704173	0.0227829	-0.00428781	
0.00132965	-0.00289291	0.00130474	
-0.00605294	0.0204603	-0.00513509	
-0.00851685	0.0276348	-0.00433736	
-0.00570178	0.013442	-0.00986056	
-0.00520624	0.010059	-0.00681409	
0.00177375	-0.00715512	0.00399677	
0.000443187	-0.00450625	0.00263091	
-0.000619081	0.00254296	-0.00087668	
-0.00134832	-0.000105764	0.00350766	
-1.13213e-05	4.12842e-05	-0.00224762	
-0.0187922	0.0336252	-0.0249917	
-0.0126359	0.024702	-0.0149928	
0.00065006	-0.00221777	-0.0015632	
0.000957877	-0.00362552	0.001866	
0.00076789	-0.0034889	0.001998	
0.000433217	-0.00315364	0.00125836	
-0.00184504	0.00754052	-0.00289331	
6.83739e-06	-7.40395e-06	4.51735e-06	
-1.00317e-05	-5.02014e-06	-3.04346e-06	
5.89139e-06	1.56158e-06	-3.3716e-06	
8.65006e-05	-2.21523e-05	-0.000122712	
-0.000763668	-0.000884087	0.000144508	
0.0382457	-0.0567256	0.018457	
0.00221884	-0.00476048	-4.56512e-05	
-0.000189829	-0.00177873	-0.00160149	
-0.00567877	0.0172291	-0.0058381	
-0.00028599	-0.000524002	-0.00041458	
-7.30963e-05	-0.00179638	-0.0017638	
0.000295795	-0.000119645	-0.000362762	
0.00840358	-0.00857861	0.00634771	
-0.000190999	-0.00162586	-0.000997508	
-0.000112659	-0.00069635	-0.000789526	
-4.57352e-06	-3.06492e-05	-4.44024e-05	
0.00016187	-7.30676e-06	-0.000199831	
-0.00291178	0.00387911	0.00485813	
0.0123129	-0.0215891	0.00108701	
-0.00576808	-0.000791017	0.0365017	
0.00607981	-0.000759471	-0.0110527	
0.00708581	-0.00152518	-0.0136674	
0.0117771	-0.00526279	-0.0226926	
0.00255471	0.00121935	-0.00791119	
0.00615914	-0.00164425	-0.0130249	
0.00645495	-0.000576592	-0.0150078	
0.0072264	-0.00295822	-0.014629	
0.0149178	0.0110822	0.0462864	
0.00246743	-0.00289869	0.00634585	
0.00245249	0.0030257	0.0302337	
-0.000985632	0.00500194	-0.000380393	
0.00488441	-0.000544312	-0.0116967	
0.00218538	0.0017515	-0.0067842	
0.000741588	0.00262258	-0.00167581	
-0.000856145	0.00158436	-0.00135484	
0.00941107	0.0102301	0.0328562	
0.00299833	-0.00583245	0.0122763	
0.00387947	0.00543771	0.0352594	
3.35084e-05	6.38258e-06	-7.07902e-05	
0.00501799	-0.00578004	0.0119854	
9.87225e-06	4.86941e-05	4.44434e-05	
-0.00185449	0.000465626	0.0265974	
-6.86038e-05	0.000561451	-0.000259667	
-0.000870796	0.003157	0.00023009	
0.000684418	0.000649406	-0.000146157	
-0.00269625	0.00154233	0.0114929	
-0.000747938	0.00111339	-0.0011362	
-0.00163493	0.000433715	0.0140896	
0.00172197	0.00281161	-0.00536598	
-5.43631e-05	-0.000229501	7.72382e-06	
-0.000162578	0.00292812	-0.000764436	
0.000852846	0.00156479	-2.95092e-06	
0.000518805	3.53651e-05	-0.000158637	
0.00084426	0.0010977	-9.45511e-06	
-0.00559625	-0.0128053	-0.00185055	
0.00249685	-0.0663578	-0.170677	
-0.00294159	-0.00498787	-0.000399482	
0.00339195	0.00538141	0.00294926	
-0.00150427	-0.00270321	-5.02678e-05	
0.00609222	0.0130641	0.00786547	
-0.0116584	-0.0226642	-0.00607324	
0.00561085	0.00907804	0.00449995	
-0.00263516	-0.00733183	-0.00485577	
0.000286256	0.000714835	0.00528536	
0.00163502	0.00370641	0.00383074	
-0.0050793	-0.00474154	-0.0121479	
0.00573235	0.00962759	0.00540241	
-0.00026989	-0.00131136	0.000796554	
0.00599771	0.0120541	0.00548417	
0.00518604	0.00918156	0.00459139	
0.000321978	-0.00027326	0.00114517	
-0.00466963	-0.0154609	-0.0101961	
-0.00237496	-0.00469619	-0.00323451	
-0.000350319	-0.00102596	0.000817917	
0.000242745	0.000147935	-0.000115458	
0.000437193	-0.000351434	0.000242295	
0.000285142	-0.000223583	0.000125682	
-0.000132629	-0.000216459	0.00142652	
4.97346e-06	-6.61902e-06	1.67204e-05	
0.0122689	0.0222789	0.0116424	
0.0051676	0.00927477	0.00390732	
0.00992253	0.017941	0.00623455	
0.0122732	0.0259159	0.00963634	
-0.000482281	0.000161609	0.00134714	
-0.000225541	0.000116517	0.000788402	
-0.000461607	0.000246701	0.00144481	
0.00317298	0.00557312	0.00293282	
-0.000119638	-5.35559e-06	0.00039958	
-8.06912e-05	-0.000187749	0.00134335	
7.00822e-05	-0.000444709	0.00126199	
-0.000214645	-6.18827e-05	0.00155362	
0.0250634	-0.0176179	0.0196118	
0.00649989	0.00195004	-0.0260662	
-0.00710016	0.0230404	-0.00414674	
0.0010752	-0.00301512	0.00160749	
-0.0060934	0.0206158	-0.00519609	
-0.0086636	0.0277889	-0.00450936	
-0.00623678	0.0137419	-0.0094812	
-0.0056772	0.0103684	-0.00627711	
0.00170856	-0.00704841	0.00400065	
0.00041772	-0.00442416	0.00266474	
-0.000641721	0.00260746	-0.000870983	
-0.000854002	0.000897892	0.00347972	
-0.000210338	0.000353141	-0.0017093	
-0.0194289	0.0348539	-0.0243787	
-0.0126609	0.0252103	-0.0147622	
0.000717761	-0.00187789	-0.00114932	
0.000933251	-0.00353491	0.0018726	
0.000756736	-0.00342697	0.00201612	
0.000449445	-0.00309583	0.00129146	
-0.00185053	0.0076298	-0.00290435	
-1.83468e-05	3.73174e-05	4.6998e-06	
2.45117e-05	1.25806e-05	7.96895e-06	
-1.59194e-05	7.82444e-06	1.67085e-05	
6.99734e-05	-1.85315e-05	-9.99915e-05	
-0.00105477	-0.00102763	0.000167487	
0.0371284	-0.0569999	0.0190384	
0.00242723	-0.00421345	0.000331207	
-0.00010261	-0.00154763	-0.00127956	
-0.00579001	0.0173585	-0.00563809	
-0.000215227	-0.000391679	-0.000324805	
-2.61999e-05	-0.00139499	-0.00135362	
0.000229653	-9.19891e-05	-0.000284775	
0.0074915	-0.00870671	0.00725354	
-0.000231936	-0.00164908	-0.00100038	
-7.07618e-05	-0.000449651	-0.000524438	
-8.38171e-07	-5.91109e-06	-8.4874e-06	
0.00013478	-6.59101e-06	-0.000168266	
-0.00311557	0.00354197	0.00482823	
0.0124774	-0.0207637	0.00163653	
-0.00497048	-0.0018444	0.0369688	
0.00638993	-0.00138475	-0.0109533	
0.00715381	-0.00197725	-0.0133897	
0.0120705	-0.00590605	-0.0226796	
0.00250268	0.000428511	-0.00729081	
0.00670114	-0.00239165	-0.0126467	
0.00659732	-0.00135122	-0.0150703	
0.00764018	-0.00347172	-0.0143451	
0.0148205	0.0107185	0.0466917	
0.0029758	-0.00320845	0.00615022	
0.00264571	0.0026468	0.0305844	
-0.00319349	0.00410287	0.00100379	
0.00516893	-0.00131854	-0.0115373	
0.00202643	0.000594665	-0.00602454	
0.000668655	0.00100562	-0.00128633	
-0.000568484	0.00104059	-0.000896115	
0.0094931	0.0100816	0.0331167	
0.0033905	-0.00556618	0.0123489	
0.00418137	0.00520018	0.0355573	
6.01218e-05	3.02917e-05	-1.8621e-05	
0.00528971	-0.00599294	0.0119524	
-3.58879e-06	4.63611e-05	3.61283e-05	
-0.00145045	3.32752e-05	0.0267573	
-1.96651e-05	0.000140536	-6.58846e-05	
-0.000723851	0.00148075	0.00108864	
0.000380138	0.000358545	-8.87094e-05	
-0.00237595	0.000397572	0.0117934	
-0.000469662	0.000685853	-0.00070017	
-0.00158882	-6.08477e-05	0.0142856	
0.00161657	0.000993588	-0.00498915	
-4.59509e-05	-0.000160376	4.7971e-06	
-5.64972e-05	0.00110101	-0.000289171	
0.000385638	0.000713021	-1.42674e-05	
0.000330568	2.21876e-05	-0.000104464	
0.000388906	0.000506213	-1.20189e-05	
-0.00648961	-0.012736	-0.00213094	
-0.00407991	-0.0656074	-0.174069	
-0.00196698	-0.00341037	-0.000295086	
0.00344663	0.00543045	0.00210504	
-0.00125993	-0.00247196	-0.000547941	
0.00543192	0.0121525	0.00667937	
-0.0116913	-0.0216069	-0.00727931	
0.00551836	0.00941941	0.00297833	
-0.00248562	-0.00724632	-0.00541849	
-0.000706844	0.000791258	0.00551391	
0.0018806	0.0047737	0.00380701	
-0.00230323	-0.00358102	-0.0137247	
0.00609329	0.00984101	0.00385296	
-0.00028984	-0.000728822	6.07311e-05	
0.00656247	0.0127634	0.00467448	
0.00581737	0.00918003	0.00304496	
0.000668813	0.000674777	0.00170171	
-0.00532071	-0.0155818	-0.0108099	
-0.00232439	-0.00444034	-0.00390786	
-0.000773045	-0.00217289	-8.02213e-05	
0.000180261	0.000122977	-8.09706e-05	
0.000232296	-0.000285075	0.0002298	
0.000279693	-0.000117116	0.000109763	
-5.94347e-05	-0.000107396	0.000695303	
-0.000143096	0.000195103	-0.000471098	
0.0121896	0.0224054	0.0109236	
0.00573613	0.00905336	0.0022187	
0.0103958	0.0177822	0.00476977	
0.0117563	0.0250184	0.00820842	
-0.000195615	6.5563e-05	0.000543426	
0.00023265	-0.0001225	-0.000821159	
-0.000312251	0.000165563	0.000962191	
0.00340759	0.00565322	0.0018744	
0.000257331	1.88217e-06	-0.000871447	
-4.12348e-05	-8.31115e-05	0.000623807	
3.13663e-05	-0.000207337	0.000590809	
-0.000172909	-5.54733e-05	0.0013069	
0.0235157	-0.0178778	0.0212146	
0.0055478	0.00206564	-0.0261385	
-0.00718835	0.0231392	-0.00403119	
0.00171459	-0.0024397	0.00209987	
-0.0061092	0.0206299	-0.00522186	
-0.00872142	0.0278866	-0.00452845	
-0.00655731	0.0139999	-0.00912735	
-0.00603615	0.0107349	-0.00592581	
0.00168681	-0.00701089	0.00395954	
0.000472292	-0.00442391	0.00261392	
-0.000655907	0.00264407	-0.000882159	
-0.000559688	0.00111329	0.00345956	
-0.000157545	0.00030445	-0.00136429	
-0.0197098	0.0357952	-0.024028	
-0.0127323	0.025602	-0.0146623	
0.00042466	-0.00115422	-0.000760052	
0.000913718	-0.00349876	0.00183941	
0.000744909	-0.00342615	0.00199017	
0.00044868	-0.00309178	0.00126734	
-0.00186235	0.00766637	-0.00294523	
-6.63066e-06	1.48343e-05	3.98368e-06	
8.66001e-06	4.57421e-06	2.93615e-06	
-6.30549e-06	3.82994e-06	6.11859e-06	
3.37005e-05	-9.61704e-06	-4.87428e-05	
-0.000155692	-0.000134187	1.98928e-05	
0.0363499	-0.0572127	0.0190124	
0.00237214	-0.00407438	0.000433476	
0.000530843	-0.00175786	-0.000412779	
-0.00597065	0.0174729	-0.00548089	
-0.000130857	-0.000240158	-0.00020486	
-2.47838e-05	-0.00125203	-0.00124885	
0.000114885	-4.66766e-05	-0.000143408	
0.00732613	-0.00775936	0.00762678	
-6.60178e-05	-0.000476257	-0.000278536	
-4.49381e-05	-0.000312589	-0.000375828	
-1.65719e-06	-1.21819e-05	-1.75448e-05	
6.47399e-05	-4.2125e-06	-8.19094e-05	
-0.00321588	0.00339074	0.00482282	
0.0118667	-0.0206812	0.00097089	
-0.00503373	-0.00186345	0.0371879	
0.00641177	-0.00161759	-0.0111051	
0.00725123	-0.00221142	-0.0135883	
0.0119206	-0.0060155	-0.0233606	
0.00232388	0.000101977	-0.00682773	
0.00652428	-0.00233032	-0.0130854	
0.00626307	-0.00173502	-0.0147302	
0.00754983	-0.00343628	-0.0147568	
0.0145123	0.0103828	0.0469245	
0.00323874	-0.00368981	0.00606918	
0.00276574	0.0026241	0.0307302	
-0.00148254	0.00526116	-0.00184833	
0.00498878	-0.00133767	-0.0119518	
0.00187393	0.000262029	-0.00571004	
0.00062781	0.000935353	-0.00116415	
-0.000710724	0.00128936	-0.0011184	
0.00953952	0.010018	0.0332748	
0.00385764	-0.00537592	0.0123714	
0.00436903	0.00527256	0.0357751	
-4.81374e-05	-6.84808e-06	6.36692e-06	
0.00557573	-0.006241	0.0118281	
-1.15868e-05	6.09457e-05	1.10848e-05	
-0.00134478	0.000140383	0.0269205	
-6.69916e-06	4.27184e-05	-2.05286e-05	
-0.000705339	0.00127702	0.00130573	
0.000359022	0.000342536	-8.70591e-05	
-0.00234265	0.000335442	0.0119037	
-0.000606896	0.000871705	-0.000904452	
-0.00153742	6.06944e-06	0.0143485	
0.00152171	0.000910898	-0.00496092	
-5.38885e-05	-0.000195994	4.16028e-06	
-4.58542e-05	0.00096905	-0.000250245	
0.000366995	0.000679072	-1.41327e-05	
0.000332499	2.59808e-05	-0.000106764	
0.000379302	0.000501928	-1.27446e-05	
-0.00628243	-0.0127514	-0.00151265	
-0.0188373	-0.0525277	-0.181645	
-0.00213893	-0.00341107	9.04749e-05	
0.00349384	0.00536966	0.00298955	
-0.00140379	-0.00248648	6.75892e-05	
0.00556134	0.012087	0.00740616	
-0.0111604	-0.0221306	-0.00546572	
0.00566996	0.00934821	0.00502299	
-0.00288496	-0.00769201	-0.00513592	
-0.00127494	0.00192931	0.00474712	
0.00208239	0.00470445	0.00453587	
-0.00214501	-0.00327883	-0.0136305	
0.00567512	0.0100506	0.00584861	
5.87162e-05	-0.00083125	0.00120998	
0.00619	0.0129187	0.00565476	
0.00522969	0.00960843	0.00491182	
0.00077253	0.000494379	0.00193025	
-0.00476069	-0.0154247	-0.0108916	
-0.00176821	-0.00463367	-0.00405891	
-0.000908038	-0.00237683	0.000128472	
0.000284894	-0.000129973	0.000113119	
0.000421879	-0.000406606	0.00037608	
0.000417608	1.21821e-05	2.26289e-05	
-0.000120539	-0.000223148	0.00142827	
4.28332e-05	-5.83837e-05	0.000143308	
0.0119009	0.0225328	0.0115533	
0.00514916	0.00944536	0.00403175	
0.010009	0.0182108	0.00653641	
0.0117066	0.0252753	0.00945399	