<VTKFile type="UnstructuredGrid" version="0.1" byte_order="LittleEndian">
	<UnstructuredGrid>
		<Piece NumberOfPoints="15318" NumberOfCells="15318">
			<CellData Scalars="scalars">
				<DataArray type="Float64" Name="Strength" NumberOfComponents="3" Format="ascii">
-0.00897075	-0.0142394	0.0142482	
-0.0191384	-0.012541	-0.0220864	
0.0142613	0.0719821	0.00832887	
0.00567546	-0.00737421	-0.00603846	
0.0065384	-0.000355277	-0.0110325	
0.00831563	0.0532378	-0.0379318	
0.00212271	0.0848429	-0.0385493	
-0.000180631	0.013667	-0.0208362	
0.00187218	0.0828238	-0.0408513	
0.00105397	0.0263469	-0.0302009	
0.00232516	0.0230051	0.0398858	
0.00525605	-0.0023272	-0.000900245	
-0.00228628	0.0436048	0.00808844	
0.00238676	-9.05914e-05	0.00138868	
0.000788614	0.0682263	-0.0434908	
-0.00279435	0.0867177	-0.0291226	
0.00526646	0.0964492	0.0131787	
-0.00683885	0.0526672	-0.0472714	
0.00367619	0.0188519	0.0256459	
0.00534717	-0.00989331	0.00939126	
-0.00486927	0.038319	0.0143103	
-0.00162119	0.000144581	0.00389274	
0.00319866	-0.00495574	0.0101115	
0.000804756	0.00210374	-0.00130121	
0.00303357	0.0514305	0.00475867	
-0.000945863	-0.0124845	0.00457014	
-0.00314775	0.0882386	-0.0260761	
0.003565	0.036474	0.024415	
0.0103178	0.0876841	0.0117506	
-0.0107024	0.0360268	-0.0353083	
0.00306179	0.0520671	0.0191843	
0.000438652	0.0930115	-0.00194971	
0.000528552	0.000405269	3.95241e-05	
-0.00278071	0.0887151	-0.0141794	
-0.0105302	0.0790094	0.0169301	
0.0133279	-0.000625769	0.0179532	
-0.00552189	0.0544044	0.0297032	
-0.0137874	-0.00674276	-0.024454	
-0.0860346	-0.0893036	-0.0819052	
0.0135051	0.0139972	0.0491811	
0.000585067	0.0114634	-0.0142912	
0.00768303	-0.0192501	0.0524157	
-0.0130818	-0.020668	0.0649103	
-0.0179923	-0.0136859	0.0574801	
0.0161416	-0.0171951	0.0520406	
0.0152114	-0.0132831	0.0370808	
0.0129037	0.000775196	0.0159654	
0.0037214	-0.0179436	0.0559569	
0.0337061	-0.00214012	-0.0376066	
0.00991527	-0.0034347	0.0492927	
0.000972651	-0.00984788	0.0271134	
0.00375672	0.0126443	0.0545733	
0.0052247	0.00568884	0.0407669	
0.022626	-0.0224814	0.0410213	
0.0162297	-0.0188884	0.0241373	
0.0019096	-0.0201364	-0.00324955	
0.00424208	-0.0271579	0.0520976	
0.0151478	-0.0406792	0.0248403	
0.00477536	-0.0241916	0.00943492	
0.00234609	0.00374929	0.0196009	
0.00441295	-0.0115577	0.0593116	
-0.00714527	0.00759977	-0.0203603	
0.0200603	0.00451154	0.0403631	
0.00365027	0.0077237	0.0315347	
0.00924202	0.0144179	0.0158923	
-0.000273571	-0.020117	0.0768899	
-0.00641614	0.014255	0.0386569	
-0.00349239	0.00234626	0.0190439	
0.00338871	0.0114029	0.0440428	
0.00416553	0.0082095	-0.0109552	
0.00116003	0.000371034	-0.00484292	
0.00016568	-0.00271043	0.0254955	
0.0157526	-0.0235339	0.0500158	
0.00105723	-0.00197509	0.0532585	
0.0153095	-0.0595382	0.000506368	
-0.00534838	0.00762158	-0.0364055	
-0.00632252	0.00243604	-0.0327224	
-0.00869452	-0.0435017	-0.00748134	
-0.0100384	0.0147505	-0.00982465	
-0.0141436	0.0108112	-0.0236039	
0.00648472	-0.00252515	-0.0542234	
0.00900101	-0.00784211	-0.0583359	
0.00279748	-0.00965963	0.00126879	
0.00194966	-0.0072201	0.00106429	
0.000399877	0.001006	-0.00347538	
0.00539449	-0.00398973	0.00454401	
0.00998596	-0.0211843	-0.0667661	
-0.0152711	-0.0147796	-0.0477202	
-0.0191843	-0.0420324	-0.0266663	
0.00964338	-0.039954	-0.0607969	
0.00110291	-0.004952	0.000808649	
0.000334567	-0.00609567	-0.000603185	
0.000307968	-0.00535845	-0.00178542	
-0.00206698	0.00528817	-0.00462279	
-0.00017923	-0.000175538	0.00402893	
-0.00195803	-0.00242607	0.000276619	
-0.00121785	0.00178322	-0.00192272	
0.00691819	0.00111191	-0.00860963	
-0.0169424	-0.0480809	0.00614238	
0.0512456	-0.0523828	-0.0513415	
0.00909018	-0.0469749	-0.0549976	
-0.00313839	-0.0554323	-0.0444545	
-0.00466529	0.000725603	-0.0353237	
-0.00617522	-0.0573659	-0.0183739	
0.00177624	-0.049359	-0.0497153	
-0.000246198	0.00283142	-0.0429519	
0.00638021	-0.0510591	-0.032362	
-0.00171595	-0.065008	-0.0470441	
0.00247888	-0.0114797	-0.0138751	
1.32077e-06	6.74794e-06	9.23794e-06	
0.0108609	0.00910936	-0.0178145	
-0.00170546	0.00355313	0.00649228	
0.00634036	-0.0217287	-0.0200559	
-0.0230611	-0.00172384	0.0255019	
0.00459523	-0.00136067	-0.0107123	
0.00707437	0.000257959	-0.0129014	
0.0191849	0.0163174	-0.00757677	
0.00414969	0.0137883	-0.00172364	
0.0072977	0.00333143	-0.0121486	
0.00859308	0.0186277	0.000419658	
0.0106142	0.00634842	-0.012115	
0.0213288	0.00299601	0.0419898	
-0.00200545	-0.00344823	0.00330729	
-0.0018872	-0.000183777	0.0282968	
0.000569369	0.00171649	0.00145928	
0.0072879	0.0150124	-0.00381271	
0.00351609	0.0133713	4.2313e-05	
0.00217454	0.0101883	0.00494415	
-0.000609385	0.00667654	-0.00831433	
0.0130659	0.00525898	0.0305004	
0.00400916	-0.00749596	0.0102281	
0.00308507	0.00404493	0.0327219	
0.000237286	6.90407e-05	-0.000136202	
0.00492226	-0.00414029	0.0104661	
-0.000339923	-0.000238994	-6.99268e-05	
-0.00817905	-0.00176193	0.0231884	
3.71621e-07	0.000185418	-7.99377e-05	
-0.00128777	0.0108465	-0.00244031	
0.00513901	0.0019095	0.00143441	
-0.00964446	0.00572451	0.00666132	
-0.00177011	0.00461386	-0.00675499	
-0.00370901	0.000233437	0.0126176	
0.00342466	0.0105933	0.00410799	
-0.00122046	0.000208561	0.000619805	
-0.00055873	0.0103147	2.4413e-05	
0.00372573	0.00454834	0.00659007	
0.0022671	-0.00155853	-0.000520506	
0.00469794	0.00338123	0.00435667	
-0.00180855	-0.012675	-0.00539849	
0.0231211	-0.100211	-0.123854	
-0.0107363	-0.00123165	0.00313734	
0.000895749	0.00684145	0.00150216	
-0.00350246	-0.00385576	0.0042273	
0.0141523	0.00390658	0.0154185	
-0.0272768	-0.0067726	0.00539948	
0.0112636	0.000535775	0.0040349	
0.000736442	-0.0082178	-0.00057086	
-0.00158813	0.00037167	0.00687678	
0.00148889	-0.00115679	0.00768755	
-0.00166996	-0.0044912	-0.0124545	
0.0107649	0.00148862	0.00622771	
-0.00152594	-0.00216984	0.00475703	
0.0090428	0.00433407	0.00983149	
0.0091762	0.00324224	0.00584309	
0.000384723	-0.00300394	0.00485456	
-0.00375811	-0.015753	-0.00762324	
0.00168366	-0.00551005	-0.00162973	
4.97817e-05	-0.00262151	0.00652099	
-0.00186625	0.00142497	-0.000756034	
0.00202231	-0.00188861	0.00123415	
0.000130884	0.00228412	0.000710269	
-0.000980465	-0.00231727	0.00584973	
-0.000490803	0.000487092	-0.00132052	
0.0217123	0.0123084	0.0160535	
0.00848384	0.00492344	0.00466475	
0.0124748	0.0151444	0.00560713	
0.028685	0.00654584	0.0171778	
-0.00189424	0.00274229	0.00499932	
-0.000207951	0.000219588	0.000753596	
-0.000900794	0.00287752	0.00632738	
0.00218074	0.00623697	0.00112165	
0.000314945	-2.14796e-05	-0.000916822	
-0.000215442	0.000150249	0.00619982	
0.000139481	-0.00304674	0.00533586	
-0.000966911	-0.000979428	0.00744737	
0.0283194	-0.0179748	-0.0065499	
0.00666984	-0.010597	-0.0229005	
-0.0134896	0.0191745	-0.00124161	
0.000450519	-0.00661094	-0.00118936	
-0.00511511	0.0211345	-0.0013319	
-0.0106552	0.0266249	0.00137886	
-0.010345	-0.000281602	-0.014789	
-0.00787768	-0.000878801	-0.0110382	
0.00103147	-0.00604169	0.00570694	
0.000137102	-0.00337777	0.00375791	
-0.000812054	0.00266274	0.000270366	
0.000827655	-5.2308e-05	0.00362918	
0.000678535	-0.000823743	-0.00830994	
-0.0337051	-0.00608556	-0.0253341	
-0.0240282	0.0163087	-0.0088982	
0.00275927	-0.00380346	-0.00858982	
0.000998199	-0.00296668	0.00309627	
0.000722568	-0.00230347	0.00316547	
0.000429546	-0.00241631	0.00227827	
-0.00118986	0.00838132	-0.00148936	
0.00105703	0.000889048	0.000687017	
0.00106678	0.000121596	9.90217e-05	
-0.000274078	-0.000267799	0.000731081	
-0.000359986	-2.44739e-05	0.000307243	
-0.00148522	-0.00494587	0.0018261	
0.053599	-0.0419647	-0.0258088	
0.0048729	-0.0052	-0.0085298	
-0.00175813	-0.00781268	-0.00503123	
-0.0110402	0.0143461	-0.0039706	
-0.00127737	-0.00231087	-0.00131879	
0.000531207	-0.00719646	-0.00670126	
0.0010682	0.000379461	-0.0011012	
0.0122461	-0.00739059	-0.00853397	
0.000278647	-0.00615645	-0.00383045	
0.000540072	-0.00321887	-0.00276689	
0.00010276	0.000706974	0.00106466	
0.000137254	5.77527e-05	-9.66515e-05	
-0.00201866	0.00388581	0.00614711	
0.0136902	-0.0241384	-0.00668973	
-0.00271496	-0.00827312	0.0339081	
0.00572262	-0.00188755	-0.0102193	
0.00843662	-0.00121791	-0.0118016	
0.0200938	3.4965e-05	-0.0138386	
0.00367193	0.00178144	-0.00676822	
0.00879661	0.000133436	-0.0103794	
0.0105954	0.00101559	-0.0118014	
0.0115916	0.00036574	-0.0105626	
0.00869412	0.0126528	0.0454798	
0.00123227	-0.00170642	0.0055405	
0.00112291	0.000133447	0.0291315	
-0.000935027	0.00276328	0.00100493	
0.00864259	0.000864476	-0.00855911	
0.00267216	0.00194336	-0.00612957	
0.000721053	0.00330531	-0.00244717	
-0.000752464	0.00150401	-0.00234604	
0.00760927	0.00844901	0.0323167	
0.00583846	-0.0068736	0.0100509	
0.00253803	0.00339405	0.0338396	
-0.000212968	-0.000109899	4.80216e-06	
0.00680951	-0.00482236	0.00994673	
0.0001205	-3.95963e-05	-0.000108559	
-0.00235715	-0.00305998	0.0247051	
-4.70274e-06	6.62953e-05	-3.21866e-05	
-0.000760751	0.00298959	0.000227998	
0.00164821	0.000584562	-3.36544e-05	
-0.00108555	7.95412e-05	0.0109672	
-0.000683539	0.000978148	-0.00186359	
-0.000501443	-0.00191337	0.0126001	
0.00101297	0.00331563	-0.00532933	
-0.000447391	-0.000350306	0.000101564	
-0.000144651	0.00280314	-0.00053382	
0.00156881	0.0019021	0.00033275	
0.00106019	-0.00062713	-0.000181879	
0.00168439	0.00130817	0.000250995	
-0.00206041	-0.0131949	-0.00413809	
-0.0247965	-0.0937711	-0.137279	
-0.00409779	-0.00763874	0.000471469	
0.00159598	0.00636751	0.00250769	
-0.00184406	-0.00272884	0.000650857	
0.00771179	0.0146163	0.00743351	
-0.0162953	-0.0224096	-0.0024608	
0.00704295	0.00804181	0.00221977	
-0.0020205	-0.00654416	-0.00442939	
0.00259279	0.000140146	0.00572593	
0.00145994	0.00310185	0.00362951	
-0.00375885	-0.00988015	-0.0100456	
0.00755211	0.00827732	0.0035336	
-0.00081059	-0.00206462	0.00118512	
0.00409572	0.0116561	0.00368833	
0.00718824	0.00755788	0.00290441	
0.00029959	-0.000726367	0.00159607	
-0.00587182	-0.0148841	-0.010145	
-0.00116759	-0.00456524	-0.00378305	
-0.000131059	-0.000402573	0.00204751	
-0.000399222	0.000503307	-0.000181903	
0.000609894	-0.000536555	0.000360847	
-0.00062933	0.000329792	0.000195586	
-0.000286057	-3.92299e-05	0.00188149	
-0.000153275	0.000151398	-0.00039626	
0.0118071	0.0236158	0.00899026	
0.00715141	0.00750455	0.00216968	
0.0118735	0.0163062	0.00423188	
0.0101664	0.0295855	0.0050002	
-0.000949826	0.000576923	0.00161973	
5.42334e-05	-6.66325e-05	-0.000161086	
-0.00090973	0.000805578	0.00199015	
0.00242461	0.00601667	0.00199153	
0.000213292	-5.54895e-05	-0.000519427	
-0.000135757	5.14344e-05	0.00209409	
7.20231e-05	-0.000505216	0.00164971	
-0.000522013	0.000274504	0.00240411	
0.0304788	-0.0156082	-0.00359055	
0.010041	-0.00697055	-0.0257603	
-0.00594635	0.0228561	0.00172184	
0.00156777	-0.00280289	-3.6595e-05	
-0.00591117	0.0207051	-0.00200481	
-0.00697192	0.0278047	0.00285747	
-0.00868534	0.010458	-0.0108656	
-0.00761251	0.00817283	-0.00655103	
0.00200663	-0.00759358	0.00385484	
0.000753215	-0.0047742	0.00256665	
-0.000490468	0.00244388	-0.000799395	
-0.0012828	-0.000495342	0.00385431	
-2.0198e-05	0.000329252	-0.00249635	
-0.0282035	0.0219295	-0.0258232	
-0.009653	0.0255517	-0.0143238	
0.00164723	-0.00217373	-0.00196127	
0.000979387	-0.00402592	0.00166131	
0.000844002	-0.00374167	0.0019447	
0.000355454	-0.00349634	0.000777435	
-0.00193998	0.0074359	-0.00248523	
-0.00019457	-0.000295995	0.000227294	
-0.000261348	-0.000103571	2.43484e-06	
-0.00015072	-8.39371e-05	0.000128071	
0.000282941	2.051e-05	-0.000243012	
-0.000588377	-0.00134652	0.000838353	
0.0370786	-0.0568863	0.0242827	
0.00415951	-0.00357888	-0.0011804	
-0.00130743	-0.00221214	-0.00192512	
-0.00444839	0.0180844	-0.00189934	
-0.000518033	-0.000636411	-0.000364208	
0.000194505	-0.0024203	-0.00199273	
0.000559093	-3.74167e-05	-0.000372083	
0.0131034	-0.00526158	-0.000121872	
0.000122772	-0.00203558	-0.00101616	
-2.76973e-05	-0.000889253	-0.00070044	
-3.69005e-05	-0.000209338	-0.00032912	
0.000385478	8.41125e-05	-0.000255796	
-0.00241741	0.00416905	0.005605	
0.0160148	-0.0212922	-0.00505518	
-0.0070518	-0.00103976	0.0350497	
0.00615815	-0.0017969	-0.0101925	
0.00828978	-0.00199839	-0.0122151	
0.0135931	-0.00784398	-0.0199099	
0.00130398	0.000380213	-0.00833494	
0.0079934	-0.00191678	-0.0113478	
0.00499862	-0.00318205	-0.0152804	
0.00962647	-0.00309273	-0.0125869	
0.0136361	0.0103622	0.0458334	
-0.0018219	-0.00215448	0.00594962	
0.00112329	0.000966779	0.0295839	
-0.00324212	0.00256317	-0.00104615	
0.00402807	-0.00253014	-0.0117575	
0.00143608	0.00146361	-0.00709516	
0.0010994	0.00348667	-0.00251738	
-0.00128129	0.00155598	-0.00235611	
0.00861224	0.00932618	0.0324796	
0.00493865	-0.00505596	0.0117513	
0.0035253	0.00415728	0.0341942	
-1.57816e-05	-9.09756e-05	-0.000140499	
0.00652476	-0.00543446	0.0104957	
-1.68803e-05	0.000173234	-1.18068e-05	
-0.00243132	-0.00201719	0.0254759	
-2.606e-05	0.000240769	-0.000129321	
-0.00102073	0.00352226	-0.000518903	
0.00154543	0.000747757	-8.1871e-05	
-0.00300432	0.00282041	0.0106802	
-0.000960758	0.000926337	-0.00174511	
-0.00125217	-0.000640847	0.0132068	
0.00190405	0.00328653	-0.00567248	
-0.000475613	-0.000271556	0.000187012	
-0.000254448	0.00332554	-0.00121889	
0.0018428	0.00220231	0.000240588	
0.00115569	-0.000556837	-0.000215114	
0.00186829	0.00141919	0.000243842	
-0.00333515	-0.0133587	-0.00329295	
-0.0278842	-0.02227	-0.170742	
-0.00430963	-0.00574234	0.000134517	
0.0023483	0.00600752	0.00248156	
-0.00183909	-0.0026006	0.000661585	
0.00731337	0.0136998	0.00757254	
-0.0112455	-0.0244786	-0.00343755	
0.00528715	0.00957489	0.00288641	
-0.00287598	-0.00652404	-0.00458271	
0.00497387	0.00218905	0.00429271	
0.00185993	0.00344973	0.00412259	
-0.00639189	-0.00577454	-0.0115536	
0.00532967	0.0102578	0.00372151	
-0.000358898	-0.00183476	0.00095633	
0.0057536	0.0115267	0.00448797	
0.00529055	0.00949802	0.00261426	
0.000647663	-0.000496622	0.00186457	
-0.00581183	-0.0156018	-0.00973099	
-5.93067e-05	-0.00481377	-0.00379273	
-0.000459711	-0.00114002	0.00165924	
-0.000697003	3.96e-05	-9.37438e-05	
0.000809142	-0.000364841	0.00036427	
0.000506357	0.000468779	-0.000308437	
-0.00028515	-0.000122907	0.00187537	
-0.000116187	0.000118274	-0.000289521	
0.0130106	0.0221806	0.0109317	
0.00571028	0.00910121	0.00158513	
0.011043	0.0174484	0.00339616	
0.0142592	0.0265432	0.00743933	
-0.000779007	0.000448439	0.00144612	
4.26021e-05	-4.76661e-05	-0.000110596	
-0.000825156	0.000723694	0.00175464	
0.00286529	0.00586775	0.00201012	
0.000220582	-7.60965e-05	-0.000495622	
-0.000114801	-5.51162e-05	0.00166839	
9.56332e-05	-0.000596001	0.00170846	
-0.000468212	0.000193406	0.00230245	
0.0316661	-0.0150354	0.00435817	
0.00991993	-0.00843645	-0.0240734	
-0.00766618	0.0229235	0.000340305	
0.0014006	-0.00273434	0.00118451	
-0.00603047	0.0210531	-0.00207355	
-0.00870748	0.027874	0.00200519	
-0.00565418	0.0139029	-0.00919508	
-0.00487846	0.0108413	-0.0057897	
0.00162535	-0.00709168	0.0043565	
0.000751165	-0.00426764	0.00298562	
-0.000632653	0.00260546	-0.000515318	
-0.000876746	0.00222117	0.00290551	
0.000298221	0.00032309	-0.00251808	
-0.0186669	0.0318025	-0.0263143	
-0.013597	0.023683	-0.0154773	
0.000829235	-0.00244729	-0.00178615	
0.000917556	-0.00364032	0.00202385	
0.000789366	-0.00333493	0.00226492	
0.000456383	-0.0031399	0.001313	
-0.0018016	0.00780495	-0.0022865	
-0.000127121	9.81542e-05	3.88593e-05	
0.00010717	3.63198e-05	2.91187e-06	
7.79338e-05	4.74016e-06	4.51784e-05	
0.000108453	8.1639e-06	-9.56829e-05	
-0.000839268	-0.00101543	0.000918535	
0.0329869	-0.0601685	0.0221307	
0.00271601	-0.0048703	-0.000115422	
-0.000489173	-0.00213728	-0.00184842	
-0.00593924	0.0177744	-0.00337158	
-0.000547454	-0.000821265	-0.000404522	
6.47637e-05	-0.00245118	-0.00187081	
0.000598893	-1.06173e-05	-0.000424759	
0.010771	-0.00688203	0.00548207	
-3.85843e-05	-0.00202165	-0.000827915	
-8.58931e-05	-0.000838689	-0.000781791	
6.7151e-06	4.13478e-05	6.50739e-05	
0.000271961	6.64972e-05	-0.000176915	
-0.0029795	0.00401168	0.0053259	
0.0236026	-0.0102243	0.00098962	
-0.00819541	-0.00131817	0.0356039	
0.00650792	-0.00182248	-0.0104985	
0.00790158	-0.00255438	-0.0129159	
0.0117681	-0.00854551	-0.0217301	
0.00240703	0.000941638	-0.00795029	
0.00716983	-0.00310704	-0.0122981	
0.00685295	-0.00153159	-0.01493	
0.0082609	-0.00448495	-0.0138711	
0.0126316	0.012289	0.0466319	
0.00420744	-0.00362716	0.00455001	
0.000904943	0.00250503	0.0299753	
-0.00415262	0.00215295	0.00130478	
0.00501472	-0.00184681	-0.0116013	
0.00226099	0.00160641	-0.00666797	
0.00131671	0.00345388	-0.00273065	
-0.00147417	0.0016558	-0.00242522	
0.00846505	0.0103047	0.0329629	
0.00692139	-0.0052431	0.0108694	
0.00386334	0.00507949	0.0349774	
8.83788e-07	6.76867e-05	-0.000158624	
0.0059927	-0.00442808	0.0118645	
0.000124992	7.48622e-05	-3.64919e-05	
-0.00251906	-0.00114853	0.0262435	
-1.67277e-05	0.000116441	-6.73851e-05	
-0.00101566	0.00319366	-0.000242128	
0.00166857	0.000799517	-9.99779e-05	
-0.00318218	0.00257633	0.0109796	
-0.00127904	0.00108606	-0.00204941	
-0.00123289	-0.000224383	0.0137992	
0.00204287	0.00321586	-0.00559751	
-0.000433847	-0.00025088	0.000152834	
-0.000215882	0.00306775	-0.00100984	
0.00198171	0.00235873	0.00035059	
0.0011106	-0.000574901	-0.000146771	
0.00200835	0.00155471	0.000317898	
-0.00462723	-0.0132942	-0.00259702	
0.0122611	-0.0994865	-0.150641	
-0.00359675	-0.00493158	0.000181839	
0.00294709	0.00571425	0.00253655	
-0.00171193	-0.00253796	0.000468156	
0.00695757	0.0134795	0.00721186	
-0.0130549	-0.0229309	-0.00377064	
0.00601713	0.00925772	0.00298258	
-0.00297886	-0.00673555	-0.00496495	
-9.52168e-05	-0.000202834	0.00577637	
0.00191252	0.00377954	0.00409983	
-0.00710561	-0.00459627	-0.0111564	
0.00601071	0.00991603	0.00412056	
-0.000364221	-0.00144373	0.000721658	
0.00636264	0.0120721	0.00450627	
0.0053781	0.00958769	0.00287982	
0.000659512	-0.000355862	0.00168938	
-0.00593228	-0.0152014	-0.0101583	
-0.00512744	-0.00246487	-0.00236317	
-0.000504942	-0.00123018	0.00123933	
0.000441031	7.7385e-05	-7.98736e-05	
0.000636871	-0.000540083	0.000287574	
-0.000216813	0.000548764	-0.000161998	
-0.000252542	-0.000117912	0.00169614	
-0.000100153	0.000105362	-0.000243451	
0.0128279	0.0224908	0.0107956	
0.00547934	0.00941981	0.00174704	
0.0106656	0.017982	0.00338576	
0.0138504	0.0262539	0.0070561	
-0.000656796	0.000401942	0.00119501	
1.98079e-06	-4.33462e-06	-7.69672e-06	
-0.000730564	0.000632024	0.00151349	
0.00308545	0.00576801	0.00221856	
0.000120929	-4.50144e-05	-0.000267747	
-0.000117043	-8.91314e-05	0.00134778	
7.59439e-05	-0.000603679	0.00159257	
-0.000387682	0.000169504	0.00192046	
0.0308223	-0.013905	0.0122071	
0.0102871	-0.0080243	-0.0241531	
-0.00779647	0.023182	0.000545747	
0.00121624	-0.00256838	0.00201571	
-0.00612416	0.0211681	-0.00220145	
-0.008691	0.0281622	0.00157707	
-0.00623658	0.0137551	-0.0094384	
-0.0055243	0.0105867	-0.00599941	
0.00169297	-0.00718053	0.00413123	
0.000730219	-0.00439066	0.00283641	
-0.000625935	0.00264967	-0.000584357	
-0.0010931	0.00213959	0.00295025	
0.000183904	0.000421376	-0.00222613	
-0.0214302	0.0319495	-0.0259643	
-0.0140886	0.0243539	-0.0149157	
0.000676269	-0.00217744	-0.00166292	
0.000892648	-0.00368112	0.00186929	
0.000820799	-0.00344555	0.00211758	
0.000384175	-0.00322819	0.00115603	
-0.00185082	0.00780658	-0.00233843	
1.10094e-05	4.94341e-06	4.31862e-07	
-1.09924e-05	-4.04139e-06	-3.42181e-07	
-5.20248e-06	-4.18886e-06	2.32854e-06	
0.000115281	9.48991e-06	-0.000100415	
-0.000809378	-0.000562305	0.000670968	
0.0357683	-0.0590272	0.0189558	
0.00230621	-0.00477788	0.000289182	
-0.000154557	-0.00201148	-0.00135421	
-0.00622504	0.0179241	-0.0031733	
-0.000370624	-0.000555882	-0.000303827	
-2.01737e-05	-0.00201741	-0.00155681	
0.000392832	-7.41982e-06	-0.000289047	
0.00855909	-0.00737907	0.00783587	
-0.000131787	-0.00179464	-0.000725099	
-9.45413e-05	-0.000746754	-0.000760229	
-4.57565e-06	-2.90247e-05	-4.60284e-05	
0.000211607	4.98008e-05	-0.000142124	
-0.00295878	0.00425826	0.00463689	
0.0218566	-0.00477004	0.0113877	
-0.007102	-0.00345531	0.0364748	
0.00645524	-0.00160037	-0.0109415	
0.0076064	-0.00304324	-0.0133562	
0.0133615	-0.007627	-0.0214698	
0.00271012	0.00046218	-0.00803674	
0.00669614	-0.00337194	-0.0126252	
0.00703774	-0.0018809	-0.0148393	
0.00807656	-0.00478408	-0.0139163	
0.0127909	0.0130103	0.0468752	
0.00342288	-0.00322769	0.00578901	
0.00186862	0.00164673	0.0306582	
-0.00424418	0.00091921	-0.00276136	
0.00537285	-0.00177115	-0.0115205	
0.00243853	0.00119863	-0.00690328	
0.000825074	0.00268527	-0.00159591	
-0.00105112	0.00116714	-0.00165268	
0.0078441	0.010476	0.0335175	
0.00732044	-0.00371004	0.0113808	
0.00445898	0.00458613	0.0356371	
-4.28873e-05	6.14996e-05	-2.69563e-05	
0.00735964	-0.00477153	0.0113392	
2.6378e-05	6.16804e-05	-4.23849e-06	
-0.00179453	-0.00207354	0.0267747	
-8.56862e-05	0.00053488	-0.000322685	
-0.000998426	0.00316335	-6.11178e-05	
0.000871407	0.000400168	-9.47273e-05	
-0.00293081	0.00117165	0.0115987	
-0.000894776	0.000732609	-0.00135142	
-0.00128379	-0.0011104	0.0142245	
0.00184213	0.00281459	-0.00539943	
-0.000172542	-0.000151048	6.35896e-05	
-0.00017694	0.00290978	-0.000936485	
0.00116996	0.0013569	0.00016491	
0.000480371	-0.000251146	-8.40252e-05	
0.00111378	0.000835857	0.000124276	
-0.0053646	-0.0131019	-0.00185255	
0.00798574	-0.0408277	-0.179898	
-0.00327466	-0.00486227	2.76732e-05	
0.0033272	0.00555969	0.00290456	
-0.00164576	-0.00265238	8.29432e-05	
0.00668519	0.0135077	0.00690234	
-0.0127015	-0.0230081	-0.0033239	
0.00615169	0.00930446	0.00358057	
-0.00298593	-0.00692754	-0.00537294	
0.00251434	-0.00263848	0.00395998	
0.00178597	0.00380241	0.00374237	
-0.00836101	-0.0025508	-0.0110786	
0.0058528	0.00996836	0.00497783	
-0.000202373	-0.00127491	0.000901653	
0.00631359	0.0125433	0.00429517	
0.00528405	0.00958726	0.00395748	
0.000411968	-0.000345498	0.0011078	
-0.0052129	-0.0153244	-0.0104492	
-0.00167436	-0.00454702	-0.00391925	
-0.000392675	-0.00101313	0.000835077	
0.000243098	0.000155924	-0.000110818	
0.000542631	-0.000292041	-6.69375e-06	
0.000285112	-0.00024365	-9.48034e-05	
-0.000195005	-0.000103002	0.0014457	
6.63044e-06	-6.88817e-06	1.63045e-05	
0.0126526	0.0230051	0.0104593	
0.00545412	0.00960469	0.00302868	
0.0105336	0.018462	0.00435674	
0.0131738	0.0267261	0.00676807	
-0.000680108	0.00043105	0.00121156	
-0.000298343	0.000277313	0.00073307	
-0.00064231	0.000557673	0.00129823	
0.00311189	0.00582605	0.00271474	
-0.000174689	6.27886e-05	0.000379595	
-0.000136875	-6.73326e-05	0.00136455	
7.86742e-05	-0.000482599	0.00126034	
-0.000313649	0.000147453	0.00154641	
0.028539	-0.0140616	0.0185768	
0.00944674	-0.00799904	-0.024155	
-0.00782439	0.023417	0.000766444	
0.000951194	-0.00263887	0.00229975	
-0.00620589	0.0213201	-0.00225338	
-0.00882975	0.0283581	0.00142872	
-0.00672227	0.0139496	-0.00920761	
-0.0060814	0.0107592	-0.0055101	
0.00162014	-0.00707381	0.00413465	
0.000642023	-0.00429752	0.00289742	
-0.00064602	0.00271693	-0.000559637	
-0.000442615	0.00221419	0.00300002	
-8.43106e-05	0.000640931	-0.00165598	
-0.021997	0.0334733	-0.0250959	
-0.013969	0.0250266	-0.0145769	
0.000710973	-0.00181398	-0.00130015	
0.000866114	-0.00359233	0.00187277	
0.000799914	-0.00338261	0.00213805	
0.000404397	-0.00316982	0.00119504	
-0.00183999	0.00790565	-0.00232953	
-4.44008e-05	9.14806e-06	7.77911e-06	
2.71138e-05	9.95205e-06	1.36425e-06	
2.19289e-05	-9.61297e-07	1.14061e-05	
9.37104e-05	7.37127e-06	-8.18051e-05	
-0.00113357	-0.000565811	0.000805474	
0.0350374	-0.0593797	0.0183902	
0.00251532	-0.00422557	0.000362447	
-0.000106108	-0.001697	-0.00111838	
-0.00623204	0.018049	-0.00301628	
-0.000284123	-0.000413402	-0.00024432	
-4.16309e-05	-0.00150253	-0.00126896	
0.000306492	-5.66892e-06	-0.000226091	
0.00770059	-0.00773142	0.00837172	
-0.000220277	-0.00178891	-0.000786725	
-7.65856e-05	-0.000476133	-0.000509693	
-8.53121e-07	-5.60641e-06	-8.79428e-06	
0.000176719	4.1931e-05	-0.00012016	
-0.00325743	0.00391163	0.00457029	
0.0186791	-0.0112084	0.0112289	
-0.00605203	-0.00471549	0.03692	
0.00693637	-0.00203921	-0.0107137	
0.00783057	-0.00318484	-0.0130008	
0.0135799	-0.00800279	-0.0215253	
0.0026562	-0.000269293	-0.00733504	
0.00746203	-0.00349302	-0.0121673	
0.00718274	-0.00260728	-0.0148425	
0.00867859	-0.00462504	-0.0136509	
0.0129057	0.0125431	0.0472678	
0.00266313	-0.00356377	0.00617432	
0.0021591	0.00130084	0.0309925	
-0.00340372	0.00215098	-0.00362541	
0.00566277	-0.00247156	-0.0112775	
0.0022411	7.74398e-05	-0.00605154	
0.000711564	0.00103729	-0.00126224	
-0.000700313	0.000775924	-0.00108107	
0.00839052	0.0103179	0.0336764	
0.00800942	-0.00481859	0.0105297	
0.00461596	0.00440441	0.0359432	
5.94635e-05	3.88708e-05	-5.58153e-06	
0.00654817	-0.0062764	0.011308	
1.96133e-06	5.36632e-05	2.53284e-05	
-0.00129999	-0.00241598	0.0269098	
-2.41488e-05	0.000134056	-8.09612e-05	
-0.000807391	0.00155724	0.000953723	
0.000483974	0.000218869	-6.39557e-05	
-0.00253803	-9.36939e-07	0.0118863	
-0.000566401	0.000461699	-0.000821936	
-0.00117838	-0.0015546	0.0143791	
0.00170848	0.000958217	-0.00502421	
-0.000127148	-0.000100013	4.65153e-05	
-5.7046e-05	0.00109491	-0.000352397	
0.000535521	0.000616935	5.31633e-05	
0.000305718	-0.000161147	-5.86886e-05	
0.000517848	0.000381818	3.97854e-05	
-0.00648612	-0.0129871	-0.00189364	
0.00712879	-0.0623617	-0.176904	
-0.00217192	-0.00334489	1.57055e-05	
0.00352051	0.00550816	0.00206043	
-0.00135432	-0.00247584	-0.000428954	
0.00588593	0.0125765	0.00576895	
-0.0127431	-0.0220943	-0.0045528	
0.00595702	0.00956196	0.00202667	
-0.00292024	-0.00692661	-0.00575372	
-0.000479887	-0.00337297	0.00451992	
0.00198872	0.00489965	0.00368868	
-0.00142234	-0.0037006	-0.0139449	
0.00638661	0.00998008	0.00346381	
-0.000289757	-0.000728133	0.000134822	
0.00700964	0.0130846	0.00349074	
0.00613293	0.00928571	0.00258589	
0.000800994	0.000590677	0.00169589	
-0.00584699	-0.0148372	-0.0118489	
-0.00135725	-0.00446295	-0.00439997	
-0.000835636	-0.00217322	-4.30438e-05	
0.000183711	0.000119316	-8.43059e-05	
0.000327664	-0.00027384	9.47442e-05	
0.000155385	-0.000251335	0.000136156	
-8.69006e-05	-5.26803e-05	0.000705415	
-0.000192368	0.000209844	-0.000454572	
0.0127193	0.0230059	0.00974798	
0.00621465	0.0090412	0.00156349	
0.0112502	0.017917	0.00330822	
0.0126243	0.0256623	0.00553942	
-0.000276455	0.000172489	0.000488547	
0.00031005	-0.000279806	-0.000767026	
-0.000435145	0.000368485	0.000864432	
0.003534	0.00573859	0.00169246	
0.000373079	-0.00014102	-0.000829468	
-6.97265e-05	-2.62151e-05	0.000632924	
3.27687e-05	-0.000230558	0.000588138	
-0.000254729	0.000115367	0.00130269	
0.0271289	-0.0141539	0.0205068	
0.00949639	-0.00757216	-0.0241339	
-0.00790501	0.0234938	0.00087407	
0.00180645	-0.0022011	0.00235202	
-0.00621038	0.021347	-0.00224748	
-0.00877945	0.0285052	0.00124467	
-0.0070079	0.01418	-0.00889953	
-0.00649596	0.0110519	-0.00515796	
0.00161279	-0.00705047	0.00406393	
0.0006691	-0.00432332	0.00281349	
-0.000658837	0.00275693	-0.000560193	
-0.000236458	0.00191154	0.00321962	
-5.37319e-05	0.000541203	-0.00131446	
-0.0221022	0.0346669	-0.0246253	
-0.0139473	0.025513	-0.0144129	
0.000415862	-0.00110631	-0.000861349	
0.000851935	-0.00355838	0.00183232	
0.000752248	-0.00339387	0.00210768	
0.000393437	-0.00316847	0.00116571	
-0.0018496	0.00795168	-0.00235345	
-1.78778e-05	-3.55633e-06	3.21266e-06	
9.6444e-06	3.60141e-06	5.42657e-07	
8.27393e-06	-1.77378e-06	4.7972e-06	
4.52002e-05	2.83087e-06	-4.02852e-05	
-0.000165488	-7.07864e-05	0.00010673	
0.034251	-0.0596672	0.018022	
0.0024421	-0.00409812	0.000433069	
0.000550583	-0.00179859	-0.000303071	
-0.00634051	0.0181471	-0.0029677	
-0.000175936	-0.000252899	-0.000155581	
-4.18082e-05	-0.00133607	-0.00119021	
0.000154062	-3.58283e-06	-0.000113635	
0.00782824	-0.00714741	0.00799964	
-6.63042e-05	-0.000505245	-0.000238399	
-5.38992e-05	-0.000331449	-0.000365085	
-1.69262e-06	-1.15178e-05	-1.82043e-05	
8.52809e-05	1.93077e-05	-5.90334e-05	
-0.00339329	0.00375197	0.00455458	
0.0155575	-0.0157668	0.00937369	
-0.00605713	-0.00468065	0.0371614	
0.00710507	-0.00219665	-0.010781	
0.00805117	-0.00314504	-0.0131825	
0.0132858	-0.0082561	-0.0222945	
0.00247692	-0.000547212	-0.00683843	
0.00729262	-0.00329192	-0.0126827	
0.00683935	-0.00296774	-0.0144781	
0.00849302	-0.00458559	-0.014162	
0.0125942	0.012717	0.047368	
0.0026765	-0.0033773	0.00658688	
0.00229428	0.00148072	0.031132	
-0.000503177	0.00451945	-0.00365794	
0.00544992	-0.00258124	-0.0117128	
0.0020554	-0.000236539	-0.00571901	
0.000665047	0.000962039	-0.00114458	
-0.000877158	0.000962558	-0.00134345	
0.00919595	0.0100886	0.0336898	
0.00790719	-0.00518902	0.010522	
0.00469051	0.00482762	0.0361338	
1.36962e-05	2.06356e-05	4.22881e-05	
0.00584834	-0.00650053	0.0117033	
-1.07585e-05	6.17704e-05	1.03287e-05	
-0.00119474	-0.00214944	0.0270964	
-8.21403e-06	4.07085e-05	-2.49143e-05	
-0.000772428	0.00137152	0.00119975	
0.000458748	0.000209987	-6.38182e-05	
-0.00247445	-7.04843e-05	0.0120056	
-0.000731982	0.000593393	-0.00105154	
-0.00119042	-0.00142895	0.0144499	
0.00160274	0.00087699	-0.00500002	
-0.000163712	-0.00010904	5.8018e-05	
-4.39161e-05	0.000965509	-0.000301715	
0.000510707	0.000587172	4.82742e-05	
0.000309905	-0.000159132	-5.92893e-05	
0.000507672	0.000380358	3.58074e-05	
-0.00624709	-0.0130052	-0.00125221	
0.0112696	-0.0087794	-0.191232	
-0.00239525	-0.0032694	0.000354613	
0.00357711	0.00546948	0.00292562	
-0.001535	-0.00243337	0.000187352	
0.00609808	0.0124979	0.00655904	
-0.0118018	-0.0226221	-0.00276796	
0.00611879	0.00969048	0.00410059	
-0.0030934	-0.00740069	-0.00558532	
-0.000556418	-0.000192181	0.00528931	
0.00226696	0.00479589	0.00444677	
-8.70846e-05	-0.00234	-0.0141202	
0.00574188	0.0104605	0.00539345	
0.000185084	-0.0007681	0.00125766	
0.00656395	0.0133884	0.00445251	
0.00529281	0.0100505	0.00428738	
0.000904826	0.000359132	0.00192375	
-0.00505209	-0.0150976	-0.0115072	
-0.0010959	-0.00327135	-0.00546754	
-0.00100286	-0.00236163	0.000163281	
0.000322807	-8.90731e-05	-5.47498e-07	
0.000594443	-0.000355333	0.000117775	
0.000372246	5.43584e-05	-0.000192479	
-0.000174743	-0.000116789	0.00144918	
5.77211e-05	-6.31056e-05	0.000138305	
0.0123791	0.0231832	0.0104259	
0.00541563	0.00977916	0.00322566	
0.0106636	0.0186424	0.00506761	
0.012605	0.0260219	0.00687747	