<VTKFile type="UnstructuredGrid" version="0.1" byte_order="LittleEndian">
	<UnstructuredGrid>
		<Piece NumberOfPoints="8325" NumberOfCells="8325">
			<CellData Scalars="scalars">
				<DataArray type="Float64" Name="Strength" NumberOfComponents="3" Format="ascii">
-0.00737637	-0.0153818	0.0132501	
0.0142114	-0.0086248	-0.0260079	
-0.0111852	0.0718371	-0.00218714	
0.00468851	-0.00686451	-0.00700048	
0.00584832	9.25971e-05	-0.0111316	
0.0159198	0.0530461	-0.033471	
0.0111188	0.0849632	-0.032528	
0.00230248	0.0167901	-0.0176094	
0.0151903	0.082652	-0.034425	
0.0044676	0.0301348	-0.0248939	
0.0023956	0.00877327	0.0445848	
0.0040978	-0.00380962	-0.00130054	
-0.0101996	0.040844	0.0120411	
-0.000213592	-0.00253856	0.00100582	
0.0100658	0.0713614	-0.033631	
0.012619	0.0857937	-0.0241021	
0.0150003	0.0945614	-0.00652296	
-0.00125767	0.0627954	-0.030594	
0.000118411	0.0134211	0.028633	
0.00558782	-0.0104391	0.00832189	
-0.0111241	0.0336989	0.0197827	
0.00232048	0.00147236	0.000991539	
0.00383787	-0.00469561	0.00984454	
0.00166619	-7.90326e-05	0.0019792	
-0.0126068	0.0492872	0.0032968	
-0.000658981	-0.0126575	0.00314157	
0.00855612	0.0874936	-0.0217328	
0.008871	0.0400729	0.0141469	
0.00298582	0.0874434	-0.00586934	
-0.00427832	0.0449195	-0.0229541	
-0.000753044	0.0538023	0.0101857	
0.0119687	0.0901871	-0.0103304	
-0.000519936	0.000361423	0.000180993	
0.00888219	0.0866575	-0.0152429	
0.00508285	0.0780202	0.0181141	
0.01673	0.0121394	0.00772913	
0.00872709	0.0571293	0.0204999	
-0.0116617	-0.00544769	-0.0252049	
-0.0311066	-0.134182	-0.0319963	
-0.00380814	0.00500395	0.0517131	
0.0011139	0.0118482	-0.0134663	
0.0109735	-0.00782271	0.0538957	
0.0240135	-0.0244046	0.0591524	
-0.0126679	-0.029639	0.051456	
0.0185768	-0.0118114	0.0516386	
0.0173792	-0.0252545	0.0281613	
0.011738	0.000480749	0.0165269	
0.00872329	-0.0175284	0.0546528	
-0.0146972	-0.0116225	-0.0183417	
0.01094	-0.00434232	0.0480745	
0.00370057	-0.011132	0.0258435	
0.00944697	0.00224816	0.0544192	
0.00657578	0.000754073	0.0401976	
0.0141108	-0.0318453	0.0374804	
0.0277888	-0.0126629	0.0154057	
-0.00448804	-0.0189176	0.00442429	
0.0139967	-0.0213405	0.0521781	
0.0224877	0.00299299	0.0154307	
0.00576489	-0.0245553	0.00594388	
-0.00803701	-0.014925	0.0104292	
0.00718254	-0.0123192	0.057984	
-0.00463226	0.00857223	-0.0202052	
0.0227987	0.00886118	0.0372678	
0.00561772	0.00297673	0.0314344	
0.00940423	0.0127469	0.0165571	
0.0379838	-0.0154211	0.0666747	
-0.00151889	-0.00101856	0.041009	
-0.000947991	-0.00193969	0.0190152	
0.00365793	6.44166e-05	0.0447773	
0.00323505	0.00883216	-0.0104067	
0.000506895	0.000980308	-0.00477058	
0.00265017	-0.00567066	0.0244362	
0.0142699	-0.0260856	0.0482301	
0.00682278	-0.00951006	0.0511912	
0.0157835	-0.0578178	-0.00626018	
0.0003561	0.0239551	-0.0276689	
-0.00977468	-0.000270426	-0.0314252	
-0.00595397	-0.0381035	-0.0214577	
-0.00918099	0.0143305	-0.0106527	
-0.0156351	0.0108245	-0.022064	
0.00521682	-0.0122219	-0.0520688	
0.00754655	-0.0202789	-0.0543713	
0.00235462	-0.00945973	0.00225199	
-0.00270276	-0.00686629	0.000708545	
-0.00013322	0.000404573	-0.00356433	
-0.00200756	-0.00668256	0.00174963	
0.00906845	-0.033275	-0.0603636	
-0.0159571	-0.00746573	-0.0482378	
-0.0248876	-0.0287524	-0.0362416	
0.00773725	-0.0440557	-0.0565283	
0.000888961	-0.00488864	0.00101	
0.000571315	-0.00602823	-0.000128496	
0.000456551	-0.00538471	-0.00141332	
-0.00191025	0.00495767	-0.00489267	
0.00299421	-0.00137494	0.00215754	
-0.00187197	-0.00200486	-0.00142471	
0.00111317	-0.0026	-1.80437e-05	
0.00390992	-0.00319907	-0.00970036	
-0.0154867	-0.0438448	-0.0193146	
0.0556424	-0.0630853	-0.0259612	
0.010738	-0.0475469	-0.0524418	
0.00199963	-0.0482911	-0.050415	
-0.00409259	-0.00393106	-0.0346341	
-0.0115249	-0.0478121	-0.0336818	
0.00706125	-0.0461449	-0.0505658	
0.0102807	-0.0100551	-0.0398727	
0.012719	-0.048456	-0.0323725	
0.00548804	-0.0582183	-0.0527987	
0.00102706	-0.0114712	-0.0136705	
1.00372e-06	6.78033e-06	9.0324e-06	
0.00779733	-0.00301573	-0.0208051	
-0.00213158	0.00296071	0.00648274	
0.00399694	-0.0213902	-0.0204188	
-0.0179268	-0.0016523	0.0287369	
0.00448232	-0.00020472	-0.0105849	
0.00656698	0.000932598	-0.0128062	
0.0197301	0.00876867	-0.0141668	
0.00584311	0.0120573	-0.00488551	
0.00685509	0.00328771	-0.0120807	
0.0132767	0.0134566	-0.00703127	
0.00975856	0.00488021	-0.0130161	
0.0175142	-0.00358185	0.0430021	
0.000807198	-0.00397373	0.00310543	
0.00099103	-0.00293237	0.0277941	
-0.00048317	0.00207635	0.000718456	
0.00967307	0.0113903	-0.00773296	
0.00541688	0.0119858	-0.00345673	
0.00239289	0.0110691	0.000853137	
-0.000931977	0.00881444	-0.00562306	
0.0117694	-0.000895814	0.0309779	
0.00465295	-0.00674913	0.0102585	
0.00433023	-0.00190455	0.0323185	
-7.90295e-05	0.000154362	-0.000156798	
0.00445384	-0.00430354	0.0104272	
0.00040665	-6.42572e-05	-6.87075e-05	
-0.00580454	-0.000966564	0.0235723	
2.1736e-06	0.000189467	-5.44419e-05	
-0.00119613	0.0108521	-0.00144255	
0.00307479	0.00457303	0.000915168	
-0.00775699	0.00582276	0.00842313	
-0.00120256	0.00673808	-0.00454755	
-0.00322672	0.00185352	0.0124153	
0.00424177	0.0108539	-0.000840776	
0.00067892	-0.00107169	-0.000507672	
-0.000129465	0.0101556	-0.000473519	
0.00307867	0.00714604	0.00389475	
0.00229488	0.00137813	-0.000679151	
0.00323642	0.00576596	0.00268734	
-0.00358851	-0.0121809	-0.00491824	
-0.00945089	-0.0742291	-0.139805	
-0.00873612	-0.00635562	0.00246441	
0.00178927	0.00644496	0.00178145	
-0.00284333	-0.00453987	0.00387545	
0.00991166	0.00822137	0.016554	
-0.0217852	-0.0177744	-0.00061552	
0.00939787	0.00411571	0.00575122	
-0.000823951	-0.00811907	-0.00010771	
-0.00103779	0.000574481	0.00687648	
0.000773033	-0.000805734	0.007724	
0.0010531	-0.00206107	-0.0129594	
0.00925206	0.00460295	0.00666181	
-0.000785647	-0.00326649	0.00417118	
0.007924	0.0059962	0.00961312	
0.00792459	0.00521524	0.00583954	
0.000747831	-0.00289424	0.0047891	
-0.00426963	-0.0151049	-0.00810217	
-0.00136889	-0.00566975	-0.000910995	
-0.000175008	-0.00246129	0.00647682	
-0.00210054	0.000851153	-0.00088374	
0.000917733	-0.00171682	0.00226842	
-0.000582423	0.0022921	7.28267e-05	
-0.000775697	-0.00258454	0.00566553	
-0.000316177	0.000552954	-0.00131665	
0.0190843	0.0160639	0.0151729	
0.0073094	0.00615789	0.00471804	
0.0112331	0.015209	0.00654936	
0.0234727	0.0160181	0.0178343	
-0.00115388	0.00037529	0.00578906	
-9.05959e-05	-9.83756e-06	0.000791957	
-0.000969731	0.000397197	0.00682275	
0.00248871	0.00590789	0.00143038	
0.0001535	0.000134933	-0.000928488	
0.000350702	-0.000968053	0.00601722	
0.000134654	-0.00289545	0.00532424	
-0.000739563	-0.00198245	0.00715368	
0.0276441	-0.0167286	0.00879443	
0.00400127	0.00668186	-0.0244508	
-0.0105427	0.0197805	-0.00566647	
0.000567825	-0.00613334	-0.00238127	
-0.00525748	0.0201154	-0.0053633	
-0.00987315	0.0259446	-0.00543281	
-0.00995326	0.00435367	-0.0140307	
-0.0080139	0.00187573	-0.0105204	
0.00122127	-0.00630711	0.00520225	
0.000191984	-0.00343636	0.00361625	
-0.000662329	0.00267565	-8.6578e-05	
0.000469106	-0.000766425	0.00344583	
0.000512569	-0.00278311	-0.00773188	
-0.0298937	0.0121528	-0.0266905	
-0.0194814	0.0197913	-0.0110937	
0.00252036	-0.005528	-0.00745532	
0.00103124	-0.00294369	0.00302549	
0.000632564	-0.00253761	0.00293397	
0.000349403	-0.00232425	0.00232624	
-0.00129709	0.00804361	-0.00234449	
0.000815773	-0.00102125	6.62164e-05	
0.000820984	0.000450011	0.000506608	
0.000497483	-0.000555304	0.000331409	
-0.000210273	0.000113786	0.000401052	
-0.00189939	-0.00487817	-0.0012066	
0.0521686	-0.0489974	0.0029605	
0.00485647	-0.00706279	-0.00675651	
-0.00162588	-0.00609837	-0.00681266	
-0.00875474	0.0146812	-0.00639042	
-0.00107341	-0.00201023	-0.00180293	
0.000692329	-0.0065673	-0.00706534	
0.000785628	-0.000264354	-0.00131708	
0.0128083	-0.00976558	-0.00274247	
0.000337513	-0.00544927	-0.00457643	
8.79718e-06	-0.00306792	-0.00287997	
0.000120683	0.000745224	0.00101515	
8.87355e-05	-1.49505e-05	-0.000149909	
-0.00233102	0.00326021	0.00620883	
0.00526494	-0.0215848	-0.0173009	
-0.00101273	-0.00495533	0.034113	
0.0053439	-0.00108324	-0.0102611	
0.00760269	-0.000997738	-0.0120295	
0.0163483	-0.000639926	-0.0174855	
0.0026201	0.00278497	-0.00676299	
0.0078203	-0.00025137	-0.010803	
0.00830116	0.0024013	-0.0130053	
0.00977903	-0.000348595	-0.0118715	
0.0123733	-0.00135247	0.0456988	
0.000932593	-0.00403491	0.00413822	
0.00119849	0.000149947	0.0287162	
0.000407544	0.00280903	0.000914893	
0.00676356	0.00168933	-0.00974074	
0.001835	0.00286115	-0.00594292	
0.000398259	0.00325291	-0.00248177	
-0.000632852	0.00228116	-0.00156122	
0.00846525	0.00158685	0.0326847	
0.00464279	-0.00754793	0.00996262	
0.00245885	0.000194025	0.0335391	
0.000192393	4.11836e-06	-5.35372e-05	
0.00425612	-0.0045899	0.0111853	
0.000152626	-5.05374e-05	2.9541e-05	
-0.00236147	-0.00103354	0.0245053	
-1.94254e-06	6.87329e-05	-2.25035e-05	
-0.000687562	0.00289052	0.000653579	
0.000899604	0.00146706	-9.50483e-05	
-0.000484058	0.000406119	0.010836	
-0.000503129	0.00166773	-0.0012979	
-0.000801997	-0.000220878	0.012539	
0.000587925	0.00351492	-0.00514316	
0.000378491	-0.00038016	-0.000191575	
-0.000211866	0.00279126	-0.000257285	
0.000873182	0.00228562	0.000139156	
0.000991191	0.000645841	-0.000327806	
0.000968397	0.00187765	0.000103932	
-0.00377858	-0.0126281	-0.0037335	
-0.0426253	-0.0752285	-0.141436	
-0.00339289	-0.0077767	-0.0010441	
0.0022926	0.00591642	0.0026779	
-0.00153837	-0.00290006	0.000404648	
0.0065176	0.0138951	0.00910977	
-0.012546	-0.02301	-0.0077504	
0.00569974	0.00811985	0.00406434	
-0.00190496	-0.00686271	-0.00373991	
0.00236057	-0.000941535	0.00565067	
0.00118918	0.00288652	0.00380306	
-0.000186257	-0.00664661	-0.0127936	
0.00658679	0.00820297	0.00471968	
-0.000615349	-0.00227059	0.00076046	
0.00434025	0.0103024	0.00600888	
0.00637698	0.00752956	0.00393192	
0.000240916	-0.000666462	0.00160467	
-0.00426668	-0.0151158	-0.0101361	
-0.00199811	-0.00476195	-0.00297321	
-0.00011689	-0.000534331	0.00198734	
-0.000320975	0.00050884	-0.000269242	
0.000366073	-0.000493677	0.000625578	
-0.000535291	0.000491942	-8.15966e-06	
-0.000137602	-0.000328096	0.00184125	
-9.87164e-05	0.000166988	-0.000397611	
0.0109893	0.0217973	0.0125308	
0.00633821	0.00757781	0.00321637	
0.0109747	0.0159315	0.00583849	
0.00963941	0.0270762	0.0121351	
-0.00061625	1.58881e-05	0.0018322	
2.96832e-05	-8.4834e-06	-0.000176227	
-0.000606238	0.000102358	0.00221205	
0.00274551	0.00562065	0.00225543	
0.000109736	5.21994e-05	-0.000539595	
-3.23422e-05	-0.000347352	0.0020351	
5.21465e-05	-0.000537651	0.0016146	
-0.000269903	-0.000262625	0.00240859	
0.0285795	-0.0132962	0.0120135	
0.00730884	0.00609473	-0.0264686	
-0.00620166	0.0218868	-0.00512791	
0.00148119	-0.0027737	-0.000175347	
-0.00594995	0.0194537	-0.00635768	
-0.00821156	0.026535	-0.00581014	
-0.00706743	0.0118199	-0.0101458	
-0.00633755	0.00870491	-0.0067795	
0.00181377	-0.00749044	0.00389521	
0.000374136	-0.00476756	0.0025179	
-0.000553373	0.00223402	-0.00116893	
-0.00141276	8.3668e-05	0.00364286	
-0.000182094	-0.000187647	-0.00246058	
-0.0205576	0.0293336	-0.0243836	
-0.00890618	0.0249998	-0.0147648	
0.00128706	-0.0025145	-0.00170384	
0.000907592	-0.003947	0.00173329	
0.000629737	-0.00375267	0.00188245	
8.38049e-05	-0.00336548	0.00113878	
-0.00184804	0.00704299	-0.00323154	
-0.000259134	0.000163731	0.000204031	
-0.00020034	-0.000139017	-0.000132475	
-0.000119843	-0.000170861	-3.45797e-05	
0.000157778	-9.03632e-05	-0.000319884	
-0.000684368	-0.00150074	-0.000174588	
0.0300186	-0.0601495	0.0227289	
0.00336158	-0.00426479	-0.000932463	
-0.00117202	-0.00149223	-0.00251644	
-0.00454537	0.0168949	-0.00580542	
-0.000403105	-0.000584179	-0.0005267	
0.000103929	-0.00211381	-0.00224286	
0.000347545	-0.000220581	-0.00051877	
0.0114944	-0.00731978	0.00246787	
2.9932e-05	-0.00176517	-0.00137261	
-0.000125355	-0.000772828	-0.000791851	
-3.44702e-05	-0.000225514	-0.000312053	
0.000231621	-6.30833e-05	-0.000395994	
-0.00254681	0.00355025	0.00576864	
0.00692104	-0.0212002	-0.0147341	
-0.00541222	-0.000538047	0.0348057	
0.00575779	-0.00113932	-0.010229	
0.0076889	-0.00137138	-0.01233	
0.0117527	-0.00314227	-0.0217001	
0.001196	0.00219389	-0.00791468	
0.00731566	-0.0010787	-0.0115742	
0.00449801	0.000570945	-0.0154475	
0.00847067	-0.00154951	-0.0132861	
0.0129894	-0.00227236	0.0464447	
0.000876382	-0.00354143	0.00535888	
0.00147286	-1.77727e-05	0.0291639	
0.000631949	0.00292444	0.00254732	
0.00368679	0.000645308	-0.0118796	
0.00112731	0.0026358	-0.00667014	
0.000784161	0.00343819	-0.00257966	
-0.000939585	0.00239895	-0.0016227	
0.00869478	0.000991972	0.0332736	
0.00414643	-0.00742465	0.0105377	
0.00248468	-1.9027e-05	0.034052	
-0.000109728	-9.20894e-05	8.25503e-05	
0.00442467	-0.00457702	0.0117096	
0.000140787	-7.69526e-05	5.8139e-05	
-0.00220156	-0.000741116	0.025186	
-1.23041e-05	0.000252283	-9.22953e-05	
-0.000730784	0.00356689	6.90761e-05	
0.000854894	0.00145774	-0.000108863	
-0.00258325	0.00266059	0.0106443	
-0.000673575	0.00160228	-0.00127565	
-0.00156488	0.000466309	0.0129812	
0.00149243	0.003406	-0.00559306	
0.000373426	-0.000387889	-0.000189982	
-0.000151865	0.00338389	-0.000850994	
0.00105613	0.00263387	-2.74183e-05	
0.00103502	0.00067805	-0.000337098	
0.00107642	0.00205749	6.10268e-05	
-0.00460051	-0.0126735	-0.00325467	
-0.026514	-0.0524595	-0.161772	
-0.00350268	-0.00612066	-0.000487317	
0.00277522	0.00561579	0.0025747	
-0.00151352	-0.00278484	0.000475963	
0.00618088	0.0131919	0.00879478	
-0.00961804	-0.0235982	-0.00789646	
0.00462763	0.00901039	0.00455498	
-0.00226862	-0.00702935	-0.00391422	
0.00100562	0.00110202	0.00598226	
0.00154403	0.00335823	0.00421422	
-0.0049422	-0.00406861	-0.0126954	
0.00522169	0.0094153	0.00510679	
-0.000368513	-0.00192176	0.000657153	
0.00553458	0.0107313	0.00587103	
0.00516676	0.00873276	0.00416343	
0.000451212	-0.000328777	0.00192809	
-0.00495818	-0.0157216	-0.00949631	
-0.00216574	-0.0051752	-0.00225022	
-0.000360826	-0.00118753	0.00161327	
-0.000220955	0.000569247	-0.00032831	
0.000394769	-0.000514949	0.000688366	
0.000517084	0.000425787	-0.000322678	
-0.00010941	-0.000341399	0.00183794	
-7.48921e-05	0.000124269	-0.000293157	
0.0118722	0.0213407	0.01261	
0.00541937	0.00854718	0.00331841	
0.0105617	0.0166401	0.00569341	
0.0126863	0.025451	0.0111806	
-0.000433744	7.56449e-06	0.00161827	
2.44369e-05	-7.36343e-06	-0.000122566	
-0.00043861	0.000111802	0.00198674	
0.00306901	0.0055198	0.00221995	
0.000117207	3.51879e-05	-0.000522734	
-4.3544e-05	-0.000326195	0.00161229	
3.31073e-05	-0.000579572	0.00168959	
-0.000177125	-0.0002507	0.00230121	
0.0276587	-0.0136845	0.0156635	
0.00560237	0.00650561	-0.0256245	
-0.00784836	0.0217344	-0.00571931	
0.00137869	-0.00286533	0.00055401	
-0.00593494	0.0199214	-0.0061572	
-0.00908357	0.0267026	-0.00598191	
-0.00468882	0.0135952	-0.00961381	
-0.00435256	0.0101622	-0.00682598	
0.00160729	-0.00704243	0.00422583	
0.000405686	-0.00431679	0.00286399	
-0.000618253	0.00246053	-0.000900427	
0.000337235	-0.000174592	0.00366277	
-2.2115e-05	-0.000190123	-0.00250415	
-0.0154576	0.0342495	-0.0238883	
-0.0122621	0.0237275	-0.0155468	
0.000657292	-0.00251417	-0.00166113	
0.00091743	-0.00356057	0.00204685	
0.000641717	-0.00337472	0.00215411	
0.00013386	-0.00301224	0.00154964	
-0.00175772	0.00742004	-0.00305819	
-2.08446e-05	-0.000131419	-6.66959e-05	
8.17531e-05	5.40202e-05	5.36746e-05	
8.77062e-05	1.39566e-05	3.51258e-06	
5.96788e-05	-3.68601e-05	-0.000124237	
-0.000771513	-0.00137046	-5.24288e-05	
0.0316796	-0.0600042	0.0206927	
0.00226389	-0.00496065	-0.000492876	
-0.000503087	-0.00168438	-0.00219727	
-0.00613333	0.0164484	-0.00658998	
-0.000414613	-0.000742999	-0.000615293	
-3.02907e-05	-0.00210117	-0.00217832	
0.000379117	-0.00023124	-0.000570388	
0.0094173	-0.00853536	0.00494112	
-0.000103224	-0.00173396	-0.00125613	
-0.000154784	-0.000729217	-0.000850025	
6.90118e-06	4.45737e-05	6.1593e-05	
0.000157586	-4.46665e-05	-0.000281978	
-0.00290795	0.00336633	0.00559561	
0.00669023	-0.0200634	-0.0140941	
-0.00584825	-0.000516484	0.0355164	
0.00611376	-0.00118723	-0.0105191	
0.00759847	-0.00134939	-0.0129113	
0.0102802	-0.00367104	-0.0232199	
0.00226956	0.0019622	-0.00764597	
0.00672361	-0.00129182	-0.0125329	
0.0060576	0.000417586	-0.0150224	
0.00738143	-0.00196339	-0.0145466	
0.0134041	-0.00211682	0.0472756	
0.00129798	-0.00324529	0.00613761	
0.00147908	0.000273521	0.0296259	
-0.000195742	0.00393629	0.00265967	
0.00431801	0.000156526	-0.011772	
0.00192146	0.0022761	-0.0064426	
0.000978275	0.00336313	-0.00286152	
-0.000994043	0.00254392	-0.00171535	
0.00898096	0.00120971	0.0338868	
0.00378526	-0.00740027	0.0109361	
0.00256504	0.000450806	0.0349581	
-1.14289e-05	-8.89663e-05	0.000123534	
0.00454949	-0.00478372	0.0121556	
6.21485e-05	3.57866e-05	0.000129438	
-0.00223284	-0.000422124	0.0258988	
-9.07411e-06	0.00012325	-4.88218e-05	
-0.000711121	0.00322111	0.00017399	
0.000925864	0.00156841	-0.000123364	
-0.0027342	0.00265623	0.0108882	
-0.000867508	0.00192204	-0.0015192	
-0.0015784	0.000686973	0.013539	
0.00168871	0.00320189	-0.00559142	
0.000338489	-0.000351229	-0.000170988	
-0.000120865	0.00309267	-0.00074422	
0.0011337	0.00283447	1.29362e-05	
0.00102711	0.000621899	-0.000314949	
0.00115891	0.00223717	7.1688e-05	
-0.00540811	-0.0126062	-0.00290989	
-0.00187255	-0.0498831	-0.17135	
-0.00293595	-0.00523095	-0.000380802	
0.00315038	0.00540837	0.00258721	
-0.00141797	-0.00268554	0.000295768	
0.00590084	0.012957	0.0084215	
-0.0111179	-0.0224648	-0.00757109	
0.00528808	0.00894508	0.00425239	
-0.00228279	-0.00728396	-0.00429486	
0.000356614	0.00194658	0.00534599	
0.00160041	0.00367315	0.00420662	
-0.00311302	-0.00704327	-0.011467	
0.00578069	0.00942312	0.00485439	
-0.000369389	-0.00149257	0.000529823	
0.00605224	0.011341	0.00589074	
0.00524857	0.00891029	0.00415676	
0.00044286	-0.000177614	0.00175869	
-0.00456965	-0.0154543	-0.00999052	
-0.00260466	-0.004603	-0.002989	
-0.000397849	-0.00127115	0.00119848	
0.000368062	0.000208577	-0.000149353	
0.000314795	-0.000491829	0.000646205	
0.000539382	0.000189679	-0.000192239	
-9.6025e-05	-0.000310882	0.00166187	
-6.43258e-05	0.000105755	-0.000248811	
0.0121393	0.0215154	0.0122825	
0.0052635	0.00882829	0.00338388	
0.0102478	0.0170541	0.00592403	
0.0125572	0.0250618	0.0107708	
-0.0003546	2.35436e-05	0.00135279	
1.26707e-06	-1.11132e-06	-8.51833e-06	
-0.000373305	0.000100584	0.00172454	
0.00323912	0.0054364	0.00239796	
6.50404e-05	1.66028e-05	-0.000283441	
-2.48482e-05	-0.000256932	0.00130795	
3.64195e-05	-0.000539638	0.00159141	
-0.0001422	-0.000207077	0.00192018	
0.0263475	-0.0142335	0.0185352	
0.0057292	0.00660937	-0.0256459	
-0.00785282	0.0220663	-0.00560884	
0.00137855	-0.00289297	0.00117947	
-0.00601468	0.0200314	-0.00623347	
-0.0090402	0.0269082	-0.00627337	
-0.00579277	0.0132053	-0.00992045	
-0.00526697	0.0097843	-0.0069952	
0.0016714	-0.00708947	0.00406882	
0.000398416	-0.00439707	0.00276878	
-0.0006228	0.00248639	-0.000983505	
0.000363387	-6.84718e-05	0.00369254	
-8.61804e-05	-0.000127416	-0.00222775	
-0.0182394	0.0338135	-0.0245909	
-0.0124594	0.0244053	-0.0152241	
0.000572171	-0.00228075	-0.00146492	
0.000903389	-0.0035912	0.00191135	
0.000654091	-0.00346378	0.00204028	
9.43363e-05	-0.00308917	0.00143164	
-0.00180194	0.00740576	-0.00313484	
2.06488e-06	9.15488e-06	5.11491e-06	
-8.37973e-06	-5.6816e-06	-5.59135e-06	
-5.61295e-06	-4.09576e-06	3.16512e-07	
6.32776e-05	-3.89087e-05	-0.0001313	
-0.000671363	-0.000955711	-3.31374e-06	
0.0335772	-0.0583071	0.0207631	
0.00204593	-0.00479715	1.31047e-05	
-0.000159872	-0.00171987	-0.00164258	
-0.00614823	0.01673	-0.00641453	
-0.000276396	-0.000506999	-0.000434088	
-5.50415e-05	-0.001749	-0.00178627	
0.000249481	-0.000153964	-0.00038019	
0.00792689	-0.00891445	0.00628168	
-0.000160844	-0.00154852	-0.00109418	
-0.000128223	-0.000687919	-0.000785438	
-4.6955e-06	-3.14556e-05	-4.34746e-05	
0.000123729	-3.67622e-05	-0.000220764	
-0.00279617	0.00366365	0.00501021	
0.00547871	-0.0200899	-0.0133818	
-0.00490781	-0.00216253	0.0363498	
0.0061327	-0.000881131	-0.010896	
0.00728205	-0.00150816	-0.0134258	
0.0115613	-0.00429317	-0.0227891	
0.00257331	0.00141318	-0.00781089	
0.00643462	-0.00141406	-0.0127916	
0.00640403	-0.000211652	-0.0149148	
0.00723052	-0.0024233	-0.0145828	
0.0143093	-0.00244053	0.047453	
0.00160024	-0.00332198	0.00637832	
0.0020641	-0.000423192	0.0302443	
-0.00134133	0.00382325	0.0030126	
0.00490582	-0.000146309	-0.0116028	
0.00211082	0.00188065	-0.00671869	
0.000618664	0.00262707	-0.00168055	
-0.000647216	0.0017746	-0.0011998	
0.00951429	0.000949475	0.0341776	
0.00366092	-0.00754205	0.0110263	
0.00316385	-0.000186037	0.0355546	
-2.83706e-05	-4.3199e-05	4.94928e-05	
0.00469626	-0.00497395	0.0123888	
2.75801e-05	3.21233e-05	5.10149e-05	
-0.00163376	-0.00136416	0.0264304	
-4.9814e-05	0.00056743	-0.000238139	
-0.000729578	0.00316093	0.000332049	
0.000481404	0.000814061	-8.06238e-05	
-0.00253986	0.00132857	0.0114793	
-0.000580251	0.00129212	-0.00101935	
-0.00154571	-0.000287045	0.0140216	
0.00153645	0.00281931	-0.00537068	
0.000155324	-0.000153756	-8.56494e-05	
-0.000115343	0.0029258	-0.000700878	
0.000658842	0.00164397	-1.72796e-06	
0.00044003	0.000275569	-0.000150799	
0.000638123	0.00121956	2.17153e-05	
-0.00576748	-0.0125121	-0.00240786	
-0.00738579	-0.0506333	-0.174939	
-0.0027296	-0.00505178	-0.000560267	
0.00340755	0.00530451	0.0029405	
-0.00137818	-0.00274929	-8.08411e-05	
0.00572299	0.0129476	0.00813057	
-0.0108536	-0.0225354	-0.00717688	
0.00539404	0.00893363	0.00483148	
-0.00231886	-0.00741178	-0.00480301	
6.6857e-05	0.00151133	0.00508772	
0.0015174	0.00369711	0.0038429	
-0.0026778	-0.00531602	-0.0125872	
0.00580689	0.00934821	0.00560172	
-0.000243219	-0.00133969	0.000735746	
0.006051	0.0116856	0.00596436	
0.00535564	0.00881502	0.00488992	
0.000262723	-0.000245041	0.00115953	
-0.00451349	-0.0154376	-0.0101143	
-0.00267186	-0.00446169	-0.00327243	
-0.000318397	-0.00103564	0.000806482	
0.000245784	0.000145161	-0.000108442	
0.000227113	-0.000354776	0.000437855	
0.000364291	-8.41307e-05	7.62059e-05	
-7.51997e-05	-0.000266	0.00141399	
4.30235e-06	-6.83969e-06	1.66482e-05	
0.012106	0.0218404	0.0121971	
0.005345	0.00888473	0.0043053	
0.0101787	0.0173739	0.00683451	
0.0121954	0.0252884	0.0107566	
-0.000362089	3.2347e-05	0.00138416	
-0.00016412	3.8135e-05	0.000804487	
-0.000325666	9.39851e-05	0.00148935	
0.00326278	0.00544942	0.00293497	
-9.37638e-05	-2.47762e-05	0.000402374	
-3.14258e-05	-0.000248412	0.00132661	
3.07356e-05	-0.000428515	0.0012615	
-0.000118337	-0.000157068	0.00154801	
0.0249995	-0.0161476	0.0204077	
0.00550141	0.00743917	-0.0251418	
-0.00781752	0.0223489	-0.00554633	
0.00120512	-0.00304938	0.0013739	
-0.00604534	0.0201933	-0.00627462	
-0.00905479	0.0271032	-0.00639921	
-0.00608771	0.0136258	-0.00952536	
-0.00559053	0.0101682	-0.00648913	
0.00165462	-0.00697488	0.00406504	
0.000402315	-0.00428056	0.00284573	
-0.000641055	0.00255299	-0.000977172	
0.000510675	-0.000899511	0.0035181	
-0.000269395	0.000230421	-0.00171001	
-0.0186819	0.0349106	-0.0242866	
-0.0123653	0.0249269	-0.0150727	
0.00066213	-0.00192676	-0.00106598	
0.000901379	-0.00349744	0.00191189	
0.000651224	-0.00339857	0.00206	
0.000122432	-0.00302401	0.00147673	
-0.00181207	0.00749525	-0.00314072	
-1.93056e-05	-3.3606e-05	-1.43368e-05	
2.05217e-05	1.41623e-05	1.38716e-05	
2.42481e-05	3.75726e-07	-1.67258e-06	
5.11551e-05	-3.20829e-05	-0.00010681	
-0.000920662	-0.00114656	-1.37389e-06	
0.033544	-0.0580245	0.0208457	
0.0023171	-0.00423275	0.00036306	
-8.57717e-05	-0.0014914	-0.00132378	
-0.00606173	0.0169099	-0.00628836	
-0.000205497	-0.000382541	-0.000336058	
-2.00041e-05	-0.00135684	-0.00137246	
0.000193184	-0.000120997	-0.000297543	
0.00734212	-0.00903041	0.00680717	
-0.000173829	-0.00156474	-0.00111305	
-8.24296e-05	-0.000448108	-0.000518066	
-8.75051e-07	-6.05367e-06	-8.31653e-06	
0.000103118	-3.16306e-05	-0.00018528	
-0.0029749	0.00333349	0.00498354	
0.0053603	-0.0200532	-0.0123622	
-0.00409952	-0.00317853	0.0367564	
0.00643252	-0.00142732	-0.0108002	
0.00738667	-0.00190942	-0.0131307	
0.0119273	-0.00498392	-0.0227529	
0.00250435	0.000622067	-0.00721966	
0.0069421	-0.00214784	-0.012428	
0.00658171	-0.000955548	-0.0149819	
0.00775202	-0.00291156	-0.0142625	
0.0145465	-0.00262846	0.0476444	
0.00158807	-0.00341557	0.00650182	
0.00223156	-0.000888747	0.0305484	
-0.00129383	0.0045251	0.00232774	
0.00517658	-0.000929268	-0.0114733	
0.00193042	0.000734349	-0.00599444	
0.000610223	0.00102423	-0.00128553	
-0.000424987	0.00116817	-0.000795504	
0.00978622	0.000839499	0.0343276	
0.00340681	-0.00761035	0.0111167	
0.00335232	-0.000539324	0.0358209	
-2.38183e-06	-3.21144e-05	6.14145e-05	
0.00455813	-0.00515586	0.0125441	
1.43317e-05	4.46873e-05	3.51512e-05	
-0.00134709	-0.00189569	0.0265418	
-1.46753e-05	0.000142218	-6.04946e-05	
-0.000640601	0.00146274	0.00113985	
0.000267247	0.000451589	-4.77748e-05	
-0.00225717	0.000174666	0.0117457	
-0.00035242	0.00080439	-0.000626808	
-0.00149768	-0.000855159	0.0141853	
0.00148515	0.00103218	-0.00498567	
0.000111306	-0.000106779	-6.13057e-05	
-4.32509e-05	0.00110054	-0.000262913	
0.000295503	0.000749447	-9.37796e-06	
0.00027865	0.00017884	-9.84585e-05	
0.000289166	0.000564866	4.14132e-06	
-0.00646201	-0.0124921	-0.00278746	
-0.0153737	-0.0486395	-0.178009	
-0.00183767	-0.00344284	-0.000408344	
0.00344555	0.00535455	0.00213196	
-0.00117025	-0.00249147	-0.000574986	
0.00509614	0.0120399	0.00694811	
-0.0107621	-0.0214706	-0.0084123	
0.00525169	0.0093481	0.00335789	
-0.0023333	-0.00738804	-0.00520387	
-0.000502532	0.00121493	0.00542523	
0.00174767	0.00475999	0.00382751	
-0.00209415	-0.00442542	-0.0134138	
0.00612864	0.00962745	0.00405139	
-0.000264014	-0.000735217	2.45206e-05	
0.00660171	0.01243	0.00518653	
0.00591709	0.00892782	0.00328001	
0.000575797	0.000716178	0.00170658	
-0.00433816	-0.0157722	-0.010785	
-0.00261485	-0.00428116	-0.00384949	
-0.000711825	-0.00217987	-9.32398e-05	
0.000179556	0.000122803	-7.95644e-05	
0.00016662	-0.000255746	0.000304734	
0.000308355	-5.27429e-05	7.26089e-05	
-3.48674e-05	-0.000129939	0.000689022	
-0.000122563	0.00020015	-0.000470203	
0.0121432	0.0219318	0.0114725	
0.0058274	0.00880852	0.00253371	
0.0105773	0.0173055	0.00536748	
0.0116605	0.0244492	0.0093562	
-0.000144324	1.30587e-05	0.000559233	
0.000162437	-3.73313e-05	-0.000839259	
-0.000217073	6.23342e-05	0.000993549	
0.00345664	0.00555173	0.00189227	
0.000196155	5.03491e-05	-0.000878682	
-1.65793e-05	-0.000113015	0.000616142	
9.35229e-06	-0.000198236	0.000591095	
-9.70006e-05	-0.000134251	0.00130126	
0.0243476	-0.0163056	0.0210496	
0.00533552	0.0080719	-0.024842	
-0.00778891	0.0224916	-0.005433	
0.00184287	-0.00247927	0.00188598	
-0.00603894	0.0202222	-0.00626283	
-0.00910057	0.027212	-0.00638483	
-0.00615511	0.0139586	-0.00923779	
-0.00581643	0.0105848	-0.00619961	
0.00167471	-0.00692722	0.00402376	
0.000418647	-0.00427544	0.00281162	
-0.000650716	0.0025915	-0.000985287	
0.000499584	-0.00132964	0.00336042	
-0.00020998	0.000200323	-0.00136691	
-0.0187006	0.0358821	-0.0240759	
-0.0123864	0.0253508	-0.01496	
0.000395372	-0.00118614	-0.000705464	
0.0009006	-0.00345808	0.00187574	
0.000649717	-0.00339411	0.00203669	
0.000129171	-0.0030122	0.00147057	
-0.00182636	0.00753302	-0.00317302	
-9.99886e-06	-1.21552e-05	-5.38842e-06	
7.25523e-06	5.1177e-06	4.96175e-06	
9.42421e-06	-1.16108e-06	-9.97658e-07	
2.46091e-05	-1.60198e-05	-5.19357e-05	
-0.000133901	-0.000154965	-3.44028e-06	
0.0338828	-0.0575376	0.0208231	
0.00228559	-0.00408157	0.000464006	
0.00053176	-0.00173118	-0.000458242	
-0.00604555	0.0170896	-0.00615536	
-0.000123344	-0.000236585	-0.000210102	
-1.12021e-05	-0.00121583	-0.00126675	
9.61937e-05	-6.19475e-05	-0.000149633	
0.00729101	-0.00810921	0.00710797	
-4.33259e-05	-0.000448972	-0.000317324	
-5.28221e-05	-0.000313145	-0.000370137	
-1.74763e-06	-1.24832e-05	-1.71836e-05	
4.95539e-05	-1.60637e-05	-8.98369e-05	
-0.00305172	0.0031826	0.00498939	
0.00608388	-0.0202817	-0.0106884	
-0.00402007	-0.00320081	0.0369899	
0.00649953	-0.0015911	-0.0109327	
0.00757603	-0.00206422	-0.0132872	
0.0119303	-0.00490802	-0.023385	
0.00233061	0.000327699	-0.00676601	
0.00693443	-0.00198132	-0.0127955	
0.00631855	-0.0012465	-0.0146341	
0.00778698	-0.0027926	-0.014618	
0.014583	-0.00256827	0.0476934	
0.00159987	-0.00347631	0.0067618	
0.00233358	-0.000885611	0.0306928	
-0.000993246	0.00490325	0.00279813	
0.0050709	-0.000817758	-0.011864	
0.0017901	0.00042197	-0.00568416	
0.000578693	0.000953391	-0.00116072	
-0.000533239	0.00145114	-0.000989926	
0.00988875	0.000914254	0.0344378	
0.00309794	-0.00763954	0.0112677	
0.00340716	-0.000466437	0.0360623	
-4.68815e-05	-1.71758e-05	9.38016e-06	
0.00443783	-0.00527923	0.0126612	
-4.32509e-06	6.16078e-05	1.1229e-05	
-0.00132848	-0.00181863	0.0267046	
-5.09347e-06	4.34201e-05	-1.8668e-05	
-0.000632563	0.00124833	0.00135038	
0.00025155	0.000430529	-4.67946e-05	
-0.00224192	0.000112989	0.0118488	
-0.000451059	0.00102979	-0.000808601	
-0.00148777	-0.000795604	0.0142463	
0.00142509	0.000954696	-0.00494532	
0.00013875	-0.000127292	-7.35771e-05	
-3.61835e-05	0.000968481	-0.000226941	
0.000279474	0.000714366	-9.95577e-06	
0.000277764	0.000185184	-9.89034e-05	
0.000281017	0.000558714	1.98628e-06	
-0.00619077	-0.0125729	-0.00217957	
-0.00910122	-0.0572898	-0.179921	
-0.00196893	-0.00348503	-1.51388e-05	
0.0034868	0.00526991	0.00304429	
-0.00127755	-0.00253614	3.60518e-05	
0.00519158	0.0119778	0.00766283	
-0.0101989	-0.0220555	-0.00670507	
0.00543718	0.00916236	0.00540459	
-0.00241296	-0.00783332	-0.00506888	
-0.000409888	0.00173588	0.00493621	
0.0019206	0.00469886	0.00455503	
-0.00143507	-0.00446645	-0.013295	
0.00588975	0.00966825	0.00606893	
5.5691e-05	-0.000873235	0.00116817	
0.00636074	0.0124675	0.00619214	
0.0055519	0.00915522	0.00519515	
0.000652669	0.000543697	0.0019483	
-0.0044306	-0.0156523	-0.0105196	
-0.00254056	-0.00451918	-0.00370967	
-0.000819862	-0.00239459	0.000111751	
0.000326505	4.10713e-05	6.46169e-06	
0.000261533	-0.000404673	0.000497322	
0.000344931	-0.000161493	0.000167431	
-6.47995e-05	-0.000272397	0.00141486	
3.68648e-05	-6.03402e-05	0.000142779	
0.0120194	0.0219544	0.0120984	
0.00544428	0.0089977	0.00440018	