<VTKFile type="UnstructuredGrid" version="0.1" byte_order="LittleEndian">
	<UnstructuredGrid>
		<Piece NumberOfPoints="5106" NumberOfCells="5106">
			<CellData Scalars="scalars">
				<DataArray type="Float64" Name="Strength" NumberOfComponents="3" Format="ascii">
-0.00698326	-0.0157493	0.0127859	
-0.000548593	-0.0124104	-0.0279947	
-0.0205631	0.0683914	0.0116475	
0.00466989	-0.00680433	-0.00695342	
0.00597446	0.000442574	-0.0109623	
0.0104013	0.0555932	-0.0306656	
-0.00272645	0.0868793	-0.0274014	
0.00357552	0.018389	-0.0154555	
0.00311119	0.0844653	-0.0318076	
0.00468353	0.0326941	-0.0209289	
0.00504369	0.00510383	0.0447258	
0.00333698	-0.00441032	0.00138759	
-0.00931172	0.0387573	0.0176214	
-0.000227421	-0.000353249	-0.00257415	
0.000984166	0.0737925	-0.0284273	
-0.000668569	0.086604	-0.0225346	
0.000777764	0.0941373	-0.0157599	
-0.00599257	0.0658704	-0.0212043	
0.00139725	0.0115712	0.0292412	
0.00703489	-0.00958847	0.00812764	
-0.00620085	0.0317196	0.0243122	
-0.00180437	0.00152469	0.000504727	
0.00364009	-0.00532969	0.00952615	
-0.00208221	0.00106113	0.00104678	
-0.0141403	0.0473162	0.0116131	
-0.000627988	-0.0126231	0.00290441	
-0.0054279	0.0879478	-0.0185565	
0.00907106	0.0420163	0.00434632	
-0.00955721	0.086638	-0.00335484	
-0.00408958	0.0477243	-0.0153927	
-0.00246736	0.05397	0.00710099	
-0.000410103	0.0897917	-0.0151652	
-0.000621616	-8.07356e-05	0.000192863	
-0.00434268	0.0866463	-0.0144297	
0.00752861	0.0792247	0.00622308	
0.0120053	0.0183639	0.00108296	
0.00956392	0.0599173	0.00626669	
-0.0107738	-0.00507164	-0.0254766	
0.0543958	-0.116941	0.0458031	
-0.0168311	-0.00818169	0.0483384	
0.0014405	0.0113982	-0.0136828	
-0.00522058	-0.00770327	0.0545065	
0.0165606	-0.00924784	0.0653028	
-0.0139008	-0.0358699	0.0465533	
0.0129895	-0.0115667	0.0530416	
0.00603176	-0.0227286	0.0341371	
0.012538	0.00223083	0.0156746	
0.000944333	-0.0151679	0.0557532	
0.00600374	0.00237624	-0.0239523	
0.00820293	-0.00661791	0.0480716	
0.00141888	-0.0115881	0.0257051	
0.00338064	-0.00119334	0.0549005	
0.00557036	-0.0026995	0.040028	
0.00628439	-0.024208	0.0443935	
0.00177245	-0.0152384	0.0304196	
0.012196	-0.0136807	0.00762713	
0.00308563	-0.0151664	0.0557186	
0.0189344	0.0199202	-0.00186595	
0.00670939	-0.0227953	0.0100441	
0.0162512	-0.0015777	0.0111469	
-0.00265666	-0.014078	0.0576722	
-0.00336036	0.00829439	-0.0204262	
0.0171377	0.0115606	0.0392293	
0.00548619	7.2254e-08	0.0314077	
0.00978203	0.011338	0.0171449	
0.0283967	-0.00123373	0.0725182	
-0.00307599	-0.00606003	0.0402794	
-0.000170778	-0.00422426	0.0185494	
-0.0015989	-0.00568191	0.0443239	
0.00271854	0.00887325	-0.0104043	
0.00012982	0.00128685	-0.00469139	
0.00134121	-0.0063371	0.0242444	
0.00345512	-0.0215669	0.0520116	
-0.00189317	-0.0112477	0.0509944	
0.0187336	-0.0556946	-0.0113079	
0.00246106	0.0226203	-0.0281751	
-0.00915006	0.000735178	-0.031436	
-0.0041005	-0.0325545	-0.0290796	
-0.00758644	0.014505	-0.0114607	
-0.0124438	0.0123101	-0.0231044	
-0.00121937	-0.0162084	-0.0509009	
0.00186788	-0.0245081	-0.0527264	
0.00187494	-0.00936124	0.00283568	
-2.19271e-05	-0.00717048	0.00161221	
-0.00031829	0.000156063	-0.00355586	
-0.00112257	0.00190683	0.00639141	
0.00468208	-0.0378352	-0.0576285	
-0.0181734	-0.00443864	-0.0475229	
-0.0239461	-0.0173515	-0.0430811	
0.00246522	-0.0452211	-0.0555115	
0.000855703	-0.00483393	0.00117289	
0.00042617	-0.00601022	0.000203436	
0.000806454	-0.00547821	-0.000495913	
-0.00184884	0.00474789	-0.00507285	
-0.000837004	0.000495692	0.00358495	
-0.00137507	-0.00201236	-0.00187821	
-0.00138879	0.00145276	0.00196574	
0.00253088	-0.00494024	-0.0093602	
-0.010384	-0.0384187	-0.0302838	
0.0446807	-0.0746919	-0.00936957	
0.00493536	-0.0479822	-0.0523013	
-0.00253336	-0.0442948	-0.0533542	
-0.00497389	-0.004702	-0.0342399	
-0.0099886	-0.0410644	-0.0415907	
0.00232068	-0.044832	-0.0515837	
0.00808109	-0.0180814	-0.0372113	
0.0104104	-0.0457647	-0.0361651	
0.00157814	-0.0529598	-0.0576133	
-0.000347559	-0.0119198	-0.0131826	
9.27265e-07	6.94025e-06	8.83687e-06	
0.00557813	-0.00850723	-0.0198505	
-0.00276058	0.00268959	0.00630153	
-0.00911108	-0.01174	-0.0257281	
-0.0130043	0.00497687	0.0307428	
0.00494376	0.000188011	-0.0102935	
0.00657599	0.00161872	-0.0126281	
0.0159118	0.00858391	-0.0182253	
0.00427465	0.0112978	-0.00743433	
0.0064831	0.0041338	-0.0119209	
0.0104977	0.0119045	-0.012263	
0.00852235	0.00584519	-0.0133482	
0.0111123	0.00122945	0.0449779	
0.00159727	-0.00258737	0.00407508	
0.000982212	0.00183242	0.0277529	
0.00120506	0.000368983	0.00183327	
0.00741784	0.0108173	-0.0103911	
0.00393948	0.0111932	-0.0064905	
0.00172466	0.01072	-0.0031198	
-0.00123085	0.00960423	-0.00389333	
0.00671667	0.00262816	0.0321897	
0.00472122	-0.0039027	0.0115441	
0.00292976	0.00250586	0.0322744	
-0.000170063	6.06163e-07	9.58105e-05	
0.00426073	-0.00209143	0.0110975	
-0.000184745	1.76766e-05	0.000364296	
-0.00430451	0.00396054	0.0234656	
5.83844e-06	0.000189862	-4.61351e-05	
-0.00127845	0.0106863	-0.0020263	
0.00166603	0.00529986	-0.000182855	
-0.00589875	0.00775613	0.008272	
-0.000982212	0.00754143	-0.00297647	
-0.0026503	0.00479255	0.0116803	
0.0033294	0.00992721	-0.00504484	
0.00127938	0.000101858	-0.00045152	
-0.000183811	0.00990506	-0.00202915	
0.00188664	0.00843665	0.000425983	
0.00138378	0.00231384	-0.000534239	
0.00185688	0.00685079	0.000198861	
-0.00478143	-0.0117375	-0.00473361	
-0.0420728	-0.0997289	-0.114826	
-0.00661876	-0.00823217	0.00315198	
0.00243676	0.00622961	0.00159836	
-0.00215972	-0.00376042	0.00494824	
0.00836134	0.0126087	0.0143686	
-0.0187637	-0.0202888	-0.0042073	
0.00786321	0.00526855	0.00685909	
-0.00049096	-0.00810432	0.000256658	
-0.000237114	0.00303393	0.0062469	
0.00111892	0.00111677	0.00760598	
-0.0037523	-0.00577792	-0.0111379	
0.00784538	0.00599699	0.00719518	
-0.000976841	-0.00344339	0.00394622	
0.00631454	0.00735434	0.00975908	
0.00678561	0.0060923	0.00627503	
0.000588057	-0.00243878	0.005031	
-0.00429039	-0.01542	-0.00728373	
-0.00147871	-0.00562167	-0.000878857	
0.000184504	-0.000961361	0.0068305	
-0.00182077	0.00126048	-0.000975345	
0.00105805	-0.0015931	0.00228287	
-2.98069e-05	0.0017861	-0.00152493	
-0.000105431	-0.00145839	0.00607218	
-0.000232592	0.00054688	-0.00132772	
0.0151662	0.0185627	0.0163896	
0.00639824	0.00658291	0.00528199	
0.0107293	0.0148724	0.00766411	
0.0185439	0.0221223	0.01675	
-0.000812308	-0.000456972	0.00581138	
-3.44162e-05	-0.000139038	0.000779731	
-0.000610061	-0.000325936	0.00683547	
0.00274907	0.00574534	0.00141672	
5.46011e-05	0.000224662	-0.000916229	
0.00015812	-0.00120427	0.00595042	
0.000256488	-0.00187603	0.0057314	
-0.000144357	-0.00123213	0.00731964	
0.0253173	-0.0181535	0.0115909	
-0.00111557	0.0116832	-0.0226593	
-0.00903946	0.0192534	-0.0087508	
0.000787073	-0.00555002	-0.00340836	
-0.00521502	0.01937	-0.00736229	
-0.00879297	0.025106	-0.00918708	
-0.00947863	0.00663747	-0.0133164	
-0.00746888	0.00338434	-0.0104433	
0.0013562	-0.00628178	0.00514038	
0.000496407	-0.00346324	0.00353015	
-0.000582029	0.00266719	-0.000283778	
0.000386138	-0.000730429	0.00341271	
0.00011217	-0.00391212	-0.00718745	
-0.0255212	0.0200582	-0.0260686	
-0.0169105	0.019715	-0.014492	
0.00190256	-0.00672718	-0.00651581	
0.000992527	-0.00286371	0.00308711	
0.000688541	-0.00252162	0.00291193	
0.000629102	-0.00220336	0.00236411	
-0.00142107	0.00783166	-0.00280209	
-0.00112489	0.000321435	0.000396664	
0.000542854	0.000641351	0.000645555	
0.000218799	-0.000541962	0.00056037	
-0.000116787	0.000200636	0.000402386	
-0.0013639	-0.00429837	-0.00285203	
0.041344	-0.0536728	0.0219847	
0.00384069	-0.00837788	-0.00571117	
-0.00165846	-0.00529436	-0.00737341	
-0.00811104	0.0139596	-0.00829816	
-0.000565264	-0.00202926	-0.00197945	
0.000370373	-0.00651298	-0.00705576	
0.000481469	-0.000710213	-0.00128791	
0.0113991	-0.0114484	-0.00145992	
0.00017805	-0.00496864	-0.00503818	
-0.000294152	-0.00303076	-0.00287004	
8.22668e-05	0.000775314	0.000989186	
4.98029e-05	-6.50341e-05	-0.000153421	
-0.00287912	0.00282872	0.00612813	
-0.00712569	-0.0121641	-0.0242377	
-0.00360118	0.00119191	0.0341009	
0.00541005	-0.000577737	-0.0101797	
0.00714711	-0.000377126	-0.0122323	
0.0136385	-0.000698619	-0.0194999	
0.00259608	0.0018679	-0.00703585	
0.00707849	0.00033982	-0.011201	
0.00713141	0.000743147	-0.013778	
0.00857504	0.000378823	-0.0126519	
0.010616	0.000148105	0.0459285	
0.00183112	-0.00301682	0.00463715	
0.00172531	0.00102723	0.0285306	
0.00106894	0.000390012	0.00269485	
0.00564128	0.00101225	-0.0104438	
0.00192983	0.00196143	-0.00623004	
0.000622151	0.00267808	-0.0030276	
-0.000371445	0.00250485	-0.00123887	
0.00593863	0.00233174	0.0330278	
0.00545202	-0.00502512	0.0110041	
0.00308544	0.000872605	0.0333133	
-0.000179052	1.07131e-05	5.67124e-05	
0.00458721	-0.00289421	0.0115452	
-3.74739e-05	8.38469e-06	0.000156498	
-0.00189835	0.000266924	0.0244466	
8.07343e-07	6.97357e-05	-1.73229e-05	
-0.000475529	0.00298237	0.000174253	
0.000511498	0.00162866	-0.000166396	
-0.00128996	0.00262598	0.0103957	
-0.000301587	0.00193248	-0.000914097	
-0.00121473	0.00107676	0.0123997	
0.00108207	0.00232915	-0.00567093	
0.000528263	6.89126e-05	-0.000195331	
-3.26575e-05	0.00268508	-0.0007767	
0.00051267	0.00236791	-0.000270962	
0.000587934	0.00103559	-0.0002739	
0.000558284	0.00202164	-0.00017237	
-0.00487099	-0.012114	-0.00384316	
-0.0322643	-0.0850844	-0.137808	
-0.00339379	-0.00774355	-0.000916793	
0.00272993	0.00570419	0.00261287	
-0.00145775	-0.00292083	0.000416652	
0.00634383	0.0136811	0.0093748	
-0.0132115	-0.0223459	-0.00801942	
0.00564565	0.00804571	0.00411652	
-0.00181124	-0.00696566	-0.00350966	
0.000975955	0.00250411	0.005554	
0.00120277	0.0029171	0.00374525	
-0.00467279	-0.00460694	-0.0127138	
0.00621737	0.00848925	0.0045346	
-0.000762753	-0.00220749	0.000768931	
0.00478388	0.0101244	0.00583275	
0.00583817	0.00785235	0.00395401	
0.000217966	-0.000613289	0.00162143	
-0.00414663	-0.0152404	-0.00984385	
-0.00193396	-0.00479523	-0.00291457	
-7.40093e-05	-0.000525938	0.00198261	
-0.00024482	0.000461142	-0.0003977	
0.00032355	-0.000462954	0.000666522	
0.00063005	5.6649e-06	-0.000353304	
-4.15641e-05	-0.000375206	0.00182823	
-7.3345e-05	0.000171483	-0.00039849	
0.010995	0.0218837	0.0120436	
0.00577895	0.00777739	0.00356106	
0.010567	0.0155247	0.0070885	
0.0109688	0.0263999	0.0120802	
-0.000247447	-0.00014659	0.00190201	
1.01646e-05	2.34288e-05	-0.000175924	
-0.000198613	-8.72636e-05	0.00227482	
0.00290545	0.00545716	0.00232499	
4.2669e-05	0.000120211	-0.000534697	
7.28964e-05	-0.000363449	0.00202056	
6.89344e-05	-0.000517595	0.00161311	
-6.87076e-05	-0.000365344	0.0023977	
0.0253772	-0.0154283	0.0154606	
-0.00155309	0.0128898	-0.0248012	
-0.00668793	0.0205693	-0.00839138	
0.00151182	-0.0027148	-0.000354257	
-0.00572397	0.0187751	-0.00804143	
-0.00808241	0.0253446	-0.00946649	
-0.00749206	0.0111078	-0.0104707	
-0.00617022	0.00802658	-0.00757981	
0.00156113	-0.00744496	0.00400413	
0.00073777	-0.00446263	0.00291334	
-0.000559588	0.00213459	-0.00131586	
0.00127757	-0.00247007	0.00263952	
-0.000265849	-0.000713752	-0.00233883	
-0.0195958	0.0291037	-0.0249991	
-0.0102654	0.0233003	-0.0162606	
0.0011446	-0.00284669	-0.00115158	
0.000849729	-0.00390236	0.00181175	
0.000600148	-0.00371449	0.00192413	
0.000440106	-0.00320021	0.00144245	
-0.0017301	0.00685088	-0.0035983	
0.000366595	8.73147e-06	4.17491e-05	
-0.000133298	-0.000171232	-0.000170936	
-4.49901e-05	0.000190652	7.35794e-05	
9.26442e-05	-0.000153384	-0.000319222	
-0.000475099	-0.00138111	-0.000761671	
0.028043	-0.0553641	0.0336057	
0.0029325	-0.00461784	-0.000156839	
-0.000998992	-0.00135673	-0.00263923	
-0.00566854	0.015542	-0.00791276	
-0.000191644	-0.000625926	-0.000586818	
0.000128923	-0.00220213	-0.00212594	
0.000198776	-0.000332632	-0.000532502	
0.0103366	-0.00831786	0.00360777	
7.94491e-05	-0.00165105	-0.00148439	
-5.7564e-05	-0.000799738	-0.000763735	
-2.61353e-05	-0.000233026	-0.000305167	
0.000135545	-0.000168701	-0.000406639	
-0.00296101	0.00299348	0.00582189	
-0.00423689	-0.0120407	-0.0233406	
-0.00567286	0.00110646	0.0345742	
0.00565257	-0.000515464	-0.0102483	
0.0072119	-0.000614594	-0.0125639	
0.011451	-0.00223158	-0.0218098	
0.00192583	0.00217638	-0.00772784	
0.0068386	-0.000277298	-0.0118067	
0.00533467	0.00047005	-0.0150919	
0.00796879	-0.000510486	-0.0135583	
0.0114099	-0.000449562	0.0466734	
0.00199567	-0.00306239	0.00531682	
0.00193643	0.000930459	0.0289791	
0.00102176	0.00186988	0.00326255	
0.00443164	0.000736797	-0.0115443	
0.00167179	0.002569	-0.00653973	
0.000706266	0.00335576	-0.00267138	
-0.000408406	0.00267437	-0.00135669	
0.00614475	0.00207742	0.0336189	
0.00564802	-0.00531512	0.0110221	
0.00330979	0.000777516	0.0338076	
-0.000141452	8.20521e-05	-2.34638e-05	
0.00490655	-0.0030598	0.0119362	
-2.19912e-05	6.60776e-05	0.000153887	
-0.00147375	0.000152872	0.0251282	
1.24073e-06	0.000259143	-6.47741e-05	
-0.000543758	0.00357805	0.000115477	
0.000478389	0.00160712	-0.000169183	
-0.00241923	0.00299835	0.0105329	
-0.00030664	0.00189567	-0.00095005	
-0.00133179	0.00107823	0.0129074	
0.00142479	0.00328458	-0.00564261	
0.000528206	6.57919e-05	-0.000200489	
-9.6587e-05	0.00338264	-0.000782491	
0.000590863	0.0027508	-0.000232227	
0.000618015	0.00107929	-0.000287686	
0.000599393	0.00222864	-0.000123394	
-0.00537165	-0.012125	-0.00373983	
-0.0272653	-0.0891815	-0.143845	
-0.00321935	-0.0061947	-0.000838067	
0.00295542	0.00543677	0.0026421	
-0.00143295	-0.00281441	0.000441404	
0.00594932	0.0129202	0.00918616	
-0.0114947	-0.0223965	-0.00835211	
0.00509705	0.00859737	0.00468846	
-0.00204678	-0.00714875	-0.0037349	
0.000446109	0.00244471	0.00561781	
0.00143922	0.00337312	0.00420537	
-0.0035188	-0.00572012	-0.0124724	
0.00552504	0.00920568	0.00499644	
-0.000562712	-0.00186918	0.000635819	
0.0055309	0.010227	0.00657619	
0.00527988	0.00855498	0.00420525	
0.000373387	-0.000271141	0.00194556	
-0.00462167	-0.015493	-0.0098697	
-0.00208854	-0.00499268	-0.00263641	
-0.000309161	-0.00119784	0.00160535	
-0.000185627	0.000535942	-0.000395106	
0.000336754	-0.000506151	0.000720177	
0.000657099	6.54329e-05	-0.000332907	
-3.37618e-05	-0.000399807	0.00182062	
-5.52954e-05	0.000132109	-0.00029202	
0.0116099	0.0209753	0.0131347	
0.00541488	0.00831936	0.00366577	
0.0104628	0.0160235	0.00700268	
0.0124834	0.0244446	0.0130703	
-0.000192795	-0.000218278	0.00164166	
6.4723e-06	1.53402e-05	-0.000123276	
-0.000190296	-0.000202265	0.00200914	
0.00308228	0.00539374	0.0023719	
4.49814e-05	0.000109495	-0.000520259	
5.54953e-05	-0.000371775	0.00159363	
5.09507e-05	-0.000564233	0.00168679	
-5.32066e-05	-0.000411715	0.00227328	
0.0242921	-0.0158975	0.018366	
-0.00115358	0.0120489	-0.0240239	
-0.00719444	0.0210317	-0.00817627	
0.00154561	-0.00279267	0.000290966	
-0.00571098	0.0192221	-0.00796478	
-0.00834199	0.0258004	-0.00937452	
-0.00635794	0.0121545	-0.0103704	
-0.00501157	0.0089224	-0.00787788	
0.00144676	-0.00701301	0.00425873	
0.000677797	-0.00412671	0.00304473	
-0.000596593	0.00238087	-0.00107491	
2.76398e-05	-0.00224365	0.00286599	
-0.000175379	-0.000733076	-0.00237982	
-0.0185205	0.0318426	-0.0245528	
-0.0120794	0.0237406	-0.015347	
0.000719244	-0.00272161	-0.0012104	
0.000851138	-0.00351206	0.00211939	
0.000633716	-0.0033455	0.00216798	
0.000465707	-0.00287578	0.00170371	
-0.00167955	0.00721619	-0.00346238	
-0.000133551	5.67521e-05	3.52077e-05	
5.30189e-05	6.84207e-05	6.98174e-05	
2.0774e-05	-8.36274e-05	1.7587e-05	
3.52598e-05	-6.03746e-05	-0.000123527	
-0.000487209	-0.00133888	-0.000641375	
0.0296032	-0.0573463	0.0285024	
0.00233646	-0.00490894	0.000135055	
-0.000341626	-0.00171208	-0.00218305	
-0.00631859	0.0158117	-0.00761937	
-0.000220105	-0.00071549	-0.000728359	
0.000113248	-0.00220612	-0.00203986	
0.000209539	-0.000335195	-0.000600435	
0.00895652	-0.00868449	0.00526142	
5.94606e-05	-0.0016392	-0.00135797	
-4.1992e-05	-0.000761017	-0.000826425	
4.97754e-06	4.62392e-05	6.011e-05	
9.47528e-05	-0.000115632	-0.000287899	
-0.00316813	0.00274552	0.00572665	
-0.00378142	-0.0120669	-0.0218937	
-0.00584527	0.00103136	0.0353258	
0.0059774	-0.000440305	-0.0105622	
0.00736165	-0.000445492	-0.0129989	
0.0111734	-0.00159686	-0.0228773	
0.0024831	0.0025398	-0.00735897	
0.00675456	-0.000171732	-0.0124787	
0.00623478	0.00173302	-0.0147624	
0.00762914	-0.000431665	-0.0144312	
0.0117775	-0.0005359	0.0475086	
0.00215072	-0.00321565	0.00587229	
0.00209706	0.00115122	0.0294224	
4.72944e-05	0.0029276	0.0036674	
0.00466624	0.00143091	-0.0114776	
0.00199853	0.00267814	-0.00622056	
0.00083266	0.00329237	-0.00295237	
-0.000439835	0.00289502	-0.00130494	
0.00624792	0.00211637	0.0342799	
0.00582583	-0.00539934	0.0111283	
0.00341832	0.00108893	0.0347018	
-9.57413e-05	8.76512e-05	-5.27216e-05	
0.00516984	-0.0032366	0.0123392	
3.71226e-05	5.14529e-05	0.000132762	
-0.0014014	0.000465958	0.0258314	
-5.85838e-07	0.000128058	-3.21416e-05	
-0.000614275	0.00320744	0.000351504	
0.000505841	0.00173446	-0.000190413	
-0.00254747	0.00300654	0.0107813	
-0.00037138	0.00230184	-0.00111095	
-0.00126865	0.00130009	0.0134601	
0.00149507	0.00312696	-0.00564917	
0.000476981	6.0824e-05	-0.000184314	
-8.66701e-05	0.00309567	-0.000656643	
0.000616929	0.00296535	-0.000219183	
0.000628984	0.00102481	-0.000284681	
0.000642769	0.00242048	-0.000131131	
-0.00587162	-0.0120899	-0.00366134	
-0.0259179	-0.0902013	-0.150868	
-0.00273657	-0.00526921	-0.000702278	
0.00315163	0.00526688	0.00275668	
-0.00135279	-0.00270511	0.000264204	
0.00575179	0.0126459	0.00882996	
-0.012038	-0.0211568	-0.00922935	
0.00547124	0.00842304	0.00486628	
-0.00214223	-0.00741406	-0.0040578	
0.000272827	0.00353697	0.00443157	
0.00151297	0.00367573	0.00420104	
-0.00136239	-0.00766522	-0.0113439	
0.00580381	0.0091005	0.00524008	
-0.000478653	-0.00148017	0.000442973	
0.00592248	0.0108227	0.00676199	
0.00542906	0.00855464	0.00446908	
0.000364052	-0.000122442	0.00177428	
-0.00450135	-0.0153603	-0.0100136	
-0.00229637	-0.00484272	-0.00280992	
-0.000345181	-0.00128268	0.00119079	
0.000406007	0.000152536	-0.000108387	
0.000289047	-0.00046214	0.000675373	
0.000571011	-0.000183329	-4.10704e-06	
-2.50941e-05	-0.00036634	0.00164578	
-4.69766e-05	0.000115006	-0.00024681	
0.0116794	0.0210789	0.0131287	
0.00544655	0.00840926	0.00389754	
0.0105221	0.0161668	0.0072917	
0.0122746	0.0239969	0.0128782	
-0.000161957	-0.000189665	0.00136949	
2.01144e-07	7.75815e-07	-8.50884e-06	
-0.000162452	-0.000191912	0.00174121	
0.00319899	0.00530557	0.0026069	
2.42385e-05	5.90565e-05	-0.000282355	
3.8854e-05	-0.000331114	0.00128401	
4.59166e-05	-0.000527813	0.00158824	
-3.49614e-05	-0.000348453	0.00189568	
0.023395	-0.0159366	0.0205186	
-0.00108257	0.0121884	-0.0240352	
-0.00726617	0.0213198	-0.00817557	
0.00165854	-0.00283402	0.000845255	
-0.00576012	0.019314	-0.00809881	
-0.00823941	0.0259669	-0.00973558	
-0.0069669	0.0125874	-0.00978426	
-0.00558284	0.00922254	-0.00735526	
0.00144622	-0.00706988	0.00411332	
0.000679571	-0.00420403	0.00296374	
-0.000605787	0.00239731	-0.0011636	
-3.02857e-05	-0.00231871	0.00283472	
-0.000198738	-0.000488227	-0.00215621	
-0.0194301	0.0335219	-0.0235647	
-0.0122976	0.0243973	-0.0150246	
0.000639407	-0.00241153	-0.00116255	
0.000822756	-0.00355321	0.00197744	
0.000620955	-0.00343964	0.00205573	
0.000429021	-0.00296258	0.00159282	
-0.00170361	0.00720007	-0.0035439	
7.25523e-06	-6.80531e-06	-3.78003e-06	
-5.35465e-06	-7.08045e-06	-7.33262e-06	
-1.82849e-06	6.51173e-06	1.25345e-06	
3.66096e-05	-6.43694e-05	-0.000130554	
-0.000387665	-0.000995952	-0.000449846	
0.0291308	-0.0572082	0.0279769	
0.00220234	-0.00467074	0.000409811	
-1.44123e-05	-0.00171962	-0.00162748	
-0.0064364	0.0160365	-0.00752145	
-0.000148449	-0.000485918	-0.000508053	
7.95193e-05	-0.00179188	-0.00171861	
0.000136588	-0.000221797	-0.000400093	
0.00810334	-0.00877057	0.00605136	
4.4592e-05	-0.00145205	-0.00120902	
-5.08135e-05	-0.000679719	-0.000793483	
-3.51973e-06	-3.2587e-05	-4.24482e-05	
7.33877e-05	-9.35163e-05	-0.000224917	
-0.00298054	0.00306689	0.00523353	
-0.00241973	-0.0122894	-0.0212295	
-0.00535449	-0.000191273	0.0361662	
0.00612563	2.53328e-06	-0.0108419	
0.0073383	-0.000303909	-0.0133651	
0.0120879	-0.00101547	-0.0227296	
0.00269244	0.00206211	-0.00757752	
0.00675306	-3.04978e-05	-0.0126032	
0.00636328	0.00125214	-0.0147888	
0.00774783	-0.000511526	-0.0143952	
0.0125871	-0.00123565	0.0477402	
0.0023826	-0.00339656	0.00604557	
0.00258384	0.000388723	0.0300565	
-7.4552e-05	0.00310785	0.00393792	
0.00507731	0.00125709	-0.0113866	
0.00215474	0.00233719	-0.00651838	
0.000544387	0.00258276	-0.00174302	
-0.000320972	0.00204769	-0.00080675	
0.00656717	0.00157309	0.0346661	
0.00624078	-0.00551495	0.0109857	
0.00383931	0.000330543	0.0353128	
-1.42621e-05	4.64009e-05	-4.6371e-05	
0.00548305	-0.00352535	0.0124822	
2.91126e-05	3.12071e-05	5.04508e-05	
-0.000956534	-0.000396885	0.0263664	
-4.10395e-06	0.000594447	-0.000150601	
-0.000631868	0.00313865	0.000513751	
0.000259229	0.00090193	-0.00010826	
-0.00244861	0.00176361	0.0113793	
-0.00025828	0.00156689	-0.000696717	
-0.00115889	0.000334503	0.0139894	
0.00138562	0.00276381	-0.00540411	
0.000213926	3.28456e-05	-8.86697e-05	
-7.31321e-05	0.00293036	-0.000610493	
0.000358871	0.00171964	-0.000132867	
0.000269853	0.000447222	-0.000129758	
0.000351585	0.00132104	-8.35785e-05	
-0.0060606	-0.0120673	-0.00326694	
-0.0280386	-0.0965504	-0.151148	
-0.0025753	-0.0050491	-0.0008986	
0.00334013	0.00516004	0.00315879	
-0.00132869	-0.00275547	-0.000117385	
0.00564374	0.0125837	0.00858648	
-0.011887	-0.0212141	-0.00883372	
0.00558962	0.00835642	0.0054409	
-0.00217586	-0.00755281	-0.00456932	
0.00028412	0.00335198	0.00407905	
0.00145336	0.00368225	0.00384682	
-0.00188854	-0.00696968	-0.0118466	
0.00589646	0.00890903	0.00603843	
-0.000352286	-0.00134794	0.000654771	
0.00595831	0.0110775	0.00696017	
0.00549874	0.00829266	0.0054428	
0.000211105	-0.000209599	0.0011724	
-0.00429408	-0.0152564	-0.0103354	
-0.00236869	-0.00468335	-0.00315108	
-0.000279033	-0.00104429	0.000799821	
0.000287884	8.78292e-05	-4.76333e-05	
0.000187862	-0.000312887	0.000483317	
0.000315425	-0.000138797	0.000159063	
-1.3161e-05	-0.000318376	0.00139893	
3.13053e-06	-7.5911e-06	1.64513e-05	
0.0116739	0.0213067	0.0131881	
0.00556881	0.00821577	0.00508808	
0.0107096	0.0161765	0.00835487	
0.0121093	0.024052	0.0130109	
-0.000163977	-0.000196161	0.00140114	
-4.30216e-05	-0.000126264	0.000806024	
-0.000136676	-0.000169231	0.00150488	
0.00329036	0.00523416	0.00317363	
-3.37127e-05	-8.72318e-05	0.00040058	
3.7005e-05	-0.000333668	0.00130082	
3.79288e-05	-0.000418543	0.00125936	
-2.54531e-05	-0.000282586	0.00152741	
0.023107	-0.0170136	0.0214439	
-0.000701567	0.0123287	-0.0236315	
-0.00734246	0.0215145	-0.00828118	
0.00163414	-0.00300055	0.000886735	
-0.00578376	0.0194511	-0.00820886	
-0.00831259	0.026107	-0.00992399	
-0.00726925	0.0130265	-0.0093389	
-0.00586832	0.00965638	-0.00685053	
0.00141499	-0.00696685	0.00409623	
0.000612682	-0.00415169	0.00295578	
-0.000620174	0.00246308	-0.00116645	
-0.000150337	-0.00182678	0.00312567	
-0.00033833	-8.5078e-07	-0.00170266	
-0.01967	0.0346871	-0.0232878	
-0.0122947	0.0247969	-0.0149923	
0.000639631	-0.00200534	-0.000887472	
0.000806349	-0.00346588	0.00197247	
0.000601243	-0.0033841	0.00206489	
0.000434879	-0.00290965	0.00160783	
-0.00170563	0.00728439	-0.00356776	
-1.23982e-05	3.50946e-05	1.71892e-05	
1.28795e-05	1.74545e-05	1.8326e-05	
4.61988e-06	-2.29986e-05	5.32134e-06	
2.90765e-05	-5.31213e-05	-0.000105984	
-0.000505677	-0.00124197	-0.000576792	
0.0286255	-0.0572155	0.0279177	
0.00225805	-0.00421557	0.00048285	
2.1278e-05	-0.00144254	-0.00135986	
-0.00648341	0.0161133	-0.00753898	
-0.00011231	-0.000366128	-0.000389334	
5.56755e-05	-0.00133352	-0.00137663	
0.000106215	-0.000174021	-0.000312023	
0.00769935	-0.00907406	0.00613129	
3.59802e-05	-0.0014385	-0.00126325	
-3.26189e-05	-0.000440835	-0.000524667	
-6.6876e-07	-6.26552e-06	-8.12497e-06	
6.02715e-05	-7.99158e-05	-0.000188315	
-0.00308189	0.00272337	0.00521907	
-0.00148264	-0.0119461	-0.0208196	
-0.00489603	-0.000968747	0.0365947	
0.00637175	-0.000486139	-0.0108234	
0.00749144	-0.000618161	-0.0130847	
0.0122398	-0.00147039	-0.022913	
0.00259381	0.00124664	-0.00706431	
0.00711086	-0.000685452	-0.0123957	
0.00647297	0.000591485	-0.0149554	
0.00809157	-0.000696093	-0.0142385	
0.0129025	-0.00153806	0.0479155	
0.00257336	-0.0034476	0.00611659	
0.00280458	2.82857e-06	0.0303647	
0.000477979	0.00365573	0.00370175	
0.00525185	0.000512884	-0.0113914	
0.00200281	0.00116445	-0.00586747	
0.000569686	0.00100133	-0.00131025	
-0.000207232	0.00135651	-0.000518003	
0.00670524	0.00139062	0.0348654	
0.00642203	-0.00544513	0.0109714	
0.00401324	1.36819e-05	0.0355814	
2.49927e-05	3.81147e-05	-4.07461e-05	
0.00567034	-0.00364162	0.0125416	
3.34794e-05	3.09009e-05	3.66652e-05	
-0.000698927	-0.000815332	0.026491	
-1.0294e-06	0.000149691	-3.72007e-05	
-0.00059428	0.0014045	0.00121733	
0.000140202	0.000501381	-6.27471e-05	
-0.00226722	0.000620587	0.0116665	
-0.000159353	0.000981345	-0.000401334	
-0.0010203	-0.000195492	0.0141819	
0.00135271	0.000998154	-0.00500246	
0.000150086	2.87907e-05	-6.32602e-05	
-2.35174e-05	0.00110271	-0.000227076	
0.000162863	0.000781991	-6.47339e-05	
0.000169144	0.000287549	-8.33157e-05	
0.000160571	0.000609063	-4.31566e-05	
-0.00656369	-0.0120831	-0.00370977	
-0.0278123	-0.100958	-0.151828	
-0.00173654	-0.00343068	-0.000668438	
0.0033092	0.00527173	0.00239838	
-0.00114919	-0.00247897	-0.000603705	
0.0051069	0.0116783	0.00738847	
-0.0117332	-0.0200877	-0.00994826	
0.00547304	0.00887592	0.00399958	
-0.0022177	-0.00754833	-0.00494754	
0.000134633	0.00363988	0.0042022	
0.00170684	0.00472933	0.00383687	
-0.00214895	-0.0068802	-0.0122704	
0.00604106	0.00936326	0.0045473	
-0.000304658	-0.000714716	-2.25464e-05	
0.00639245	0.0119102	0.00632571	
0.00575749	0.00869373	0.00388996	
0.000505718	0.000754588	0.00170415	
-0.00422163	-0.0157268	-0.0107527	
-0.00250345	-0.00462045	-0.00347563	
-0.000648425	-0.00218766	-0.000101229	
0.000228196	2.98178e-05	-1.31785e-05	
0.000130995	-0.000223489	0.000343209	
0.000264945	-0.000110774	0.000139396	
-3.03335e-06	-0.000156113	0.000681512	
-8.90566e-05	0.000218018	-0.0004664	
0.0116495	0.021401	0.0125851	
0.0057312	0.00849943	0.0033653	
0.0108614	0.0163161	0.00707237	
0.0115475	0.0233108	0.0116541	
-6.47066e-05	-8.19075e-05	0.000565464	
4.11187e-05	0.000144929	-0.00083684	
-8.85397e-05	-0.000118147	0.00100338	
0.00338384	0.00544131	0.00216063	
6.99947e-05	0.000193316	-0.000872264	
1.75115e-05	-0.000155616	0.000603614	
1.40904e-05	-0.000194266	0.000589918	
-1.52558e-05	-0.000243429	0.00128298	
0.0232607	-0.0165808	0.0216025	
-0.000698467	0.0125467	-0.0233708	
-0.00739416	0.0216087	-0.00826912	
0.00203681	-0.00254001	0.00152022	
-0.00577385	0.0194586	-0.00824996	
-0.00832493	0.0261932	-0.0100093	
-0.00739206	0.0132733	-0.00913628	
-0.00608018	0.0100655	-0.00661656	
0.0013986	-0.00693624	0.0040408	
0.000596164	-0.00414842	0.00292678	
-0.000628106	0.00249778	-0.00118393	
-0.000210802	-0.00150832	0.00326737	
-0.000272597	1.25091e-05	-0.00136193	
-0.0198732	0.0354353	-0.0232487	
-0.0123566	0.0251888	-0.0148959	
0.000376235	-0.00123831	-0.000599231	
0.000790714	-0.00343253	0.00193304	
0.00058455	-0.00338696	0.00203402	
0.000420884	-0.00291296	0.00157835	
-0.00171125	0.00732233	-0.00360024	
1.56389e-06	1.5437e-05	5.34623e-06	
4.46911e-06	6.21567e-06	6.61879e-06	
1.26822e-06	-8.94712e-06	2.77988e-06	
1.37906e-05	-2.62892e-05	-5.13856e-05	
-7.10771e-05	-0.000169828	-8.62733e-05	
0.0283016	-0.0571657	0.0277427	
0.00221064	-0.00407502	0.000554332	
0.000580158	-0.00167215	-0.000555711	
-0.00654771	0.016243	-0.00748333	
-6.90568e-05	-0.000224777	-0.000242444	
3.67796e-05	-0.0011566	-0.00130529	
5.33258e-05	-8.81003e-05	-0.000156444	
0.0075441	-0.00847547	0.00618526	
7.5869e-06	-0.000398408	-0.000375773	
-2.10901e-05	-0.000309332	-0.000372898	
-1.37129e-06	-1.29128e-05	-1.67784e-05	
2.85553e-05	-3.96057e-05	-9.10223e-05	
-0.00312149	0.00259368	0.00521867	
-0.000770716	-0.0118505	-0.0204119	
-0.00484033	-0.000922018	0.0368286	
0.00651414	-0.000565932	-0.0109273	
0.00769509	-0.000568093	-0.0132542	
0.0122815	-0.00112686	-0.0235161	
0.00243843	0.000949632	-0.00662945	
0.00715956	-0.000200145	-0.0127202	
0.00627242	0.000371223	-0.0146125	
0.00812106	-0.000347065	-0.0145831	
0.0130795	-0.00159585	0.0479196	
0.00274596	-0.00347052	0.00633997	
0.00300125	5.98255e-05	0.0304953	
0.000779018	0.00436546	0.00356968	
0.00522952	0.000792749	-0.0117216	
0.00188902	0.000852993	-0.00557092	
0.000538479	0.000933189	-0.00118528	
-0.000250009	0.00169325	-0.000631881	
0.00678906	0.00139204	0.0349875	
0.00653297	-0.00527579	0.0110699	
0.00405412	0.000111439	0.0358208	
3.96046e-05	1.13968e-05	-2.09686e-05	
0.00579846	-0.00360056	0.0126188	
4.44497e-05	3.51881e-05	2.65172e-05	
-0.000662247	-0.000700955	0.0266503	
-4.47546e-07	4.59127e-05	-1.12333e-05	
-0.000601739	0.00117644	0.0014126	
0.000128945	0.000477479	-6.15918e-05	
-0.00223419	0.000567912	0.0117747	
-0.000198994	0.00126508	-0.000503193	
-0.00098247	-0.000130736	0.0142404	
0.00130399	0.000927065	-0.00495661	
0.000181593	4.25945e-05	-7.61183e-05	
-1.79567e-05	0.000970248	-0.000195029	
0.000152799	0.000744926	-6.30813e-05	
0.000166569	0.000291972	-8.44346e-05	
0.000153409	0.000601259	-4.52914e-05	
-0.00634172	-0.0122263	-0.00296198	
-0.0225177	-0.10361	-0.155642	
-0.00182066	-0.00352899	-0.000282452	
0.00343124	0.00511919	0.00325124	
-0.00123088	-0.00254351	-3.85759e-06	
0.00520954	0.0115607	0.0081321	
-0.0113387	-0.0207894	-0.00820745	
0.00571067	0.00851234	0.00599685	
-0.00239542	-0.00798611	-0.00475255	
0.000360882	0.00347034	0.00388991	
0.00184066	0.0046648	0.00457959	
-0.00237467	-0.00666343	-0.0121409	
0.00601749	0.00912413	0.00659644	
-2.82177e-05	-0.00092841	0.00111622	
0.00627975	0.0117217	0.00741974	
0.00564544	0.00854433	0.00591022	
0.000557416	0.000602449	0.00195285	
-0.00454324	-0.0155926	-0.0104188	
-0.00236208	-0.00483599	-0.00337296	
-0.000739148	-0.00240872	9.2837e-05	
0.000276995	-0.000107512	0.000136888	
0.000213399	-0.000357823	0.000550574	
0.00034852	-0.000142701	0.000172504	
-1.14154e-06	-0.000330268	0.00139805	
2.68992e-05	-6.5206e-05	0.000141836	
0.011606	0.0212672	0.0133315	