<VTKFile type="UnstructuredGrid" version="0.1" byte_order="LittleEndian">
	<UnstructuredGrid>
		<Piece NumberOfPoints="3219" NumberOfCells="3219">
			<CellData Scalars="scalars">
				<DataArray type="Float64" Name="Strength" NumberOfComponents="3" Format="ascii">
-0.00661527	-0.0159747	0.0126488	
0.00197347	-0.0146128	-0.026782	
-0.00920545	0.0707006	0.0113289	
0.00439938	-0.00644099	-0.00741505	
0.00588247	0.00100018	-0.0109538	
0.0159939	0.0558583	-0.0273281	
0.0131794	0.0870798	-0.02263	
0.00512462	0.019278	-0.0137765	
0.0164956	0.0841966	-0.0275651	
0.00762882	0.0336947	-0.018144	
0.00577191	0.00456249	0.0446114	
0.00269486	-0.00425222	0.00265354	
-0.00941701	0.0396639	0.0151441	
0.00152818	-0.00133308	-0.00156426	
0.0120206	0.0744023	-0.0233785	
0.0161678	0.0855844	-0.0196561	
0.0152544	0.0918963	-0.0197216	
0.00411045	0.0675021	-0.015102	
0.00116748	0.0121063	0.0289754	
0.00724612	-0.00714634	0.0101501	
-0.00698025	0.0326337	0.0227095	
-0.00202357	0.000122724	0.00102449	
0.00388255	-0.00464408	0.0097556	
-0.00121813	0.0020236	-0.000921411	
-0.0110726	0.04857	0.00892883	
-0.000620039	-0.0127035	0.00236689	
0.0124518	0.0874734	-0.0162363	
0.00811838	0.0422805	-0.00193554	
0.0054627	0.0866489	-0.00577681	
0.00193559	0.0490091	-0.0106333	
0.00104853	0.0543109	0.00191731	
0.0160998	0.0876724	-0.0175597	
-0.000447001	-0.00046346	0.000116485	
0.013388	0.0856343	-0.0136268	
0.019419	0.0771793	-0.00292359	
0.00816797	0.0202898	-0.00137233	
0.0148424	0.0589809	-0.00188731	
-0.0100155	-0.00538705	-0.0256629	
0.00714016	-0.131944	0.0328297	
-0.0044868	-0.0162297	0.0489925	
0.00192089	0.0115064	-0.0134804	
0.00594865	-0.00906271	0.0542284	
0.0279754	-0.00244681	0.0619123	
-0.00738145	-0.0389985	0.0453871	
0.0159802	-0.011143	0.052241	
0.0103621	-0.0156574	0.0369601	
0.0130925	-0.00158754	0.0152689	
0.0130288	-0.0129414	0.0547988	
0.0151254	0.0177505	-0.00418303	
0.0116775	-0.0079232	0.0470854	
0.00351778	-0.0119358	0.0253151	
0.0102792	-0.00460617	0.0538575	
0.00849634	-0.00475464	0.039262	
0.0140837	-0.0160834	0.0462481	
-0.000291951	-0.0171567	0.0294248	
0.00520801	-0.00764211	0.0175307	
0.0142841	-0.0116618	0.0548195	
0.0256546	-0.00516515	-0.00470525	
0.0140542	-0.0158396	0.0147072	
0.00720474	-0.00308868	0.0180779	
0.0116019	-0.0142753	0.0565026	
-0.00242207	0.0082267	-0.0205438	
0.0190896	0.01128	0.0383709	
0.00742127	-0.0018024	0.0309075	
0.00999283	0.0106564	0.0173929	
0.0378086	0.00403822	0.0679302	
0.00311572	-0.00945449	0.0396147	
0.00117299	-0.00557562	0.0181177	
0.00607067	-0.00962391	0.0432369	
0.0026522	0.0091888	-0.0100979	
-5.51263e-05	0.00153366	-0.00460824	
0.00350933	-0.00709761	0.0238015	
0.0148183	-0.0162219	0.0519588	
0.0105548	-0.0125986	0.04959	
0.023475	-0.0528264	-0.0147938	
0.00223424	0.0148278	-0.0323028	
-0.00831874	-0.0012977	-0.0315291	
0.00252936	-0.0290913	-0.0325454	
-0.00755632	0.0139302	-0.0120704	
-0.0123324	0.0108723	-0.0237426	
0.00143165	-0.018109	-0.050105	
0.00521859	-0.0268199	-0.0511931	
0.00173423	-0.00932939	0.00295667	
0.000341088	-0.00728192	0.00081532	
-0.00048093	-4.18548e-05	-0.0035291	
-0.00361377	0.00031629	0.00516675	
0.00894232	-0.039479	-0.0557832	
-0.0140837	-0.00356286	-0.0487927	
-0.0169539	-0.0163019	-0.0464543	
0.00809483	-0.0449231	-0.0549749	
0.000836125	-0.00481623	0.00121633	
0.000411538	-0.00600034	0.000196399	
0.000475758	-0.00548237	-0.000715705	
-0.00179304	0.00460158	-0.00519745	
-0.00328066	-0.000851118	0.00125363	
-0.000863144	-0.00185596	-0.00228202	
-0.000483199	0.00269034	0.000551287	
0.00158302	-0.00588807	-0.00898047	
-0.00202471	-0.0341646	-0.0362721	
0.0467516	-0.073622	-0.004419	
0.0104023	-0.0466256	-0.0524873	
0.00415631	-0.0417085	-0.0550776	
-0.00285209	-0.00689308	-0.0340044	
-0.00214396	-0.0397228	-0.0437501	
0.00812733	-0.0429128	-0.0524007	
0.0105681	-0.0214365	-0.0346094	
0.0160047	-0.043372	-0.036818	
0.00979895	-0.0494998	-0.0595736	
0.000584588	-0.0117227	-0.0132863	
7.19895e-07	7.05361e-06	8.70991e-06	
0.00425524	-0.0111983	-0.0187513	
-0.00270959	0.00252829	0.00637002	
-0.000276054	-0.0073734	-0.0287273	
-0.00766112	0.0071194	0.0320302	
0.00502374	0.000905973	-0.0101979	
0.00670302	0.00251708	-0.012391	
0.0150601	0.00851359	-0.018925	
0.0045692	0.0112289	-0.00731435	
0.00667962	0.00481743	-0.0115295	
0.0101977	0.0114422	-0.0128958	
0.0084356	0.00638721	-0.0131274	
0.0140668	0.000931584	0.0440606	
0.00164499	-0.00189085	0.00441172	
0.00300536	0.0040004	0.0273263	
0.000819223	0.000584766	0.00196552	
0.00755771	0.0107455	-0.0103277	
0.00407332	0.0110696	-0.00656583	
0.000969925	0.0105606	-0.00381623	
-9.33487e-05	0.0100798	-0.00260643	
0.00954296	0.00305606	0.0313663	
0.00370725	-0.00314502	0.0121036	
0.00525744	0.00450577	0.0316977	
-0.000178623	4.78391e-06	2.38132e-05	
0.00339047	-0.00170705	0.0114339	
-0.000218902	0.000286138	0.000188051	
-0.0022584	0.00601283	0.0232717	
7.72436e-06	0.000191469	-3.54694e-05	
-0.000544669	0.0108102	-0.00147177	
0.000723584	0.00544343	-0.000777073	
-0.00436666	0.00815956	0.00878123	
-8.95053e-05	0.00791438	-0.00193161	
-0.00183189	0.00581111	0.0113448	
0.00262207	0.00970789	-0.00577808	
0.000962202	0.000912865	-0.000290485	
0.00013467	0.00991752	-0.00183684	
0.00126669	0.00851398	-0.000691143	
0.000810054	0.00253568	-0.000663166	
0.00108241	0.00695831	-0.000769722	
-0.00504227	-0.0116741	-0.00452117	
-0.023514	-0.109761	-0.11069	
-0.00566502	-0.00911722	0.00235423	
0.00270416	0.00605842	0.00174372	
-0.00225093	-0.00404741	0.00465824	
0.00632992	0.012643	0.0153109	
-0.0154667	-0.0225498	-0.005422	
0.00701465	0.00589702	0.00721192	
-0.000558492	-0.00806931	0.000516543	
-0.00103984	0.0035388	0.0058857	
0.000174847	0.00106435	0.00769528	
-0.00419513	-0.00865928	-0.0088675	
0.00739768	0.00622323	0.00742325	
-0.000549709	-0.00367291	0.00380932	
0.00609525	0.00680704	0.0102628	
0.00657798	0.00602934	0.00650629	
-9.12441e-05	-0.00228193	0.00513701	
-0.00340152	-0.0159889	-0.00639773	
-0.00168947	-0.00557665	-0.00067104	
-0.000536241	-0.00107369	0.00679688	
-0.00112411	0.00136809	-0.00163873	
0.00102175	-0.00131504	0.00246848	
0.00015621	0.00175746	-0.00154966	
-0.000401405	-0.00166521	0.00600475	
-0.000170335	0.00054596	-0.0013351	
0.0149993	0.0179973	0.0170732	
0.00620305	0.00646744	0.00559404	
0.010449	0.0145825	0.00842748	
0.0162109	0.0221233	0.0189066	
-0.000294888	-0.00115	0.00576362	
2.20042e-05	-0.00021856	0.000760547	
-0.000272291	-0.00123799	0.00675122	
0.00289891	0.00558932	0.00164075	
1.16005e-05	0.000291425	-0.00089701	
0.000550076	-0.00150815	0.00585504	
-0.000324269	-0.00181049	0.00574944	
-0.000207418	-0.00172048	0.0072164	
0.0240899	-0.0186869	0.0129538	
0.00295208	0.0163004	-0.0193168	
-0.00700462	0.0187996	-0.011108	
0.00146021	-0.00508199	-0.00385352	
-0.00475377	0.0187392	-0.00896344	
-0.00758522	0.0242115	-0.0119927	
-0.00752236	0.00706207	-0.0142368	
-0.00620331	0.00357256	-0.0111273	
0.00148609	-0.00640149	0.00491678	
-1.37803e-05	-0.00375486	0.0032389	
-0.000504741	0.00265256	-0.00045467	
-0.000390885	-0.00207187	0.00278989	
0.000270989	-0.00423157	-0.00697437	
-0.0213172	0.0217533	-0.0281721	
-0.0143434	0.0210926	-0.0151152	
0.00204154	-0.00684669	-0.00631062	
0.00103681	-0.00289055	0.00302806	
0.000532413	-0.00263424	0.00282874	
0.000371073	-0.00228613	0.00232709	
-0.00132254	0.00770531	-0.00312226	
-0.000478874	0.000652974	0.000713189	
0.000406967	0.000632555	0.000740051	
-0.000315153	-0.000216875	0.000707573	
-7.21729e-05	0.000254307	0.000380497	
-0.000486323	-0.00376994	-0.00372312	
0.0420344	-0.0528414	0.0219961	
0.003926	-0.00843298	-0.00551794	
-0.000845781	-0.00476595	-0.00782681	
-0.00605241	0.0140181	-0.00971343	
-0.000505123	-0.0019371	-0.00207299	
0.000916308	-0.00618386	-0.00726589	
0.000356054	-0.000873249	-0.00122284	
0.0107891	-0.012041	-0.000352788	
0.000756886	-0.00459037	-0.00531132	
-0.000119091	-0.00294831	-0.00295021	
9.10416e-05	0.00078788	0.000973074	
3.367e-05	-9.19829e-05	-0.000143194	
-0.00275043	0.0026485	0.00624584	
0.00109521	-0.00720441	-0.0270254	
-0.000821773	0.00319436	0.0340955	
0.00547772	0.000256328	-0.010138	
0.00719326	0.000710747	-0.0121686	
0.0123851	0.00140314	-0.0202497	
0.00201856	0.00263952	-0.00696757	
0.00700191	0.00128335	-0.0111607	
0.00603668	0.00236279	-0.0140962	
0.0081071	0.0014866	-0.0128536	
0.0120907	-0.000679475	0.0454726	
0.00193676	-0.00245434	0.00490321	
0.00190234	0.00213468	0.0284104	
0.00096444	0.00056256	0.00270236	
0.00503911	0.00234342	-0.0105237	
0.00132107	0.0025682	-0.00615788	
0.000176094	0.0027152	-0.00304247	
-0.00025843	0.00268226	-0.00080504	
0.00725424	0.00212765	0.0327202	
0.00428645	-0.00369855	0.0119736	
0.00312469	0.00188043	0.0332129	
-0.000141361	8.33043e-05	-3.12325e-05	
0.00354414	-0.00248064	0.0119762	
-6.46123e-05	0.000121547	8.07852e-05	
-0.00162411	0.0016101	0.0243755	
2.28425e-06	7.05733e-05	-1.25028e-05	
-0.000570525	0.00293227	0.000425681	
0.000231538	0.00167641	-0.00025355	
-0.000745794	0.00281467	0.0103829	
-0.000140294	0.00207042	-0.000576779	
-0.000901333	0.00185921	0.0123133	
0.000522397	0.00249165	-0.00566956	
0.000386915	0.000400546	-0.00010214	
-0.000249076	0.00270603	-0.000624904	
0.000181987	0.00238741	-0.000428749	
0.000339634	0.00113879	-0.000273829	
0.000234044	0.00205815	-0.000342085	
-0.00504774	-0.0120777	-0.00360197	
-0.0331846	-0.104135	-0.123617	
-0.00306461	-0.00771711	-0.00172773	
0.00295016	0.00549515	0.00277205	
-0.00135214	-0.00297088	0.000333626	
0.00598105	0.0133378	0.010023	
-0.0108465	-0.022925	-0.00956242	
0.00494186	0.00810968	0.0047736	
-0.00167846	-0.00712223	-0.00321666	
0.000604807	0.00382909	0.00480522	
0.00109254	0.00286283	0.0038151	
-0.00463511	-0.00618975	-0.0120369	
0.00588309	0.00827576	0.00524327	
-0.000627274	-0.00228147	0.000648347	
0.00458102	0.00939217	0.00704934	
0.00571747	0.00750153	0.00467126	
0.00010751	-0.000541529	0.00165782	
-0.00367785	-0.0156288	-0.00935908	
-0.00165473	-0.00498752	-0.00273997	
-9.69343e-05	-0.000550822	0.00197489	
7.33815e-05	0.000459405	-0.000460936	
0.000266809	-0.000381013	0.000739254	
0.00064059	4.24158e-05	-0.000326978	
3.78321e-06	-0.000457271	0.00180944	
-5.53042e-05	0.000171706	-0.000400534	
0.0107904	0.0208417	0.0138342	
0.00566049	0.00745699	0.00428232	
0.0103935	0.0150206	0.00818701	
0.00998814	0.0250829	0.0151808	
-0.000189116	-0.000366202	0.00187895	
-4.77156e-07	4.56118e-05	-0.000171498	
-0.000174181	-0.00040254	0.00224252	
0.00307699	0.00522692	0.00257035	
1.44169e-05	0.000167623	-0.000522311	
8.35941e-05	-0.00048095	0.00199526	
1.5287e-05	-0.000492368	0.00162253	
-2.89403e-05	-0.000543843	0.00236379	
0.0240936	-0.0167253	0.0159096	
0.00121153	0.0158787	-0.022922	
-0.00572854	0.0196857	-0.0107058	
0.00150697	-0.00268006	-0.000520733	
-0.00555535	0.0181445	-0.00932511	
-0.00774859	0.0243048	-0.0118936	
-0.00559597	0.0113435	-0.0112905	
-0.00509113	0.00810811	-0.00820338	
0.00159742	-0.00745227	0.0039228	
0.000263724	-0.00471425	0.00255208	
-0.000560828	0.00204859	-0.00143098	
0.00155036	-0.00190103	0.00289203	
-0.000349901	-0.000805511	-0.00228977	
-0.0157528	0.0302712	-0.0260844	
-0.00922612	0.0238512	-0.0159228	
0.000990341	-0.00289943	-0.00113835	
0.000884901	-0.00389006	0.0017915	
0.000450323	-0.00375859	0.00185391	
0.000150548	-0.00322862	0.0014179	
-0.00166519	0.00669483	-0.00385993	
0.000180675	-0.000232789	-0.000105304	
-9.61002e-05	-0.000165572	-0.000197442	
0.000151768	0.000130718	-5.61803e-05	
5.18074e-05	-0.000192738	-0.000305575	
-0.000236183	-0.00120058	-0.00109553	
0.0308857	-0.0559127	0.0295513	
0.00262943	-0.00477595	-0.000234893	
-0.000828586	-0.00110451	-0.00279969	
-0.00441989	0.0150734	-0.00935429	
-0.000199735	-0.000594646	-0.000611819	
0.000142466	-0.00207068	-0.00224248	
0.000129722	-0.000393326	-0.000510178	
0.00914332	-0.0093911	0.00399981	
0.000155858	-0.00150745	-0.00161673	
-8.19382e-05	-0.000779881	-0.000777187	
-2.43835e-05	-0.000238252	-0.000299434	
8.00885e-05	-0.000236153	-0.000385833	
-0.00275441	0.00280249	0.00599472	
0.00212648	-0.00702132	-0.0255313	
-0.00420637	0.00288181	0.0346321	
0.00572707	0.00042147	-0.0101936	
0.00730611	0.000738978	-0.0124829	
0.0102493	0.000922485	-0.0224633	
0.00159806	0.00298895	-0.00751871	
0.00682239	0.00109014	-0.0117517	
0.00465261	0.00239463	-0.015119	
0.00747032	0.00117131	-0.0137787	
0.0125851	-0.000651113	0.0462911	
0.0020432	-0.00260892	0.00552193	
0.00191858	0.0020433	0.0288807	
0.000498141	0.000298907	0.00383343	
0.0038548	0.00234276	-0.0115252	
0.00129133	0.0031095	-0.00637989	
0.00060298	0.00334628	-0.00269557	
-0.000341733	0.0028698	-0.000874122	
0.00742424	0.00213979	0.033304	
0.00430558	-0.00358512	0.0122319	
0.00304335	0.00184617	0.0337418	
-2.56587e-05	0.000115919	-8.24801e-05	
0.00355323	-0.00247324	0.0125148	
-3.54555e-05	0.000132294	9.79311e-05	
-0.00159966	0.00150772	0.0250404	
7.87182e-06	0.000262705	-4.44425e-05	
-0.000499808	0.00355955	0.000355214	
0.000223118	0.0016483	-0.000246147	
-0.00221725	0.00323358	0.0104932	
-0.000192804	0.0020439	-0.000594951	
-0.00144541	0.00181126	0.0127941	
0.00136002	0.00332965	-0.00562141	
0.000383009	0.000407231	-9.79538e-05	
-5.81688e-05	0.0034005	-0.000663001	
0.000351643	0.00276612	-0.00039892	
0.000340523	0.00119533	-0.0002801	
0.000323902	0.00226348	-0.000296619	
-0.00537892	-0.0121492	-0.00352109	
-0.0295487	-0.109493	-0.128451	
-0.00293662	-0.00623999	-0.00125561	
0.00312384	0.00523919	0.00280081	
-0.00131121	-0.00287035	0.000385121	
0.0056464	0.0126298	0.00970556	
-0.00963552	-0.0226888	-0.0096209	
0.00455228	0.00850817	0.00530955	
-0.00188212	-0.00733298	-0.00341716	
0.000649011	0.0039736	0.00463789	
0.0013459	0.0033382	0.00425695	
-0.00364446	-0.00726692	-0.0115972	
0.0053816	0.0088226	0.0057209	
-0.000477889	-0.00191303	0.000555446	
0.00553739	0.00965775	0.0073356	
0.00527444	0.00805466	0.00504241	
0.000260351	-0.000173155	0.00197549	
-0.00403726	-0.0157894	-0.00959862	
-0.00170118	-0.00509226	-0.00269877	
-0.000282588	-0.00120708	0.00160042	
0.000107108	0.00048446	-0.000477358	
0.000282396	-0.000399586	0.000805077	
0.000665587	4.48765e-05	-0.000316954	
2.62183e-05	-0.000471929	0.00180287	
-4.31481e-05	0.000131629	-0.000293682	
0.0115983	0.0202424	0.0141528	
0.00532033	0.00791121	0.00452589	
0.0103043	0.0153961	0.00835031	
0.0120173	0.023489	0.0149618	
-8.34081e-05	-0.000384046	0.00162038	
2.85807e-08	3.15061e-05	-0.00012014	
-4.29075e-05	-0.000434286	0.00198056	
0.00323945	0.0051568	0.00262577	
1.39791e-05	0.000161047	-0.000507553	
8.1908e-05	-0.0004387	0.00157558	
3.42949e-05	-0.000530088	0.00169814	
6.06022e-05	-0.000562868	0.00223968	
0.0235431	-0.0179771	0.017168	
0.0021539	0.0165895	-0.020953	
-0.00683197	0.0200401	-0.010429	
0.00147218	-0.00283592	-4.94506e-05	
-0.00554809	0.0185867	-0.00927421	
-0.00830989	0.0246983	-0.0117581	
-0.00471227	0.0120473	-0.0112571	
-0.00425137	0.00870907	-0.00847977	
0.0015333	-0.00702919	0.00414773	
0.000144978	-0.00440067	0.00268797	
-0.000578917	0.00231165	-0.0012051	
0.00060871	-0.00233687	0.00269981	
-0.000324602	-0.000851151	-0.00231617	
-0.0149779	0.0326117	-0.0256974	
-0.0115145	0.0238141	-0.0154603	
0.000577857	-0.00274242	-0.00121897	
0.000901633	-0.00350168	0.00208749	
0.000455645	-0.00339782	0.0021071	
0.000196696	-0.0029101	0.00167871	
-0.00162109	0.00706317	-0.00373086	
-7.94901e-06	0.000109519	6.3326e-05	
3.90559e-05	6.67541e-05	7.91656e-05	
-6.11312e-05	-3.70716e-05	5.05584e-05	
1.89565e-05	-7.5465e-05	-0.000118166	
-0.000292472	-0.00115806	-0.000999632	
0.0335306	-0.0558495	0.0265467	
0.00207789	-0.0050097	-5.97566e-05	
-0.000341404	-0.00150908	-0.00231819	
-0.00549009	0.0152709	-0.00906823	
-0.000176456	-0.000694551	-0.000754832	
3.95109e-05	-0.00207136	-0.0021678	
0.000155016	-0.000402459	-0.000573209	
0.00786537	-0.00987013	0.00478174	
5.4497e-05	-0.00148449	-0.00151763	
-5.91434e-05	-0.000751439	-0.000829531	
5.06487e-06	4.7247e-05	5.89149e-05	
5.75524e-05	-0.000162168	-0.00027391	
-0.00287049	0.00255885	0.00594585	
0.00289081	-0.00725789	-0.0240152	
-0.00434897	0.0029124	0.0353951	
0.0060133	0.000571827	-0.0105186	
0.00739481	0.000995122	-0.0129313	
0.00990977	0.00139704	-0.0234421	
0.00244918	0.0030234	-0.00717894	
0.00668422	0.0013722	-0.0124279	
0.00603007	0.00285663	-0.0146614	
0.0071216	0.00148946	-0.0146025	
0.0130508	-0.000400148	0.0471086	
0.00210768	-0.00274645	0.00610727	
0.00199544	0.00225078	0.0293301	
-0.000126274	7.05534e-05	0.00468151	
0.00433608	0.00258084	-0.0113972	
0.00188581	0.00299994	-0.00610132	
0.000765496	0.0032614	-0.0029944	
-0.00027442	0.00307391	-0.000840276	
0.00773598	0.00227304	0.0339195	
0.00418192	-0.00350423	0.0125139	
0.00314323	0.00215174	0.0346364	
5.5785e-05	9.1861e-05	-5.17374e-05	
0.00353511	-0.00247502	0.0130515	
-1.47519e-06	0.000120201	8.37697e-05	
-0.0016287	0.00173449	0.0257334	
3.3406e-06	0.000130008	-2.13159e-05	
-0.000481509	0.00319997	0.000514003	
0.000238099	0.00177629	-0.00027159	
-0.0023148	0.0033046	0.0107343	
-0.000220731	0.00247219	-0.000693171	
-0.00151156	0.00199002	0.0133341	
0.0014784	0.00313535	-0.00564105	
0.000341565	0.000373557	-8.86148e-05	
-2.9902e-05	0.00310691	-0.000567491	
0.000385416	0.00297785	-0.000407784	
0.000319084	0.00115831	-0.000278522	
0.000352063	0.00245676	-0.000317095	
-0.00571047	-0.0121791	-0.0034877	
-0.0266963	-0.11313	-0.134203	
-0.00249568	-0.00530797	-0.00105303	
0.00327253	0.0050885	0.0029067	
-0.00124163	-0.00275187	0.000206781	
0.00545633	0.0123662	0.00933515	
-0.0105589	-0.0214579	-0.0101296	
0.00506745	0.00841386	0.00524235	
-0.00191865	-0.0076143	-0.00375253	
0.000766643	0.00383379	0.00411073	
0.00141326	0.00363848	0.00425904	
-0.00129631	-0.00782324	-0.0112404	
0.00573763	0.00881422	0.00571102	
-0.000420623	-0.0015077	0.000394065	
0.00594139	0.0102458	0.00753524	
0.00541308	0.00816011	0.00510713	
0.000257715	-3.36705e-05	0.0017971	
-0.0039269	-0.0156528	-0.00974402	
-0.00164366	-0.00511774	-0.00275382	
-0.000319605	-0.0012902	0.00118492	
0.000439367	5.15605e-05	-4.52633e-05	
0.000253111	-0.000355919	0.000749481	
0.000554798	-0.000219317	5.34691e-05	
2.6473e-05	-0.000430279	0.00162967	
-3.79243e-05	0.000114046	-0.000248289	
0.0117629	0.0203472	0.0140663	
0.00533182	0.00804133	0.00467341	
0.0102236	0.0156152	0.00863179	
0.011847	0.0230558	0.0146911	
-5.60772e-05	-0.000330998	0.00135109	
-1.50112e-07	1.99399e-06	-8.24929e-06	
-2.48371e-05	-0.000391319	0.00171462	
0.00334359	0.00506389	0.00284853	
5.80334e-06	8.75129e-05	-0.000275413	
7.38744e-05	-0.000381364	0.00126898	
3.39153e-05	-0.000494744	0.00159887	
5.93724e-05	-0.000474221	0.00186702	
0.0229529	-0.0186753	0.0184027	
0.00231157	0.0169677	-0.0207078	
-0.00686751	0.0203215	-0.0104699	
0.00156317	-0.00296829	0.000418474	
-0.00560323	0.0186516	-0.00942723	
-0.0083125	0.0248722	-0.0119485	
-0.0056415	0.012441	-0.0106909	
-0.00504233	0.00891645	-0.00802155	
0.00155064	-0.00706614	0.00402316	
0.000125907	-0.00447306	0.00259564	
-0.000592368	0.0023198	-0.00129569	
0.000482231	-0.00245679	0.00264186	
-0.000318655	-0.000619604	-0.00210019	
-0.0167656	0.0338946	-0.0247713	
-0.0116164	0.0244192	-0.015289	
0.000560227	-0.00243446	-0.001139	
0.000888283	-0.00353409	0.00195233	
0.000450532	-0.00348085	0.00200411	
0.000170276	-0.00297702	0.00159356	
-0.00165742	0.00703586	-0.00381566	
-2.71371e-06	-7.69966e-06	-3.85507e-06	
-3.95394e-06	-6.92436e-06	-8.22841e-06	
5.25847e-06	3.96879e-06	-1.85947e-06	
1.93809e-05	-8.05313e-05	-0.000124587	
-0.000247594	-0.0008604	-0.000730784	
0.0337743	-0.055236	0.0261149	
0.00202291	-0.00474699	0.000256837	
-4.9236e-05	-0.00158574	-0.00174828	
-0.00550988	0.0155251	-0.00900461	
-0.000114134	-0.000474418	-0.000523899	
2.92896e-05	-0.00169298	-0.00180795	
9.98791e-05	-0.000267673	-0.000381281	
0.00708143	-0.0100098	0.00526802	
1.88667e-05	-0.00131684	-0.00134808	
-5.01126e-05	-0.000677631	-0.000790976	
-3.38486e-06	-3.33638e-05	-4.1561e-05	
4.27109e-05	-0.000129027	-0.000214198	
-0.0026583	0.00287858	0.00548665	
0.00393342	-0.00698754	-0.0232829	
-0.00383627	0.00170284	0.0362881	
0.00611157	0.00100279	-0.0107886	
0.00736627	0.00119507	-0.0132836	
0.0109954	0.0010914	-0.0232559	
0.00264193	0.00254595	-0.0074433	
0.00662183	0.00143633	-0.0125791	
0.00618686	0.00234117	-0.014724	
0.00715312	0.00116938	-0.0146482	
0.0137826	-0.000594139	0.047368	
0.00216081	-0.00286762	0.0063812	
0.00234714	0.00158315	0.0300098	
-0.000507103	0.000223885	0.00498187	
0.00488145	0.00217871	-0.0113272	
0.00202612	0.00266748	-0.00642851	
0.000498739	0.00256459	-0.00177504	
-0.000144741	0.00215453	-0.000511672	
0.00820731	0.0019051	0.0342617	
0.00416859	-0.00353529	0.0126389	
0.00356876	0.00149574	0.0352795	
4.97515e-05	2.36829e-05	-9.38112e-06	
0.00358342	-0.00259391	0.0133544	
3.37443e-06	5.52436e-05	3.54272e-05	
-0.00124538	0.000909035	0.0263196	
1.57881e-05	0.000604043	-9.7343e-05	
-0.000510893	0.00312321	0.000669372	
0.000116854	0.00092361	-0.000147827	
-0.0022245	0.00207606	0.0113645	
-0.000125178	0.00167039	-0.000434692	
-0.00139801	0.00100334	0.013923	
0.00138821	0.00277236	-0.00539419	
0.000149996	0.000173989	-4.13471e-05	
-3.32323e-05	0.00294012	-0.000529732	
0.000210579	0.00172871	-0.000240689	
0.000130581	0.000505927	-0.000124805	
0.000180224	0.00134257	-0.000180325	
-0.0057866	-0.0121969	-0.00313646	
-0.0256544	-0.115661	-0.137336	
-0.0023628	-0.00505857	-0.00123614	
0.0034246	0.00499797	0.00328956	
-0.00123021	-0.00278645	-0.000175243	
0.00534846	0.0123063	0.00909059	
-0.0103943	-0.0215042	-0.00978711	
0.00516905	0.00833402	0.00582147	
-0.00194324	-0.00776827	-0.00426862	
0.000863098	0.00367745	0.00369268	
0.0013604	0.00364657	0.00390341	
-0.00130289	-0.00761989	-0.0115171	
0.00591538	0.00860204	0.00639294	
-0.000312626	-0.00137476	0.000612026	
0.00600871	0.0104497	0.00777	
0.00560588	0.00785702	0.00589855	
0.000136926	-0.00015059	0.00119232	
-0.00377369	-0.0155419	-0.0100528	
-0.00163721	-0.005064	-0.00299934	
-0.00026421	-0.00105052	0.00079159	
0.000299015	3.09681e-05	-3.51609e-05	
0.000172623	-0.000240361	0.000528005	
0.00027504	-0.000162521	0.000204342	
2.67455e-05	-0.000370805	0.00138524	
2.58214e-06	-7.55054e-06	1.6527e-05	
0.0118163	0.0205338	0.0141359	
0.00554883	0.00781358	0.00564592	
0.0103796	0.0156133	0.00960144	
0.011733	0.0230576	0.0148318	
-5.17367e-05	-0.000341943	0.00138211	
1.08259e-05	-0.000224377	0.000784705	
-1.68684e-05	-0.000342164	0.00148127	
0.00342051	0.00498532	0.00338891	
-5.24909e-06	-0.000126754	0.000390731	
7.53498e-05	-0.000387057	0.00128523	
2.92741e-05	-0.000391642	0.00126785	
4.78786e-05	-0.000385418	0.00150377	
0.0226512	-0.0199623	0.0190577	
0.00224063	0.0173014	-0.0200203	
-0.00688975	0.0205183	-0.0105821	
0.00154524	-0.00313191	0.000438556	
-0.00564982	0.018769	-0.00953974	
-0.00840445	0.0249993	-0.0121038	
-0.00582376	0.0129797	-0.0102671	
-0.00521547	0.00942529	-0.00757936	
0.00154669	-0.00695452	0.00400886	
4.61337e-05	-0.00441852	0.00258057	
-0.000606335	0.00238451	-0.00130211	
1.02853e-05	-0.00247682	0.00260008	
-0.000410475	-0.000119915	-0.0016761	
-0.0170957	0.0350006	-0.024515	
-0.0116038	0.0247911	-0.015295	
0.000633597	-0.0020198	-0.000843802	
0.000885323	-0.00344162	0.00194925	
0.000449774	-0.00341977	0.00201703	
0.000171382	-0.00292128	0.00161459	
-0.00167383	0.00711355	-0.00384143	
2.40042e-05	2.22525e-05	1.15883e-05	
9.61411e-06	1.71476e-05	2.02918e-05	
-1.68809e-05	-1.05204e-05	1.34517e-05	
1.50842e-05	-6.62316e-05	-0.000100958	
-0.000319741	-0.001071	-0.000930983	
0.033936	-0.0547735	0.0262418	
0.00222465	-0.00422259	0.000444215	
1.22416e-05	-0.00134766	-0.00144587	
-0.00546411	0.0156398	-0.00900264	
-8.19379e-05	-0.000359373	-0.000400269	
4.29037e-05	-0.00126908	-0.0014291	
7.43738e-05	-0.000210563	-0.000297544	
0.00683277	-0.0101852	0.00526228	
2.03879e-05	-0.00131141	-0.00138703	
-2.87075e-05	-0.000441126	-0.000521839	
-6.31888e-07	-6.42045e-06	-7.9536e-06	
3.44492e-05	-0.000109624	-0.000178971	
-0.0027274	0.00251359	0.00549456	
0.00433449	-0.006243	-0.022812	
-0.00338715	0.000900701	0.0367513	
0.0062887	0.000498423	-0.0108564	
0.00741074	0.000739395	-0.01311	
0.0111331	0.000608257	-0.0234922	
0.00251757	0.0017093	-0.0069937	
0.00687097	0.000579884	-0.0125227	
0.00627168	0.00170715	-0.014951	
0.0074785	0.000681406	-0.0145576	
0.0139785	-0.00042759	0.0476065	
0.0020674	-0.00281325	0.00660613	
0.00253196	0.00128183	0.0303464	
-0.000837085	0.000913437	0.00507716	
0.00499899	0.00144264	-0.0114212	
0.00185145	0.00147547	-0.0058466	
0.000551875	0.000994844	-0.00132155	
-9.24322e-05	0.00142385	-0.000326373	
0.00841316	0.00192345	0.0344472	
0.00397721	-0.00339647	0.012794	
0.00372897	0.00133366	0.0355721	
5.04227e-05	-7.70609e-06	-9.71125e-07	
0.00346674	-0.00254075	0.013567	
5.5949e-06	4.99412e-05	2.9229e-05	
-0.00104478	0.000513586	0.0264757	
4.22917e-06	0.000152063	-2.39071e-05	
-0.000523799	0.00135872	0.00129385	
6.08269e-05	0.000512811	-8.47073e-05	
-0.00205954	0.000932777	0.01168	
-6.565e-05	0.0010393	-0.000246157	
-0.00132203	0.000470825	0.0141435	
0.00137227	0.00101545	-0.00499249	
0.000102349	0.000126345	-2.84582e-05	
-1.60146e-05	0.00110607	-0.000197825	
8.8744e-05	0.000786908	-0.000112079	
7.84116e-05	0.000324447	-8.00489e-05	
7.71319e-05	0.00061938	-8.57161e-05	
-0.00616419	-0.0122659	-0.00366256	
-0.0252036	-0.11733	-0.139822	
-0.00160577	-0.00342572	-0.000897681	
0.00335149	0.00515848	0.00253483	
-0.00108272	-0.00248437	-0.000659496	
0.00482956	0.0114251	0.00788084	
-0.0101882	-0.0203209	-0.0109767	
0.00502839	0.00889976	0.00442764	
-0.00197834	-0.00776323	-0.00467519	
0.000921474	0.00398967	0.00375313	
0.00160538	0.00468225	0.00391809	
-0.00125417	-0.00766659	-0.0119182	
0.00597656	0.00916558	0.00493288	
-0.000269145	-0.000725473	-5.19667e-05	
0.00638827	0.0113514	0.00719947	
0.00574806	0.00842565	0.00437119	
0.000421599	0.000829427	0.00169111	
-0.0037881	-0.0159869	-0.0104643	
-0.00168548	-0.00511087	-0.00325074	
-0.000621718	-0.00218678	-0.000121585	
0.000225624	2.83664e-05	-3.08183e-05	
0.0001184	-0.000168251	0.000377243	
0.000220405	-0.000141998	0.000181561	
1.26749e-05	-0.000181844	0.000674795	
-7.29812e-05	0.000214849	-0.000469655	
0.0117854	0.020654	0.0135346	
0.00557865	0.00830681	0.0039476	
0.0103926	0.016008	0.00821115	
0.0111837	0.0224216	0.0134085	
-1.76918e-05	-0.000140139	0.000557703	
-1.83167e-05	0.000242669	-0.000813884	
-8.04348e-06	-0.000231841	0.000987321	
0.00342286	0.00529836	0.00238287	
4.99328e-06	0.000278839	-0.000850496	
3.54803e-05	-0.000180715	0.000596449	
1.20789e-05	-0.000182094	0.00059364	
4.09076e-05	-0.000328701	0.00126293	
0.0225771	-0.0193677	0.0197311	
0.00218421	0.0174905	-0.0196834	
-0.00688199	0.0206343	-0.0105674	
0.00189994	-0.00278018	0.00122249	
-0.00565132	0.0187621	-0.00958353	
-0.00843673	0.0250643	-0.0121906	
-0.00583568	0.0133132	-0.0100454	
-0.00533905	0.00989869	-0.00737148	
0.00154744	-0.00691145	0.00396447	
1.1407e-05	-0.00441659	0.00254009	
-0.000614805	0.00241676	-0.00132182	
-0.000294086	-0.0024999	0.00253077	
-0.000328731	-8.86693e-05	-0.00134113	
-0.0172047	0.0358374	-0.0243992	
-0.0116492	0.0251691	-0.0152201	
0.000381986	-0.00124733	-0.000567929	
0.000880474	-0.00340297	0.00191259	
0.000448292	-0.00341488	0.00199261	
0.000164712	-0.0029136	0.00160134	
-0.00168834	0.00714342	-0.00387776	
1.28396e-05	4.51973e-06	2.46152e-06	
3.36506e-06	6.13417e-06	7.24104e-06	
-6.09111e-06	-3.70902e-06	6.09768e-06	
6.98361e-06	-3.26183e-05	-4.88638e-05	
-4.27156e-05	-0.000146117	-0.000133633	
0.0341833	-0.0542521	0.0263165	
0.00219911	-0.00406965	0.000530943	
0.000577133	-0.00164702	-0.00061446	
-0.00543522	0.0158208	-0.00892456	
-4.69419e-05	-0.000221573	-0.00024887	
5.67056e-05	-0.00111016	-0.00133735	
3.56031e-05	-0.000106697	-0.00014932	
0.00674936	-0.00947448	0.00553439	
9.64261e-06	-0.000365985	-0.000405053	
-1.65249e-05	-0.00031018	-0.000370452	
-1.25922e-06	-1.32605e-05	-1.6404e-05	
1.59724e-05	-5.39147e-05	-8.63365e-05	
-0.00274482	0.00237081	0.00550889	
0.00380408	-0.00562303	-0.0226408	
-0.00330885	0.000894168	0.0369968	
0.00636335	0.000361247	-0.0110102	
0.00758521	0.000653386	-0.0133004	
0.0111745	0.0010217	-0.0240527	
0.002354	0.00137695	-0.00658582	
0.00698146	0.000994243	-0.0127708	
0.00607491	0.00143262	-0.0146295	
0.0075381	0.00104658	-0.0148501	
0.0140209	-5.4063e-05	0.0476882	
0.00195707	-0.00275238	0.00695694	
0.00265275	0.00137879	0.0304989	
-0.00117935	0.00170448	0.00530511	
0.00500182	0.00175989	-0.0117146	
0.00173125	0.00114649	-0.00557038	
0.000527352	0.000926598	-0.00119491	
-0.000111491	0.00177361	-0.000397535	
0.00856529	0.00208708	0.0345652	
0.00374525	-0.00315699	0.0130079	
0.00379283	0.00147731	0.0358235	
2.77898e-05	-2.65796e-05	1.92207e-06	
0.00329078	-0.00233925	0.0137743	
1.03126e-05	5.42475e-05	2.86429e-05	
-0.00103455	0.000615656	0.0266433	
1.22793e-06	4.66478e-05	-7.20959e-06	
-0.000538446	0.0011218	0.00147744	
5.42263e-05	0.000487587	-8.24e-05	
-0.00204313	0.000876385	0.0117895	
-8.09365e-05	0.00133653	-0.000305514	
-0.00133764	0.000527892	0.0142026	
0.00134046	0.000938409	-0.00494513	
0.00011984	0.000157866	-3.38678e-05	
-1.4201e-05	0.000972818	-0.000171199	
7.98403e-05	0.000749774	-0.000107443	
7.3744e-05	0.000328249	-8.09946e-05	
7.05836e-05	0.000610933	-8.58436e-05	
-0.00595176	-0.0123824	-0.00296047	
-0.0244717	-0.119988	-0.142848	
-0.00164854	-0.00357047	-0.000508586	
0.00344903	0.0049937	0.00338768	
-0.0011352	-0.0025755	-5.58621e-05	
0.00487299	0.0113259	0.00858896	
-0.00986799	-0.0209971	-0.00932111	
0.0052602	0.00844679	0.00643053	
-0.00206343	-0.00822014	-0.00445614	
0.000856735	0.00361032	0.00366913	
0.00170438	0.00462982	0.00464987	
-0.00134212	-0.00757016	-0.0117548	
0.00607492	0.00877205	0.00694908	
-4.31344e-05	-0.000955498	0.00109274	
0.00633943	0.0110856	0.00822038	
0.00579714	0.00806925	0.00634781	
0.000445783	0.000699984	0.00194795	
-0.00385347	-0.015889	-0.0101741	
-0.00170766	-0.00525128	-0.00310764	
-0.000688712	-0.00241531	7.66703e-05	
0.000302881	-7.1003e-05	9.89016e-05	
0.000186785	-0.000266799	0.000608153	
0.000260674	-0.000192489	0.00025711	
3.45118e-05	-0.000379561	0.00138467	
2.17049e-05	-6.43323e-05	0.00014281	
0.0117805	0.020498	0.0142207	
0.005605	0.00787278	0.00583933	
0.0105288	0.0156853	0.0100574	
0.0113127	0.0222945	0.0146753	
-3.43213e-05	-0.000369402	0.00144019	