<VTKFile type="UnstructuredGrid" version="0.1" byte_order="LittleEndian">
	<UnstructuredGrid>
		<Piece NumberOfPoints="8658" NumberOfCells="8658">
			<CellData Scalars="scalars">
				<DataArray type="Float64" Name="Strength" NumberOfComponents="3" Format="ascii">
-0.00760004	-0.0153124	0.013235	
0.0128825	-0.00891685	-0.0266337	
-0.0140968	0.0713277	-0.00310436	
0.00466225	-0.00687955	-0.00701664	
0.00584229	0.000108493	-0.0111455	
0.0150669	0.0533286	-0.0335121	
0.0078007	0.0851901	-0.0330847	
0.00209761	0.0167202	-0.0177276	
0.0123795	0.0830645	-0.034737	
0.00416617	0.0300248	-0.0251241	
0.0023893	0.00937788	0.0444868	
0.00440318	-0.00345661	-0.00130169	
-0.0108108	0.0408761	0.0114704	
3.91626e-05	-0.00154077	0.00219404	
0.00809275	0.0714483	-0.0341114	
0.00848633	0.0862591	-0.0244877	
0.00995234	0.0953088	-0.00612634	
-0.00274016	0.062347	-0.0315165	
6.02687e-05	0.0139591	0.0283935	
0.00613206	-0.010424	0.00795744	
-0.0114368	0.0338928	0.0193119	
-0.000441493	0.00296375	-0.000696288	
0.0045505	-0.00466487	0.0095565	
0.00213585	0.000676024	0.00129097	
-0.0141044	0.0489435	0.00269793	
-0.000798248	-0.0126618	0.0031361	
0.00404702	0.0877287	-0.0223432	
0.00763448	0.0403078	0.0142696	
-0.00111788	0.0875177	-0.00613098	
-0.00507886	0.0445343	-0.0236152	
-0.00301221	0.0537657	0.0101092	
0.00702062	0.0907561	-0.0103983	
-0.00047519	0.000412504	0.000195917	
0.00433296	0.0869795	-0.0156974	
-0.000106762	0.0782145	0.0181651	
0.0167883	0.0118989	0.00800614	
0.00538166	0.0574243	0.020909	
-0.0119019	-0.0055022	-0.0251048	
-0.0415725	-0.11742	-0.0672846	
-0.00442014	0.00685655	0.0514836	
0.000920143	0.0118914	-0.0134612	
0.00931873	-0.00748248	0.0542896	
0.0197284	-0.0252994	0.0604024	
-0.0139017	-0.0287325	0.0516978	
0.0179629	-0.0121829	0.0518124	
0.0170499	-0.0250987	0.028536	
0.0117435	0.000643467	0.0165299	
0.00600031	-0.0166332	0.0553343	
-0.0150387	-0.00988081	-0.0190956	
0.010297	-0.00429421	0.0482588	
0.00324625	-0.011159	0.0259132	
0.00842532	0.00259906	0.0546071	
0.00609159	0.000967582	0.0403007	
0.0133779	-0.0311885	0.0383319	
0.0271762	-0.0134984	0.0158236	
-0.00548143	-0.0183607	0.00553374	
0.0114299	-0.0210847	0.0529434	
0.0242768	0.000562402	0.0128272	
0.00398797	-0.0252222	0.00448327	
-0.00936077	-0.0109844	0.0137277	
0.0046507	-0.0113399	0.0584791	
-0.00491993	0.0085722	-0.0201556	
0.0224652	0.00825488	0.0376404	
0.00533551	0.00315712	0.031491	
0.00940922	0.0128087	0.0165313	
0.0349309	-0.0171956	0.067961	
-0.0023958	-0.000350747	0.0410046	
-0.0011073	-0.00174435	0.0190398	
0.00273956	0.000802886	0.0448645	
0.00317859	0.00885899	-0.0104158	
0.000526802	0.000962858	-0.00477577	
0.00223218	-0.00564185	0.0245	
0.0114362	-0.0245669	0.0498057	
0.00456129	-0.0087256	0.0516176	
0.015589	-0.0579236	-0.00624224	
-0.00159971	0.0204912	-0.030387	
-0.0103587	-0.000266087	-0.0312576	
-0.00679649	-0.038466	-0.0206131	
-0.00917146	0.0143731	-0.0106236	
-0.0157403	0.0109059	-0.0219707	
0.00387359	-0.0119149	-0.052292	
0.00592325	-0.0200719	-0.0546876	
0.00238527	-0.00946914	0.00219958	
-0.00175871	-0.00717068	0.000874106	
-0.000112531	0.000422474	-0.00356483	
0.00279995	-0.00643533	0.00180353	
0.0071188	-0.0330745	-0.0607837	
-0.0168697	-0.00779323	-0.0479101	
-0.0261879	-0.0291699	-0.0350135	
0.00587972	-0.0440368	-0.0568253	
0.000893146	-0.00489231	0.000999985	
0.000591343	-0.0060284	-0.000152267	
0.000659827	-0.0053941	-0.00130074	
-0.0019258	0.00496434	-0.00488494	
0.00187732	-0.000850293	0.00337004	
-0.00189647	-0.00206375	-0.00130662	
0.00119171	-0.00244088	-0.000810081	
0.00398132	-0.00310592	-0.00970886	
-0.016407	-0.0440924	-0.0180494	
0.0547881	-0.0630291	-0.0280276	
0.00904938	-0.0475818	-0.052794	
0.000546952	-0.0486227	-0.050199	
-0.00510081	-0.00392941	-0.034521	
-0.0133033	-0.0480761	-0.0326979	
0.00547498	-0.0462581	-0.0507236	
0.0088838	-0.00971227	-0.0403171	
0.0117588	-0.0487221	-0.0324164	
0.00397061	-0.0586958	-0.0524865	
0.00100215	-0.0114343	-0.0137189	
1.00506e-06	6.78254e-06	9.03863e-06	
0.00766739	-0.00269455	-0.0209119	
-0.00213137	0.00299379	0.00647482	
0.00442137	-0.0220899	-0.0195958	
-0.0189166	-0.00167116	0.0281178	
0.00443404	-0.000210564	-0.010615	
0.00651588	0.000962704	-0.012843	
0.0197758	0.00942424	-0.0137112	
0.00562594	0.0122938	-0.00456957	
0.00682452	0.00335143	-0.0120939	
0.0130044	0.0140124	-0.00647365	
0.00978451	0.00504807	-0.0129503	
0.0173986	-0.00306771	0.043117	
0.00117725	-0.00394414	0.0030269	
0.00074114	-0.00281998	0.0278294	
-0.000510012	0.00178127	0.00130414	
0.00947326	0.0117798	-0.00741632	
0.00522291	0.01218	-0.0030919	
0.00239918	0.0110468	0.00115645	
-0.00111581	0.00873699	-0.00572358	
0.0112801	-0.000604487	0.0311864	
0.00540419	-0.00678803	0.00986387	
0.00407926	-0.0017086	0.0323808	
-0.000227991	3.81694e-05	-4.68909e-05	
0.0049709	-0.00426461	0.010214	
0.000370612	3.77239e-05	-0.000188089	
-0.00616687	-0.000948384	0.0234955	
3.66212e-06	0.000189576	-5.4704e-05	
-0.0013699	0.0108487	-0.00136284	
0.00323649	0.00445639	0.000951053	
-0.00803869	0.00577894	0.00819817	
-0.00133494	0.00664939	-0.00465102	
-0.00338052	0.00180956	0.0123887	
0.00421921	0.0108928	-0.000462726	
0.000544284	-0.00116296	-0.000469857	
-0.000256981	0.0101654	-0.000319847	
0.00306907	0.00702123	0.00413252	
0.00237507	0.00123433	-0.000686354	
0.00328177	0.00566876	0.00284506	
-0.00358823	-0.0122066	-0.00488302	
-0.00969502	-0.0760925	-0.138891	
-0.0088647	-0.00620252	0.00242463	
0.00171306	0.0064697	0.00178792	
-0.00276668	-0.0045925	0.0038752	
0.0102946	0.00784654	0.0165186	
-0.022367	-0.0170759	-0.00029838	
0.00955759	0.00387366	0.00567296	
-0.00092017	-0.00811197	-0.000170291	
-0.00102102	0.000564838	0.00688319	
0.00098666	-0.000916482	0.00769187	
0.000246958	-0.00365364	-0.0126689	
0.00930952	0.00442972	0.00671667	
-0.000870488	-0.0032282	0.00418866	
0.00791128	0.00582735	0.00973932	
0.00793782	0.00511774	0.00592434	
0.000845046	-0.00290627	0.00476922	
-0.00434996	-0.0150945	-0.00809728	
-0.00133334	-0.00568569	-0.000884213	
1.27582e-05	-0.00253387	0.00645547	
-0.00207633	0.000917424	-0.000878181	
0.00105099	-0.00169801	0.00222765	
-0.000328395	0.00230365	0.000440039	
-0.000681818	-0.00267384	0.00564019	
-0.000334804	0.000552228	-0.00131349	
0.0191707	0.0156959	0.0154809	
0.00734095	0.00609282	0.00477223	
0.0112715	0.0152046	0.00654253	
0.0236314	0.0154535	0.018158	
-0.00128247	0.000439086	0.00576104	
-9.97901e-05	-2.12379e-07	0.0007915	
-0.00105929	0.000423744	0.00681203	
0.00243272	0.00593569	0.00143514	
0.000161749	0.000130402	-0.000928486	
0.000263925	-0.000951423	0.00602816	
0.00029154	-0.00293493	0.00530018	
-0.000693968	-0.00207103	0.00713759	
0.02783	-0.0168457	0.00805621	
0.00362757	0.00415937	-0.0250918	
-0.0110862	0.0195669	-0.00542231	
0.000478645	-0.00616816	-0.00232384	
-0.00540004	0.020117	-0.00526073	
-0.010187	0.0258892	-0.00519419	
-0.0104484	0.00402723	-0.0137788	
-0.00830343	0.00168853	-0.0103356	
0.00111416	-0.00632948	0.00520488	
0.000178443	-0.00347766	0.00358026	
-0.000680308	0.00267286	-7.7855e-05	
0.000461866	0.000422185	0.00351157	
0.000408513	-0.00269451	-0.00777458	
-0.0310098	0.0111597	-0.0258809	
-0.019823	0.0195979	-0.0108791	
0.0024224	-0.005434	-0.00756371	
0.000981711	-0.00295938	0.00302938	
0.00061497	-0.00254553	0.00293309	
0.000331214	-0.00235762	0.00229714	
-0.00130378	0.00805327	-0.00232229	
0.00130279	-9.12876e-06	0.000176713	
0.000832241	0.000434597	0.000502623	
0.000627161	-0.000371871	0.00036805	
-0.000216486	0.000107267	0.000399841	
-0.00199006	-0.00488416	-0.00104329	
0.0516428	-0.0496857	0.00145854	
0.00476856	-0.00696156	-0.00693354	
-0.00176419	-0.00614628	-0.00674384	
-0.00927874	0.0144404	-0.00622857	
-0.00110394	-0.00198916	-0.00181063	
0.000553295	-0.00655187	-0.00710073	
0.000805499	-0.000213024	-0.00131544	
0.0128043	-0.00966152	-0.00317037	
0.000255246	-0.00547836	-0.00455479	
-3.1155e-05	-0.00307248	-0.00287911	
0.000117558	0.000742623	0.00101814	
9.01054e-05	-1.09109e-05	-0.000149561	
-0.00233928	0.00330162	0.0061909	
0.00582643	-0.0226827	-0.0156682	
-0.0017291	-0.00516252	0.034073	
0.00528765	-0.00107548	-0.0103016	
0.00754214	-0.000932362	-0.0120859	
0.0164867	-0.000341558	-0.0173893	
0.00266614	0.00287515	-0.00671344	
0.00779685	-0.000150011	-0.0108346	
0.0083508	0.00258407	-0.012952	
0.00982535	-0.000217	-0.0118524	
0.0122538	-0.000542954	0.0457742	
0.00143044	-0.00397794	0.00405342	
0.00134298	0.000338704	0.0287246	
-0.00075869	0.0028208	0.000634552	
0.00680474	0.00183452	-0.00969638	
0.00193958	0.0029276	-0.00588255	
0.000495152	0.00327616	-0.00243754	
-0.000660233	0.00227583	-0.00156138	
0.00814597	0.00207996	0.0327579	
0.00543506	-0.00752576	0.00957868	
0.00251076	0.000475041	0.033551	
0.000124223	5.97959e-06	-0.000156314	
0.00501826	-0.00449601	0.0109117	
0.00016284	-1.05791e-05	-8.3813e-06	
-0.00231786	-0.000946903	0.0245273	
-1.6758e-06	6.87269e-05	-2.27296e-05	
-0.000638713	0.00289381	0.000696284	
0.000940949	0.00144157	-0.000103189	
-0.00058083	0.000293187	0.010841	
-0.000533485	0.00164846	-0.00131302	
-0.000801551	-0.000226361	0.0125461	
0.000683532	0.00358477	-0.0050875	
0.000340584	-0.000415851	-0.00018959	
-0.00014604	0.0028011	-0.000211156	
0.000936861	0.00225951	0.000170985	
0.00102276	0.000593514	-0.000332408	
0.00101913	0.00185083	0.000122333	
-0.00379969	-0.0126509	-0.00367247	
-0.0442742	-0.0705837	-0.143412	
-0.00334567	-0.00780575	-0.00102091	
0.00222372	0.00594611	0.00268436	
-0.0015494	-0.00289545	0.000411516	
0.0065646	0.0139175	0.00906253	
-0.0129239	-0.0229014	-0.00751543	
0.0057981	0.0080922	0.00400031	
-0.00198619	-0.00684652	-0.00373613	
0.00236965	-0.000984206	0.00564355	
0.00120957	0.00288613	0.00380061	
0.00124317	-0.00782999	-0.0120223	
0.00657023	0.00821324	0.004746	
-0.000624547	-0.00226702	0.000768873	
0.00413781	0.0103733	0.00604575	
0.00631591	0.0075604	0.00399272	
0.000246034	-0.000671164	0.00160294	
-0.0043514	-0.0151246	-0.010104	
-0.0019536	-0.00478394	-0.00297303	
-0.000110783	-0.000535199	0.00198867	
-0.000346606	0.00050114	-0.000252147	
0.00038288	-0.000493783	0.000615998	
-0.000532069	0.000495853	1.34219e-05	
-0.000138335	-0.000322495	0.00184333	
-0.000103448	0.000166381	-0.000397017	
0.0108171	0.021853	0.0126226	
0.00629584	0.00760335	0.00326447	
0.0109425	0.0159725	0.00584243	
0.00929933	0.0272376	0.0120852	
-0.000638559	1.0831e-05	0.00182581	
3.19481e-05	-1.03468e-05	-0.000175879	
-0.000616243	0.00010062	0.00221075	
0.00268409	0.00565187	0.00226691	
0.000116559	4.90815e-05	-0.000538898	
-2.95989e-05	-0.000348766	0.00203623	
5.85697e-05	-0.000538989	0.00161494	
-0.000273335	-0.00025281	0.00241072	
0.028785	-0.0135816	0.0112562	
0.00579293	0.00569449	-0.0269517	
-0.00653586	0.0218557	-0.00490307	
0.00146197	-0.00278552	-0.000191579	
-0.00597148	0.0194849	-0.00627904	
-0.00832785	0.0265618	-0.00559378	
-0.00756206	0.0116358	-0.0100186	
-0.00664515	0.00857304	-0.00666655	
0.00175628	-0.00751517	0.00388243	
0.000418564	-0.00480238	0.0024491	
-0.000554377	0.00223866	-0.00116233	
-0.00177146	-0.00125767	0.00324812	
-0.000173538	-0.000148362	-0.00246534	
-0.0215453	0.0289617	-0.0240242	
-0.00896424	0.0250555	-0.014671	
0.0013157	-0.00247615	-0.00174191	
0.000878806	-0.00395702	0.00173033	
0.00062944	-0.00376085	0.00187037	
0.000111277	-0.0033874	0.00107481	
-0.00185366	0.00705296	-0.00321573	
-0.00032231	3.82502e-05	0.000167918	
-0.000203213	-0.00013768	-0.000129724	
-4.54716e-05	-0.000202856	-3.98869e-05	
0.000163603	-8.59035e-05	-0.000318424	
-0.000712596	-0.00149364	-0.00012838	
0.0284152	-0.0610817	0.0224392	
0.00341007	-0.00421585	-0.000998674	
-0.0011876	-0.00149781	-0.00250869	
-0.00495452	0.0168394	-0.00566378	
-0.000408924	-0.000573807	-0.000534424	
0.000106521	-0.00209499	-0.00226319	
0.000361747	-0.000205505	-0.000515734	
0.0115939	-0.00725409	0.00224432	
3.06339e-05	-0.0017675	-0.00137229	
-0.000127846	-0.000768392	-0.000796794	
-3.49554e-05	-0.000224977	-0.000312599	
0.000238562	-5.4606e-05	-0.000393444	
-0.00256233	0.00360061	0.00573755	
0.00769173	-0.0223832	-0.0124617	
-0.00583767	-0.000466111	0.0347587	
0.00567929	-0.00112082	-0.0102856	
0.00757387	-0.00130173	-0.012422	
0.0116437	-0.00312662	-0.0217829	
0.00120175	0.00219901	-0.00791858	
0.00721779	-0.00101494	-0.011654	
0.00440177	0.000584281	-0.0154863	
0.00839707	-0.00150853	-0.013352	
0.0130149	-0.00156041	0.0464928	
0.00148357	-0.00341256	0.00531209	
0.001621	0.00013948	0.029172	
0.000345675	0.00371469	0.00129153	
0.00358957	0.00066478	-0.0119172	
0.00116989	0.00264063	-0.00666657	
0.000796611	0.00344136	-0.00257632	
-0.000953272	0.00240012	-0.00161705	
0.00840051	0.00144006	0.0333519	
0.00496654	-0.00739149	0.0102085	
0.00256123	0.000243261	0.0340645	
-2.6072e-05	-8.76431e-05	0.000137349	
0.00528639	-0.00449459	0.0113874	
0.000157662	-2.20302e-05	6.34545e-05	
-0.00215008	-0.00063451	0.0252077	
-1.22536e-05	0.000252008	-9.36518e-05	
-0.000724842	0.00357092	6.04633e-05	
0.000891466	0.00143602	-0.000118691	
-0.00262826	0.00266412	0.0106397	
-0.000703167	0.0015878	-0.00128048	
-0.00153659	0.000492318	0.012991	
0.00149541	0.0034124	-0.00559355	
0.000332488	-0.000424241	-0.000189411	
-0.00014426	0.00338516	-0.000856766	
0.00109817	0.00261857	-1.21614e-05	
0.00106725	0.000624874	-0.000341985	
0.00111567	0.00203769	7.023e-05	
-0.00465906	-0.0126891	-0.00315393	
-0.020403	-0.0523381	-0.162765	
-0.00354333	-0.00610399	-0.000464945	
0.00271607	0.00564762	0.00258216	
-0.00153305	-0.00277522	0.000482566	
0.00624851	0.0131975	0.0087594	
-0.00987112	-0.0235914	-0.00766532	
0.00468533	0.00902264	0.00449072	
-0.00241711	-0.00699457	-0.00389661	
0.000940164	0.00111063	0.00599419	
0.0015671	0.0033546	0.00421306	
-0.00484353	-0.00414914	-0.0127154	
0.00513927	0.00946875	0.00511181	
-0.000363076	-0.00192097	0.000666848	
0.00545715	0.0107934	0.00584953	
0.00503692	0.00880687	0.00418675	
0.000464896	-0.000334767	0.00192493	
-0.00506938	-0.0157046	-0.00948466	
-0.00229889	-0.00504271	-0.00242195	
-0.000365445	-0.00118634	0.00161458	
-0.000227095	0.000519789	-0.000402119	
0.000413025	-0.000513954	0.000679036	
0.000508792	0.000437106	-0.000321468	
-0.000113453	-0.000335746	0.00183992	
-7.75542e-05	0.000123535	-0.00029304	
0.0117447	0.0214283	0.0126209	
0.00531691	0.00861849	0.00332492	
0.0104621	0.0167256	0.00568492	
0.0126736	0.0255316	0.0110603	
-0.000457172	2.01179e-05	0.00161281	
2.59661e-05	-8.49376e-06	-0.000122278	
-0.000463898	0.00013528	0.00198078	
0.00300698	0.00555299	0.00223809	
0.000124898	3.22175e-05	-0.000521572	
-3.86229e-05	-0.000322742	0.00161424	
3.94177e-05	-0.000582679	0.00168943	
-0.000189095	-0.000236245	0.00230322	
0.0277659	-0.014151	0.015111	
0.00562198	0.0058499	-0.0257876	
-0.00804823	0.0217243	-0.00553366	
0.00135129	-0.00287986	0.000559818	
-0.0059497	0.0199543	-0.00607621	
-0.00907369	0.0267668	-0.00578466	
-0.00522437	0.0134716	-0.0095305	
-0.00462549	0.0101158	-0.00673044	
0.00153403	-0.00706753	0.00421898	
0.000426506	-0.00435835	0.00280165	
-0.000621609	0.002464	-0.000892599	
-0.000102719	0.000206461	0.00366481	
3.5271e-06	-0.000148857	-0.00250863	
-0.0161996	0.0340395	-0.0237495	
-0.0123964	0.0236943	-0.0155269	
0.000684254	-0.00248973	-0.0016907	
0.00088085	-0.00357305	0.00204534	
0.000633353	-0.00338426	0.00214502	
0.000136198	-0.00304053	0.00149668	
-0.00175441	0.00743289	-0.00303982	
5.78332e-05	-0.000114078	-7.53828e-05	
8.29272e-05	5.30846e-05	5.29059e-05	
7.65786e-05	4.37864e-05	1.13902e-05	
6.18922e-05	-3.52657e-05	-0.000123713	
-0.000805696	-0.00135296	-1.887e-05	
0.0299087	-0.0609979	0.020569	
0.00230539	-0.00494171	-0.000531759	
-0.000487119	-0.0016729	-0.00221223	
-0.00644469	0.0163737	-0.00650921	
-0.000432527	-0.00073593	-0.000612486	
-4.50556e-06	-0.00208323	-0.0021986	
0.000390009	-0.000218876	-0.00056849	
0.00945224	-0.00852433	0.0049217	
-9.19722e-05	-0.00173479	-0.00125867	
-0.000149711	-0.00072344	-0.000856814	
6.92944e-06	4.44317e-05	6.17373e-05	
0.000161819	-4.00073e-05	-0.00028051	
-0.00293281	0.00342685	0.00555283	
0.00829782	-0.0209862	-0.0117137	
-0.00628926	-0.000441639	0.0354635	
0.00601109	-0.00116561	-0.0105918	
0.00742462	-0.00129895	-0.0130307	
0.0101279	-0.00381145	-0.0232847	
0.00226123	0.00192893	-0.00766328	
0.00656618	-0.00129147	-0.0126289	
0.00602987	0.000344982	-0.0150479	
0.00724646	-0.00202174	-0.0146204	
0.0134758	-0.00147223	0.0473048	
0.00175262	-0.00304765	0.00612997	
0.0016169	0.000426884	0.029633	
0.000311266	0.00434354	0.00188486	
0.00428865	7.69e-05	-0.0117934	
0.00194835	0.00225104	-0.00644901	
0.000982362	0.00336755	-0.00285958	
-0.00101228	0.00252803	-0.00173255	
0.00871315	0.00162555	0.0339581	
0.0045712	-0.00732893	0.0106883	
0.00262618	0.000708371	0.0349686	
0.000116927	1.09973e-05	0.000101963	
0.00547054	-0.00470561	0.0118093	
6.79412e-05	2.96872e-05	0.000128057	
-0.00216957	-0.000317979	0.0259201	
-9.41681e-06	0.000122984	-4.96865e-05	
-0.000723045	0.00322157	0.000159518	
0.000963659	0.00154596	-0.000132517	
-0.00278554	0.00265422	0.0108835	
-0.000892386	0.00190191	-0.00153337	
-0.00155683	0.00071566	0.0135481	
0.0016845	0.00320933	-0.00559358	
0.000301413	-0.000383839	-0.000171213	
-0.000120486	0.00309321	-0.000750833	
0.0011766	0.00281886	3.01914e-05	
0.00105697	0.00056915	-0.000318609	
0.00119764	0.00221798	8.20018e-05	
-0.0054907	-0.0126111	-0.00278127	
0.0067607	-0.0630586	-0.166906	
-0.0029624	-0.00522182	-0.000358828	
0.00310406	0.00543744	0.0025963	
-0.0014355	-0.00267753	0.000302337	
0.0059657	0.0129645	0.00838379	
-0.0113789	-0.0224492	-0.00728644	
0.00535504	0.00895449	0.00416872	
-0.00243997	-0.00724508	-0.00428332	
0.000393662	0.00200576	0.00532411	
0.00162403	0.00367008	0.00420495	
-0.00351475	-0.00670548	-0.0115597	
0.00573737	0.00946781	0.00483956	
-0.000370425	-0.00148904	0.000542282	
0.0059933	0.0113989	0.00586149	
0.00514642	0.00898253	0.00414997	
0.00045778	-0.000183861	0.00175522	
-0.00469049	-0.0154374	-0.00997943	
-0.00256896	-0.00460943	-0.00301565	
-0.000402997	-0.00126975	0.00119973	
0.000366408	0.000210139	-0.000151862	
0.000332864	-0.000490487	0.000638773	
0.000530205	0.000214302	-0.000192721	
-9.92631e-05	-0.000305903	0.00166366	
-6.59777e-05	0.00010492	-0.00024896	
0.0120241	0.0216028	0.0122853	
0.00516565	0.00890374	0.00336189	
0.0101348	0.01716	0.00587116	
0.0125544	0.0251385	0.0106457	
-0.000377813	3.75301e-05	0.00134713	
1.33929e-06	-1.23139e-06	-8.50556e-06	
-0.000396615	0.000122525	0.00171903	
0.0031763	0.00547051	0.00241961	
6.92066e-05	1.47817e-05	-0.000282791	
-2.91122e-05	-0.000250631	0.00131	
4.08147e-05	-0.000542262	0.00159137	
-0.000151333	-0.000194543	0.00192193	
0.0262452	-0.0148678	0.0182345	
0.00589479	0.0059435	-0.0257815	
-0.00808669	0.022045	-0.00541815	
0.0013262	-0.00291018	0.00120412	
-0.00605289	0.0200593	-0.00614826	
-0.00905182	0.0269724	-0.00605976	
-0.00621553	0.0130536	-0.00988318	
-0.00547292	0.00972422	-0.00693609	
0.00160351	-0.00711528	0.00405951	
0.000415425	-0.00444004	0.00270168	
-0.000625719	0.00249061	-0.000974976	
-0.000266567	0.000336231	0.00367378	
-7.66435e-05	-0.00010109	-0.00223088	
-0.0188859	0.0335048	-0.0245763	
-0.0126104	0.0243565	-0.0152158	
0.000580113	-0.00226772	-0.00148556	
0.000870532	-0.00360298	0.00190903	
0.00064543	-0.00347383	0.00202985	
9.52291e-05	-0.00311704	0.00137408	
-0.00179953	0.00741956	-0.00311472	
-3.68644e-06	7.9939e-06	6.04614e-06	
-8.50323e-06	-5.58158e-06	-5.51634e-06	
-3.74533e-06	-5.86543e-06	-2.08861e-07	
6.58938e-05	-3.71149e-05	-0.000130638	
-0.000703064	-0.000933679	1.42385e-05	
0.0319682	-0.0593137	0.020595	
0.002063	-0.0047939	-6.50225e-06	
-0.000139879	-0.00171496	-0.0016521	
-0.00647615	0.0166469	-0.00634127	
-0.000290724	-0.000501864	-0.000431362	
-3.36699e-05	-0.00174117	-0.00179693	
0.000257433	-0.00014555	-0.000378576	
0.00787395	-0.00891721	0.00636566	
-0.000149328	-0.00155292	-0.00109207	
-0.000130875	-0.000686361	-0.000787168	
-4.76147e-06	-3.13605e-05	-4.35687e-05	
0.000127259	-3.29129e-05	-0.000219537	
-0.00281505	0.00372321	0.00496286	
0.00700225	-0.020214	-0.0124897	
-0.00532792	-0.00210839	0.0363165	
0.00600474	-0.000865576	-0.0109799	
0.00709197	-0.0015017	-0.0135416	
0.0115421	-0.0045168	-0.022778	
0.00255842	0.00137689	-0.0078285	
0.00625188	-0.00145055	-0.0128909	
0.00637056	-0.000282093	-0.0149406	
0.00709746	-0.00253851	-0.0146427	
0.0144143	-0.00187642	0.0474741	
0.00221209	-0.00310965	0.00630373	
0.00221184	-0.000275809	0.0302523	
-0.000814321	0.00435851	0.00246444	
0.00488184	-0.000226031	-0.0116217	
0.0021337	0.00185195	-0.00672498	
0.000620911	0.00262967	-0.00167939	
-0.000668733	0.00175219	-0.00122359	
0.00927367	0.00132816	0.0342506	
0.00443612	-0.00744309	0.0108145	
0.00321633	6.75966e-05	0.0355696	
4.90942e-05	-1.89865e-05	5.26347e-05	
0.00562352	-0.00487639	0.0120448	
2.37449e-05	3.34893e-05	5.20758e-05	
-0.00155539	-0.00126663	0.0264548	
-5.23139e-05	0.000565737	-0.0002428	
-0.00073938	0.00316244	0.000317626	
0.000501448	0.000801968	-8.60059e-05	
-0.00258592	0.00132597	0.0114774	
-0.000597706	0.00127216	-0.00103643	
-0.00151235	-0.000260909	0.0140338	
0.00152741	0.00282381	-0.00537561	
0.000138782	-0.00016809	-8.75183e-05	
-0.000111867	0.00292637	-0.000707351	
0.000687714	0.00163331	7.75684e-06	
0.000453489	0.000252089	-0.000153073	
0.000662631	0.00120727	2.6392e-05	
-0.00586472	-0.0125052	-0.00226437	
0.000473881	-0.05977	-0.172267	
-0.00274981	-0.00504739	-0.00053742	
0.00336667	0.00533197	0.00295116	
-0.00139401	-0.00274351	-7.36996e-05	
0.00578316	0.0129579	0.00809086	
-0.0110857	-0.022537	-0.00687395	
0.00546044	0.00895069	0.00474287	
-0.00247738	-0.00738316	-0.0047772	
0.000145795	0.00141538	0.00511597	
0.00153773	0.00369591	0.00384053	
-0.00287094	-0.00536849	-0.0125294	
0.00575583	0.00939891	0.00558819	
-0.000238621	-0.00133545	0.000746949	
0.00598768	0.011749	0.00592599	
0.00526187	0.00888769	0.00487893	
0.000273251	-0.000248029	0.00115714	
-0.00462656	-0.0154266	-0.0100989	
-0.00274686	-0.00439055	-0.00331266	
-0.000319889	-0.00103516	0.00080774	
0.000243339	0.000146853	-0.000112059	
0.000241927	-0.000359878	0.000426093	
0.000371058	-6.29955e-05	6.25093e-05	
-7.75364e-05	-0.000261617	0.00141554	
4.3845e-06	-6.76968e-06	1.66707e-05	
0.0119812	0.0219351	0.0121929	
0.00526862	0.00895898	0.00426707	
0.010072	0.0174917	0.00674465	
0.01216	0.0253855	0.0106193	
-0.000386828	4.78599e-05	0.00137792	
-0.000172266	4.89107e-05	0.000802815	
-0.000346501	0.000113482	0.00148422	
0.0032017	0.00548413	0.00295102	
-9.97089e-05	-2.19195e-05	0.000401454	
-3.68495e-05	-0.000240742	0.00132878	
3.36693e-05	-0.000430646	0.00126145	
-0.00012564	-0.000146766	0.00154936	
0.0246033	-0.0168765	0.0203523	
0.00532595	0.00622531	-0.0255181	
-0.00805387	0.0223265	-0.00535874	
0.00113728	-0.00305828	0.00141806	
-0.00606546	0.0202299	-0.00617953	
-0.00903835	0.0271772	-0.00618372	
-0.00652279	0.0134465	-0.00951191	
-0.0058046	0.0100906	-0.00643937	
0.00158658	-0.00700124	0.00405526	
0.000414586	-0.00433027	0.00277261	
-0.000643945	0.00255734	-0.000968225	
0.000282972	0.000128169	0.00364682	
-0.0002652	0.000248943	-0.00170925	
-0.0193725	0.0345765	-0.0242782	
-0.0125067	0.0248866	-0.0150631	
0.000654027	-0.00192352	-0.00108026	
0.000867209	-0.0035099	0.00190931	
0.000640311	-0.00340916	0.00204988	
0.000113797	-0.00305249	0.00142165	
-0.00180796	0.00750999	-0.00311971	
3.87273e-06	-3.51768e-05	-2.13477e-05	
2.08354e-05	1.38745e-05	1.37222e-05	
2.26295e-05	8.97634e-06	2.7829e-07	
5.33142e-05	-3.05938e-05	-0.000106278	
-0.000962749	-0.00111286	1.74158e-05	
0.0319061	-0.0590592	0.0206478	
0.0023148	-0.00423871	0.000356003	
-7.38791e-05	-0.00149412	-0.00132377	
-0.0063896	0.0168285	-0.00621692	
-0.000217587	-0.000378521	-0.000333498	
-1.21465e-05	-0.00135719	-0.00137427	
0.000200156	-0.000114181	-0.000295926	
0.00725991	-0.0090069	0.0069457	
-0.00016667	-0.00157367	-0.00110408	
-8.65379e-05	-0.000447375	-0.000518563	
-8.92552e-07	-6.03574e-06	-8.33419e-06	
0.000106201	-2.82491e-05	-0.000184234	
-0.00299863	0.0033957	0.00493443	
0.00661254	-0.0203377	-0.0112633	
-0.00448275	-0.00312917	0.0367385	
0.006317	-0.00142953	-0.0108799	
0.00721456	-0.00192537	-0.0132379	
0.0119085	-0.00522196	-0.0227306	
0.00248732	0.000585079	-0.0072342	
0.00680329	-0.00220471	-0.012508	
0.00653853	-0.00103164	-0.0150087	
0.00767876	-0.0030571	-0.0142863	
0.0146771	-0.00217579	0.0476558	
0.00227257	-0.00320769	0.00640794	
0.00238694	-0.000753911	0.030558	
-0.00130736	0.00435482	0.00263116	
0.00515026	-0.00101347	-0.0114879	
0.00194303	0.000705038	-0.00599851	
0.000610035	0.00102442	-0.00128693	
-0.00044046	0.00115208	-0.000812273	
0.00958626	0.00115121	0.0343953	
0.00418062	-0.00751256	0.0109255	
0.00339476	-0.000299326	0.0358396	
6.3745e-05	-5.92404e-06	2.90169e-05	
0.00548727	-0.00507229	0.012211	
9.84051e-06	4.50593e-05	3.62188e-05	
-0.00125909	-0.00180239	0.0265679	
-1.55207e-05	0.000141704	-6.17774e-05	
-0.000645206	0.00146773	0.00113307	
0.000278404	0.00044483	-5.08729e-05	
-0.00229591	0.000176975	0.011746	
-0.000365084	0.000789398	-0.000639862	
-0.0014623	-0.000826756	0.0141991	
0.0014742	0.00103216	-0.00499239	
9.99142e-05	-0.000116722	-6.30844e-05	
-4.08853e-05	0.0011007	-0.00026569	
0.000309945	0.000744175	-5.94585e-06	
0.000287482	0.000163666	-0.000100137	
0.000301102	0.00055902	5.75144e-06	
-0.00657737	-0.0124788	-0.00262725	
-0.00419824	-0.0487243	-0.178658	
-0.00184753	-0.00344179	-0.000394282	
0.00341918	0.00537536	0.00213863	
-0.00118095	-0.00248944	-0.000569785	
0.00513946	0.0120524	0.0069116	
-0.0109815	-0.0214987	-0.00810133	
0.00530335	0.00936174	0.00326178	
-0.00246677	-0.00735913	-0.00519246	
-0.000428444	0.00112716	0.00545307	
0.0017635	0.0047603	0.00382571	
-0.00203629	-0.00452047	-0.0133979	
0.0060894	0.00966758	0.00403963	
-0.000266035	-0.00073469	3.28457e-05	
0.00655054	0.0124854	0.00514436	
0.0058517	0.00898156	0.00327836	
0.000584981	0.000714477	0.0017054	
-0.00437128	-0.0157534	-0.0108181	
-0.0025188	-0.00426565	-0.00393453	
-0.000715012	-0.00218019	-9.22506e-05	
0.000179022	0.000123677	-7.97502e-05	
0.000179208	-0.000256295	0.000297383	
0.000314727	-1.91975e-05	6.03951e-05	
-3.57713e-05	-0.000128115	0.000689713	
-0.000124811	0.000198374	-0.000470784	
0.012021	0.0220226	0.0114701	
0.00578171	0.00885722	0.00250247	
0.0105146	0.0173979	0.00525576	
0.0116218	0.0245387	0.009222	
-0.000154372	1.94995e-05	0.000556709	
0.000171541	-5.02488e-05	-0.00083742	
-0.000231252	7.55655e-05	0.000990015	
0.00341558	0.00557896	0.00190648	
0.000209004	4.2865e-05	-0.000876824	
-1.92861e-05	-0.00010915	0.000617173	
9.6441e-06	-0.00019893	0.000591213	
-0.000103063	-0.000125895	0.00130235	
0.0238018	-0.0170166	0.0211619	
0.00538308	0.00672016	-0.0252474	
-0.00803142	0.0224662	-0.00525116	
0.00178903	-0.00248455	0.00193563	
-0.00605657	0.020262	-0.00616219	
-0.00909544	0.0272834	-0.00615971	
-0.00658562	0.0137705	-0.00924507	
-0.00603706	0.0104965	-0.00615802	
0.00161056	-0.0069538	0.0040125	
0.000419321	-0.00431538	0.00275472	
-0.000653757	0.00259607	-0.000975821	
0.000433691	-0.000177055	0.0036233	
-0.000206966	0.000215637	-0.00136596	
-0.0193752	0.035541	-0.0241076	
-0.0125224	0.02531	-0.0149586	
0.00038849	-0.00118408	-0.000714773	
0.000868167	-0.00347074	0.00187206	
0.000637525	-0.00340486	0.00202662	
0.000114911	-0.00304052	0.00141624	
-0.00182184	0.00754805	-0.00315162	
-6.31749e-07	-1.44295e-05	-8.2278e-06	
7.37334e-06	5.00403e-06	4.91364e-06	
9.30552e-06	2.19967e-06	-2.5574e-07	
2.56596e-05	-1.5298e-05	-5.16881e-05	
-0.000139839	-0.000149893	-4.32997e-07	
0.0322586	-0.0586176	0.0205362	
0.00228091	-0.00408885	0.000457701	
0.000533949	-0.00173415	-0.000450505	
-0.00637284	0.0170061	-0.00609231	
-0.000131664	-0.000234173	-0.00020807	
-1.13515e-05	-0.00121963	-0.00126497	
0.000100027	-5.85069e-05	-0.000148656	
0.00721951	-0.00805649	0.00725802	
-4.31275e-05	-0.000453231	-0.000311984	
-5.63941e-05	-0.000312682	-0.000370378	
-1.79533e-06	-1.24437e-05	-1.72201e-05	
5.10933e-05	-1.43841e-05	-8.93329e-05	
-0.00307154	0.00324701	0.00494309	
0.00660198	-0.0203729	-0.0102234	
-0.00437525	-0.00315247	0.0369759	
0.00638795	-0.00161103	-0.0110082	
0.00741662	-0.00209793	-0.0133861	
0.0118915	-0.00518265	-0.0233676	
0.00231271	0.000285899	-0.00677901	
0.00679917	-0.00206216	-0.0128689	
0.00627284	-0.0013388	-0.014658	
0.00770718	-0.00295917	-0.0146432	
0.0147457	-0.00223848	0.0476889	
0.00229556	-0.00329137	0.00665774	
0.00248164	-0.00077446	0.0307021	
-0.00124074	0.00499669	0.00250844	
0.00503415	-0.000922855	-0.0118818	
0.00179948	0.000388352	-0.0056879	
0.000577738	0.000953914	-0.00116206	
-0.000553857	0.00142989	-0.00101171	
0.00972071	0.00115245	0.034499	
0.00386812	-0.00753796	0.0111062	
0.0034299	-0.000257728	0.0360824	
-1.16928e-05	-2.57727e-05	4.1633e-05	
0.00534336	-0.00523682	0.0123344	
-7.42126e-06	6.10363e-05	1.25453e-05	
-0.00124254	-0.00173799	0.0267297	
-5.35382e-06	4.32386e-05	-1.90949e-05	
-0.000635041	0.00125508	0.00134478	
0.000262042	0.000424284	-4.94351e-05	
-0.00227818	0.000115439	0.0118494	
-0.000468206	0.0010092	-0.000826408	
-0.00145486	-0.000771049	0.0142595	
0.00141188	0.000955042	-0.00495228	
0.000125414	-0.000139167	-7.63425e-05	
-3.40719e-05	0.00096862	-0.000229346	
0.000293626	0.000709216	-6.88857e-06	
0.000287103	0.000169806	-0.000100484	
0.000293201	0.000552844	3.58336e-06	
-0.00629483	-0.0125589	-0.00202486	
-0.0056315	-0.0639677	-0.177852	
-0.00198522	-0.00347845	7.15614e-08	
0.0034622	0.00529127	0.00304793	
-0.00129155	-0.00253068	4.35124e-05	
0.00525226	0.0119878	0.00762266	
-0.0103514	-0.0220975	-0.00638845	
0.00548911	0.00919965	0.00530625	
-0.00256535	-0.00780656	-0.00504484	
-0.000603848	0.00158828	0.00496544	
0.00194878	0.00469705	0.00455067	
-0.00145833	-0.00427071	-0.0133639	
0.00582465	0.00972918	0.00605397	
7.25271e-05	-0.000866767	0.00117316	
0.00630638	0.0125314	0.00614118	
0.00545285	0.00923226	0.00518435	
0.000666043	0.000541324	0.00194564	
-0.0044299	-0.0156077	-0.0106037	
-0.00242697	-0.00451417	-0.00379596	
-0.000828159	-0.00239313	0.000114364	
0.000328134	2.60911e-05	1.16834e-05	
0.000278551	-0.0004047	0.000488485	
0.000345015	-0.000161658	0.000167575	
-6.65251e-05	-0.000268126	0.00141639	
3.76135e-05	-5.98118e-05	0.000142933	
0.0119002	0.0220453	0.0120904	
0.0053701	0.00907354	0.004359	