<VTKFile type="UnstructuredGrid" version="0.1" byte_order="LittleEndian">
	<UnstructuredGrid>
		<Piece NumberOfPoints="4107" NumberOfCells="4107">
			<CellData Scalars="scalars">
				<DataArray type="Float64" Name="Strength" NumberOfComponents="3" Format="ascii">
-0.0069732	-0.0157757	0.0127189	
-0.00131055	-0.0132624	-0.0274996	
-0.0200153	0.0687647	0.00957678	
0.00448231	-0.00665316	-0.00719198	
0.00594316	0.000731535	-0.0109469	
0.0136261	0.0559375	-0.0285188	
0.00394788	0.0873496	-0.0252529	
0.00445507	0.0189251	-0.0145008	
0.00920978	0.0846784	-0.0296468	
0.00642853	0.0333484	-0.0192684	
0.00559224	0.00425153	0.0446949	
0.0031805	-0.00435453	0.00183228	
-0.0120113	0.0385651	0.0162035	
0.000841157	0.00153801	-0.00188299	
0.00628105	0.0743844	-0.0257829	
0.00616165	0.0865566	-0.0213735	
0.00348595	0.0933195	-0.0190672	
-0.00107604	0.0669416	-0.0181132	
0.000598029	0.0117117	0.0291737	
0.00819194	-0.00835525	0.00836718	
-0.00835588	0.0317549	0.0235251	
0.00224611	-0.000467135	0.000526339	
0.0044724	-0.00526219	0.00918309	
-0.00112554	0.00198272	0.00113157	
-0.0162883	0.0470224	0.00945419	
-0.000752824	-0.0126526	0.00264869	
0.00118578	0.088066	-0.0181495	
0.0058193	0.0427291	0.00101271	
-0.00717548	0.0865788	-0.00624524	
-0.000899142	0.0485651	-0.0128134	
-0.00459069	0.0540847	0.00373979	
0.00408027	0.0891639	-0.0174364	
-0.0005528	-0.000307625	0.000170194	
0.00163852	0.0865378	-0.0149166	
0.00868954	0.0792333	0.000767071	
0.00925784	0.0198857	2.02648e-05	
0.00827985	0.06032	0.00169224	
-0.0105468	-0.0053161	-0.0254835	
0.0369839	-0.118238	0.0573347	
-0.011216	-0.0112842	0.0492874	
0.00155159	0.0114265	-0.0136173	
-0.000909224	-0.00703701	0.0548218	
0.0222889	-0.00598519	0.0639406	
-0.0112176	-0.0372364	0.0460993	
0.0143826	-0.0116958	0.0525926	
0.00546125	-0.0203995	0.0356677	
0.0137275	-0.000935196	0.0147702	
0.00541349	-0.0130293	0.0560289	
0.0129636	0.0114627	-0.0169118	
0.00964428	-0.00758748	0.0476078	
0.00236454	-0.0118031	0.0255062	
0.00686346	-0.00307374	0.0544675	
0.00690461	-0.00396281	0.0396709	
0.00796525	-0.0185842	0.0467646	
-0.00243266	-0.0169152	0.0294563	
0.00661291	-0.0110164	0.0151216	
0.0071387	-0.0120549	0.0561017	
0.0223547	-0.0148614	-0.000978852	
0.00788072	-0.021815	0.0112779	
0.00744448	-0.000315485	0.0182384	
0.00314948	-0.0134259	0.0577819	
-0.00306135	0.00817684	-0.0204944	
0.0183902	0.0109422	0.0388013	
0.00652607	-0.0010924	0.0311545	
0.0100078	0.0109097	0.0172518	
0.0341784	0.000471249	0.0699367	
-0.000223478	-0.00779292	0.0400677	
0.000582346	-0.00498616	0.0183262	
0.00214102	-0.00770618	0.0439614	
0.00261358	0.00904083	-0.0102592	
2.23848e-05	0.00141872	-0.00464823	
0.00229227	-0.00676584	0.0240342	
0.0074068	-0.0172416	0.0531939	
0.00396782	-0.0115779	0.050772	
0.0216933	-0.054008	-0.0134786	
-0.00352859	0.0183579	-0.0305692	
-0.00983371	-0.000461114	-0.0311719	
-0.000466601	-0.0307181	-0.0311842	
-0.00765427	0.0142526	-0.0116806	
-0.0129075	0.0116334	-0.0231378	
-0.000960476	-0.0174467	-0.0504055	
0.00194725	-0.0258403	-0.0519821	
0.00182273	-0.00934173	0.00289572	
0.000702759	-0.0072577	0.00083998	
-0.000430863	5.37257e-05	-0.00354125	
0.00210303	-0.00621601	2.63633e-05	
0.00466997	-0.0388546	-0.0568152	
-0.0169776	-0.00452538	-0.047857	
-0.0221458	-0.0171966	-0.0439767	
0.00331247	-0.0452053	-0.055334	
0.000829168	-0.00482672	0.00119814	
0.000478165	-0.00599988	0.000196133	
0.00093609	-0.00542677	-0.000713231	
-0.00182483	0.00467236	-0.00513775	
0.00315048	-0.00175668	-0.000592654	
-0.00104688	-0.00194519	-0.00213374	
0.000766839	0.00122809	0.00238606	
0.0018094	-0.00545749	-0.00921913	
-0.00594938	-0.0363893	-0.0336634	
0.0447056	-0.0747176	-0.00762116	
0.00644621	-0.0473335	-0.0525848	
0.000251711	-0.0430248	-0.0543078	
-0.00515394	-0.00604482	-0.0339402	
-0.00810903	-0.0405373	-0.0423713	
0.00446614	-0.0438704	-0.052135	
0.00816539	-0.0198938	-0.0361807	
0.0136722	-0.0441641	-0.0369138	
0.00575432	-0.0510139	-0.0589251	
-8.69392e-05	-0.0118894	-0.0131749	
8.13178e-07	6.99117e-06	8.77731e-06	
0.00424186	-0.00999329	-0.0194446	
-0.00274325	0.00264063	0.00631765	
-0.00430597	-0.00992873	-0.0276364	
-0.0102326	0.00674554	0.031402	
0.00495757	0.000560635	-0.0102591	
0.00662685	0.00213861	-0.0125061	
0.0157033	0.00869669	-0.0183141	
0.0043685	0.0113036	-0.00733551	
0.00661057	0.00457666	-0.0116687	
0.0103486	0.0117775	-0.0124749	
0.00858587	0.00622205	-0.0131125	
0.0119882	0.000282619	0.0447093	
0.0021383	-0.00238123	0.00394068	
0.00224428	0.00301361	0.0275396	
0.00027724	0.00117285	0.00185412	
0.00749489	0.0108729	-0.0102475	
0.00398521	0.0111421	-0.00651305	
0.0013387	0.0106118	-0.00358505	
-0.000735327	0.00988373	-0.00321967	
0.00750067	0.00251897	0.0319835	
0.00498927	-0.00377207	0.011455	
0.00426632	0.00354744	0.0319857	
0.000179506	5.72163e-06	-5.96376e-05	
0.00436301	-0.00215314	0.0110295	
-0.000306099	9.62549e-05	0.000254086	
-0.00299512	0.00529659	0.0233734	
8.36747e-06	0.000190622	-4.07618e-05	
-0.000986163	0.0107419	-0.00179151	
0.0012885	0.00537081	-0.000553961	
-0.00497903	0.0080991	0.00851876	
-0.000547082	0.00777209	-0.00240617	
-0.00206023	0.00550207	0.0114663	
0.00285971	0.00980063	-0.00552029	
0.00117166	0.000569028	-0.000387758	
-7.58075e-05	0.00990022	-0.00198361	
0.0017716	0.00845497	-0.000265192	
0.0011784	0.0024057	-0.000600218	
0.00161899	0.00689082	-0.000411382	
-0.00494348	-0.0117183	-0.00455456	
-0.0406063	-0.0974517	-0.117247	
-0.00606442	-0.0087681	0.00272706	
0.0025237	0.00616672	0.0016628	
-0.00202351	-0.00396597	0.00483501	
0.00697998	0.012847	0.0148649	
-0.0174349	-0.0213281	-0.00449348	
0.00753907	0.00553988	0.00698192	
-0.00043429	-0.00808893	0.000467431	
-0.000318224	0.00322323	0.006146	
0.000654429	0.00118343	0.00765016	
-0.00512941	-0.00724698	-0.00962871	
0.00761816	0.00604468	0.00737021	
-0.000751939	-0.00353936	0.00390163	
0.00610015	0.00705392	0.0100959	
0.00666506	0.00599766	0.00646731	
0.000426973	-0.00230939	0.00510789	
-0.00425672	-0.0156585	-0.00674564	
-0.00141965	-0.0056149	-0.00097455	
-2.1427e-05	-0.000951402	0.00683464	
-0.00147998	0.00156315	-0.00111063	
0.0010762	-0.00151518	0.00232759	
1.16584e-05	0.00179377	-0.00151442	
-0.000165161	-0.00155596	0.00604408	
-0.000211287	0.000542272	-0.00133162	
0.0151919	0.018101	0.0168223	
0.00631687	0.00646592	0.005491	
0.0106228	0.0146759	0.00809869	
0.0170835	0.0222653	0.0179919	
-0.000628131	-0.000812002	0.0057908	
-5.51546e-06	-0.000183595	0.000770282	
-0.000508888	-0.000810036	0.00679855	
0.0027845	0.00568395	0.00154288	
3.39379e-05	0.000261198	-0.000906195	
0.000352316	-0.00134863	0.00590597	
0.000128623	-0.00180068	0.00575983	
-0.000176155	-0.00148178	0.00726816	
0.0249946	-0.018228	0.0119873	
-0.00172592	0.0143738	-0.020975	
-0.00823653	0.0188196	-0.0102621	
0.00118755	-0.00527025	-0.00370365	
-0.00511158	0.018994	-0.00827646	
-0.0084669	0.0245106	-0.0108319	
-0.00887537	0.00646899	-0.0137639	
-0.00707879	0.00327531	-0.0107139	
0.00132355	-0.00638103	0.00500966	
0.00029542	-0.00367509	0.0033248	
-0.000556196	0.00265761	-0.000378187	
0.0013101	-0.00230783	0.00228396	
6.43987e-05	-0.00411219	-0.00706069	
-0.0242127	0.0201079	-0.0271306	
-0.0155061	0.0204021	-0.014995	
0.0018171	-0.00682223	-0.00641928	
0.000962381	-0.00289276	0.00306163	
0.000560125	-0.00259808	0.00286511	
0.000501805	-0.00226432	0.00233103	
-0.00136784	0.00776375	-0.00298305	
0.000785762	-0.00075615	-0.000466488	
0.000453606	0.000634436	0.000714043	
-0.000297949	-0.000374989	0.000648986	
-9.73389e-05	0.000230037	0.000390857	
-0.000921709	-0.00404352	-0.00334367	
0.0402211	-0.0544338	0.0217991	
0.00379222	-0.00841938	-0.00565086	
-0.00132269	-0.00504215	-0.00759672	
-0.00729297	0.0137512	-0.00928216	
-0.000607376	-0.00196918	-0.00202008	
0.000566989	-0.00635276	-0.00716846	
0.000451701	-0.000800002	-0.00124253	
0.0113078	-0.0115461	-0.000993468	
0.000491925	-0.0047564	-0.00520489	
-0.000261985	-0.0030193	-0.00287545	
8.91821e-05	0.000781267	0.000981244	
4.4383e-05	-8.01628e-05	-0.000147519	
-0.00282452	0.0027622	0.00617114	
-0.00225073	-0.00963297	-0.0262039	
-0.00175402	0.00264143	0.0341196	
0.00540634	-0.000106592	-0.0101831	
0.00712773	0.00027528	-0.0122287	
0.0129563	0.000457546	-0.019937	
0.00219812	0.00222193	-0.00705947	
0.00702116	0.00093383	-0.0111862	
0.00634771	0.0015094	-0.0140779	
0.00835401	0.00104136	-0.0127422	
0.0111525	-0.00124207	0.0457253	
0.00238856	-0.00287917	0.00445627	
0.00206571	0.00143667	0.0284538	
2.03942e-05	0.00191506	0.00219882	
0.00520456	0.00170035	-0.0105671	
0.00154921	0.00221851	-0.00624161	
0.000367857	0.00266529	-0.00307257	
-0.000323167	0.00260828	-0.00100782	
0.00613622	0.00177927	0.0329845	
0.00585317	-0.00455506	0.0109829	
0.00313479	0.0011401	0.0332591	
0.000158573	-7.69181e-05	-1.59073e-05	
0.00472823	-0.0029735	0.0114503	
-9.10478e-05	8.00354e-05	0.000105662	
-0.00153921	0.000966162	0.0244228	
1.99071e-06	7.02078e-05	-1.47197e-05	
-0.000451133	0.00297191	0.000296541	
0.000362576	0.0016611	-0.000207362	
-0.000695103	0.00284759	0.0103807	
-0.000222543	0.00201593	-0.000730185	
-0.000886766	0.0015452	0.0123618	
0.000693724	0.00234808	-0.00571508	
0.00047522	0.000266461	-0.000156173	
-9.28802e-05	0.00269567	-0.000718332	
0.000428842	0.00236441	-0.00039006	
0.000472716	0.00109446	-0.000261074	
0.000446442	0.00203365	-0.000284611	
-0.00500485	-0.0120934	-0.00366092	
-0.0226623	-0.103992	-0.126218	
-0.00312192	-0.00778765	-0.0013139	
0.00280114	0.00561287	0.00270876	
-0.00140027	-0.0029479	0.000385981	
0.00618348	0.0135144	0.0096906	
-0.0120567	-0.0227905	-0.00844865	
0.00527653	0.00813804	0.00437691	
-0.00175795	-0.00705068	-0.00335098	
0.000491902	0.00265283	0.00555371	
0.00114107	0.00290629	0.00377167	
-0.0051643	-0.00473435	-0.0124804	
0.00595652	0.00843414	0.00492756	
-0.000665081	-0.00224661	0.000734044	
0.00449539	0.00983459	0.00649428	
0.00568739	0.00770358	0.00440058	
0.000173418	-0.000578621	0.00163998	
-0.00408789	-0.0154466	-0.00952633	
-0.00181588	-0.00486581	-0.0028683	
-8.1154e-05	-0.000534007	0.00198044	
-0.000141033	0.00053636	-0.000352075	
0.000307046	-0.000429419	0.000696325	
0.000642946	2.62107e-05	-0.000324699	
-1.33235e-05	-0.000414759	0.00181977	
-6.63931e-05	0.000171392	-0.000399275	
0.0106346	0.0214961	0.0129607	
0.00566459	0.00762435	0.00400362	
0.0104717	0.0152361	0.00773745	
0.0100859	0.0259452	0.0136445	
-0.00022	-0.000262177	0.00189172	
4.82057e-06	3.57678e-05	-0.000173818	
-0.000182207	-0.000255067	0.00226256	
0.00295174	0.0053489	0.00248437	
3.09343e-05	0.000146591	-0.000528152	
9.48228e-05	-0.000413686	0.00200851	
4.42026e-05	-0.000505992	0.00161803	
-3.43257e-05	-0.000456038	0.00238207	
0.0249145	-0.0161036	0.0153861	
-0.000394691	0.0131513	-0.0246569	
-0.00638551	0.0200024	-0.00978434	
0.00152942	-0.00268301	-0.000457615	
-0.00563583	0.0184666	-0.00871408	
-0.00794888	0.0247941	-0.01082	
-0.00672056	0.0108857	-0.0111569	
-0.00567693	0.00787809	-0.00806692	
0.00151661	-0.00747309	0.0039474	
0.000493623	-0.00455126	0.0028157	
-0.000562838	0.0020916	-0.00137566	
-0.000666734	-0.000885911	0.00363457	
-0.000294813	-0.000780195	-0.00230972	
-0.0179851	0.0289763	-0.026198	
-0.00950635	0.0235203	-0.0163168	
0.00103615	-0.002895	-0.00111853	
0.000827242	-0.00390787	0.0017982	
0.000473765	-0.00374913	0.00188158	
0.000307806	-0.00323398	0.00139156	
-0.00168561	0.00677831	-0.00373283	
-0.000231016	0.000150513	0.000188575	
-0.000108786	-0.00016762	-0.000189885	
2.92799e-05	0.000197666	-6.01561e-05	
7.09911e-05	-0.00017449	-0.000313267	
-0.000360017	-0.0012936	-0.000949438	
0.0270501	-0.0564917	0.0322764	
0.00274444	-0.00472095	-0.000161391	
-0.000915309	-0.00123592	-0.00272151	
-0.0052322	0.0151359	-0.00887604	
-0.000212742	-0.000605851	-0.000598324	
0.000133105	-0.00214332	-0.00217864	
0.000179957	-0.000365562	-0.000516243	
0.00981266	-0.00879061	0.00384002	
0.000133802	-0.00157469	-0.00155686	
-7.38318e-05	-0.000798042	-0.000761579	
-2.71396e-05	-0.000235308	-0.000302514	
0.000111857	-0.000205757	-0.00039591	
-0.00286487	0.0029117	0.0058982	
-0.000903239	-0.00947246	-0.0248116	
-0.00509176	0.0021703	0.0345699	
0.00564614	3.97383e-05	-0.0102506	
0.00719076	0.000200519	-0.0125725	
0.0106396	-0.000633933	-0.022293	
0.00169425	0.00254187	-0.00766087	
0.00677054	0.00053728	-0.0118209	
0.00476973	0.00139268	-0.0152068	
0.00762006	0.000400312	-0.0137424	
0.0118878	-0.00157677	0.046471	
0.00256096	-0.00302603	0.00507838	
0.00206418	0.00134602	0.0289183	
0.000784712	0.00238778	0.00295146	
0.00398837	0.00150473	-0.0116185	
0.00146949	0.00280727	-0.00648123	
0.000626003	0.00334682	-0.00269297	
-0.000356742	0.00279225	-0.00109914	
0.00636949	0.00165439	0.0335603	
0.00599207	-0.0045592	0.0111569	
0.00316292	0.00106957	0.033773	
4.67339e-05	-0.000144698	2.75099e-05	
0.00492673	-0.00306334	0.0119094	
-2.32557e-05	0.000116051	0.000119706	
-0.0014348	0.000795134	0.0250875	
6.11578e-06	0.000261322	-5.31795e-05	
-0.000467609	0.00357788	0.000231237	
0.000338085	0.00163631	-0.000201893	
-0.00229524	0.00315893	0.0105009	
-0.000237862	0.00198706	-0.000755624	
-0.00132374	0.00144303	0.0128565	
0.00134838	0.00330112	-0.00564223	
0.000474395	0.000271504	-0.00015488	
-6.12489e-05	0.00339108	-0.000725105	
0.000491132	0.00275667	-0.000327486	
0.000497096	0.00114101	-0.000276743	
0.000473988	0.00224798	-0.000218715	
-0.00543622	-0.0121215	-0.00358291	
-0.0179598	-0.100108	-0.138003	
-0.00308868	-0.00621797	-0.00105049	
0.00301209	0.00533686	0.00275636	
-0.00137311	-0.00284208	0.000422947	
0.0058526	0.0127662	0.00943842	
-0.0105779	-0.0226774	-0.008682	
0.00480182	0.00861399	0.00492755	
-0.00199237	-0.00724981	-0.00355305	
0.000486799	0.00329138	0.00516656	
0.00140347	0.00336255	0.00422519	
-0.00387232	-0.00659733	-0.0119272	
0.00534746	0.0090719	0.00537796	
-0.000493693	-0.00189311	0.000612134	
0.00550966	0.00993362	0.0070049	
0.00516006	0.00835258	0.00468987	
0.000320497	-0.000222817	0.00196227	
-0.00441191	-0.0156494	-0.00970142	
-0.00188334	-0.00506725	-0.00263962	
-0.000293649	-0.00120198	0.00160437	
2.37392e-05	0.000586995	-0.000361502	
0.000327615	-0.000453853	0.000758529	
0.000656459	7.73226e-05	-0.000328403	
3.77253e-06	-0.000436388	0.00181268	
-5.01095e-05	0.000132372	-0.000292482	
0.0115079	0.0206049	0.0137373	
0.00529019	0.00814454	0.00416118	
0.0103389	0.0156956	0.0077935	
0.0122816	0.0239352	0.0140903	
-0.000143206	-0.000308653	0.00163141	
2.79135e-06	2.43596e-05	-0.000121789	
-0.000114877	-0.000329367	0.00199748	
0.00312879	0.00527115	0.00255172	
3.22104e-05	0.000138449	-0.000513577	
8.14153e-05	-0.000402842	0.00158391	
3.17605e-05	-0.000547787	0.00169331	
1.4821e-05	-0.000492528	0.00225754	
0.0239627	-0.0171969	0.0174866	
-0.000298898	0.0131497	-0.0234307	
-0.00723874	0.0204595	-0.00939354	
0.0015064	-0.0028204	0.000110727	
-0.00559539	0.0189185	-0.0086619	
-0.00835179	0.0252527	-0.0106424	
-0.00564455	0.0118055	-0.0111123	
-0.00460729	0.00864547	-0.00838103	
0.00142245	-0.00704814	0.00418862	
0.000452614	-0.00427203	0.00287181	
-0.000585465	0.00234742	-0.00114374	
0.000642884	-0.00110607	0.00340645	
-0.000224458	-0.000815981	-0.00234437	
-0.0168874	0.0316361	-0.0258268	
-0.0119256	0.0237077	-0.0154186	
0.000624544	-0.00275022	-0.00118626	
0.000836113	-0.00352016	0.00210151	
0.000511047	-0.0033877	0.00212569	
0.000331822	-0.00291118	0.00166716	
-0.00162306	0.00714703	-0.00360537	
3.89941e-05	-0.000106353	-7.69954e-05	
4.37859e-05	6.71093e-05	7.67653e-05	
-3.50888e-05	-6.68614e-05	4.46961e-05	
2.64687e-05	-6.84666e-05	-0.000121251	
-0.000395035	-0.00125099	-0.000843743	
0.0298803	-0.0575344	0.0275361	
0.00216002	-0.00498016	9.86817e-05	
-0.000328112	-0.00161549	-0.00225226	
-0.00617096	0.0154067	-0.00845238	
-0.000225242	-0.000700414	-0.000738886	
9.15208e-05	-0.0021489	-0.00209484	
0.000191804	-0.000368262	-0.000585753	
0.00836473	-0.00929909	0.00511642	
7.50772e-05	-0.00156026	-0.00144261	
-5.63504e-05	-0.000761444	-0.000822815	
5.39278e-06	4.66845e-05	5.95679e-05	
7.57044e-05	-0.000140519	-0.000281915	
-0.00301999	0.00266656	0.00583063	
-5.35777e-08	-0.00990418	-0.0232398	
-0.00531798	0.00212416	0.0353163	
0.00594728	0.000170619	-0.0105724	
0.00729816	0.000414403	-0.0130185	
0.0103985	-8.81282e-05	-0.0232687	
0.00248565	0.00280337	-0.00725312	
0.00664446	0.000718587	-0.0125034	
0.00614835	0.00236083	-0.0146962	
0.00728753	0.000607392	-0.014583	
0.0123606	-0.00154985	0.0472794	
0.00276254	-0.00319187	0.00561114	
0.00214008	0.00156709	0.0293652	
0.00156487	0.00276084	0.00346857	
0.0044989	0.00202728	-0.0114427	
0.00197924	0.0028429	-0.00614509	
0.000774779	0.00327652	-0.00297689	
-0.000321753	0.0030063	-0.00105103	
0.00663206	0.00172344	0.0341891	
0.00597689	-0.00452543	0.0114136	
0.00320774	0.00138222	0.034671	
-2.3248e-05	-0.000124855	3.26072e-05	
0.0050506	-0.00315466	0.0123924	
2.23655e-05	0.000106807	9.78381e-05	
-0.00146393	0.00104531	0.0257802	
2.10887e-06	0.000129289	-2.58283e-05	
-0.000536893	0.00320597	0.000436983	
0.000358284	0.00176431	-0.000224704	
-0.00244233	0.00318863	0.0107411	
-0.000268373	0.00240932	-0.000879389	
-0.00134471	0.00164368	0.0133989	
0.00145464	0.00313398	-0.00564711	
0.000426904	0.00025053	-0.00013975	
-4.79672e-05	0.00310135	-0.00061052	
0.000520314	0.00297034	-0.000321505	
0.000478018	0.00110346	-0.00027781	
0.000506688	0.00244157	-0.000230064	
-0.00585694	-0.0121118	-0.0035345	
-0.015402	-0.0995267	-0.146351	
-0.0026232	-0.00529082	-0.000881208	
0.00319435	0.00516526	0.00287552	
-0.00129658	-0.00272988	0.000243864	
0.00565386	0.0124986	0.00907896	
-0.0114514	-0.0213308	-0.00946997	
0.00531803	0.00841833	0.00500513	
-0.0020502	-0.00752757	-0.00388052	
0.000808691	0.00351451	0.00438527	
0.00147293	0.00366337	0.0042254	
-0.00149296	-0.00768556	-0.01132	
0.00574048	0.00895913	0.00550563	
-0.000440659	-0.00149462	0.000424934	
0.00591484	0.0105162	0.00721209	
0.00535743	0.00837305	0.00484178	
0.000312465	-7.69556e-05	0.00178791	
-0.0042402	-0.0155295	-0.0098493	
-0.00191813	-0.0049353	-0.00292049	
-0.000330019	-0.00128633	0.00118963	
0.000439112	7.33104e-05	-1.08082e-05	
0.000276173	-0.000411311	0.000713004	
0.000577385	-0.000156192	1.88711e-05	
7.84558e-06	-0.000399444	0.00163865	
-4.28806e-05	0.000115282	-0.000247122	
0.0116681	0.0206776	0.0137053	
0.00533557	0.00823998	0.0043408	
0.0103356	0.0158825	0.0080558	
0.0120988	0.0234853	0.0138769	
-0.000115052	-0.000267676	0.00136078	
-2.26937e-08	1.46072e-06	-8.38456e-06	
-9.20907e-05	-0.000302423	0.00173044	
0.00324886	0.00516987	0.00278624	
1.57997e-05	7.51589e-05	-0.000278745	
5.99094e-05	-0.000357396	0.00127548	
2.84068e-05	-0.000511194	0.00159482	
2.29655e-05	-0.00041656	0.0018823	
0.0231226	-0.0177035	0.019227	
8.56346e-05	0.0132892	-0.0234352	
-0.0072768	0.0207457	-0.00943815	
0.00159056	-0.00292038	0.000630053	
-0.0056462	0.0189976	-0.00881333	
-0.0082446	0.0254285	-0.010949	
-0.0064976	0.0122621	-0.0104465	
-0.00538943	0.00892915	-0.00780801	
0.00144306	-0.00709438	0.00405164	
0.00044024	-0.00435818	0.00277048	
-0.000597112	0.00235961	-0.0012343	
0.000695271	-0.00109014	0.0034203	
-0.000254377	-0.00056869	-0.00212696	
-0.0184082	0.0332556	-0.0245898	
-0.0120518	0.0243424	-0.0152069	
0.000574442	-0.00243722	-0.0011329	
0.000820862	-0.00355641	0.00196142	
0.000501436	-0.00347637	0.00201712	
0.000287235	-0.00299257	0.00156074	
-0.00165556	0.00712577	-0.00368934	
9.46198e-07	7.79711e-06	5.66905e-06	
-4.43697e-06	-6.93642e-06	-8.01359e-06	
2.10069e-06	6.42404e-06	-1.22752e-06	
2.72715e-05	-7.30607e-05	-0.000128013	
-0.000321545	-0.000930068	-0.000609439	
0.0299577	-0.0571836	0.026855	
0.00207332	-0.00472243	0.00038127	
-1.57324e-05	-0.0016574	-0.00168598	
-0.00621596	0.0156517	-0.00839346	
-0.000150415	-0.000477755	-0.000513582	
7.41928e-05	-0.00174947	-0.00175685	
0.000125549	-0.000244344	-0.000389782	
0.0074807	-0.00943484	0.00579231	
5.47824e-05	-0.00138362	-0.00128227	
-6.34965e-05	-0.00068165	-0.000788788	
-3.73491e-06	-3.29304e-05	-4.20554e-05	
5.71224e-05	-0.000112648	-0.000220465	
-0.00280597	0.00298487	0.00536295	
0.00133754	-0.00961214	-0.0226363	
-0.0047395	0.000934515	0.0361982	
0.00607128	0.000609166	-0.0108412	
0.00728603	0.000587359	-0.0133678	
0.0115861	0.000122358	-0.0229876	
0.00268129	0.00233332	-0.00749479	
0.00663304	0.000815498	-0.0126266	
0.00629221	0.00188434	-0.0147381	
0.00739963	0.0003889	-0.0145646	
0.013279	-0.00204427	0.0474663	
0.00293855	-0.00333779	0.00581656	
0.00260509	0.000861711	0.0300103	
0.00164847	0.00263726	0.00396533	
0.00501039	0.00178699	-0.0113343	
0.00212395	0.00251053	-0.00645619	
0.000504506	0.00257349	-0.00176141	
-0.000214509	0.00211613	-0.000638566	
0.00714945	0.00124421	0.0345235	
0.00605519	-0.00458272	0.0114877	
0.0036421	0.000693954	0.0352877	
-4.51902e-05	-3.99166e-05	6.55672e-06	
0.00521506	-0.00336144	0.0126244	
1.51853e-05	4.87562e-05	4.1404e-05	
-0.0010458	0.000226787	0.0263346	
9.48976e-06	0.000600587	-0.000119259	
-0.000559001	0.00313313	0.000596543	
0.000181135	0.000917325	-0.000125355	
-0.00233735	0.00195902	0.0113595	
-0.000168091	0.00163328	-0.000549935	
-0.00120318	0.000661526	0.0139574	
0.00135816	0.00277144	-0.00539951	
0.000189978	0.000119317	-6.5141e-05	
-4.31535e-05	0.00293522	-0.000567943	
0.000296886	0.0017234	-0.000192524	
0.0002017	0.000482138	-0.000125846	
0.000270366	0.00133364	-0.000136282	
-0.00597574	-0.0121152	-0.00316099	
-0.0192497	-0.099522	-0.150597	
-0.00247376	-0.00505674	-0.00107435	
0.00337342	0.00505855	0.0032663	
-0.00127633	-0.00277451	-0.000141094	
0.00553966	0.0124379	0.00884188	
-0.0112446	-0.0214051	-0.00910456	
0.0054276	0.00834852	0.00558263	
-0.00206249	-0.00767903	-0.00439734	
0.00103521	0.00331842	0.00398616	
0.0014138	0.00366918	0.00387244	
-0.00133576	-0.00747355	-0.0116209	
0.00590164	0.0087299	0.00625552	
-0.000318693	-0.00136202	0.000637923	
0.00596334	0.0107387	0.00744523	
0.00552917	0.00804378	0.00574174	
0.000174765	-0.000179069	0.00118418	
-0.00400173	-0.0154329	-0.0101737	
-0.00187194	-0.00486524	-0.00320247	
-0.000268862	-0.00104816	0.000796604	
0.000301856	1.45048e-05	-2.00881e-05	
0.000193158	-0.000266412	0.000508627	
0.000322424	-0.000114926	0.000162771	
1.32832e-05	-0.000346329	0.00139274	
2.88359e-06	-7.62622e-06	1.64562e-05	
0.0117041	0.0208778	0.0137771	
0.00555439	0.00798172	0.00542737	
0.0105302	0.0158674	0.00906701	
0.0119504	0.0235134	0.0140315	
-0.000114298	-0.000277045	0.00139227	
-9.57376e-06	-0.000182752	0.000795386	
-7.52473e-05	-0.000265809	0.0014953	
0.00334324	0.00508699	0.00333204	
-2.0025e-05	-0.000109858	0.00039542	
5.97276e-05	-0.000362127	0.00129193	
2.41846e-05	-0.000404799	0.00126482	
1.88844e-05	-0.000339063	0.00151629	
0.0227648	-0.0189082	0.0200641	
0.000301441	0.0139199	-0.0227087	
-0.00728819	0.0209464	-0.00957497	
0.00156881	-0.00308507	0.000661037	
-0.00567697	0.0191246	-0.00893568	
-0.00831674	0.0255714	-0.0111162	
-0.00671225	0.0127631	-0.0100394	
-0.0056178	0.00940293	-0.00735102	
0.00143341	-0.00698665	0.0040364	
0.000377812	-0.00433527	0.00271284	
-0.000610504	0.00242494	-0.00124024	
0.00111976	-0.00143148	0.00311583	
-0.000381493	-6.6481e-05	-0.00168943	
-0.0186748	0.0344163	-0.0243327	
-0.011993	0.0247384	-0.0152301	
0.000609516	-0.00202127	-0.000863787	
0.00081571	-0.00346651	0.00195717	
0.000487405	-0.00341896	0.00202872	
0.000286532	-0.00293689	0.00158449	
-0.00166382	0.00720712	-0.0037169	
-1.96036e-05	-2.50951e-05	-1.93534e-05	
1.07437e-05	1.71047e-05	1.98681e-05	
-1.21182e-05	-1.87299e-05	8.88128e-06	
2.14554e-05	-6.01911e-05	-0.000103826	
-0.000416232	-0.00115842	-0.000779758	
0.0300742	-0.0568885	0.0267756	
0.00222475	-0.00422613	0.000465738	
3.29071e-05	-0.0013975	-0.00140178	
-0.00616302	0.0157614	-0.00842661	
-0.000112294	-0.000361333	-0.00039265	
6.12593e-05	-0.00130372	-0.00140084	
9.62901e-05	-0.000192288	-0.00030394	
0.00714252	-0.0096888	0.00580133	
5.33087e-05	-0.00137189	-0.00133058	
-4.10196e-05	-0.000442833	-0.000521102	
-7.06411e-07	-6.33374e-06	-8.04951e-06	
4.65586e-05	-9.5988e-05	-0.00018437	
-0.00288672	0.00263316	0.00536286	
0.00199561	-0.00859358	-0.0223481	
-0.00419863	0.000169393	0.0366555	
0.00629759	0.000111623	-0.0108626	
0.00740931	0.000197509	-0.0131289	
0.0117241	-0.000309639	-0.023203	
0.00255975	0.00150632	-0.00701982	
0.00696358	6.01587e-05	-0.0124834	
0.00637863	0.00124263	-0.0149432	
0.00778592	8.35109e-05	-0.0144087	
0.0136002	-0.00211215	0.0476424	
0.00299167	-0.00332982	0.00597753	
0.00276617	0.000565076	0.0303286	
0.00154354	0.00192032	0.00463456	
0.00514184	0.00104895	-0.0113948	
0.00194296	0.00132706	-0.00584779	
0.000552745	0.000998417	-0.00131728	
-0.000138768	0.00139991	-0.000407355	
0.00740313	0.00117504	0.0346915	
0.0059356	-0.00449633	0.0116369	
0.00378265	0.000494351	0.035564	
-5.43401e-05	-7.38484e-06	-4.9056e-06	
0.00518684	-0.00339768	0.0127995	
1.63367e-05	4.34792e-05	3.49986e-05	
-0.000826614	-0.000148093	0.0264699	
2.71103e-06	0.00015121	-2.92964e-05	
-0.000553181	0.00138303	0.0012573	
9.64337e-05	0.000509559	-7.267e-05	
-0.00215079	0.000822012	0.0116655	
-0.000100442	0.00101954	-0.00031072	
-0.00108907	0.000143428	0.0141609	
0.00134503	0.00100937	-0.00499719	
0.000131634	8.92962e-05	-4.45289e-05	
-1.59292e-05	0.00110432	-0.000211478	
0.000131718	0.000784041	-9.17274e-05	
0.000124221	0.000309805	-8.08642e-05	
0.000120247	0.000615263	-6.67459e-05	
-0.00640173	-0.0121682	-0.00363671	
-0.0229017	-0.0999229	-0.153364	
-0.00167241	-0.00343022	-0.000791524	
0.00333232	0.0051952	0.00250592	
-0.00111091	-0.00248611	-0.000629812	
0.00498773	0.011551	0.00764463	
-0.0110326	-0.0202771	-0.0102747	
0.00526792	0.00890033	0.00417138	
-0.00209168	-0.00767944	-0.00478757	
0.00108266	0.00371722	0.00399333	
0.00165523	0.00471197	0.00387662	
-0.00109366	-0.00756742	-0.0120093	
0.00600745	0.00924151	0.0047865	
-0.000283951	-0.000721618	-3.31768e-05	
0.00637307	0.0116015	0.00686334	
0.00574086	0.00853075	0.00420903	
0.000460165	0.000795074	0.00169943	
-0.00390402	-0.0159059	-0.0105894	
-0.0018441	-0.00496431	-0.00340591	
-0.000627903	-0.00219016	-0.000111481	
0.000228605	1.25511e-05	-1.78976e-05	
0.000136825	-0.000188498	0.000361531	
0.0002745	-9.54648e-05	0.00013099	
7.73354e-06	-0.000170033	0.000678454	
-8.22472e-05	0.000217639	-0.000467253	
0.0117046	0.0209818	0.0131702	
0.00565202	0.00837982	0.00372112	
0.0106329	0.0161298	0.00772248	
0.0113818	0.0228282	0.0126535	
-4.3685e-05	-0.000114517	0.000561885	
4.73024e-06	0.000201855	-0.000825066	
-4.69824e-05	-0.000182167	0.000996762	
0.00340492	0.00535039	0.00231675	
3.75834e-05	0.000242528	-0.000860895	
2.82436e-05	-0.000169136	0.000599507	
8.37913e-06	-0.000187783	0.000592432	
1.96239e-05	-0.000291	0.00127335	
0.0228312	-0.0183669	0.020471	
0.000479505	0.0143012	-0.0223182	
-0.00726782	0.0210587	-0.0095899	
0.00194113	-0.0026841	0.00137541	
-0.00566931	0.0191256	-0.00898907	
-0.00833035	0.0256525	-0.0112113	
-0.00671908	0.0130749	-0.00985835	
-0.00576685	0.00985152	-0.00715158	
0.00143551	-0.00694948	0.00398604	
0.000346177	-0.00434728	0.00265768	
-0.000618189	0.00245853	-0.0012603	
0.00128167	-0.00160997	0.00293757	
-0.000307085	-4.31282e-05	-0.00135175	
-0.0187302	0.0352454	-0.0243074	
-0.0120019	0.0251316	-0.0151788	
0.00036271	-0.00124735	-0.000583869	
0.000811072	-0.00343013	0.00191874	
0.000476267	-0.00341833	0.0020013	
0.000254009	-0.00294031	0.0015563	
-0.00167374	0.0072417	-0.00375352	
-1.22777e-05	-5.97992e-06	-5.81653e-06	
3.74621e-06	6.09666e-06	7.12206e-06	
-5.43207e-06	-6.9237e-06	3.39718e-06	
1.00828e-05	-2.97133e-05	-5.02896e-05	
-5.68188e-05	-0.000158118	-0.000113821	
0.0303975	-0.0565151	0.0265773	
0.00219311	-0.00407773	0.000540343	
0.000585371	-0.00165632	-0.000587545	
-0.00612373	0.0159325	-0.00838325	
-6.75853e-05	-0.000222488	-0.000244239	
4.96733e-05	-0.00113128	-0.00132355	
4.75718e-05	-9.75834e-05	-0.000152396	
0.00704568	-0.00902673	0.00593787	
1.56681e-05	-0.000380797	-0.000392214	
-2.66274e-05	-0.0003112	-0.000370096	
-1.4291e-06	-1.30667e-05	-1.66124e-05	
2.18845e-05	-4.73932e-05	-8.90046e-05	
-0.00290437	0.00249972	0.00537573	
0.00210948	-0.00816827	-0.0220308	
-0.00407894	0.000202303	0.0368962	
0.00641446	1.44534e-06	-0.0109865	
0.00763147	0.000193765	-0.0132867	
0.011746	8.52591e-05	-0.0237936	
0.00239811	0.00118885	-0.00660059	
0.00706639	0.000534177	-0.0127489	
0.00618458	0.000991573	-0.0146102	
0.00782708	0.000458476	-0.0147258	
0.0137483	-0.00194012	0.0476626	
0.0029976	-0.003323	0.00629286	
0.00289766	0.00067119	0.0304656	
0.00134712	0.00137392	0.00537394	
0.00512625	0.00135504	-0.011707	
0.00181916	0.00100584	-0.00556411	
0.000526637	0.000930374	-0.00119064	
-0.000167059	0.00174526	-0.000495266	
0.00760456	0.00127193	0.0347856	
0.00573446	-0.00432854	0.0118766	
0.00380032	0.000649024	0.0358043	
-3.52399e-05	1.64016e-05	-1.58965e-05	
0.00506893	-0.00328488	0.0129968	
2.331e-05	4.75262e-05	3.27224e-05	
-0.000831758	-2.37284e-05	0.0266276	
7.70587e-07	4.63812e-05	-8.81873e-06	
-0.000563373	0.00115006	0.00144723	
8.76773e-05	0.000484746	-7.12158e-05	
-0.00212628	0.000769953	0.0117726	
-0.000125394	0.00131245	-0.000386317	
-0.00109763	0.000210725	0.0142167	
0.00131126	0.000935438	-0.00494841	
0.000156835	0.000114912	-5.16704e-05	
-1.24683e-05	0.000971459	-0.000181988	
0.000121582	0.000747053	-8.86458e-05	
0.000120153	0.000314127	-8.19707e-05	
0.000112535	0.000607245	-6.81691e-05	
-0.00615365	-0.0123121	-0.00290707	
-0.0247914	-0.102967	-0.155813	
-0.00173337	-0.00355459	-0.00040404	
0.00344115	0.00503965	0.00334491	
-0.00117487	-0.00256499	-2.72511e-05	
0.00507299	0.0114382	0.00836929	
-0.0105846	-0.0209851	-0.0086013	
0.00551049	0.0084962	0.00617364	
-0.00221809	-0.00813389	-0.00456808	
0.000982273	0.00348946	0.00376124	
0.00178201	0.00465198	0.00461266	
-0.00107605	-0.00748133	-0.0118515	
0.00604663	0.00891044	0.00682332	
-1.29474e-05	-0.000941871	0.00110408	
0.00630904	0.0113562	0.00792025	
0.00571102	0.00825709	0.00621133	
0.000501003	0.000656289	0.00195164	
-0.00407061	-0.015807	-0.0102642	
-0.00172376	-0.00517814	-0.00323453	
-0.000709095	-0.00241434	8.56218e-05	
0.000299774	-8.1503e-05	0.000101292	
0.000228393	-0.000303737	0.000576507	
0.00034809	-0.00013054	0.000181591	
2.41188e-05	-0.0003575	0.00139178	
2.47907e-05	-6.50108e-05	0.000142138	
0.0116996	0.0208182	0.0138927	
0.00560993	0.0080359	0.00563856	