<VTKFile type="UnstructuredGrid" version="0.1" byte_order="LittleEndian">
	<UnstructuredGrid>
		<Piece NumberOfPoints="9546" NumberOfCells="9546">
			<CellData Scalars="scalars">
				<DataArray type="Float64" Name="Strength" NumberOfComponents="3" Format="ascii">
-0.00799549	-0.0152161	0.013189	
0.010382	-0.0110646	-0.0270357	
-0.0160786	0.0710149	-0.00318615	
0.0047202	-0.0069005	-0.00699241	
0.0058612	0.000177854	-0.011164	
0.011146	0.0541376	-0.0339807	
-0.00129262	0.0854144	-0.0338385	
0.00141199	0.0165956	-0.0179781	
0.003777	0.0837734	-0.0354552	
0.00276469	0.0298417	-0.025654	
0.00271491	0.0116352	0.0439935	
0.00497614	-0.0023709	-0.00164828	
-0.0101037	0.041451	0.0102223	
0.000687299	-0.00202778	0.00160769	
0.00130088	0.071513	-0.0352366	
-0.00169735	0.0867464	-0.0247363	
0.00230376	0.0960492	-0.00403857	
-0.00806204	0.0610518	-0.033364	
0.000610337	0.0156592	0.027534	
0.0070696	-0.0107156	0.00672731	
-0.0101133	0.0350621	0.0180428	
0.000540109	-0.00186284	0.0026324	
0.00537692	-0.00490441	0.00900524	
0.00199613	-0.000174511	-0.00167507	
-0.0139724	0.0490891	0.00211311	
-0.0010253	-0.0126737	0.00313767	
-0.00611012	0.0877057	-0.022566	
0.00776681	0.040318	0.0143613	
-0.00588996	0.0875258	-0.00498813	
-0.00820366	0.0434646	-0.0249032	
-0.00376258	0.0537247	0.0105052	
-0.00213056	0.0912437	-0.00942968	
-0.000313067	0.000552151	0.000181293	
-0.00511284	0.0871042	-0.0155551	
-0.00612694	0.077763	0.0194964	
0.0174866	0.0107515	0.00821782	
0.00284553	0.0572442	0.0221219	
-0.0122942	-0.00561491	-0.0249553	
0.0135317	-0.117488	-0.0782071	
-0.00771083	0.0104566	0.0505647	
0.000608661	0.0119521	-0.0134734	
0.00467829	-0.00726345	0.0549961	
0.00860248	-0.0262047	0.0626915	
-0.0171288	-0.0267988	0.0518952	
0.0158879	-0.0128022	0.0524516	
0.0147346	-0.0228504	0.0316453	
0.0122343	0.000857097	0.0161941	
-0.000348335	-0.0147499	0.0562662	
-0.0130088	-0.0132501	-0.0185979	
0.00849069	-0.00404707	0.0487283	
0.00189128	-0.0111275	0.0261154	
0.00431431	0.00384315	0.0551049	
0.00464107	0.00154328	0.0405547	
0.0131272	-0.0269025	0.0416321	
0.0248911	-0.0128314	0.0197663	
-0.00585666	-0.0165114	0.00959983	
0.00521311	-0.0204198	0.05425	
0.0238835	-0.00369889	0.0130461	
-0.00170359	-0.0257299	0.00306423	
-0.0109735	0.000302388	0.0165785	
-0.00191329	-0.00965457	0.0590179	
-0.00539929	0.00857841	-0.0200804	
0.0208199	0.00750907	0.0388116	
0.00431853	0.00363964	0.0316584	
0.00932814	0.0129438	0.0165367	
0.025061	-0.0193656	0.0717735	
-0.00525572	0.00135926	0.0407803	
-0.00166716	-0.00127857	0.0190739	
-0.00085975	0.00267783	0.0449409	
0.00309252	0.00888614	-0.0104566	
0.000576722	0.000921721	-0.00478817	
0.00104742	-0.00546767	0.0246617	
0.00625832	-0.0240837	0.0510277	
-0.00207846	-0.00687232	0.0521362	
0.0146607	-0.0582773	-0.00642936	
0.000161209	0.0160517	-0.0330915	
-0.0104442	4.32608e-05	-0.0312823	
-0.00973946	-0.0388761	-0.0187739	
-0.00902476	0.0144371	-0.0107168	
-0.0152662	0.0110606	-0.0222839	
0.00187989	-0.011222	-0.0526467	
0.00384751	-0.0194735	-0.0551957	
0.00242795	-0.00949949	0.00207967	
-0.000767783	-0.00730489	0.00120544	
-3.97885e-05	0.000464503	-0.00356626	
0.000258114	0.00280009	0.0068155	
0.00471271	-0.032313	-0.0615613	
-0.0187357	-0.00837998	-0.0472043	
-0.0281903	-0.0294669	-0.0332866	
0.00312997	-0.0437348	-0.0574381	
0.000924847	-0.00489822	0.000976455	
0.000556534	-0.00603837	-0.000199877	
0.000749714	-0.0054183	-0.0011751	
-0.00198228	0.00497635	-0.00486468	
0.00160247	-0.000934259	0.00345667	
-0.00204501	-0.00213836	-0.00091294	
0.000581739	-0.00116699	-0.00251575	
0.00444189	-0.00283935	-0.00960981	
-0.0192995	-0.0440844	-0.0152829	
0.0533156	-0.0626854	-0.0318494	
0.00580398	-0.0475407	-0.0534606	
-0.00365286	-0.0492333	-0.0496551	
-0.00623872	-0.0035368	-0.0344298	
-0.0158928	-0.0483789	-0.0312309	
0.00179113	-0.0463738	-0.0510538	
0.00673563	-0.00874177	-0.0410198	
0.00805279	-0.0494872	-0.0326134	
-0.00102577	-0.0596161	-0.0518197	
0.000858273	-0.0114346	-0.0137693	
1.0713e-06	6.80214e-06	9.03994e-06	
0.00819058	-0.00184327	-0.0208443	
-0.00219745	0.00305185	0.00644433	
0.00099875	-0.0247705	-0.0167217	
-0.0208878	-0.0015323	0.026763	
0.00442777	-0.00021515	-0.0106436	
0.00640613	0.00104976	-0.0129246	
0.0194212	0.0110241	-0.0131057	
0.00516308	0.0127479	-0.00390265	
0.00663146	0.00354465	-0.0121813	
0.0123093	0.0151233	-0.00534937	
0.00955043	0.00553286	-0.012973	
0.0168275	0.000399281	0.04352	
0.00178636	-0.00381793	0.00289569	
-0.000278417	-0.00169902	0.0279701	
0.000638945	0.00161742	0.00147013	
0.00887363	0.0126136	-0.00683474	
0.0047984	0.0125457	-0.00232835	
0.00223935	0.0110371	0.00164531	
-0.00161296	0.00856392	-0.00589808	
0.00989005	0.00163581	0.0316661	
0.00622535	-0.00692374	0.00928576	
0.00306654	-0.000142268	0.032584	
0.00014137	-0.000114567	0.000156142	
0.00566625	-0.00407496	0.00994202	
3.22972e-05	9.51109e-06	-0.00041721	
-0.00725073	-0.000461639	0.023238	
5.98847e-06	0.000189818	-5.55212e-05	
-0.00168607	0.0108362	-0.00125565	
0.00354327	0.00421523	0.00100465	
-0.00878614	0.00571188	0.00747977	
-0.00175115	0.00643771	-0.00483508	
-0.00379987	0.0019479	0.0122668	
0.00415265	0.0109449	0.000285089	
0.000159366	-0.00133676	-0.000250958	
-0.000508617	0.0101776	-8.43537e-05	
0.00279612	0.00691851	0.00451142	
0.00252629	0.000879073	-0.000708252	
0.00328364	0.00557484	0.00304909	
-0.00358473	-0.0122625	-0.00482334	
-0.00458428	-0.061756	-0.1465	
-0.00920852	-0.0056534	0.00256531	
0.00162464	0.00650735	0.00178775	
-0.0028027	-0.00450124	0.00397174	
0.011686	0.00682022	0.0160865	
-0.0236432	-0.0153594	-3.466e-06	
0.00985175	0.00329155	0.00558491	
-0.000596502	-0.00815351	-0.000171405	
-0.00103219	0.000566772	0.00689047	
0.00146034	-0.0010524	0.00760985	
-0.000392498	-0.00422487	-0.0124899	
0.00943959	0.00408056	0.00680142	
-0.00114301	-0.00312555	0.00421284	
0.00791575	0.00553701	0.0099361	
0.00795537	0.0049691	0.00606864	
0.000896396	-0.00291957	0.00476128	
-0.00457814	-0.0150204	-0.00816198	
-0.00118337	-0.00574036	-0.000815831	
0.000305537	-0.00255823	0.00644899	
-0.00201921	0.00103668	-0.000887981	
0.00137513	-0.00168587	0.00205889	
-0.000267313	0.00224111	0.000714377	
-0.000509186	-0.0027604	0.00562694	
-0.000368066	0.000551972	-0.00130778	
0.0189926	0.0152793	0.016193	
0.00733656	0.00601993	0.00491814	
0.0112832	0.0152313	0.00658523	
0.0243772	0.0142429	0.0182672	
-0.00154903	0.000582677	0.00569185	
-0.000128752	1.96845e-05	0.000788609	
-0.00118687	0.000510745	0.00679635	
0.00235151	0.00598422	0.00143098	
0.000177796	0.000121049	-0.000928771	
-4.98421e-07	-0.000889459	0.00605367	
0.000445864	-0.00293853	0.0052971	
-0.000549207	-0.00214754	0.00714005	
0.0280274	-0.0174364	0.00620549	
0.00281327	0.0019947	-0.0255015	
-0.011894	0.019314	-0.00472717	
0.000154027	-0.00623962	-0.00221345	
-0.00555797	0.0201672	-0.00502652	
-0.0103813	0.0259566	-0.00468551	
-0.0113034	0.00366873	-0.0132315	
-0.0088071	0.0014578	-0.00997772	
0.00100164	-0.00636152	0.00520571	
0.000230448	-0.00356295	0.00350106	
-0.000707425	0.00267044	-5.80646e-05	
-0.00137305	-0.00103966	0.00315074	
0.000246973	-0.00252417	-0.00785395	
-0.032936	0.00989437	-0.0240661	
-0.0209273	0.0188726	-0.0102067	
0.00231984	-0.00523653	-0.00775589	
0.00092269	-0.00297979	0.00303602	
0.000630671	-0.00255325	0.00292976	
0.00036709	-0.00242504	0.00222626	
-0.00132435	0.00807701	-0.00227063	
-0.000826555	0.000880734	0.00055513	
0.000865633	0.000407732	0.00047068	
0.000723118	7.65402e-05	0.000368705	
-0.000228323	9.53138e-05	0.000397133	
-0.00225276	-0.00484294	-0.000701225	
0.0520677	-0.049429	-0.00110645	
0.00464253	-0.00673876	-0.00726411	
-0.00210328	-0.00622732	-0.00659466	
-0.0102589	0.0140443	-0.00565423	
-0.00107767	-0.00198385	-0.00183969	
0.000287326	-0.00651741	-0.00717275	
0.000800767	-0.000113804	-0.00133356	
0.0125496	-0.0096655	-0.00418827	
-1.79365e-05	-0.00553995	-0.004509	
-0.000123937	-0.00308524	-0.00287375	
0.000105045	0.00073756	0.00102531	
9.14284e-05	-4.13464e-06	-0.000149431	
-0.0024193	0.00336938	0.00614328	
0.00420284	-0.0246529	-0.0130824	
-0.00366941	-0.00516195	0.0339747	
0.00521345	-0.00105547	-0.0103691	
0.0073849	-0.000790583	-0.0122275	
0.0168065	0.00022811	-0.0171492	
0.00300456	0.00298361	-0.00653732	
0.00766508	8.16071e-05	-0.0109637	
0.00883933	0.00279509	-0.0126158	
0.00984991	0.000100434	-0.0118757	
0.0122395	0.0034836	0.0457186	
0.00204827	-0.00370951	0.00404963	
0.00167931	0.0012998	0.0287225	
0.000360414	0.00228482	0.00191072	
0.0070877	0.0020311	-0.00948012	
0.00235571	0.0030063	-0.00570279	
0.000710449	0.00329528	-0.00236879	
-0.000685716	0.00226634	-0.00157364	
0.00767154	0.00453626	0.0326737	
0.00649092	-0.00747331	0.00896104	
0.00270358	0.00188778	0.0335361	
-0.000118406	0.000123134	-0.000104288	
0.00649624	-0.00411815	0.0102789	
9.69305e-05	5.20176e-05	-0.000121347	
-0.00236665	-0.000486587	0.0245741	
-1.40379e-06	6.87367e-05	-2.32126e-05	
-0.00061832	0.0028989	0.000716484	
0.00105791	0.00135882	-0.000134179	
-0.00110702	0.000206092	0.0108197	
-0.000599569	0.00160682	-0.00134279	
-0.000889138	-9.42229e-05	0.0125614	
0.00106251	0.00365805	-0.0049826	
0.000214796	-0.000509718	-0.00014158	
-6.12789e-05	0.00281245	-0.000158421	
0.00101807	0.00222304	0.000230812	
0.00108825	0.000448943	-0.000357022	
0.00110147	0.00180495	0.000149612	
-0.0038331	-0.0127016	-0.00356727	
-0.0436646	-0.0627867	-0.147422	
-0.00340706	-0.00781072	-0.000890198	
0.00213254	0.00599658	0.00268268	
-0.00159761	-0.00287261	0.000427369	
0.00676661	0.0139438	0.00892894	
-0.0141632	-0.0223767	-0.00703461	
0.00615896	0.00793885	0.00382178	
-0.00205393	-0.00683492	-0.00374535	
0.00247593	-0.00098504	0.00560853	
0.00128007	0.0028785	0.00379281	
0.00101285	-0.00866237	-0.0114726	
0.00666902	0.00820202	0.00468512	
-0.000704246	-0.00224086	0.000790402	
0.00394913	0.0105154	0.00596965	
0.00625308	0.0076401	0.00399951	
0.000254114	-0.000677313	0.00160194	
-0.0045706	-0.0151497	-0.010018	
-0.00184296	-0.0048909	-0.0028853	
-0.000105786	-0.00053256	0.00199274	
-0.000391307	0.000484255	-0.000219863	
0.000425849	-0.000478353	0.000601757	
-0.000555999	0.000468176	4.90248e-05	
-0.000142916	-0.000304457	0.00184901	
-0.000112494	0.000165579	-0.000395845	
0.0107081	0.021979	0.0125969	
0.0062139	0.00768762	0.00329291	
0.0108179	0.0161016	0.0058643	
0.00923644	0.0275107	0.0116399	
-0.000644232	1.27263e-05	0.0018271	
3.66563e-05	-1.44163e-05	-0.000175064	
-0.000596235	0.00012274	0.002219	
0.00257621	0.0057148	0.0022756	
0.000129014	4.33766e-05	-0.000537702	
-3.44726e-05	-0.000341894	0.00204084	
6.66127e-05	-0.0005409	0.00161657	
-0.000279463	-0.000219627	0.00241729	
0.029038	-0.0145189	0.00952631	
0.00339619	0.00458187	-0.0276002	
-0.00694182	0.0218888	-0.00434696	
0.00140619	-0.00281829	-0.000234137	
-0.00603834	0.0195579	-0.00609296	
-0.00843625	0.0266741	-0.00510591	
-0.00850654	0.0113729	-0.00960443	
-0.00730064	0.00833631	-0.00631499	
0.00167619	-0.00755677	0.00386224	
0.000590847	-0.00483849	0.00235545	
-0.000556486	0.0022506	-0.00114628	
0.00150077	-0.000800414	0.00353951	
-0.000184638	-8.63245e-05	-0.00247193	
-0.0233401	0.0285251	-0.0229811	
-0.00946221	0.0251082	-0.0143657	
0.00140506	-0.00238518	-0.00180975	
0.000853471	-0.00397161	0.00172446	
0.000657527	-0.00377395	0.00184672	
0.000250676	-0.00341825	0.000962685	
-0.00187727	0.00707487	-0.00318089	
-3.0518e-05	-0.000295009	0.000224979	
-0.000211957	-0.000137145	-0.000116416	
0.000136165	-0.000161502	-7.23077e-06	
0.000177864	-7.55414e-05	-0.000314067	
-0.000783653	-0.00146673	-3.7679e-05	
0.0280194	-0.0615666	0.0219781	
0.00357003	-0.00406139	-0.00113061	
-0.00123153	-0.00152696	-0.00247729	
-0.00569732	0.0167724	-0.00524517	
-0.000391406	-0.000568956	-0.00055474	
0.000121518	-0.00206464	-0.00229811	
0.000377446	-0.000175614	-0.000516942	
0.0118027	-0.00712331	0.00168612	
2.06959e-05	-0.00177704	-0.00136733	
-0.000118203	-0.000760328	-0.000808626	
-3.42398e-05	-0.000224006	-0.000314031	
0.000250523	-3.87229e-05	-0.000388779	
-0.00265548	0.00367961	0.00566561	
0.00808924	-0.0240225	-0.00862516	
-0.00678661	-9.52982e-05	0.0346457	
0.00552815	-0.00108892	-0.0104005	
0.00727252	-0.00117752	-0.0126492	
0.0117297	-0.00320993	-0.0217806	
0.00138896	0.00216716	-0.00791282	
0.00695381	-0.000901214	-0.0118565	
0.004616	0.000513092	-0.0154583	
0.00824364	-0.00144747	-0.0134934	
0.0132707	0.00220393	0.0464663	
0.0025609	-0.00303364	0.0051352	
0.0019591	0.00106265	0.0291756	
-0.00180656	0.00336907	0.000928236	
0.00369163	0.000622954	-0.0119126	
0.0013657	0.0026158	-0.00665332	
0.000853141	0.0034406	-0.00257168	
-0.000939427	0.00239986	-0.00163624	
0.00790509	0.00387257	0.0333302	
0.00609471	-0.00723041	0.00971952	
0.00289587	0.00166849	0.0340479	
0.000159167	-2.86247e-05	2.94211e-05	
0.00683487	-0.00435985	0.010605	
0.000131386	0.000108592	-2.15777e-05	
-0.00202036	-5.03196e-05	0.0252655	
-1.27963e-05	0.000251628	-9.62401e-05	
-0.000746938	0.00357341	2.29963e-05	
0.000999795	0.00136205	-0.00015957	
-0.00273391	0.00271666	0.0106193	
-0.000750119	0.00156062	-0.00129437	
-0.00145252	0.000692843	0.0130123	
0.00155129	0.00341415	-0.00559123	
0.00019643	-0.000518499	-0.000141897	
-0.000146986	0.00338613	-0.000877041	
0.00117666	0.00258939	8.44729e-06	
0.00113374	0.000478456	-0.000370374	
0.0012029	0.00199188	7.05766e-05	
-0.00476907	-0.0127223	-0.00297974	
-0.0262922	-0.0542511	-0.161547	
-0.00364404	-0.00606151	-0.000416473	
0.00261848	0.00570957	0.00258356	
-0.0015896	-0.00274703	0.000492621	
0.00641879	0.013202	0.00868149	
-0.0108628	-0.0233596	-0.00719937	
0.00495443	0.00898285	0.0043347	
-0.00266891	-0.0069099	-0.0039087	
0.000893153	0.00134132	0.00596308	
0.00162124	0.00334416	0.00421202	
-0.00452109	-0.00412619	-0.0128626	
0.00510598	0.00955979	0.0050336	
-0.000404811	-0.00190834	0.00069015	
0.00529617	0.0109546	0.00574785	
0.00486468	0.00895866	0.00412942	
0.00049125	-0.000350912	0.0019186	
-0.00527106	-0.0156564	-0.00950804	
-0.001746	-0.00516802	-0.00263124	
-0.000378633	-0.00118301	0.0016177	
-0.000410357	0.000352189	-0.000438207	
0.000472063	-0.000511217	0.000643931	
0.000477112	0.000455037	-0.000346696	
-0.000130012	-0.000319192	0.00184469	
-8.29058e-05	0.00012234	-0.000292815	
0.0115689	0.0216391	0.0125247	
0.00515324	0.00877205	0.00325309	
0.010214	0.0169439	0.00564352	
0.0126703	0.0257345	0.0107285	
-0.000496799	5.2209e-05	0.00160312	
2.86116e-05	-1.09649e-05	-0.000121764	
-0.000520018	0.00019215	0.00196548	
0.00287854	0.00562939	0.00225871	
0.000137412	2.73322e-05	-0.00051983	
-3.17696e-05	-0.000309651	0.00161978	
6.31689e-05	-0.000590339	0.00168881	
-0.000228355	-0.000197696	0.00230711	
0.0278015	-0.0153525	0.0140094	
0.00410019	0.00476244	-0.0263301	
-0.00810785	0.021844	-0.00513115	
0.00131955	-0.00290026	0.000569882	
-0.00602943	0.0200187	-0.00590095	
-0.00891384	0.026947	-0.00541654	
-0.00640288	0.0132462	-0.00917499	
-0.00525193	0.0100286	-0.00643928	
0.00142573	-0.00710935	0.00420868	
0.000550568	-0.00443123	0.00267501	
-0.000633294	0.0024717	-0.000874615	
-0.000687977	-0.00120263	0.00341688	
2.35727e-05	-7.7535e-05	-0.00251619	
-0.0180746	0.0336469	-0.0230949	
-0.0126308	0.0237097	-0.0154136	
0.000769271	-0.00243757	-0.00174015	
0.000830506	-0.00359224	0.00204444	
0.000650981	-0.0033995	0.00212554	
0.000226552	-0.00309177	0.00138668	
-0.00177162	0.00745767	-0.00300014	
0.000124487	-3.12768e-06	-7.91799e-05	
8.6429e-05	5.20342e-05	4.84762e-05	
7.01132e-06	8.72305e-05	1.65546e-05	
6.76479e-05	-3.15735e-05	-0.000121959	
-0.000876167	-0.00131207	3.88781e-05	
0.0282668	-0.0619522	0.0204495	
0.00248027	-0.00485973	-0.000604967	
-0.00044908	-0.00166905	-0.00223006	
-0.00690296	0.0163246	-0.00624392	
-0.000440936	-0.000727946	-0.000618958	
5.97194e-05	-0.00205817	-0.00222931	
0.000403929	-0.000195909	-0.000568678	
0.00968408	-0.00837037	0.00481337	
-5.98253e-05	-0.00174377	-0.00125552	
-0.000119961	-0.000712608	-0.000873047	
6.54136e-06	4.41628e-05	6.21035e-05	
0.000173607	-3.05106e-05	-0.000275256	
-0.00304498	0.00351736	0.00545643	
0.0103038	-0.0225235	-0.00583361	
-0.00721453	-7.17535e-05	0.0353477	
0.00577931	-0.0011349	-0.0107544	
0.00698883	-0.00122977	-0.0133129	
0.0101249	-0.00416158	-0.0232826	
0.00225708	0.00185881	-0.00769864	
0.00622907	-0.00132258	-0.012829	
0.00601023	0.000182429	-0.0150924	
0.00704638	-0.00216952	-0.0147355	
0.0137729	0.00218684	0.047267	
0.00291724	-0.00250692	0.00593753	
0.00190049	0.00134926	0.0296338	
-0.00162812	0.00436265	0.000967719	
0.00430648	-0.000105137	-0.011812	
0.00201096	0.00220788	-0.00645903	
0.00102252	0.00336781	-0.00285709	
-0.00104042	0.00248329	-0.00179097	
0.00820892	0.004033	0.033937	
0.00560609	-0.00700921	0.0104262	
0.00301628	0.00214369	0.0349313	
-7.7792e-05	1.93651e-05	-0.000140258	
0.00721458	-0.00460798	0.0108931	
8.78705e-05	4.98483e-05	0.000108565	
-0.00199334	0.000248755	0.0259757	
-1.0098e-05	0.000122543	-5.13448e-05	
-0.000768154	0.00321868	0.000125251	
0.0010739	0.0014706	-0.000176345	
-0.00287269	0.00269025	0.010872	
-0.000935022	0.00185365	-0.00157544	
-0.00143635	0.000925515	0.0135701	
0.00170827	0.00321506	-0.00559685	
0.000177013	-0.000468959	-0.000131196	
-0.000134699	0.00309434	-0.000767485	
0.00125809	0.00278862	5.20612e-05	
0.00111798	0.000424574	-0.000342457	
0.00128628	0.00217252	8.03713e-05	
-0.00567017	-0.0126139	-0.00254938	
-0.0247961	-0.0716723	-0.161945	
-0.003038	-0.00519308	-0.000308559	
0.00300856	0.00550603	0.0026014	
-0.00148845	-0.00265251	0.000313513	
0.00613558	0.0129731	0.00829964	
-0.0121512	-0.0222538	-0.00680527	
0.00553814	0.00893708	0.00402609	
-0.00275961	-0.00712519	-0.0043158	
0.000538821	0.00202735	0.0053115	
0.00168141	0.00366131	0.00420221	
-0.00313527	-0.00699538	-0.0115202	
0.00566174	0.00957469	0.00478125	
-0.000398995	-0.00147589	0.000566255	
0.0058419	0.0115546	0.00576605	
0.00498654	0.00913843	0.00406757	
0.000489264	-0.00020493	0.00174723	
-0.00495769	-0.0153778	-0.00999338	
-0.00224603	-0.00478191	-0.00302262	
-0.000417148	-0.00126649	0.0012023	
0.000369985	0.000206944	-0.000149311	
0.000368915	-0.000501355	0.000611625	
0.000507618	0.000228176	-0.000235619	
-0.000113414	-0.000290972	0.0016681	
-6.94414e-05	0.000103468	-0.000249259	
0.0117979	0.0218386	0.0121933	
0.00500269	0.00906419	0.0032518	
0.00990448	0.017394	0.00572675	
0.0125451	0.0253262	0.0103485	
-0.000422896	6.90211e-05	0.00133475	
1.44939e-06	-1.51317e-06	-8.4834e-06	
-0.000451043	0.000174218	0.00170403	
0.0030325	0.00555655	0.00244815	
7.67152e-05	1.19246e-05	-0.000281598	
-4.10132e-05	-0.000235501	0.00131483	
6.61064e-05	-0.0005519	0.00158986	
-0.00018347	-0.000160636	0.00192544	
0.025773	-0.0162972	0.0178324	
0.00421164	0.00511933	-0.0263207	
-0.0082263	0.0221337	-0.00500911	
0.00125502	-0.00292728	0.00125819	
-0.00613302	0.0201292	-0.00595565	
-0.00891249	0.0271547	-0.00565838	
-0.00713884	0.0128425	-0.00958575	
-0.00588452	0.00966706	-0.00671949	
0.00148248	-0.00716157	0.0040469	
0.00054055	-0.00451614	0.00256267	
-0.000636363	0.00249973	-0.000955787	
-0.000659426	-0.00139027	0.00338518	
-5.28855e-05	-4.67689e-05	-0.00223727	
-0.0204008	0.0330459	-0.0241353	
-0.0129245	0.0243172	-0.0151199	
0.000628012	-0.00223797	-0.00152063	
0.000812763	-0.00362348	0.00190806	
0.000657512	-0.00349083	0.00200751	
0.000185092	-0.00316912	0.00125137	
-0.00181337	0.00744615	-0.0030735	
-8.80959e-06	-1.20185e-07	5.90474e-06	
-8.85512e-06	-5.47382e-06	-5.08567e-06	
2.7815e-06	-6.39068e-06	6.13896e-08	
7.26375e-05	-3.27728e-05	-0.000128499	
-0.000760621	-0.000890129	3.61146e-05	
0.029749	-0.060592	0.0206059	
0.00216487	-0.00475951	-4.09595e-05	
-9.49868e-05	-0.00171552	-0.00166144	
-0.00702158	0.0165536	-0.00609007	
-0.000300224	-0.000493987	-0.000435896	
1.50386e-05	-0.00173335	-0.0018114	
0.000267608	-0.00012946	-0.000378396	
0.00796378	-0.00877931	0.00650335	
-0.000113933	-0.00156983	-0.00107894	
-0.000118683	-0.000681625	-0.000795708	
-4.58067e-06	-3.11784e-05	-4.38106e-05	
0.000136363	-2.52759e-05	-0.000215557	
-0.0029226	0.00381609	0.00485073	
0.0116848	-0.0208779	-0.00659361	
-0.00631446	-0.00176207	0.0362355	
0.00569992	-0.000849682	-0.0111741	
0.006641	-0.0015195	-0.0138037	
0.0116101	-0.00494632	-0.0227144	
0.00253258	0.00130577	-0.00786611	
0.0058368	-0.00155142	-0.0131067	
0.00629192	-0.000429908	-0.0150043	
0.00689425	-0.00279376	-0.0147323	
0.0147084	0.00160968	0.0474714	
0.00301918	-0.00257615	0.00621823	
0.00252581	0.000629525	0.030269	
-0.000771782	0.00501542	1.05534e-05	
0.0048378	-0.000387541	-0.0116624	
0.00219242	0.00180415	-0.00673388	
0.000650201	0.00262906	-0.0016793	
-0.000724276	0.00169594	-0.00127801	
0.00874142	0.00366454	0.0342756	
0.00551088	-0.00705291	0.0106001	
0.00359134	0.00148985	0.0355572	
-5.98429e-05	-5.1668e-06	-5.37673e-05	
0.00745779	-0.00479256	0.0110614	
2.35342e-05	3.69246e-05	4.99358e-05	
-0.00134744	-0.000718156	0.026528	
-5.73867e-05	0.000562945	-0.000251453	
-0.000776967	0.00316262	0.000284645	
0.000559236	0.00076154	-0.000110638	
-0.00267625	0.00136395	0.0114726	
-0.000638155	0.00122258	-0.00107724	
-0.00140274	-4.40679e-05	0.0140698	
0.00154168	0.00282276	-0.0053846	
8.07395e-05	-0.00020879	-7.26475e-05	
-0.000116169	0.00292749	-0.000724173	
0.000742862	0.00161205	2.05247e-05	
0.000480869	0.000187836	-0.00016443	
0.000717625	0.001178	2.52541e-05	
-0.00607687	-0.0124807	-0.00200686	
-0.00625754	-0.0649873	-0.170495	
-0.00281007	-0.00503067	-0.000484228	
0.00327253	0.00540457	0.00296021	
-0.0014443	-0.0027231	-6.00924e-05	
0.00594498	0.0129737	0.00800106	
-0.0118513	-0.0223624	-0.00633481	
0.00564747	0.00894444	0.0045896	
-0.002837	-0.00729403	-0.00473922	
0.000305307	0.0014437	0.00510848	
0.00159079	0.00369128	0.0038357	
-0.00280453	-0.00546095	-0.0125265	
0.00565069	0.00952464	0.00553894	
-0.000255548	-0.00132278	0.000769487	
0.0058246	0.0119186	0.00580753	
0.00505852	0.00907038	0.004814	
0.000296626	-0.000257305	0.00115127	
-0.00489391	-0.0153779	-0.0100979	
-0.00191671	-0.00491294	-0.0031787	
-0.000326962	-0.0010332	0.000810862	
0.000242511	0.000147967	-0.000113473	
0.000380581	-0.000325749	0.000346568	
0.000362073	-0.000109213	5.53739e-05	
-8.82568e-05	-0.000248649	0.00141954	
4.55098e-06	-6.6348e-06	1.67259e-05	
0.0117074	0.0221963	0.0120951	
0.00510002	0.00913708	0.00415556	
0.00986961	0.0177407	0.00653289	
0.0120878	0.0256178	0.0102816	
-0.000436678	8.21045e-05	0.00136373	
-0.000190289	7.34214e-05	0.000798597	
-0.000395191	0.000158849	0.00147039	
0.00305988	0.00557337	0.00296985	
-0.000110386	-1.70449e-05	0.00039978	
-5.14209e-05	-0.000222706	0.00133383	
5.42033e-05	-0.000438264	0.00126027	
-0.00015099	-0.000118897	0.00155206	
0.023427	-0.0184077	0.0205545	
0.00424356	0.0045207	-0.0261143	
-0.00828932	0.0223849	-0.00492085	
0.00103313	-0.00305847	0.00151272	
-0.00614427	0.0202999	-0.00598708	
-0.00889719	0.0273602	-0.00578801	
-0.00753466	0.0131446	-0.00923964	
-0.00625687	0.00998466	-0.00622552	
0.00144785	-0.00705158	0.00404223	
0.000521051	-0.00441396	0.00263133	
-0.000654889	0.00256612	-0.000949185	
-0.00113095	-0.000973184	0.00334486	
-0.000251257	0.000287804	-0.00170833	
-0.0209481	0.0340899	-0.0238149	
-0.0128211	0.0248495	-0.0149684	
0.000660008	-0.0019133	-0.00110382	
0.000801223	-0.00353231	0.00190867	
0.000644325	-0.00342806	0.00202748	
0.000180562	-0.00310904	0.00129719	
-0.0018157	0.0075379	-0.00307915	
3.67936e-05	-5.53929e-06	-1.68641e-05	
2.16765e-05	1.35309e-05	1.28122e-05	
5.22926e-06	2.34798e-05	3.99202e-06	
5.89069e-05	-2.7029e-05	-0.000104514	
-0.00103732	-0.00104767	3.60236e-05	
0.0292305	-0.0605574	0.020683	
0.00232987	-0.00424166	0.000348193	
-4.88496e-05	-0.00150492	-0.00131868	
-0.00701424	0.0167052	-0.00596385	
-0.000227794	-0.000370996	-0.0003366	
6.74898e-08	-0.00136319	-0.00137356	
0.000209661	-0.000100444	-0.000295152	
0.00724306	-0.00885493	0.00720789	
-0.000142652	-0.00159767	-0.00107979	
-8.28384e-05	-0.000444011	-0.00052371	
-8.63507e-07	-6.00161e-06	-8.37889e-06	
0.000114055	-2.12322e-05	-0.000180882	
-0.00310434	0.00349249	0.00482167	
0.00889305	-0.0209922	-0.00814728	
-0.00548137	-0.00277075	0.0366925	
0.0060328	-0.00145029	-0.0110704	
0.00678879	-0.00198221	-0.0134904	
0.0119511	-0.00566578	-0.022664	
0.00246236	0.000510602	-0.0072641	
0.00647617	-0.00233888	-0.0126927	
0.00644167	-0.0011982	-0.0150726	
0.0075413	-0.00334219	-0.0143371	
0.0149549	0.00104766	0.0476858	
0.00351233	-0.00270668	0.00607874	
0.0027458	0.000121157	0.0305845	
-0.000600467	0.0052294	0.000566889	
0.00510151	-0.00118231	-0.0115207	
0.00199583	0.000650063	-0.00599994	
0.00062152	0.00101869	-0.00129003	
-0.000480099	0.00111271	-0.000849021	
0.00903909	0.00332113	0.0344587	
0.00535543	-0.007021	0.0107595	
0.00377955	0.00107802	0.035842	
-3.54701e-05	1.83338e-05	-5.66849e-05	
0.00746412	-0.00480164	0.0112547	
5.10953e-06	4.56114e-05	3.65977e-05	
-0.00101342	-0.00125344	0.026652	
-1.71575e-05	0.000140856	-6.40738e-05	
-0.000666331	0.00147629	0.00111571	
0.00031038	0.000422249	-6.52464e-05	
-0.00238139	0.000225817	0.0117488	
-0.000397371	0.00075269	-0.000667949	
-0.00133723	-0.000598096	0.0142462	
0.00147269	0.00102094	-0.00500499	
5.94713e-05	-0.000145667	-5.4225e-05	
-3.87819e-05	0.00110105	-0.000272866	
0.000338018	0.000733361	-1.42511e-06	
0.000305544	0.000122113	-0.000107576	
0.000330126	0.000543625	4.21382e-06	
-0.00684393	-0.0124289	-0.00233285	
-0.00940781	-0.0622589	-0.17447	
-0.00188158	-0.00343491	-0.000357873	
0.00334234	0.00543972	0.00214211	
-0.00121745	-0.00247966	-0.00055769	
0.00528197	0.0120726	0.00682032	
-0.0117506	-0.0213624	-0.00751357	
0.00548763	0.00934361	0.0030828	
-0.00273822	-0.0072464	-0.00523893	
-0.000430606	0.00119025	0.00544677	
0.00181656	0.0047594	0.00381858	
-0.00209115	-0.00460041	-0.0133831	
0.00599722	0.00977492	0.00399364	
-0.000282686	-0.000729024	4.92703e-05	
0.00640239	0.0126413	0.00502432	
0.00567975	0.00913378	0.00324002	
0.000618987	0.000703285	0.00170137	
-0.00480727	-0.01563	-0.0108631	
-0.00239256	-0.00424986	-0.00404246	
-0.000728795	-0.00217952	-8.86324e-05	
0.000180157	0.000122817	-7.94242e-05	
0.000214868	-0.000262211	0.000268046	
0.00031371	-3.7625e-05	5.91424e-05	
-3.94674e-05	-0.00012245	0.000691679	
-0.000129281	0.000194996	-0.00047221	
0.0117196	0.0222856	0.011389	
0.00566059	0.0089866	0.00241581	
0.0103877	0.017597	0.00501975	
0.0115373	0.0247565	0.00889067	
-0.000175713	3.36464e-05	0.00055067	
0.000193381	-7.90632e-05	-0.000832255	
-0.000265149	0.000106394	0.000980365	
0.00330185	0.0056582	0.00192555	
0.000233881	2.90292e-05	-0.000873048	
-2.65369e-05	-0.000100106	0.000619549	
1.85423e-05	-0.000202188	0.000590905	
-0.000123092	-0.00010315	0.00130479	
0.0222808	-0.0184591	0.0217373	
0.00469515	0.00455664	-0.0258982	
-0.00834125	0.0224952	-0.00481549	
0.00168494	-0.00247946	0.00204631	
-0.00613539	0.0203318	-0.00596987	
-0.00896506	0.0274656	-0.00575146	
-0.00766841	0.0134071	-0.0090007	
-0.00653819	0.0103487	-0.00594505	
0.0014605	-0.00700796	0.00399812	
0.000514294	-0.00440522	0.00260478	
-0.000665616	0.00260471	-0.000956707	
-0.00113597	-0.000763132	0.00338917	
-0.000194857	0.000248577	-0.00136466	
-0.0210305	0.0349864	-0.0236987	
-0.0128423	0.0252651	-0.0148772	
0.000386631	-0.00117836	-0.000730567	
0.000798157	-0.0034948	0.00187025	
0.000634665	-0.00342506	0.00200387	
0.000167323	-0.00309978	0.00128738	
-0.00182576	0.00757686	-0.00311202	
1.49396e-05	-2.90424e-06	-6.14868e-06	
7.67106e-06	4.86055e-06	4.62187e-06	
3.4862e-06	8.72761e-06	1.86532e-06	
2.83907e-05	-1.3593e-05	-5.08493e-05	
-0.000150751	-0.000139559	2.95505e-06	
0.0291781	-0.0603753	0.0204671	
0.00228402	-0.00409814	0.000451544	
0.000541159	-0.00173984	-0.000435623	
-0.00706327	0.0168526	-0.00585262	
-0.000140226	-0.000228778	-0.000209388	
-1.03427e-05	-0.00122875	-0.00126086	
0.000105554	-5.12493e-05	-0.000147941	
0.00717659	-0.00787228	0.00754582	
-4.33574e-05	-0.000463128	-0.000299195	
-5.53418e-05	-0.000310004	-0.00037393	
-1.75716e-06	-1.23668e-05	-1.73147e-05	
5.48954e-05	-1.09525e-05	-8.77602e-05	
-0.00317446	0.00335102	0.00482824	
0.0075338	-0.0212615	-0.00748235	
-0.00537142	-0.00278828	0.0369362	
0.00610116	-0.00165779	-0.0111965	
0.0069954	-0.00218797	-0.0136361	
0.0118736	-0.00570526	-0.0233183	
0.00228999	0.000198328	-0.00680467	
0.0064428	-0.00223752	-0.0130593	
0.00616138	-0.00153487	-0.0147195	
0.00754109	-0.0032876	-0.0147015	
0.015052	0.000681646	0.0477187	
0.00369762	-0.00291708	0.00619392	
0.00288327	3.61628e-05	0.0307248	
-0.000544636	0.00545457	0.00171387	
0.00496198	-0.00113785	-0.0119216	
0.00184699	0.000324601	-0.00568852	
0.000585074	0.000949192	-0.00116606	
-0.000604271	0.00137927	-0.00105856	
0.00916997	0.00313486	0.0345837	
0.00513117	-0.00702815	0.0109485	
0.00380958	0.00103372	0.0360869	
4.70066e-05	6.39185e-06	-1.37434e-05	
0.00734667	-0.00500757	0.0113829	
-9.54949e-06	6.08032e-05	1.26056e-05	
-0.000968829	-0.00121623	0.0268125	
-5.85176e-06	4.29165e-05	-1.98879e-05	
-0.000652983	0.00126803	0.00132911	
0.000292048	0.000403395	-6.27054e-05	
-0.00235661	0.000165023	0.0118547	
-0.000511037	0.000959299	-0.000864313	
-0.00131336	-0.000555867	0.014307	
0.00139853	0.000943346	-0.004968	
7.74473e-05	-0.00017446	-6.82005e-05	
-3.06983e-05	0.000968957	-0.000235857	
0.000321554	0.000698469	-2.83546e-06	
0.000306227	0.000128004	-0.000107693	
0.000321801	0.000537913	2.32746e-06	
-0.00657106	-0.0124959	-0.00172668	
-0.0267793	-0.0586545	-0.178137	
-0.00203405	-0.00345778	3.60263e-05	
0.00339681	0.00535411	0.00304611	
-0.00134027	-0.00251006	5.95154e-05	
0.00542875	0.0120004	0.00752712	
-0.0110447	-0.0219908	-0.00575052	
0.00567185	0.0092284	0.0051133	
-0.00300908	-0.00769858	-0.00499204	
-0.000499579	0.00157588	0.00498835	
0.00202414	0.00469107	0.00454008	
-0.0018985	-0.00340595	-0.0135769	
0.00566628	0.00988766	0.00600231	
8.75829e-05	-0.000853718	0.00118494	
0.00613902	0.0127088	0.00601159	
0.00519743	0.00943918	0.0051306	
0.000712088	0.000527914	0.00193646	
-0.00465333	-0.0155091	-0.0107028	
-0.00223352	-0.00453376	-0.00390434	
-0.000855154	-0.00238741	0.000120892	
0.000328558	-2.40027e-05	-2.24771e-05	
0.000339523	-0.000415451	0.000440149	
0.000365175	-0.000129619	0.000154769	
-7.55952e-05	-0.000255001	0.00142076	
3.89993e-05	-5.87578e-05	0.000143365	
0.0115757	0.0223203	0.0120145	
0.00517357	0.00926555	0.00425347	