<VTKFile type="UnstructuredGrid" version="0.1" byte_order="LittleEndian">
	<UnstructuredGrid>
		<Piece NumberOfPoints="15651" NumberOfCells="15651">
			<CellData Scalars="scalars">
				<DataArray type="Float64" Name="Strength" NumberOfComponents="3" Format="ascii">
-0.00892566	-0.0142612	0.0142928	
-0.020212	-0.0103822	-0.0222203	
0.0192981	0.070686	0.00976014	
0.00576626	-0.00737107	-0.00597768	
0.0065218	-0.00042385	-0.0110552	
0.00739472	0.0529484	-0.0386327	
0.00364254	0.0848792	-0.0385791	
-0.000503172	0.0132942	-0.0211	
0.00228592	0.0828042	-0.041073	
0.000417683	0.02585	-0.0306942	
0.00188605	0.0234398	0.0396934	
0.00532055	-0.00212702	-0.0010332	
-0.000462665	0.043687	0.00813111	
0.00168305	-0.000972794	0.00193716	
0.000551633	0.068053	-0.0439026	
-0.00055298	0.0868403	-0.0291764	
0.0102421	0.0960226	0.014008	
-0.00736452	0.0521472	-0.0478638	
0.0039488	0.0188729	0.0256191	
0.00520526	-0.00981572	0.00956723	
-0.0034978	0.0385443	0.0141912	
0.00129957	-0.00208977	0.00355604	
0.00269071	-0.00490804	0.0102918	
0.00084924	0.00208524	-0.00130641	
0.00639201	0.051125	0.00513778	
-0.000849578	-0.0124867	0.00462569	
0.000205089	0.0884501	-0.0258778	
0.00419631	0.0362327	0.024731	
0.0152897	0.0868654	0.0129618	
-0.0114859	0.0352804	-0.0358838	
0.00569682	0.0518005	0.0194284	
0.0054204	0.0929566	-0.00147927	
0.000560129	0.000357471	6.44809e-05	
0.00133409	0.0888873	-0.0138799	
-0.0059449	0.0797486	0.0160346	
0.0128336	-0.00135634	0.0182914	
-0.00368188	0.05491	0.0291599	
-0.013788	-0.00673579	-0.0244912	
-0.0900979	-0.0869697	-0.080246	
0.0140636	0.0133696	0.0492468	
0.000709383	0.0114886	-0.0142905	
0.00846309	-0.0208077	0.051748	
-0.0128557	-0.0209482	0.0649275	
-0.0176869	-0.0131544	0.0577595	
0.0161188	-0.0172262	0.0520951	
0.01715	-0.0123647	0.036585	
0.0127573	0.000402987	0.0161151	
0.00517464	-0.0198673	0.0552407	
0.0078705	-0.027394	-0.0417138	
0.0100109	-0.00315208	0.0493403	
0.00110435	-0.00977237	0.0271641	
0.00306528	0.0131334	0.0545485	
0.00519239	0.00613749	0.0407452	
0.0271721	-0.0201144	0.0395037	
0.0167234	-0.0182289	0.0243406	
0.00073087	-0.0201818	-0.0035286	
0.0060732	-0.0285028	0.0512443	
-0.0100739	-0.0289345	0.0400364	
0.00615339	-0.0243081	0.00832841	
0.00213496	0.00368255	0.0196533	
0.00540898	-0.0127947	0.0590289	
-0.00712374	0.00766194	-0.0203711	
0.0199818	0.00476951	0.0404165	
0.00342081	0.00813495	0.0314898	
0.00910357	0.0146165	0.0158271	
-0.00163313	-0.0199747	0.0769726	
-0.00676405	0.0148129	0.0384262	
-0.00371258	0.00262198	0.0189861	
0.00301484	0.0116538	0.0440423	
0.00429103	0.00816004	-0.0109643	
0.00121	0.000322031	-0.00483987	
0.000268303	-0.00252681	0.0255368	
0.0188438	-0.0210773	0.0501014	
0.00147929	-0.00248571	0.0532713	
0.0142406	-0.0598572	0.00133759	
-0.0062215	0.00772159	-0.036258	
-0.00542998	0.00246402	-0.0329108	
-0.00914079	-0.0436377	-0.00634283	
-0.0101677	0.0146897	-0.00981922	
-0.013984	0.0105182	-0.0238629	
0.00770894	-0.00174789	-0.0541461	
0.0107366	-0.00701123	-0.0582067	
0.00282877	-0.00966308	0.00123423	
0.00193523	-0.00718218	0.00134709	
0.000419457	0.00103926	-0.00346644	
0.00532117	0.000340078	0.00611885	
0.0118561	-0.0204932	-0.0667492	
-0.0145655	-0.0148487	-0.0479721	
-0.01788	-0.0427764	-0.0264925	
0.0117221	-0.0396878	-0.0606944	
0.00111204	-0.00495625	0.000795484	
0.000276799	-0.00610431	-0.000592342	
4.26851e-05	-0.00536898	-0.00179146	
-0.00207092	0.00530771	-0.00460813	
0.00136448	-0.00150521	0.00361963	
-0.00198168	-0.00240154	0.000340725	
-0.00124218	0.00173726	-0.00194923	
0.00703667	0.00142208	-0.00847921	
-0.0173821	-0.0477462	0.00774654	
0.0516079	-0.0513755	-0.0521295	
0.0107238	-0.0469503	-0.0548209	
-0.00288009	-0.0559354	-0.0439543	
-0.00397279	0.000905428	-0.0354371	
-0.00436343	-0.057799	-0.0177165	
0.00263565	-0.0496513	-0.0494848	
-0.000174053	0.00317245	-0.0429686	
0.00559379	-0.0515798	-0.0317908	
-0.00208745	-0.0655831	-0.046363	
0.00251164	-0.0113996	-0.0139566	
1.37082e-06	6.73466e-06	9.2529e-06	
0.0109388	0.00984963	-0.0173944	
-0.00167437	0.00355937	0.00650702	
0.00614416	-0.0226691	-0.0190823	
-0.0228091	-0.00252142	0.0257005	
0.00460854	-0.00146684	-0.0107065	
0.0070571	9.517e-05	-0.0129307	
0.0190808	0.016425	-0.00769652	
0.00411134	0.0138329	-0.00156807	
0.00723172	0.00317355	-0.0122481	
0.0084119	0.0187264	0.000620352	
0.0105133	0.00623505	-0.0122859	
0.0218491	0.00295917	0.0417645	
-0.00207044	-0.00320678	0.00350798	
-0.0020052	-0.000571561	0.0283055	
-6.53405e-05	0.00211667	0.00101747	
0.0072793	0.0150443	-0.00377774	
0.00341093	0.0134088	0.000281637	
0.00202119	0.0100367	0.0053288	
-0.000496162	0.00652723	-0.00845249	
0.0136331	0.00520116	0.0302906	
0.00371982	-0.0071818	0.0105706	
0.00315773	0.00375855	0.0327762	
-2.32367e-05	0.000212036	-0.000205422	
0.00467242	-0.00414222	0.0105901	
-0.000337191	-0.000244313	-6.64764e-05	
-0.0081272	-0.00228323	0.0231817	
-1.2718e-06	0.000185046	-8.14357e-05	
-0.00121238	0.0108831	-0.00236213	
0.00519175	0.00174622	0.00146949	
-0.00968677	0.00542947	0.00686667	
-0.00180712	0.00443142	-0.00687664	
-0.00359594	-0.000121251	0.0126631	
0.00324245	0.0104961	0.00451655	
-0.00118908	0.000348357	0.000620241	
-0.00056933	0.0103218	0.000203336	
0.00381194	0.00426983	0.00673589	
0.00222141	-0.00162438	-0.000528086	
0.00482883	0.00311456	0.00442253	
-0.00167529	-0.0126702	-0.00548906	
0.02393	-0.099673	-0.124297	
-0.010761	-0.000802756	0.00322564	
0.000892829	0.0068506	0.00149838	
-0.00369613	-0.00376863	0.00414916	
0.0142704	0.00323767	0.01549	
-0.0274008	-0.00635318	0.005421	
0.0112824	0.000358941	0.00403605	
0.000947327	-0.00820187	-0.000580619	
-0.00176378	0.000502219	0.00683136	
0.00137852	-0.00129268	0.00769335	
-0.00182306	-0.00438307	-0.0124827	
0.0108168	0.001355	0.00619283	
-0.00153664	-0.00214377	0.00477104	
0.00914929	0.00438698	0.0097262	
0.00924511	0.00320539	0.00577603	
0.000334321	-0.00300444	0.00486328	
-0.00390242	-0.0156777	-0.00773447	
0.00176113	-0.00539796	-0.00191719	
-9.12661e-05	-0.00268861	0.00649947	
-0.00187702	0.0014248	-0.000735231	
0.00202355	-0.00188805	0.00123796	
0.000153882	0.0022797	0.000726284	
-0.00112525	-0.00232547	0.00582633	
-0.000489166	0.000489781	-0.00132183	
0.0217313	0.0125312	0.0159016	
0.00851579	0.00495053	0.00460247	
0.0124723	0.0152212	0.00548323	
0.0290364	0.00585197	0.0168935	
-0.00188198	0.00285482	0.00494678	
-0.000213897	0.000235104	0.000748095	
-0.000798808	0.00301855	0.00628186	
0.00219691	0.00624472	0.0010908	
0.000323749	-3.49728e-05	-0.000914472	
-0.000199954	0.000198786	0.00620448	
3.29595e-05	-0.00306013	0.00533559	
-0.00101215	-0.000923534	0.00745494	
0.0278268	-0.0186999	-0.00681095	
0.00618582	-0.0109191	-0.0228869	
-0.0132985	0.0193548	-0.000852928	
0.00044222	-0.00664341	-0.00104069	
-0.00507104	0.0211787	-0.00108317	
-0.0106538	0.0266284	0.0018017	
-0.00989312	-0.000320787	-0.015116	
-0.00765265	-0.000819015	-0.0112168	
0.00111884	-0.00600369	0.00573981	
0.000209918	-0.00328603	0.0038402	
-0.000812912	0.00266267	0.000291475	
0.00156823	0.00147454	0.00308114	
0.000711387	-0.000651512	-0.00833119	
-0.0329913	-0.00684856	-0.026137	
-0.0241285	0.0164666	-0.0084243	
0.00280768	-0.00365481	-0.00865006	
0.00104839	-0.00295418	0.00309648	
0.000769795	-0.00228194	0.00317375	
0.000470524	-0.00240126	0.00228966	
-0.00117411	0.00839901	-0.00144167	
0.000388834	0.00145914	0.000219692	
0.00107192	0.000107352	6.22558e-05	
-0.000190228	-0.000188673	0.000781147	
-0.000368735	-3.12354e-05	0.000296747	
-0.00145924	-0.00488483	0.00201777	
0.0542965	-0.0404913	-0.026878	
0.00492714	-0.00505316	-0.00860137	
-0.00169834	-0.00790306	-0.00492778	
-0.0107526	0.0146797	-0.00360446	
-0.00127565	-0.00234333	-0.00126876	
0.000608383	-0.00722086	-0.00668302	
0.00107542	0.000394416	-0.00109108	
0.0120763	-0.00744383	-0.00876008	
0.000275225	-0.00621058	-0.0037564	
0.000610395	-0.00319948	-0.00278098	
0.000106384	0.000705719	0.00106636	
0.000140635	6.0366e-05	-9.02971e-05	
-0.00199957	0.00390281	0.00615319	
0.0124585	-0.0250918	-0.00557631	
-0.00206041	-0.00902496	0.0337942	
0.00575603	-0.00201919	-0.0101906	
0.00846607	-0.00141034	-0.0117787	
0.0203045	-0.000145697	-0.0135708	
0.00379997	0.00179232	-0.00670312	
0.00881394	-3.28731e-05	-0.0103845	
0.0109192	0.000972855	-0.0115274	
0.0116453	0.000228206	-0.0105317	
0.0093749	0.01312	0.0452502	
0.00108766	-0.00186674	0.00552385	
0.00086051	2.5115e-05	0.0291639	
-0.000416321	0.00294018	0.000794328	
0.00885906	0.000775244	-0.0083613	
0.0027524	0.00198981	-0.00608609	
0.000667063	0.00335942	-0.002395	
-0.000721204	0.00143575	-0.00240161	
0.0078427	0.00855013	0.0322622	
0.00596419	-0.00659546	0.0101762	
0.00231952	0.00338357	0.0338828	
-0.000170313	-4.29315e-05	0.000162162	
0.00676107	-0.00491901	0.00994475	
9.58951e-05	-3.43447e-05	-0.000132411	
-0.00240683	-0.00338459	0.0246781	
-5.28217e-06	6.59551e-05	-3.29794e-05	
-0.000845327	0.00296972	0.000227107	
0.00166604	0.000536426	-2.67969e-05	
-0.00106717	-0.00010594	0.0109789	
-0.000680692	0.000912722	-0.00190014	
-0.000425501	-0.00214806	0.0125753	
0.000978209	0.00341219	-0.00528138	
-0.000465444	-0.000322129	0.000115228	
-0.000216951	0.0028055	-0.000510258	
0.00156602	0.00190333	0.000354546	
0.00103684	-0.000671321	-0.00016442	
0.00170036	0.0012905	0.000250108	
-0.00192985	-0.0132049	-0.00421745	
-0.0226167	-0.0942503	-0.137481	
-0.00419786	-0.00758733	0.000551318	
0.00160707	0.0063811	0.0024875	
-0.00186657	-0.00271743	0.000648941	
0.00777537	0.0146322	0.00737292	
-0.0164912	-0.0222823	-0.002602	
0.00712611	0.00798356	0.0022171	
-0.00195967	-0.0065452	-0.00446691	
0.00255181	1.88244e-05	0.00575159	
0.00147223	0.00309455	0.00363656	
-0.00378492	-0.0100327	-0.00989911	
0.00767269	0.0082222	0.00344141	
-0.000840375	-0.00205973	0.00117766	
0.00426752	0.0116701	0.00348307	
0.00729889	0.00752255	0.0027579	
0.000305346	-0.00073006	0.00159492	
-0.00597295	-0.0148204	-0.0102053	
-0.00125542	-0.0045474	-0.00378276	
-0.000139755	-0.000404617	0.00204833	
-0.000401285	0.000498477	-0.000192147	
0.000623217	-0.000534884	0.000341607	
-0.000629353	0.000329405	0.000198422	
-0.000298769	-2.7274e-05	0.00188138	
-0.000153425	0.000151546	-0.000396665	
0.0119264	0.023648	0.00882142	
0.00722658	0.00749147	0.00201152	
0.0119128	0.0163631	0.00399866	
0.0105194	0.0295676	0.00452599	
-0.000952963	0.000616829	0.0016052	
5.49818e-05	-7.10799e-05	-0.000159138	
-0.000914897	0.000860929	0.00196687	
0.00244681	0.00603271	0.00194084	
0.000217471	-6.52936e-05	-0.000517213	
-0.000154482	6.08549e-05	0.00209442	
6.99904e-05	-0.000511165	0.00164944	
-0.000540488	0.000308075	0.00239806	
0.0301791	-0.0162362	-0.00368149	
0.00931555	-0.0076971	-0.0258534	
-0.00559779	0.0229113	0.00233754	
0.0015932	-0.00279252	5.77931e-06	
-0.00583638	0.0207698	-0.00173711	
-0.00672832	0.0278269	0.00342709	
-0.00845191	0.0107397	-0.0108027	
-0.00749674	0.00840487	-0.00641577	
0.00208461	-0.00757225	0.00387008	
0.000694718	-0.0047834	0.00257428	
-0.000481311	0.00245557	-0.000775748	
0.000221309	0.000236286	0.00408989	
-3.19943e-05	0.000388597	-0.0024903	
-0.02802	0.0219713	-0.0260602	
-0.00968396	0.0256572	-0.0141757	
0.00163848	-0.00213457	-0.00201688	
0.00101523	-0.00402038	0.00166212	
0.000862905	-0.00373642	0.00195331	
0.0003791	-0.00349306	0.000792146	
-0.00194971	0.007453	-0.00244692	
3.503e-05	-0.000283194	0.00031263	
-0.000262721	-0.000100114	1.00034e-05	
-0.000126097	-5.55873e-05	0.000164115	
0.000288496	2.39295e-05	-0.000236603	
-0.000566589	-0.00131438	0.000905209	
0.0392252	-0.0558987	0.0233992	
0.00418403	-0.00352548	-0.00127857	
-0.00132103	-0.00224979	-0.00187714	
-0.00412247	0.018217	-0.00149736	
-0.000518436	-0.000647083	-0.000346493	
0.000189205	-0.00242467	-0.00199291	
0.000563336	-3.74341e-05	-0.000366769	
0.0131746	-0.00511156	-0.000355354	
0.000121394	-0.00205243	-0.0009873	
-1.20277e-05	-0.000886033	-0.000706695	
-3.7383e-05	-0.000208876	-0.00032971	
0.000393321	8.60034e-05	-0.000243751	
-0.00241242	0.00419293	0.0056006	
0.014936	-0.0221433	-0.00488993	
-0.00680443	-0.00132517	0.0351201	
0.00620369	-0.00196829	-0.0101492	
0.00834374	-0.0022632	-0.0121519	
0.0139174	-0.00824209	-0.0195542	
0.00135991	0.000291259	-0.00833781	
0.00805438	-0.00217407	-0.0112766	
0.00523132	-0.0033731	-0.0151786	
0.00974587	-0.00337526	-0.0124436	
0.0141157	0.0104275	0.0457123	
-0.0017347	-0.00267796	0.00576303	
0.00104713	0.000937935	0.0296111	
-0.00342297	0.00226073	0.00126474	
0.00420987	-0.00272963	-0.0116625	
0.00143607	0.00142301	-0.00711026	
0.0011145	0.00349654	-0.00250388	
-0.00128179	0.00146908	-0.00241513	
0.00887447	0.00950537	0.0323857	
0.00501074	-0.00485435	0.0118168	
0.0034402	0.00421588	0.0342226	
-1.74556e-05	-9.46466e-05	-0.000137982	
0.00638907	-0.00561134	0.0104985	
2.17902e-05	0.000167924	-4.18394e-05	
-0.00245919	-0.00218947	0.0254796	
-2.789e-05	0.000238871	-0.000133059	
-0.0010676	0.0035088	-0.000538229	
0.00156854	0.000701156	-8.28273e-05	
-0.00302351	0.00278113	0.0106961	
-0.000963918	0.000852568	-0.00178334	
-0.00122771	-0.000744879	0.0132146	
0.00192939	0.00329212	-0.00566758	
-0.000494987	-0.0002294	0.000194211	
-0.000279432	0.00332276	-0.00123	
0.00187269	0.00217884	0.000253939	
0.0011368	-0.00060289	-0.000196913	
0.00189832	0.00138181	0.00024571	
-0.00322348	-0.0133902	-0.00334001	
-0.0237174	-0.0241721	-0.17124	
-0.00433581	-0.00572911	0.000172542	
0.002376	0.00602116	0.00244213	
-0.00185432	-0.00259326	0.000661535	
0.00733759	0.0137389	0.00751125	
-0.0113036	-0.0244734	-0.00349131	
0.00532749	0.00957462	0.00285707	
-0.0028913	-0.00648216	-0.00464427	
0.00494728	0.00222832	0.00431121	
0.00186498	0.00344912	0.00412754	
-0.00636914	-0.00590369	-0.0115132	
0.00541799	0.0102652	0.00361329	
-0.000378443	-0.0018342	0.000954174	
0.00577966	0.0115862	0.00433565	
0.00538874	0.00949714	0.00246128	
0.000663442	-0.000502853	0.00185909	
-0.0058431	-0.0155951	-0.00975117	
0.000139984	-0.00450702	-0.00415879	
-0.000466573	-0.00113825	0.00166069	
-0.000699591	3.79963e-05	-7.65431e-05	
0.000840514	-0.000287228	0.000365051	
0.000469983	0.000547534	-0.000224491	
-0.000298214	-0.000112671	0.00187558	
-0.000117088	0.000117849	-0.00028973	
0.0130899	0.0221895	0.0108823	
0.00580273	0.00908529	0.0014077	
0.0111192	0.017482	0.00309238	
0.0142867	0.0266439	0.00713046	
-0.000789667	0.000479964	0.00143198	
4.31943e-05	-5.10027e-05	-0.00010902	
-0.000844988	0.000763786	0.00173017	
0.00289799	0.00588273	0.00194425	
0.000224088	-8.69564e-05	-0.000492912	
-0.000135029	-4.7095e-05	0.00166866	
9.47466e-05	-0.000597099	0.00170966	
-0.000488087	0.000221896	0.00229773	
0.0316039	-0.0152099	0.00449939	
0.0103867	-0.00894219	-0.0237143	
-0.00764554	0.022944	0.000702169	
0.00145105	-0.0026838	0.00124708	
-0.00605801	0.0210858	-0.00184341	
-0.00877618	0.0278438	0.00244682	
-0.00532214	0.0142555	-0.00888292	
-0.00471215	0.0110552	-0.005549	
0.00170579	-0.00706669	0.00437851	
0.000796161	-0.0042495	0.00300625	
-0.000634995	0.00261177	-0.000491692	
-0.001458	0.00145506	0.00317459	
0.000290299	0.000376652	-0.00251426	
-0.018215	0.0324313	-0.0259386	
-0.0136351	0.0237059	-0.0154662	
0.00081963	-0.00242551	-0.00182572	
0.00095608	-0.00363289	0.00202604	
0.00081711	-0.00332556	0.00227423	
0.000503239	-0.00313184	0.00132138	
-0.00181901	0.00781967	-0.00224564	
-0.000164851	3.06787e-05	-7.96674e-06	
0.000107549	3.55562e-05	-8.44334e-07	
8.11766e-05	2.61139e-05	2.92683e-05	
0.000110478	1.02677e-05	-9.33231e-05	
-0.000820661	-0.000972753	0.000982223	
0.0350193	-0.0593372	0.0214731	
0.00274101	-0.00486117	-0.000178277	
-0.000512453	-0.00215878	-0.00182177	
-0.00574538	0.0178884	-0.00319406	
-0.000542975	-0.000833383	-0.000388039	
4.32822e-05	-0.00245837	-0.00186758	
0.000606866	-7.65977e-06	-0.000414515	
0.0109823	-0.00664425	0.00539199	
-3.8521e-05	-0.00203814	-0.000792838	
-8.52309e-05	-0.000835622	-0.00078681	
6.84551e-06	4.12534e-05	6.51892e-05	
0.000276498	7.10375e-05	-0.000168441	
-0.00299103	0.00403892	0.00531013	
0.0237232	-0.0100086	0.00072424	
-0.00798639	-0.00157191	0.0356732	
0.00656432	-0.00202465	-0.0104431	
0.00797393	-0.00287271	-0.0128248	
0.0120275	-0.00891112	-0.0214723	
0.00239638	0.000852944	-0.00797185	
0.00727019	-0.00339497	-0.0121817	
0.00687796	-0.00171127	-0.0149171	
0.00842707	-0.00476353	-0.0136986	
0.0128946	0.0126646	0.046497	
0.00442993	-0.00298577	0.00480327	
0.000860615	0.00246441	0.0300039	
-0.0035578	0.00331911	0.000366522	
0.00503857	-0.00201067	-0.0115781	
0.00224689	0.0015567	-0.00669152	
0.00134512	0.00345914	-0.00271679	
-0.00150973	0.00155897	-0.00247169	
0.00864527	0.0104898	0.0328861	
0.00682588	-0.00540287	0.0108642	
0.00403074	0.00511679	0.0349811	
-4.33124e-06	6.37203e-05	-0.000160338	
0.00595005	-0.00444606	0.0118908	
0.00013067	5.71819e-05	-4.72789e-05	
-0.00256755	-0.00126255	0.0262552	
-1.75332e-05	0.0001153	-6.94088e-05	
-0.00103841	0.0031875	-0.000266857	
0.00169265	0.000751522	-9.52695e-05	
-0.00319702	0.00254562	0.0109939	
-0.00129612	0.000991601	-0.00208978	
-0.0012164	-0.000310696	0.0138105	
0.002083	0.0032122	-0.0055921	
-0.000452422	-0.00021205	0.000158759	
-0.000227722	0.00306504	-0.00102468	
0.00201438	0.00233186	0.000367569	
0.00109076	-0.00061809	-0.000126735	
0.00204439	0.00150938	0.000323919	
-0.00454095	-0.0133377	-0.00261004	
0.0109045	-0.103884	-0.147882	
-0.00362115	-0.00491923	0.000210304	
0.00298241	0.00572853	0.00248259	
-0.00172517	-0.00253192	0.000469181	
0.00697677	0.0135207	0.00714938	
-0.013056	-0.0229612	-0.0037706	
0.00602465	0.00927642	0.00295155	
-0.00300299	-0.00668986	-0.00502412	
-0.000125589	-0.00017925	0.00577985	
0.00191939	0.00378136	0.00410187	
-0.00791816	-0.00419812	-0.0107735	
0.00603999	0.00994742	0.00403809	
-0.000369381	-0.0014424	0.000725332	
0.00637892	0.0121412	0.00433497	
0.00544183	0.00960545	0.00274394	
0.000674789	-0.000363475	0.00168325	
-0.00594072	-0.0151841	-0.0102068	
-0.00514452	-0.00241023	-0.00239306	
-0.000510212	-0.00122896	0.00124053	
0.000441827	7.46788e-05	-7.96539e-05	
0.00064996	-0.000532263	0.000274709	
-0.000255138	0.000548104	-9.86025e-05	
-0.000264416	-0.00010787	0.00169643	
-0.000101531	0.000104692	-0.000243519	
0.0129269	0.0225578	0.0106026	
0.00555712	0.00941522	0.00159142	
0.010758	0.0180049	0.00309858	
0.0138744	0.0263561	0.00673697	
-0.00066455	0.000429252	0.00118269	
2.01381e-06	-4.58304e-06	-7.56849e-06	
-0.000747334	0.000667364	0.00149185	
0.00312045	0.00578743	0.00214177	
0.000123032	-5.10881e-05	-0.000266054	
-0.000123437	-7.8251e-05	0.00134917	
7.4624e-05	-0.000606008	0.00159319	
-0.000406607	0.00019394	0.001916	
0.0309291	-0.013559	0.0124365	
0.0104234	-0.00870561	-0.0238803	
-0.0077287	0.0232165	0.000875293	
0.00127077	-0.00249074	0.00208462	
-0.00614084	0.0212057	-0.00196154	
-0.00877007	0.0281367	0.00198975	
-0.00589711	0.0140688	-0.00922721	
-0.00540086	0.0107474	-0.00585502	
0.00176581	-0.00715773	0.00415269	
0.000776705	-0.00437649	0.00285291	
-0.000627754	0.00265695	-0.000559232	
-0.00173821	0.00111558	0.00322395	
0.000193882	0.000458995	-0.00222026	
-0.0208948	0.032686	-0.0255663	
-0.0141511	0.0243857	-0.014865	
0.000688133	-0.00216184	-0.00168347	
0.000928174	-0.00367452	0.00187208	
0.000846525	-0.00343777	0.00212592	
0.000431309	-0.00322166	0.0011648	
-0.00186775	0.00782168	-0.00229692	
6.13932e-06	9.32273e-06	4.80014e-06	
-1.10297e-05	-3.97835e-06	4.43657e-08	
-3.92844e-06	-3.97199e-06	4.34655e-06	
0.000117436	1.1707e-05	-9.78436e-05	
-0.000799442	-0.000525544	0.000713607	
0.0375401	-0.0581262	0.0185603	
0.00232835	-0.00477533	0.000258604	
-0.000171138	-0.0020249	-0.00133694	
-0.00602891	0.0180375	-0.00300209	
-0.000366872	-0.000563962	-0.000294951	
-3.78192e-05	-0.00202539	-0.00155073	
0.000397588	-5.58765e-06	-0.000283245	
0.00878071	-0.00714683	0.00783144	
-0.000141685	-0.00180877	-0.000693005	
-9.37006e-05	-0.000748144	-0.000760472	
-4.61977e-06	-2.89592e-05	-4.61142e-05	
0.000215408	5.33409e-05	-0.000135362	
-0.00298586	0.00428301	0.00460868	
0.0222565	-0.0029313	0.0112638	
-0.00689906	-0.00378888	0.0365136	
0.00652045	-0.00181229	-0.0108868	
0.00769458	-0.00335103	-0.0132528	
0.0134938	-0.00793599	-0.0213089	
0.00271445	0.000361195	-0.00804899	
0.00679506	-0.00366182	-0.01251	
0.00706782	-0.00208634	-0.014815	
0.00822724	-0.0050388	-0.0137591	
0.0128891	0.0133852	0.0467813	
0.00321348	-0.0032045	0.00592708	
0.00180707	0.0015751	0.0306896	
-0.00436229	0.000470446	-0.00269772	
0.00539405	-0.00195692	-0.0114947	
0.00243344	0.00114079	-0.00692214	
0.00084139	0.00268943	-0.00158639	
-0.00108043	0.00110211	-0.00168138	
0.00790657	0.0106285	0.0334837	
0.00747543	-0.00379313	0.0112632	
0.00462938	0.00458342	0.0356435	
-3.67784e-05	3.98742e-05	-5.87059e-05	
0.00727261	-0.00486551	0.0113678	
3.1202e-05	5.90012e-05	-8.33876e-06	
-0.00184201	-0.00222699	0.0267811	
-8.91291e-05	0.000528968	-0.000332743	
-0.00101932	0.0031592	-8.81647e-05	
0.000883687	0.000374799	-9.26494e-05	
-0.00294368	0.00112638	0.0116117	
-0.000914421	0.000669056	-0.00137353	
-0.00126442	-0.00121091	0.0142296	
0.00187877	0.00280982	-0.00539637	
-0.000183636	-0.00013454	6.99343e-05	
-0.000189125	0.00290724	-0.000950856	
0.00118732	0.00134267	0.000174849	
0.000471994	-0.000270147	-7.47384e-05	
0.00113324	0.000810919	0.000126888	
-0.00530087	-0.013145	-0.00185335	
0.0086234	-0.0386176	-0.180484	
-0.00329375	-0.00485544	6.59097e-05	
0.00336435	0.00557866	0.0028435	
-0.00165768	-0.00264792	8.49018e-05	
0.00670535	0.0135507	0.00683176	
-0.0127268	-0.0230269	-0.00330429	
0.0061686	0.00931911	0.0035504	
-0.00300829	-0.00686399	-0.00545406	
0.00260293	-0.00262561	0.00391589	
0.00180035	0.00380417	0.00374053	
-0.00846512	-0.00275154	-0.0109636	
0.00587672	0.0100121	0.00489293	
-0.000209672	-0.00127264	0.000905822	
0.00633985	0.0126096	0.00410179	
0.00531336	0.00963807	0.00382813	
0.00042416	-0.000350635	0.00110266	
-0.00518312	-0.0152926	-0.0105385	
-0.00128984	-0.00477751	-0.00379697	
-0.000396585	-0.00101234	0.000836034	
0.00023728	0.000161024	-0.000116605	
0.000548295	-0.00028193	-1.54555e-05	
0.000286865	-0.000235176	-0.000110761	
-0.000205221	-9.38843e-05	0.00144614	
6.73942e-06	-6.8322e-06	1.6307e-05	
0.0127369	0.0230873	0.0102418	
0.00548524	0.00964674	0.00288041	
0.0106162	0.0185027	0.0040909	
0.013174	0.026846	0.00640737	
-0.000688136	0.000459575	0.00119803	
-0.00030811	0.0002979	0.000721906	
-0.00065716	0.000588641	0.00127861	
0.0031401	0.00585489	0.00263976	
-0.000178148	7.12594e-05	0.00037702	
-0.000144164	-5.53494e-05	0.00136561	
7.8889e-05	-0.000484682	0.00126069	
-0.000327376	0.000168445	0.00154284	
0.0287319	-0.0133477	0.0188842	
0.00991994	-0.00805946	-0.0239683	
-0.00774332	0.0234496	0.00113827	
0.00100208	-0.00256004	0.00237233	
-0.00622139	0.0213585	-0.00200381	
-0.00889014	0.0283382	0.00186782	
-0.00643375	0.0142017	-0.00906388	
-0.00597107	0.0109067	-0.00537453	
0.0016876	-0.00705135	0.00415851	
0.000689617	-0.00427915	0.0029204	
-0.000648942	0.00272372	-0.000533582	
-0.00105073	0.00210302	0.0029287	
-7.85976e-05	0.000667615	-0.0016478	
-0.021642	0.033895	-0.0249275	
-0.0140394	0.0250516	-0.0145294	
0.000725952	-0.00180088	-0.00131477	
0.00089935	-0.00358562	0.0018767	
0.000826978	-0.00337386	0.00214726	
0.000455008	-0.00316344	0.00120086	
-0.00185858	0.00792033	-0.00228713	
-4.44903e-05	-1.28951e-05	2.97421e-06	
2.72065e-05	9.84702e-06	4.25444e-07	
2.28314e-05	5.90083e-06	7.38795e-06	
9.54777e-05	9.17869e-06	-7.97024e-05	
-0.00112317	-0.000515367	0.000855464	
0.0367373	-0.0585161	0.0180977	
0.00253791	-0.00421917	0.000355463	
-0.000120579	-0.00170827	-0.00110393	
-0.00603618	0.0181649	-0.00281266	
-0.000280794	-0.000420047	-0.000237898	
-4.86162e-05	-0.00151081	-0.00126228	
0.0003099	-3.81584e-06	-0.00022201	
0.00789115	-0.00754319	0.00839103	
-0.00023421	-0.00180264	-0.00075637	
-7.45968e-05	-0.000477365	-0.000509753	
-8.52466e-07	-5.59361e-06	-8.81143e-06	
0.000179912	4.48606e-05	-0.000114553	
-0.0032986	0.00393224	0.00453482	
0.0191501	-0.0102495	0.0113693	
-0.00585964	-0.0050938	0.0369344	
0.00701551	-0.00222444	-0.0106434	
0.00792156	-0.00345236	-0.0128988	
0.0137205	-0.00833617	-0.0213441	
0.00266879	-0.000363185	-0.00733404	
0.00754845	-0.00373438	-0.0120622	
0.00722253	-0.00282197	-0.0148011	
0.00879741	-0.00484602	-0.0135205	
0.0128825	0.0128879	0.0472198	
0.0026978	-0.00335958	0.00627921	
0.00207855	0.00119196	0.0310266	
-0.00440986	0.00107936	-0.00293195	
0.00570074	-0.00265776	-0.0112303	
0.00224708	2.56216e-05	-0.00605608	
0.000720695	0.00103964	-0.00125747	
-0.00071788	0.000733718	-0.00110102	
0.00833885	0.0104329	0.0336823	
0.00821041	-0.00505131	0.0102744	
0.00479885	0.00434268	0.035955	
6.91781e-05	1.48153e-05	-1.25071e-05	
0.00644266	-0.00632439	0.0113544	
5.65303e-06	5.26894e-05	2.68767e-05	
-0.00134063	-0.00260342	0.0269124	
-2.50746e-05	0.000132485	-8.35713e-05	
-0.000820836	0.00156073	0.000940153	
0.000490783	0.000204635	-6.28375e-05	
-0.00254717	-5.51709e-05	0.0118956	
-0.000579047	0.000423042	-0.000835463	
-0.00115397	-0.0016674	0.0143803	
0.0017374	0.000952111	-0.00502085	
-0.000133994	-8.70452e-05	5.33541e-05	
-6.19325e-05	0.00109395	-0.000357838	
0.000542882	0.000611072	5.75772e-05	
0.000300201	-0.000173619	-5.28455e-05	
0.000526817	0.000370185	4.05597e-05	
-0.00645135	-0.0130234	-0.00189198	
0.00339097	-0.0618734	-0.177326	
-0.00218495	-0.00334046	5.01595e-05	
0.00355419	0.00551769	0.00200115	
-0.00136315	-0.00247447	-0.000424495	
0.00591373	0.0126139	0.0056924	
-0.012795	-0.0220966	-0.00453262	
0.00599645	0.00955861	0.00198835	
-0.0029627	-0.00687827	-0.00580285	
-0.000674185	-0.0033383	0.00452561	
0.00200994	0.00490349	0.0036813	
-0.00150891	-0.00366956	-0.0139543	
0.00642225	0.0100021	0.00337766	
-0.000292839	-0.000727411	0.000136384	
0.00704398	0.0131312	0.00330189	
0.00617072	0.00930756	0.0024677	
0.000819627	0.000584768	0.00169091	
-0.00582146	-0.014766	-0.0119774	
-0.000706012	-0.0044972	-0.00452542	
-0.00084522	-0.00217159	-4.06274e-05	
0.000184319	0.00011671	-8.70739e-05	
0.000335055	-0.000269127	8.3257e-05	
0.000167396	-0.000241416	0.000140855	
-9.12894e-05	-4.72798e-05	0.00070585	
-0.0001956	0.000209087	-0.00045424	
0.0128017	0.023088	0.00951712	
0.006258	0.00904759	0.00143176	
0.011328	0.0179365	0.00308378	
0.0126205	0.0257683	0.00518807	
-0.000280263	0.000183737	0.000482872	
0.000320448	-0.000300927	-0.000755764	
-0.000445635	0.000389161	0.00085104	
0.00355869	0.00575135	0.00162746	
0.000381751	-0.000159263	-0.000823327	
-7.31845e-05	-2.04672e-05	0.000633335	
3.54239e-05	-0.000232032	0.000587964	
-0.000266614	0.000133541	0.00129981	
0.0273783	-0.0134604	0.0207164	
0.00944893	-0.00788375	-0.0240718	
-0.00782183	0.0235252	0.00126759	
0.00184932	-0.00214038	0.00238098	
-0.00624133	0.0213806	-0.00199181	
-0.00886697	0.0284796	0.00168509	
-0.00675199	0.0144263	-0.00873811	
-0.00639701	0.0111955	-0.00500926	
0.00167387	-0.00702925	0.00408912	
0.00070605	-0.00429271	0.00285795	
-0.000662619	0.00276359	-0.00053316	
-0.000769346	0.00228918	0.00285407	
-4.81675e-05	0.000563037	-0.00130721	
-0.0218034	0.0350578	-0.02443	
-0.0140153	0.0255386	-0.0143675	
0.000426265	-0.00109801	-0.000869703	
0.000882319	-0.00355215	0.00183709	
0.000779255	-0.00338502	0.00211809	
0.000446202	-0.00316275	0.00116961	
-0.00186903	0.00796637	-0.00231099	
-1.43254e-05	-1.15283e-05	2.57588e-06	
9.67417e-06	3.57873e-06	2.1187e-07	
8.94299e-06	1.21554e-06	3.60681e-06	
4.60693e-05	3.7182e-06	-3.92854e-05	
-0.000164108	-6.34639e-05	0.000113731	
0.0358238	-0.0588641	0.0178708	
0.0024647	-0.00409149	0.000429098	
0.00054546	-0.00180439	-0.000291845	
-0.00615031	0.0182644	-0.00274658	
-0.000173277	-0.000257129	-0.000152294	
-4.70234e-05	-0.00134414	-0.0011841	
0.00015564	-2.46068e-06	-0.000111783	
0.00798113	-0.00701261	0.00799274	
-7.10711e-05	-0.00050891	-0.000230642	
-5.17594e-05	-0.000332365	-0.000365198	
-1.6764e-06	-1.14893e-05	-1.82427e-05	
8.68655e-05	2.07389e-05	-5.63256e-05	
-0.00344884	0.00376598	0.00451295	
0.0162097	-0.0148779	0.00975293	
-0.00591232	-0.00507412	0.0371673	
0.00718828	-0.00235683	-0.0107103	
0.00813244	-0.00339668	-0.0130918	
0.0134448	-0.00862576	-0.0220943	
0.00249065	-0.000633535	-0.00683325	
0.00736182	-0.00354583	-0.0125944	
0.00688122	-0.00317559	-0.0144316	
0.00861098	-0.0048389	-0.0140291	
0.0125853	0.0130845	0.0473089	
0.00289008	-0.0031307	0.00662483	
0.00219435	0.00136498	0.0311695	
-0.000251836	0.00423443	-0.00400082	
0.0054922	-0.00277817	-0.0116622	
0.00206713	-0.000287198	-0.00571848	
0.000673248	0.00096397	-0.00114032	
-0.000898161	0.000909494	-0.00136896	
0.00911625	0.0101917	0.0337097	
0.00816214	-0.00536021	0.0102508	
0.00491308	0.00475513	0.0361434	
1.73531e-05	1.97144e-05	4.14018e-05	
0.00585199	-0.00641309	0.0117628	
-8.26067e-06	6.18213e-05	1.23579e-05	
-0.00123322	-0.0023512	0.0271006	
-8.54045e-06	4.02207e-05	-2.56805e-05	
-0.00078623	0.00137685	0.00118775	
0.000465332	0.000196445	-6.25805e-05	
-0.00248331	-0.00012832	0.0120146	
-0.000747368	0.000544098	-0.00106938	
-0.0011636	-0.00154585	0.0144526	
0.00162738	0.000870306	-0.00499838	
-0.000172253	-8.94286e-05	6.67638e-05	
-4.77441e-05	0.000964742	-0.000306687	
0.000517758	0.000581508	5.29964e-05	
0.000304222	-0.000172193	-5.35504e-05	
0.00051655	0.000369037	3.70675e-05	
-0.00622925	-0.013031	-0.00126352	
0.00718954	-0.00889634	-0.191567	
-0.00241555	-0.00325566	0.000384994	
0.00360583	0.00548618	0.00287798	
-0.00154863	-0.0024275	0.000190041	
0.00612226	0.0125392	0.00648877	
-0.0118959	-0.0226043	-0.00272926	
0.0061549	0.00969928	0.00406025	
-0.00310321	-0.00735149	-0.00565867	
-0.000343143	-0.000174671	0.00531178	
0.00228517	0.00480051	0.00444172	
6.67792e-05	-0.00285403	-0.0140361	
0.00576198	0.0105184	0.00529088	
0.00017585	-0.000763954	0.00126306	
0.00658087	0.0134598	0.00425762	
0.00531199	0.0101171	0.00414102	
0.000918022	0.000353858	0.0019205	
-0.00510409	-0.0149481	-0.0117052	
-0.00107746	-0.00323735	-0.00549743	
-0.00101553	-0.00235825	0.000167376	
0.000323118	-8.88628e-05	-2.36076e-06	
0.00059982	-0.000353652	9.7458e-05	
0.000369675	5.39948e-05	-0.000197781	
-0.000184651	-0.000105625	0.00145015	
5.86196e-05	-6.30534e-05	0.000138162	
0.012433	0.0232886	0.0101974	
0.00543897	0.00983145	0.00306848	
0.0107231	0.0187052	0.00481534	
0.0126062	0.0261365	0.00654786	
-0.000729331	0.000471154	0.00124718	