<VTKFile type="UnstructuredGrid" version="0.1" byte_order="LittleEndian">
	<UnstructuredGrid>
		<Piece NumberOfPoints="4662" NumberOfCells="4662">
			<CellData Scalars="scalars">
				<DataArray type="Float64" Name="Strength" NumberOfComponents="3" Format="ascii">
-0.00703347	-0.0157394	0.0127488	
-0.00333679	-0.0138752	-0.0270795	
-0.0223064	0.0679548	0.010622	
0.00457879	-0.00675276	-0.00705033	
0.00596662	0.000564768	-0.0109519	
0.0116301	0.0558342	-0.0296823	
-0.000980659	0.0870949	-0.0266301	
0.00395682	0.0186426	-0.0150276	
0.00490889	0.0846302	-0.0309701	
0.00541846	0.0330252	-0.0201696	
0.00542217	0.00459344	0.0447107	
0.00327172	-0.00440713	0.00153281	
-0.0110947	0.0384598	0.0171668	
0.000412908	0.00114767	-0.00227293	
0.00271721	0.0740997	-0.0273491	
0.000929463	0.0866263	-0.0222207	
-0.00043996	0.0937704	-0.0174471	
-0.00426929	0.0663529	-0.0199206	
0.000936673	0.0115876	0.0292349	
0.00780087	-0.0091543	0.00790929	
-0.00742118	0.0315949	0.0240937	
0.000521736	0.00231764	-0.000283089	
0.00418741	-0.00540854	0.00924265	
-0.00115259	0.00143395	0.0017476	
-0.0161489	0.0468297	0.0107711	
-0.000721191	-0.0126317	0.00280088	
-0.00420089	0.0879362	-0.0186439	
0.0067713	0.0425377	0.00290513	
-0.0109448	0.0863413	-0.0047993	
-0.00283646	0.048124	-0.0142697	
-0.00477253	0.0539474	0.00564586	
-0.000586631	0.0895095	-0.016409	
-0.00059914	-0.000183347	0.000192791	
-0.00356929	0.0865412	-0.0149044	
0.00574118	0.0794743	0.00371153	
0.0105821	0.0192225	0.000635695	
0.0073506	0.0603615	0.00422075	
-0.0107311	-0.00518259	-0.0254517	
0.0557639	-0.109743	0.0587602	
-0.0151167	-0.00912245	0.0487014	
0.00143557	0.0114004	-0.0136673	
-0.0045714	-0.006945	0.0546446	
0.0180969	-0.00774908	0.0650654	
-0.0131395	-0.0363827	0.0463259	
0.0133192	-0.01172	0.0528955	
0.00499681	-0.0221183	0.0346868	
0.0123693	0.0022333	0.0158091	
0.00157018	-0.0138472	0.0560618	
-0.00480519	0.00719795	-0.0224242	
0.0085724	-0.00710148	0.0479125	
0.00166525	-0.0116926	0.025627	
0.00456302	-0.0019852	0.0547689	
0.00599838	-0.00329301	0.0399003	
0.00566532	-0.0215888	0.0457872	
-0.00107543	-0.0161176	0.0299744	
0.00952121	-0.0137656	0.0107144	
0.00339078	-0.013366	0.0561427	
0.026551	0.00294928	-0.00631524	
0.0060834	-0.0234923	0.00868383	
0.0123012	-0.000426414	0.0154518	
-0.00132762	-0.0134452	0.057845	
-0.00329226	0.00822434	-0.0204519	
0.0175435	0.0111993	0.0391347	
0.00588851	-0.000513032	0.0313131	
0.0099076	0.0111267	0.0171918	
0.0303571	-0.000668693	0.0716938	
-0.00211284	-0.00677573	0.0402087	
0.00014703	-0.00457172	0.0184552	
-0.000319105	-0.00649361	0.0442166	
0.00264114	0.00894619	-0.0103491	
7.78188e-05	0.00134536	-0.00467295	
0.00161577	-0.00652563	0.0241649	
0.00366647	-0.0192844	0.0528686	
-0.000155203	-0.0111455	0.0510275	
0.0200656	-0.0549549	-0.0123437	
-0.000817042	0.018985	-0.0305325	
-0.00977406	0.000258041	-0.0312311	
-0.00265101	-0.0317722	-0.0300508	
-0.00759408	0.0144259	-0.0115368	
-0.0127093	0.0120998	-0.0230494	
-0.00172178	-0.0167784	-0.0506581	
0.00111686	-0.0250969	-0.05242	
0.00185228	-0.00935149	0.00286729	
0.000484247	-0.00717987	0.00147972	
-0.000372327	0.000112009	-0.00355021	
0.00465374	0.00183537	0.00445336	
0.0037546	-0.0383202	-0.0573102	
-0.0180624	-0.00454722	-0.0475124	
-0.0237943	-0.0171731	-0.0431847	
0.00192545	-0.0452268	-0.0554549	
0.000836723	-0.00483144	0.00118694	
0.000462571	-0.00600468	0.000204076	
0.000866381	-0.00546238	-0.000539274	
-0.00183827	0.00471496	-0.00510231	
0.00267327	-0.000363429	0.00260633	
-0.00122054	-0.00199514	-0.00199625	
-0.00033835	0.0010052	0.00260096	
0.00215207	-0.00517862	-0.00931759	
-0.00856624	-0.0375942	-0.0317879	
0.0439763	-0.0751136	-0.00872818	
0.00491827	-0.04773	-0.0524658	
-0.00179086	-0.0437692	-0.0537543	
-0.00552974	-0.0052822	-0.0340437	
-0.0100428	-0.0407326	-0.0418358	
0.00272692	-0.0444378	-0.0518428	
0.00752978	-0.0189385	-0.0368642	
0.0116775	-0.0450435	-0.0366162	
0.00304976	-0.0521126	-0.0582512	
-0.000331923	-0.0119233	-0.0131618	
8.72519e-07	6.96345e-06	8.81223e-06	
0.00478108	-0.00919349	-0.0197346	
-0.00276952	0.00267528	0.00629788	
-0.00771027	-0.0111792	-0.0264165	
-0.0119642	0.00598588	0.0309643	
0.00494557	0.000342961	-0.0102813	
0.00658846	0.0018509	-0.0125804	
0.015815	0.00870829	-0.0182303	
0.00424878	0.0113155	-0.0074058	
0.00653089	0.00434848	-0.0118083	
0.0103614	0.0118978	-0.0123676	
0.00855461	0.00604452	-0.0132263	
0.0111384	0.000774278	0.0449542	
0.00199113	-0.00255606	0.00391273	
0.00146377	0.00240799	0.0276705	
0.000434967	0.000275349	0.00215354	
0.00739096	0.010881	-0.0103282	
0.00390459	0.0111783	-0.00651952	
0.00157342	0.0106569	-0.00337711	
-0.00106932	0.00972862	-0.00360163	
0.00666817	0.00257527	0.0321844	
0.00515184	-0.00386564	0.0113606	
0.00337755	0.00301046	0.0321683	
-8.6152e-05	0.000162543	-6.07814e-05	
0.00448498	-0.00213969	0.0109913	
-0.000187668	-2.20677e-06	0.000364866	
-0.003778	0.00464441	0.0234159	
7.46193e-06	0.00019017	-4.38454e-05	
-0.00120474	0.010701	-0.00195004	
0.00153203	0.00532728	-0.000362211	
-0.00548635	0.00796527	0.00834473	
-0.000815697	0.00764924	-0.00272475	
-0.00240354	0.00516424	0.0115664	
0.00309603	0.00985896	-0.00530227	
0.00124888	0.000314197	-0.000436876	
-0.000164042	0.0098962	-0.00203824	
0.00187945	0.0084425	8.05665e-05	
0.00131191	0.00234866	-0.000555326	
0.00178788	0.00686651	-0.000100438	
-0.00488084	-0.0117222	-0.00463976	
-0.0286725	-0.0991596	-0.119358	
-0.00635161	-0.00848863	0.00298456	
0.00246328	0.0062085	0.00161802	
-0.00203105	-0.00384919	0.00492898	
0.0077151	0.0128138	0.0145348	
-0.0183143	-0.0206557	-0.00428077	
0.00774104	0.00536585	0.00691074	
-0.000500171	-0.00809528	0.000360166	
-0.000293633	0.00340944	0.00604346	
0.000968966	0.00119691	0.00761296	
-0.00485228	-0.00595859	-0.010612	
0.00772631	0.00601415	0.00729686	
-0.000897383	-0.0034767	0.00393162	
0.00617525	0.00723841	0.00992517	
0.0067095	0.00604967	0.00638581	
0.000593765	-0.00236651	0.0050636	
-0.00443264	-0.0154835	-0.00704493	
-0.00141912	-0.00562854	-0.00091556	
0.000179796	-0.000916445	0.00683541	
-0.00172871	0.00147585	-0.000838352	
0.00105949	-0.00158425	0.00228819	
-4.43055e-05	0.00177811	-0.00153269	
-8.05466e-05	-0.0014821	0.00606439	
-0.000226958	0.000543848	-0.00132909	
0.0151416	0.0183449	0.016629	
0.0063534	0.00652624	0.00539202	
0.0106881	0.0147775	0.00786497	
0.0178231	0.022275	0.017284	
-0.000760681	-0.000608763	0.00580137	
-2.25569e-05	-0.000159281	0.000775813	
-0.000585207	-0.000534312	0.006821	
0.00275173	0.00572528	0.00146897	
4.53584e-05	0.000240966	-0.000911954	
0.000225383	-0.00126328	0.00593309	
0.000317122	-0.00182622	0.00574303	
-0.000144616	-0.00132709	0.00729954	
0.0252223	-0.0181756	0.01168	
-0.00264903	0.0121297	-0.0222731	
-0.00884526	0.0189903	-0.00945752	
0.000953432	-0.00542528	-0.00355444	
-0.00523329	0.0191911	-0.00777346	
-0.0087892	0.0248006	-0.00993985	
-0.00939136	0.00648356	-0.0134344	
-0.00739899	0.00330359	-0.0105045	
0.00130343	-0.00633038	0.0050882	
0.00037916	-0.00353179	0.00347293	
-0.000576039	0.00266223	-0.000325792	
0.00133318	-0.000933423	0.003104	
4.25322e-05	-0.00401496	-0.00712406	
-0.0252585	0.0199251	-0.0263694	
-0.0163148	0.0199803	-0.0147618	
0.00180662	-0.00678318	-0.00647414	
0.000962142	-0.00287859	0.00308007	
0.000625342	-0.00255679	0.0028929	
0.000583226	-0.00222769	0.00235079	
-0.00140518	0.0078001	-0.00288535	
0.00033816	0.00105369	0.000515904	
0.000497462	0.000640638	0.000680558	
-8.90208e-06	-0.000455663	0.000668169	
-0.000108478	0.000213691	0.000397591	
-0.00118578	-0.00419294	-0.00307268	
0.0401476	-0.0544518	0.0221077	
0.0037599	-0.00841452	-0.00569617	
-0.00156007	-0.00518775	-0.0074621	
-0.00790396	0.0137741	-0.00876913	
-0.000593653	-0.00200033	-0.00199723	
0.00040336	-0.0064482	-0.00710411	
0.000475024	-0.000750922	-0.00126568	
0.0113843	-0.0114625	-0.00130842	
0.000294151	-0.004876	-0.00511593	
-0.000304061	-0.0030313	-0.00286386	
8.4789e-05	0.000778009	0.000985832	
4.75429e-05	-7.18055e-05	-0.000150959	
-0.00287168	0.00280344	0.00613712	
-0.0043019	-0.0112122	-0.0253234	
-0.00296478	0.00197256	0.0341045	
0.00539443	-0.000371761	-0.0101902	
0.00711601	-8.51963e-05	-0.0122465	
0.0133187	-0.000198144	-0.0197159	
0.0024166	0.00198997	-0.00706185	
0.00703453	0.000616583	-0.0112077	
0.00675285	0.00102087	-0.0139413	
0.00847283	0.000684524	-0.0126974	
0.0107371	-0.000570926	0.0458701	
0.00224237	-0.00300646	0.00445354	
0.00192276	0.0011671	0.0284953	
0.000531198	0.00110002	0.00267342	
0.0054192	0.0012889	-0.0105237	
0.00177165	0.00203976	-0.00624751	
0.000531343	0.00265556	-0.00306088	
-0.000351277	0.00255253	-0.00113895	
0.00581394	0.00202598	0.0330511	
0.00590721	-0.00485567	0.0108334	
0.00311321	0.000934414	0.0332894	
-2.12653e-05	0.000153607	-0.000101488	
0.00487499	-0.0029702	0.0113985	
-8.75814e-05	2.64047e-05	0.000132044	
-0.00167693	0.000587554	0.0244424	
1.46e-06	6.99527e-05	-1.61764e-05	
-0.000437925	0.00298304	0.000218219	
0.000446703	0.00164474	-0.000183118	
-0.000998076	0.00277375	0.0103824	
-0.0002689	0.00197187	-0.000832864	
-0.00106762	0.00129949	0.0123844	
0.000921429	0.00230468	-0.00570479	
0.000511335	0.000159853	-0.000186158	
-3.25505e-05	0.00268721	-0.000762101	
0.00050175	0.00236088	-0.000330357	
0.000539289	0.00106329	-0.000264629	
0.000526928	0.00202345	-0.000225226	
-0.00496231	-0.0120936	-0.00375272	
-0.0400982	-0.0951585	-0.128912	
-0.00325722	-0.00777635	-0.00106845	
0.00274895	0.00567064	0.002653	
-0.0014329	-0.00293181	0.000407534	
0.00628089	0.0136138	0.00949831	
-0.0128148	-0.0225312	-0.00808682	
0.00550412	0.00809227	0.00419797	
-0.00181453	-0.00699553	-0.00344167	
0.000553351	0.00243965	0.0056393	
0.00117765	0.00291748	0.00375145	
-0.00499307	-0.00470705	-0.0125553	
0.00608012	0.00848881	0.00469904	
-0.000720661	-0.00222203	0.00076222	
0.00461852	0.0100311	0.00610797	
0.00573867	0.00781098	0.00415801	
0.000203431	-0.000600046	0.00162818	
-0.0042158	-0.0153045	-0.00970582	
-0.00184759	-0.00482406	-0.00292104	
-7.34218e-05	-0.000528	0.00198173	
-0.000237419	0.000458138	-0.000405275	
0.000315171	-0.000455274	0.00067577	
0.000646206	-9.34359e-06	-0.000321044	
-2.76276e-05	-0.000390755	0.00182466	
-7.10567e-05	0.000171415	-0.000398685	
0.0107772	0.0217666	0.0124119	
0.00570516	0.00772608	0.00376581	
0.0105164	0.0153992	0.00738837	
0.0105617	0.0262505	0.012708	
-0.00023183	-0.000196561	0.00189859	
7.8709e-06	2.90002e-05	-0.000175082	
-0.000184684	-0.000159423	0.00227126	
0.00290985	0.0054172	0.00239779	
3.77399e-05	0.000132187	-0.000531859	
8.90569e-05	-0.000382431	0.00201542	
6.3507e-05	-0.000513482	0.00161447	
-4.85199e-05	-0.000402624	0.00239136	
0.0251864	-0.0157621	0.0153732	
-0.000848906	0.0127577	-0.0248841	
-0.00670524	0.0202808	-0.0090172	
0.00152323	-0.00269852	-0.000403927	
-0.00568867	0.0186428	-0.00833801	
-0.00806291	0.0250936	-0.0100824	
-0.00731657	0.0108941	-0.0107927	
-0.00602443	0.00789384	-0.00781546	
0.00151743	-0.00746249	0.00397979	
0.000660822	-0.00449706	0.00287384	
-0.000561928	0.00211602	-0.0013421	
-4.68354e-05	-0.00266447	0.00274717	
-0.000272478	-0.000750683	-0.00232446	
-0.0192017	0.0288082	-0.0255819	
-0.00993462	0.0233406	-0.0163672	
0.00109697	-0.00287331	-0.00112455	
0.000825893	-0.00390732	0.00180726	
0.000549267	-0.0037303	0.00190442	
0.000395779	-0.00321769	0.00141204	
-0.00170822	0.00682036	-0.00365812	
-3.03168e-05	-0.00034331	-8.37555e-05	
-0.00012117	-0.000170056	-0.000180497	
-4.29206e-05	0.000204247	-6.39654e-06	
8.32414e-05	-0.00016289	-0.000316796	
-0.000428718	-0.0013449	-0.000846579	
0.0267309	-0.0560537	0.0334234	
0.00284411	-0.0046681	-0.000141862	
-0.000965414	-0.00130749	-0.00267348	
-0.00563463	0.0153005	-0.00836704	
-0.000200902	-0.000616501	-0.0005927	
0.000129897	-0.00218033	-0.00214526	
0.000194577	-0.000346653	-0.000524459	
0.010132	-0.00850168	0.00371168	
0.000105039	-0.0016182	-0.00151631	
-6.40583e-05	-0.000800926	-0.000760767	
-2.69702e-05	-0.000233956	-0.000304046	
0.000126868	-0.000185152	-0.000401883	
-0.00293464	0.00295909	0.00584674	
-0.00327242	-0.0110759	-0.0239518	
-0.00554645	0.00158892	0.0345539	
0.0056306	-0.000265692	-0.0102625	
0.00717102	-0.000249795	-0.012591	
0.0110704	-0.00158435	-0.0220474	
0.00183658	0.00231013	-0.00770584	
0.00678109	8.98592e-05	-0.011834	
0.005063	0.000821961	-0.0151615	
0.00780429	-0.000119156	-0.0136529	
0.0115405	-0.00108745	0.0466048	
0.0024057	-0.00310427	0.00511282	
0.00205215	0.00106668	0.0289496	
-0.000108308	0.00247347	0.00296883	
0.00423248	0.00103386	-0.0115898	
0.00160271	0.00265323	-0.00651867	
0.000666473	0.00335031	-0.00268371	
-0.000375159	0.00273013	-0.00124592	
0.00604561	0.0018188	0.0336333	
0.00623813	-0.00502888	0.0108245	
0.00326373	0.000844557	0.0337912	
9.02723e-05	9.55857e-05	-9.44748e-05	
0.00516547	-0.0031125	0.0118039	
-2.76959e-05	9.12156e-05	0.000139703	
-0.0014303	0.000399726	0.0251125	
3.78221e-06	0.000260201	-5.9499e-05	
-0.000494768	0.0035809	0.000160301	
0.000415277	0.00162214	-0.000181506	
-0.00236658	0.00307674	0.0105152	
-0.000271595	0.0019397	-0.000864451	
-0.00134196	0.00122162	0.0128856	
0.00138031	0.00328815	-0.00564673	
0.000511477	0.000161151	-0.0001888	
-7.67195e-05	0.00338584	-0.000759606	
0.000552219	0.00275294	-0.000273954	
0.000566726	0.00110847	-0.000279036	
0.000548906	0.00223741	-0.000164428	
-0.0054363	-0.0121074	-0.00366651	
-0.0286276	-0.0994746	-0.136692	
-0.00316788	-0.00620347	-0.000927103	
0.00296784	0.00539726	0.00269674	
-0.00141002	-0.00282444	0.000436316	
0.00592497	0.0128509	0.00928628	
-0.0112045	-0.0225073	-0.00839398	
0.00499208	0.0086102	0.00476082	
-0.00205129	-0.00718667	-0.00365308	
0.000333319	0.00278086	0.0054677	
0.00142714	0.00337011	0.00421082	
-0.00356692	-0.00609121	-0.0122822	
0.00542741	0.00916849	0.00515036	
-0.000532409	-0.00187799	0.000631048	
0.00551211	0.0101019	0.00676989	
0.00519401	0.00849202	0.00441571	
0.000352671	-0.000252006	0.00195231	
-0.00463331	-0.0155404	-0.00978294	
-0.00200355	-0.00501392	-0.00265887	
-0.000301627	-0.0011994	0.0016049	
-0.000130796	0.000509174	-0.000449267	
0.000331675	-0.000488851	0.000734442	
0.000660344	7.499e-05	-0.000322988	
-1.6183e-05	-0.000414835	0.00181715	
-5.33074e-05	0.000132398	-0.000292075	
0.0115256	0.0208293	0.013408	
0.00533768	0.00826134	0.00388351	
0.0103932	0.015888	0.00736213	
0.0124054	0.0242229	0.0135118	
-0.000171659	-0.0002589	0.00163743	
4.68736e-06	1.94095e-05	-0.000122695	
-0.000157593	-0.000258616	0.00200486	
0.00308603	0.00534648	0.00245918	
3.98937e-05	0.000122642	-0.000517389	
7.2222e-05	-0.000384209	0.00158923	
4.12718e-05	-0.000558019	0.00168911	
-2.26834e-05	-0.000446325	0.00226666	
0.024114	-0.0165466	0.0179695	
-0.00093557	0.0126855	-0.0236833	
-0.00730354	0.0207689	-0.00869131	
0.00153045	-0.00280487	0.000214051	
-0.00565769	0.0190929	-0.00827411	
-0.00835314	0.0255696	-0.00992625	
-0.0062068	0.0118974	-0.010732	
-0.0048961	0.00874055	-0.0081337	
0.00141094	-0.00703408	0.00422814	
0.000589276	-0.00415179	0.00302507	
-0.000591751	0.00236654	-0.0011053	
-9.70343e-05	-0.0012468	0.00341194	
-0.000186206	-0.000777052	-0.00236306	
-0.0180647	0.0315365	-0.0252166	
-0.0120657	0.0237062	-0.0153657	
0.000682134	-0.00273846	-0.00118818	
0.000830053	-0.0035184	0.0021131	
0.000577836	-0.00336598	0.00214832	
0.000415991	-0.00289574	0.00167948	
-0.00164955	0.00718721	-0.00352684	
7.57725e-05	0.000122315	2.76403e-05	
4.84033e-05	6.79253e-05	7.3401e-05	
2.04413e-06	-7.75197e-05	4.13555e-05	
3.13396e-05	-6.39825e-05	-0.000122644	
-0.00044854	-0.00130303	-0.000733807	
0.0289568	-0.0577264	0.0282694	
0.00226021	-0.00493985	0.000144022	
-0.000328589	-0.00167439	-0.00221163	
-0.00638049	0.0155953	-0.00797528	
-0.000226135	-0.000707349	-0.000733256	
0.000113385	-0.00218569	-0.00205876	
0.000202755	-0.000348378	-0.000594627	
0.00870442	-0.0089351	0.00523372	
7.33978e-05	-0.00160572	-0.00139438	
-4.71547e-05	-0.000762431	-0.000823692	
5.221e-06	4.6419e-05	5.98768e-05	
8.62789e-05	-0.000126587	-0.00028568	
-0.00311833	0.00271196	0.00576406	
-0.00164581	-0.0113075	-0.02254	
-0.00574805	0.00151452	0.0353011	
0.00594505	-0.000162317	-0.0105807	
0.00730272	-6.17918e-05	-0.0130303	
0.0108418	-0.000979853	-0.0230564	
0.00249087	0.00265629	-0.00731036	
0.00668243	0.000220831	-0.0125084	
0.00620386	0.00201358	-0.0147315	
0.00746946	1.35998e-05	-0.0145115	
0.0119596	-0.00115957	0.0474248	
0.002601	-0.00327008	0.00564936	
0.00216955	0.00128575	0.0293946	
0.000319055	0.00312231	0.0034969	
0.00461298	0.00168157	-0.0114587	
0.00200301	0.00274905	-0.00618361	
0.000799874	0.00328587	-0.00296435	
-0.000376284	0.00294898	-0.00119347	
0.00621883	0.00185818	0.034281	
0.00632835	-0.00502233	0.011018	
0.00333058	0.00115221	0.034689	
0.000106661	5.99287e-05	-6.79119e-05	
0.00538029	-0.00325293	0.0122358	
3.6505e-05	8.49194e-05	0.000114803	
-0.00139118	0.000689422	0.0258114	
7.87236e-07	0.000128668	-2.92356e-05	
-0.000580132	0.00320727	0.000387765	
0.000438835	0.00175001	-0.000203093	
-0.00251211	0.00308894	0.0107597	
-0.000316671	0.00235474	-0.00100792	
-0.00129706	0.00144178	0.0134347	
0.00146419	0.00313059	-0.0056508	
0.000461566	0.000149237	-0.000172086	
-6.85982e-05	0.00309797	-0.000637174	
0.000577704	0.00296758	-0.00026298	
0.000566196	0.00106106	-0.000280812	
0.000586408	0.00243034	-0.000173194	
-0.00590226	-0.012081	-0.00360381	
-0.0197189	-0.102153	-0.143994	
-0.00269299	-0.0052768	-0.000777388	
0.00315936	0.00522403	0.00281747	
-0.00133086	-0.00271439	0.000258128	
0.00572847	0.0125786	0.00892972	
-0.0118925	-0.0211976	-0.00927646	
0.00543583	0.0084086	0.00491268	
-0.0021308	-0.00745911	-0.00397563	
0.000514472	0.00356303	0.00438898	
0.00150021	0.0036716	0.0042083	
-0.00153392	-0.00760705	-0.0113624	
0.00576818	0.00904439	0.00535638	
-0.000463986	-0.00148532	0.000437167	
0.00590979	0.0106928	0.00696338	
0.00537978	0.00848747	0.004635	
0.000343239	-0.000104006	0.00178005	
-0.00448582	-0.0154182	-0.00992612	
-0.00221904	-0.00486334	-0.00283316	
-0.000338016	-0.0012842	0.00119032	
0.000414619	0.000165679	-5.42512e-07	
0.000284372	-0.000446373	0.00068802	
0.000572925	-0.000175216	9.44836e-06	
-9.37059e-06	-0.000380183	0.00164267	
-4.52282e-05	0.000115395	-0.000246804	
0.0116349	0.0209116	0.0134029	
0.00538493	0.00834656	0.00409274	
0.0104356	0.0160467	0.00763144	
0.0122085	0.0237693	0.0133185	
-0.000143106	-0.000224716	0.00136582	
9.21461e-08	1.09203e-06	-8.45855e-06	
-0.000132198	-0.000241352	0.00173716	
0.00320625	0.0052505	0.00269633	
2.06928e-05	6.63865e-05	-0.000280824	
4.88687e-05	-0.000342548	0.00128014	
3.63077e-05	-0.000521475	0.00159075	
-8.29482e-06	-0.000377958	0.00189007	
0.0232113	-0.0168065	0.0199755	
-0.000814964	0.0128807	-0.0236596	
-0.00736286	0.0210527	-0.00871505	
0.00162792	-0.00287293	0.000757192	
-0.00570632	0.0191797	-0.00841522	
-0.00823072	0.0257388	-0.0102759	
-0.00691042	0.0123646	-0.0100812	
-0.00555889	0.00905465	-0.00756155	
0.00142077	-0.00708685	0.00408475	
0.00057866	-0.0042386	0.00293181	
-0.000602074	0.00238117	-0.0011947	
-0.00026074	-0.00115604	0.00345103	
-0.00021886	-0.000527386	-0.00214342	
-0.0192112	0.0332606	-0.0240405	
-0.0122628	0.0243526	-0.0150744	
0.000613061	-0.0024259	-0.00114232	
0.00080787	-0.00355764	0.00197107	
0.000565486	-0.00345822	0.00203667	
0.00037477	-0.00298056	0.0015695	
-0.00167684	0.00716924	-0.00360867	
-8.44107e-06	-6.00757e-06	-6.71016e-07	
-4.89441e-06	-7.01849e-06	-7.68829e-06	
-8.15757e-07	6.76973e-06	-8.2223e-07	
3.24343e-05	-6.82497e-05	-0.000129555	
-0.000359339	-0.000969335	-0.000523128	
0.0287187	-0.0575212	0.0276255	
0.00214585	-0.00469216	0.000416448	
-6.51607e-06	-0.00169525	-0.00165059	
-0.00646682	0.0158258	-0.00789897	
-0.000152627	-0.000481207	-0.000510485	
8.70126e-05	-0.00177629	-0.00173192	
0.000132825	-0.000230639	-0.00039593	
0.00782976	-0.00903991	0.00598775	
5.87758e-05	-0.0014229	-0.00124053	
-5.81017e-05	-0.000680842	-0.000790938	
-3.67685e-06	-3.27239e-05	-4.22751e-05	
6.61163e-05	-0.000102	-0.000223269	
-0.00291554	0.00303247	0.00528412	
-0.00080448	-0.0109204	-0.0220614	
-0.00521157	0.00031699	0.0361634	
0.00608688	0.000280007	-0.0108526	
0.00729304	9.50022e-05	-0.0133839	
0.0119148	-0.000501641	-0.0228242	
0.0026914	0.00218438	-0.0075389	
0.00668672	0.000345801	-0.0126262	
0.00633543	0.00154122	-0.0147652	
0.0076032	-0.00011985	-0.0144714	
0.0128426	-0.00181402	0.0476258	
0.00282076	-0.00343572	0.00582401	
0.00265061	0.000547006	0.0300307	
0.000734355	0.00355316	0.00346548	
0.00505951	0.00150048	-0.0113588	
0.00215329	0.00241361	-0.00648664	
0.000522171	0.00257898	-0.0017519	
-0.000270293	0.00208143	-0.000730766	
0.00664471	0.00132324	0.034642	
0.00652021	-0.00509377	0.0110164	
0.00375537	0.000421143	0.0353001	
6.40013e-05	-8.03601e-06	-1.51171e-05	
0.00563475	-0.00350919	0.01241	
2.5466e-05	4.80742e-05	3.69813e-05	
-0.000957726	-0.000149322	0.0263531	
2.77462e-06	0.000597537	-0.000136066	
-0.000599423	0.00313673	0.000549463	
0.000223887	0.000909937	-0.00011463	
-0.00240895	0.00185375	0.0113674	
-0.000213222	0.00160007	-0.000630238	
-0.00114068	0.000466721	0.0139787	
0.00136077	0.00276808	-0.00540436	
0.00020644	7.34534e-05	-8.14777e-05	
-5.81362e-05	0.00293245	-0.000592167	
0.000334577	0.00172121	-0.000158684	
0.000241593	0.000463316	-0.000127704	
0.000317832	0.00132699	-0.000106142	
-0.00605998	-0.0120698	-0.00321899	
-0.0181089	-0.101678	-0.149252	
-0.0025359	-0.00505104	-0.000973568	
0.00334611	0.00511486	0.00321595	
-0.00130845	-0.00276277	-0.000125155	
0.00561798	0.0125161	0.00869072	
-0.0117057	-0.0212696	-0.00889432	
0.00554861	0.00834245	0.00548894	
-0.00215245	-0.00760432	-0.00449045	
0.000546812	0.00331933	0.00408008	
0.00144054	0.0036773	0.00385535	
-0.00212643	-0.00721179	-0.0116627	
0.00589438	0.00882851	0.00614102	
-0.000337732	-0.00135338	0.000648778	
0.00595084	0.0109358	0.00717437	
0.00549863	0.00818654	0.00558561	
0.000196285	-0.000197175	0.00117746	
-0.00424283	-0.0153214	-0.0102552	
-0.00235742	-0.0046955	-0.00314035	
-0.000273689	-0.00104604	0.00079854	
0.000301395	3.47434e-05	-2.12413e-06	
0.000187315	-0.000299318	0.000492164	
0.000316958	-0.000127215	0.000165091	
-1.76994e-07	-0.000330356	0.00139621	
3.02175e-06	-7.62594e-06	1.64438e-05	
0.0116491	0.0211248	0.0134706	
0.00555933	0.00811108	0.00524682	
0.0106349	0.0160381	0.00867302	
0.0120492	0.0238112	0.0134661	
-0.000144124	-0.000232608	0.00139739	
-2.67396e-05	-0.000152339	0.000801713	
-0.000110161	-0.000212733	0.00150126	
0.00330279	0.00517107	0.00325336	
-2.78603e-05	-9.76004e-05	0.000398373	
4.75485e-05	-0.000346232	0.00129676	
2.99119e-05	-0.000413221	0.00126154	
-5.07455e-06	-0.000307439	0.00152269	
0.022884	-0.01793	0.0208786	
-0.00111933	0.0126865	-0.0234028	
-0.00740945	0.0212469	-0.00884091	
0.00160605	-0.00303789	0.000793689	
-0.00573235	0.0193121	-0.00853014	
-0.00830771	0.0258754	-0.0104598	
-0.00717102	0.0128277	-0.00965994	
-0.00582009	0.00950406	-0.00708125	
0.00140004	-0.006982	0.00406706	
0.000498298	-0.0042136	0.00288463	
-0.000615922	0.00244667	-0.00119881	
-4.40375e-05	-0.000833126	0.00350658	
-0.00035723	-3.07158e-05	-0.00169729	
-0.0194566	0.0344292	-0.023775	
-0.0122357	0.0247508	-0.0150679	
0.000621427	-0.00201461	-0.000875462	
0.000796903	-0.00346928	0.0019657	
0.000546293	-0.00340245	0.00204609	
0.000376965	-0.00292557	0.00159021	
-0.0016809	0.0072522	-0.00363362	
3.90561e-05	7.02238e-06	-3.96393e-06	
1.1805e-05	1.72897e-05	1.91427e-05	
-2.1338e-06	-2.18656e-05	9.77901e-06	
2.56597e-05	-5.62817e-05	-0.000105128	
-0.000466613	-0.00120829	-0.000670591	
0.0285219	-0.0573985	0.0275213	
0.00223873	-0.00422227	0.000478512	
3.39954e-05	-0.00142439	-0.00137657	
-0.0064631	0.0159156	-0.00793126	
-0.000115307	-0.000363208	-0.000390622	
6.38102e-05	-0.00132173	-0.00138582	
0.000102991	-0.000181185	-0.000308708	
0.00745086	-0.00932886	0.00602868	
5.35347e-05	-0.00140934	-0.00129308	
-3.8071e-05	-0.000441961	-0.000522725	
-6.98561e-07	-6.29237e-06	-8.0911e-06	
5.41592e-05	-8.70661e-05	-0.000186818	
-0.00300717	0.00268703	0.00527569	
-0.000435304	-0.0109956	-0.021375	
-0.0047026	-0.00044666	0.036609	
0.00632406	-0.000210996	-0.0108525	
0.00744307	-0.000249616	-0.0131161	
0.012051	-0.000946002	-0.0230268	
0.00258102	0.00136367	-0.00704347	
0.00703949	-0.000346394	-0.0124429	
0.0064326	0.000889697	-0.01495	
0.00797269	-0.00034372	-0.014309	
0.0131763	-0.00204549	0.0477935	
0.00296466	-0.00345381	0.00592609	
0.0028463	0.000203583	0.0303423	
0.00132335	0.00377756	0.00335372	
0.00521231	0.000759338	-0.0113897	
0.00198513	0.00123562	-0.00585566	
0.000559647	0.00100029	-0.00131411	
-0.000174835	0.00137807	-0.000467523	
0.00684975	0.00117909	0.034825	
0.00655896	-0.00500837	0.0110882	
0.00390914	0.000154731	0.0355724	
4.71852e-05	-3.76116e-05	6.28313e-06	
0.0057293	-0.00359194	0.0125203	
2.6609e-05	4.2462e-05	2.96345e-05	
-0.000716249	-0.000542355	0.0264819	
9.05967e-07	0.000150463	-3.3509e-05	
-0.000576237	0.00139559	0.00123441	
0.000120339	0.000505681	-6.65461e-05	
-0.00222285	0.000714903	0.0116641	
-0.000130533	0.00100069	-0.000359819	
-0.00100711	-5.35749e-05	0.0141755	
0.00133939	0.00100395	-0.0050021	
0.000144122	5.75511e-05	-5.69555e-05	
-1.90789e-05	0.00110343	-0.000220252	
0.000150955	0.000782792	-7.65705e-05	
0.000150426	0.000297901	-8.20258e-05	
0.000143929	0.000611948	-5.35243e-05	
-0.00652744	-0.0121031	-0.00367209	
-0.0195423	-0.101898	-0.152472	
-0.00171165	-0.00342952	-0.000722376	
0.00331396	0.0052371	0.0024553	
-0.00113464	-0.0024818	-0.000613139	
0.00507086	0.0116195	0.00749498	
-0.0115174	-0.0201523	-0.0100291	
0.00540558	0.00887994	0.00406047	
-0.00218549	-0.00760306	-0.00487416	
0.000535134	0.0035792	0.00422456	
0.00168762	0.00472278	0.00385188	
-0.00221027	-0.00730794	-0.0120142	
0.00602207	0.00930934	0.0046595	
-0.000296843	-0.000717338	-2.58531e-05	
0.00637021	0.0117763	0.00657768	
0.0057387	0.00862356	0.00404617	
0.000486182	0.000771313	0.00170283	
-0.00413505	-0.0157993	-0.0106741	
-0.0022876	-0.00471064	-0.0035024	
-0.000637875	-0.00218936	-0.000105494	
0.000229847	3.80882e-06	-5.5784e-06	
0.000131063	-0.000211648	0.000350701	
0.00026894	-0.00010055	0.000139033	
2.43949e-06	-0.000162189	0.000680165	
-8.61896e-05	0.00021838	-0.000466504	
0.011641	0.0212202	0.0128681	
0.00569347	0.00844566	0.00353272	
0.0107715	0.0162268	0.00736466	
0.0114833	0.0230938	0.0121052	
-5.62923e-05	-9.66792e-05	0.000563945	
2.37078e-05	0.000171521	-0.000831948	
-7.05409e-05	-0.000147169	0.00100085	
0.00338689	0.00540219	0.00223853	
5.5959e-05	0.000215949	-0.000867403	
2.24897e-05	-0.000161594	0.00060174	
1.03743e-05	-0.000191714	0.000590966	
1.24519e-06	-0.000264706	0.00127885	
0.0230109	-0.0174405	0.021137	
-0.000949691	0.0125816	-0.0233222	
-0.00742814	0.0213466	-0.00884617	
0.00199214	-0.00260373	0.00146298	
-0.00572138	0.0193158	-0.00857635	
-0.00832105	0.0259568	-0.0105539	
-0.0072332	0.0131022	-0.00947852	
-0.00600286	0.00992879	-0.00686777	
0.0013934	-0.00694833	0.00401205	
0.000473978	-0.00423121	0.00282399	
-0.000623517	0.00248078	-0.00121732	
0.000115661	-0.000788931	0.00350551	
-0.000288061	-1.26854e-05	-0.00135772	
-0.019578	0.0352121	-0.0237613	
-0.0122461	0.0251403	-0.0150185	
0.000366917	-0.00124348	-0.000592064	
0.00078699	-0.00343449	0.00192589	
0.000530764	-0.003404	0.00201579	
0.000358495	-0.00292631	0.00156529	
-0.00168795	0.00728853	-0.00366692	
1.46528e-05	-3.63207e-06	-4.62185e-06	
4.10514e-06	6.15393e-06	6.88967e-06	
-1.73026e-06	-8.41714e-06	3.93557e-06	
1.21275e-05	-2.78239e-05	-5.09472e-05	
-6.47167e-05	-0.000165087	-9.91186e-05	
0.0285357	-0.0572043	0.0272969	
0.0021979	-0.00407861	0.000548703	
0.00058494	-0.00166414	-0.000570037	
-0.00647333	0.0160635	-0.00788828	
-7.05973e-05	-0.000223305	-0.000243007	
4.36677e-05	-0.0011453	-0.00131344	
5.14597e-05	-9.18666e-05	-0.000154761	
0.00732738	-0.00870349	0.00610449	
1.34968e-05	-0.000390462	-0.000383301	
-2.51145e-05	-0.000310368	-0.000371367	
-1.42666e-06	-1.29734e-05	-1.67046e-05	
2.55864e-05	-4.30859e-05	-9.02459e-05	
-0.00303484	0.00255732	0.0052819	
0.000744822	-0.0109484	-0.0209137	
-0.00460296	-0.000399785	0.0368482	
0.00645879	-0.000305587	-0.0109631	
0.00765885	-0.000214239	-0.0132775	
0.0120789	-0.000576917	-0.0236274	
0.00242289	0.00105744	-0.00661552	
0.00711557	0.000142989	-0.0127381	
0.00623295	0.000657998	-0.0146121	
0.00800631	2.12816e-05	-0.0146423	
0.013357	-0.00203569	0.0477973	
0.0030882	-0.0034589	0.00617998	
0.00301106	0.000282542	0.0304755	
0.00153313	0.00393977	0.00384317	
0.00519216	0.00105217	-0.011712	
0.00186613	0.000919649	-0.00556511	
0.000530957	0.000932242	-0.00118827	
-0.000210391	0.00171932	-0.00056902	
0.00700322	0.00120751	0.034932	
0.00651874	-0.00483595	0.0112682	
0.00393372	0.000275372	0.0358131	
1.17943e-05	-4.1813e-05	1.51541e-05	
0.00574761	-0.00351917	0.0126564	
3.44288e-05	4.49106e-05	2.60784e-05	
-0.000700335	-0.00042231	0.0266406	
1.90518e-07	4.61514e-05	-1.01011e-05	
-0.000584423	0.00116549	0.00142751	
0.000110117	0.000481358	-6.53003e-05	
-0.00219319	0.000663712	0.0117712	
-0.000163224	0.00128925	-0.000449144	
-0.00099073	1.26915e-05	0.0142325	
0.00129875	0.000931756	-0.00495458	
0.000173267	7.73709e-05	-6.73002e-05	
-1.43969e-05	0.000970811	-0.000189225	
0.000140764	0.000745775	-7.44543e-05	
0.000147142	0.00030237	-8.31093e-05	
0.00013641	0.000604077	-5.54817e-05	
-0.00628773	-0.0122514	-0.00292835	
-0.0192696	-0.103667	-0.15606	
-0.00178486	-0.00353979	-0.000335497	
0.00343221	0.00508322	0.00329791	
-0.00120872	-0.00255234	-1.19327e-05	
0.00517195	0.011502	0.008231	
-0.0110768	-0.0208666	-0.0083187	
0.0056471	0.0085005	0.00605854	
-0.00234235	-0.00804954	-0.00466596	
0.000709961	0.00338132	0.00392066	
0.00182207	0.00465943	0.00459199	
-0.00208291	-0.00706218	-0.0119748	
0.00602458	0.00902628	0.00670647	
-1.72007e-05	-0.000934285	0.00111077	
0.00628234	0.0115578	0.00765825	
0.00566095	0.00841538	0.00606021	
0.000534485	0.000624978	0.0019528	
-0.00436885	-0.0156904	-0.0103386	
-0.0021288	-0.0049108	-0.00341742	
-0.000725726	-0.00241151	8.99078e-05	
0.00028215	-0.000106986	0.000125978	
0.000217239	-0.000335291	0.000563237	
0.000353514	-0.000131704	0.000170428	
1.17499e-05	-0.00034245	0.00139533	
2.60582e-05	-6.52514e-05	0.000141896	
0.0116288	0.0210683	0.0135975	
0.00560879	0.00817057	0.0054622	