<VTKFile type="UnstructuredGrid" version="0.1" byte_order="LittleEndian">
	<UnstructuredGrid>
		<Piece NumberOfPoints="3774" NumberOfCells="3774">
			<CellData Scalars="scalars">
				<DataArray type="Float64" Name="Strength" NumberOfComponents="3" Format="ascii">
-0.0068709	-0.0158296	0.0126991	
-0.000614561	-0.0136761	-0.0273125	
-0.0165884	0.0696279	0.00970772	
0.00444096	-0.00657861	-0.00727869	
0.00592399	0.000833848	-0.0109473	
0.0147613	0.0559172	-0.02794	
0.00761296	0.0873588	-0.0242376	
0.00473616	0.0190711	-0.0142064	
0.0122157	0.0845617	-0.0287814	
0.0069785	0.033496	-0.0187889	
0.00562875	0.00424147	0.0446758	
0.00310624	-0.00429628	0.00207671	
-0.0115948	0.0389045	0.0156482	
0.000340654	0.000580384	-0.00251469	
0.00867143	0.0744438	-0.0248064	
0.0101439	0.0863177	-0.0206711	
0.00776589	0.0929332	-0.019512	
0.00103295	0.0672167	-0.0169544	
0.000637884	0.0118404	0.02911	
0.00805096	-0.00788509	0.00893272	
-0.0082932	0.0320311	0.0231474	
0.000940218	-0.00128046	0.00172861	
0.00439249	-0.00507277	0.00932181	
-0.00160181	0.00194957	0.000331357	
-0.0149519	0.0475485	0.00892753	
-0.000724055	-0.0126697	0.00254807	
0.00554865	0.0879998	-0.0174787	
0.00630742	0.0426561	-0.000119708	
-0.00281745	0.0867854	-0.00642127	
0.000282378	0.0487698	-0.0119496	
-0.00296466	0.0542327	0.00284311	
0.00853521	0.0887813	-0.0175948	
-0.00051656	-0.000373625	0.000149508	
0.00609698	0.0863749	-0.0145066	
0.0124349	0.0787059	-0.000674956	
0.00874287	0.0201034	-0.000440289	
0.010435	0.059985	0.000316285	
-0.0103679	-0.00536853	-0.0255374	
0.0188051	-0.127996	0.0427628	
-0.00847775	-0.0130408	0.049403	
0.00167358	0.0114532	-0.0135717	
0.00191518	-0.00764567	0.0547264	
0.0249917	-0.00481688	0.0630423	
-0.00975508	-0.0378632	0.0459009	
0.0151226	-0.0115578	0.0524047	
0.00698178	-0.0187451	0.0363174	
0.0134946	-0.00134188	0.0149493	
0.00848528	-0.0129502	0.0556763	
0.0157037	0.0155929	-0.00870799	
0.0104549	-0.0077832	0.0473956	
0.00285942	-0.0118574	0.0254269	
0.00833065	-0.00370882	0.0542293	
0.00753944	-0.00430651	0.0395107	
0.0104417	-0.0173063	0.0467729	
-0.00214716	-0.0172987	0.0292609	
0.00575026	-0.00939737	0.0164878	
0.0101369	-0.0117959	0.0557051	
0.0256136	-0.00748696	0.000121745	
0.0101335	-0.0198592	0.0129457	
0.00660665	-0.000838569	0.0185434	
0.00652821	-0.013741	0.0574358	
-0.00284935	0.00817717	-0.0205187	
0.0188404	0.0109588	0.0385782	
0.00691245	-0.00139413	0.0310508	
0.0100284	0.0108031	0.0172974	
0.036203	0.00157161	0.0688942	
0.00108328	-0.00843716	0.039926	
0.000831939	-0.00522051	0.0182458	
0.00375565	-0.00846681	0.0437182	
0.00262274	0.00909791	-0.0101976	
-7.10678e-06	0.00146264	-0.004633	
0.00278027	-0.00690103	0.0239439	
0.010568	-0.0165786	0.0528796	
0.00667686	-0.0120069	0.050395	
0.0225191	-0.0534895	-0.0140486	
0.000102563	0.020783	-0.0290228	
-0.00945406	-0.000854513	-0.0312604	
0.000786163	-0.0300792	-0.0317662	
-0.00766543	0.0141278	-0.0118039	
-0.0128443	0.0113163	-0.0233054	
-5.25389e-05	-0.0177609	-0.0502834	
0.0031032	-0.0262393	-0.0517017	
0.00180009	-0.00933688	0.00291284	
0.000649426	-0.00726009	0.000844114	
-0.00045647	1.76588e-05	-0.00353655	
-0.00331515	-0.00541854	-0.000398161	
0.00606895	-0.0391031	-0.0564817	
-0.015958	-0.00431704	-0.0481972	
-0.0204538	-0.0170655	-0.0448061	
0.00494449	-0.0451139	-0.0552514	
0.000830543	-0.00482322	0.0012035	
0.000467724	-0.00599906	0.000191606	
0.000802367	-0.00544528	-0.000724863	
-0.00181591	0.004646	-0.00515938	
0.00108106	-0.00340463	0.00103423	
-0.000962759	-0.00190889	-0.00220228	
0.000686162	0.0018621	0.00198861	
0.00168691	-0.0056201	-0.00914051	
-0.00437346	-0.0355737	-0.0347245	
0.0455947	-0.0742335	-0.00665314	
0.00790632	-0.0470486	-0.0526014	
0.00176863	-0.0425333	-0.054625	
-0.00443472	-0.00643382	-0.033954	
-0.00610561	-0.0403468	-0.0428561	
0.00588181	-0.0434936	-0.0522726	
0.009036	-0.0204416	-0.0356514	
0.0147881	-0.0437459	-0.0369424	
0.00742657	-0.0504159	-0.0592084	
0.000150948	-0.011842	-0.0132082	
7.79361e-07	7.01334e-06	8.75464e-06	
0.00416159	-0.0104532	-0.0192113	
-0.00272313	0.00260703	0.00633682	
-0.00263782	-0.00914882	-0.0281062	
-0.00915791	0.00696902	0.0316738	
0.00497582	0.000694225	-0.0102396	
0.00665821	0.00229581	-0.0124587	
0.0155573	0.00863132	-0.0184633	
0.00446654	0.0112794	-0.00730655	
0.00665302	0.004685	-0.0115985	
0.0103481	0.0116569	-0.0125816	
0.00856872	0.00629588	-0.0130845	
0.0127718	0.00026102	0.0444771	
0.00202532	-0.00222614	0.00408673	
0.00265131	0.00337035	0.0274535	
0.000324765	0.00138346	0.00168922	
0.00756373	0.0108304	-0.0102362	
0.00404778	0.0111132	-0.00651588	
0.00119132	0.0105934	-0.00367608	
-0.000494048	0.00996804	-0.00298464	
0.00828191	0.00259807	0.031774	
0.00461534	-0.00362843	0.0116522	
0.00477307	0.00388062	0.0318649	
9.56549e-05	-0.000160341	2.565e-05	
0.00408421	-0.00207106	0.0111473	
-0.000291074	0.00019449	0.000212742	
-0.00260323	0.00559776	0.0233432	
8.35555e-06	0.000190924	-3.88174e-05	
-0.000821407	0.0107701	-0.00167423	
0.00109606	0.00540074	-0.000649175	
-0.00471509	0.00813234	0.00863106	
-0.000371749	0.00783426	-0.00221917	
-0.00191487	0.00564282	0.011419	
0.00275328	0.00976851	-0.00562138	
0.00110502	0.000708934	-0.000349144	
-2.71172e-06	0.00990658	-0.00193148	
0.00162626	0.00847392	-0.000438996	
0.00106252	0.00245109	-0.000628685	
0.00145222	0.00691424	-0.000564279	
-0.00496979	-0.0117113	-0.00452744	
-0.033996	-0.105512	-0.112202	
-0.0059112	-0.00891168	0.00257248	
0.00257943	0.00613172	0.00169495	
-0.0020867	-0.00401745	0.00476366	
0.00663997	0.0127889	0.015067	
-0.0167517	-0.0217968	-0.00474869	
0.00737533	0.00566742	0.00704628	
-0.000432799	-0.00808388	0.000502368	
-0.00046072	0.00364046	0.00590229	
0.000451717	0.00114074	0.00767293	
-0.00496034	-0.00798863	-0.0091107	
0.00755254	0.00608872	0.00739228	
-0.00066209	-0.00358631	0.00387336	
0.00609102	0.00694592	0.0101737	
0.0066448	0.00598734	0.00648939	
0.000252206	-0.00229198	0.00512787	
-0.00396111	-0.0157926	-0.00659717	
-0.00129842	-0.00564756	-0.000937492	
-0.000206792	-0.000999352	0.00682616	
-0.00137473	0.00132888	-0.00147557	
0.00107911	-0.0014449	0.00237072	
4.06355e-05	0.00176728	-0.00154425	
-0.00025288	-0.00160458	0.00602917	
-0.000197668	0.000542775	-0.00133312	
0.015187	0.0180117	0.0169095	
0.00628912	0.00644872	0.00553347	
0.0105703	0.0146298	0.00822886	
0.0167213	0.02221	0.0183816	
-0.000516545	-0.000938748	0.00578313	
5.18223e-06	-0.000197407	0.000766663	
-0.00043596	-0.000974987	0.00678268	
0.00282029	0.00565086	0.00158528	
2.64109e-05	0.000272961	-0.000902684	
0.000434255	-0.00140582	0.00588736	
-4.02565e-05	-0.00180413	0.00576085	
-0.000198004	-0.00157761	0.0072482	
0.0247487	-0.0183253	0.0122885	
0.000720373	0.0152965	-0.0203518	
-0.00776055	0.0187922	-0.0106516	
0.00130995	-0.00518894	-0.00377121	
-0.00498516	0.0188926	-0.00855682	
-0.00815343	0.0243828	-0.0113193	
-0.00840244	0.00660567	-0.0139814	
-0.00678214	0.00333399	-0.0108768	
0.00136851	-0.00639673	0.00497222	
0.000190099	-0.00375275	0.00324269	
-0.000538937	0.00265569	-0.000408183	
0.000803157	-0.0027993	0.00192605	
0.000127864	-0.00416138	-0.00702707	
-0.023243	0.0205307	-0.0276202	
-0.0150364	0.0206747	-0.0150706	
0.00188846	-0.00683284	-0.00638158	
0.000983401	-0.00289625	0.00304881	
0.000538068	-0.00261705	0.00285004	
0.00042551	-0.00229205	0.00231736	
-0.00134692	0.00774279	-0.00303772	
-0.000640502	-0.000779697	-0.000531243	
0.000433422	0.000631655	0.000727896	
-0.000395385	-0.000312391	0.00062862	
-8.91639e-05	0.000239591	0.000386923	
-0.000754115	-0.00394437	-0.00349655	
0.0408672	-0.0539564	0.0216707	
0.00384814	-0.00841581	-0.00561019	
-0.00114682	-0.00494479	-0.00768387	
-0.00681981	0.0138289	-0.00950722	
-0.000588924	-0.0019548	-0.00203783	
0.000699476	-0.00628873	-0.00720774	
0.000424257	-0.000828783	-0.00123295	
0.0111842	-0.011672	-0.000757101	
0.000606037	-0.00469074	-0.00524835	
-0.000214664	-0.00300083	-0.00289631	
9.09847e-05	0.000783491	0.000978693	
4.11198e-05	-8.49294e-05	-0.000145749	
-0.00278932	0.00272725	0.00619894	
-0.000751544	-0.00838643	-0.026699	
-0.00120541	0.00290795	0.0341125	
0.00542928	4.30349e-05	-0.0101685	
0.0071541	0.000465081	-0.0122044	
0.0127484	0.000836839	-0.0200542	
0.00209842	0.00238064	-0.00703673	
0.00702253	0.0010916	-0.0111682	
0.00617692	0.0018365	-0.0141125	
0.00827493	0.00123012	-0.0127735	
0.0115012	-0.00131172	0.0456234	
0.00230554	-0.00275546	0.00457468	
0.00206737	0.00166413	0.0284337	
0.000592988	0.00165203	0.0023421	
0.00511677	0.00195376	-0.0105646	
0.00143427	0.00234835	-0.00622013	
0.000275001	0.00268219	-0.00306572	
-0.000302638	0.00263853	-0.000929372	
0.00652319	0.00178852	0.0329006	
0.00538684	-0.0042912	0.0113187	
0.00313645	0.00136307	0.0332413	
-1.22634e-05	-0.000172637	2.66612e-05	
0.00438736	-0.00287928	0.0116054	
-6.92892e-05	0.000109952	9.26216e-05	
-0.00152272	0.00120203	0.0244069	
2.18498e-06	7.03498e-05	-1.38594e-05	
-0.000486803	0.00295951	0.000347731	
0.000312199	0.00166851	-0.000223924	
-0.000621969	0.00285127	0.0103818	
-0.000192379	0.00203875	-0.000670313	
-0.00083405	0.00167569	0.0123449	
0.000586169	0.00239719	-0.00570475	
0.0004461	0.000322595	-0.00013378	
-0.000149731	0.00270087	-0.00068388	
0.00034568	0.00237354	-0.000411772	
0.000427017	0.00111207	-0.000263589	
0.000374391	0.00204312	-0.000312935	
-0.00501194	-0.0120949	-0.00362504	
-0.0265302	-0.0978056	-0.130294	
-0.00307458	-0.00777454	-0.00147323	
0.00284886	0.00557064	0.0027387	
-0.00138136	-0.0029572	0.000368424	
0.0061086	0.0134525	0.00981585	
-0.0115579	-0.0228991	-0.00880668	
0.00513727	0.0081448	0.00451599	
-0.00170926	-0.00708531	-0.00329709	
0.000496928	0.00311646	0.00531045	
0.00112038	0.00289311	0.00378792	
-0.00518552	-0.00523629	-0.012272	
0.00591254	0.00838006	0.00505867	
-0.000640412	-0.00226146	0.000706762	
0.00448565	0.00968169	0.00672135	
0.00568864	0.00762482	0.00452193	
0.000150169	-0.00056423	0.00164753	
-0.00388951	-0.0155446	-0.00944149	
-0.00164301	-0.00489779	-0.00291248	
-8.73513e-05	-0.000539498	0.00197902	
-3.38804e-05	0.000538243	-0.000374474	
0.000299203	-0.000408783	0.000712009	
0.000642533	4.53592e-05	-0.000322368	
-6.11779e-06	-0.000430601	0.00181642	
-6.26629e-05	0.000171448	-0.000399722	
0.0106395	0.021276	0.0133009	
0.00566009	0.0075563	0.00412453	
0.0104481	0.0151448	0.00792395	
0.00990544	0.0256855	0.0142379	
-0.00021211	-0.000301888	0.00188698	
2.86626e-06	3.96497e-05	-0.000172971	
-0.000182419	-0.000312069	0.00225569	
0.00299366	0.00530199	0.00252636	
2.56369e-05	0.000154848	-0.000525917	
9.23868e-05	-0.000436915	0.00200391	
3.09173e-05	-0.000500673	0.00162026	
-3.0793e-05	-0.000489451	0.00237589	
0.0246819	-0.0163072	0.0155016	
0.000292529	0.013142	-0.0246711	
-0.00610714	0.0198788	-0.0101846	
0.00152685	-0.002678	-0.00048463	
-0.00560652	0.0183545	-0.00894618	
-0.00786617	0.0246172	-0.0112455	
-0.00626834	0.0110079	-0.0112872	
-0.00543532	0.00793815	-0.00816346	
0.00154225	-0.00747175	0.00393409	
0.000412789	-0.00461852	0.00271503	
-0.000562865	0.00207634	-0.00139683	
0.000265018	-0.000717501	0.00374275	
-0.000314311	-0.000792022	-0.00230198	
-0.0170766	0.0293549	-0.026351	
-0.00929181	0.0236538	-0.0162265	
0.00100923	-0.00290059	-0.00112455	
0.000844402	-0.00390437	0.00179422	
0.000463036	-0.00375495	0.00187003	
0.000246349	-0.00323724	0.00139408	
-0.00167755	0.00675053	-0.00378069	
0.000134796	0.000223677	0.000193036	
-0.000103114	-0.000166356	-0.000193846	
8.42003e-05	0.000181684	-5.7941e-05	
6.37097e-05	-0.000181416	-0.000310795	
-0.000314463	-0.00125993	-0.00100776	
0.0281745	-0.0564664	0.0312822	
0.00269494	-0.00474543	-0.000186208	
-0.000883772	-0.00118863	-0.00275117	
-0.00489726	0.0150975	-0.00911462	
-0.000214194	-0.000600748	-0.000602375	
0.000135956	-0.00211744	-0.00220204	
0.000164548	-0.00037683	-0.000513138	
0.00958366	-0.00899774	0.00391028	
0.000146426	-0.00154865	-0.00158034	
-7.92799e-05	-0.000793215	-0.000765422	
-2.65079e-05	-0.000236286	-0.000301624	
0.000100884	-0.000217745	-0.000392352	
-0.00281599	0.00287659	0.00593506	
6.01211e-05	-0.00885457	-0.0250533	
-0.00474078	0.00247653	0.0345922	
0.00567442	0.000203506	-0.0102303	
0.0072325	0.000436982	-0.0125395	
0.010444	-3.4892e-05	-0.022391	
0.00162885	0.00270841	-0.0076164	
0.00678872	0.00077556	-0.0117947	
0.00466564	0.00177107	-0.0151976	
0.00754495	0.000710046	-0.013768	
0.0121559	-0.0015092	0.0463908	
0.00246683	-0.00291491	0.00518694	
0.00200062	0.00158405	0.0289039	
0.0014126	0.00177814	0.00313741	
0.00387825	0.00181404	-0.0116098	
0.00138835	0.00291691	-0.00644922	
0.000611646	0.00334607	-0.00269523	
-0.000352138	0.00282446	-0.00101158	
0.00674084	0.00171761	0.0334763	
0.00548046	-0.00425211	0.0115316	
0.00310102	0.00130731	0.0337621	
-0.000122634	-8.22066e-05	1.64986e-05	
0.00451268	-0.00293236	0.0121015	
-3.00225e-05	0.000119733	0.000114428	
-0.00147851	0.00106007	0.0250689	
7.04215e-06	0.000261885	-4.96671e-05	
-0.000470145	0.00357279	0.00027788	
0.000293598	0.00164228	-0.00021716	
-0.00225949	0.00319624	0.0104955	
-0.00022093	0.00201092	-0.000692481	
-0.00134429	0.00158597	0.0128342	
0.00134598	0.00331125	-0.00563505	
0.000444173	0.000328832	-0.000130652	
-5.71205e-05	0.00339452	-0.000702271	
0.000445699	0.00275967	-0.000357578	
0.000444228	0.00116193	-0.000278181	
0.000420813	0.00225439	-0.000249896	
-0.00541012	-0.0121369	-0.00354755	
-0.0234973	-0.09903	-0.137961	
-0.00303312	-0.00622836	-0.00112747	
0.00305073	0.00529796	0.00278173	
-0.00134844	-0.00285379	0.000410825	
0.00578497	0.0127169	0.00953903	
-0.0101651	-0.0227384	-0.00897825	
0.00468815	0.00859393	0.00506052	
-0.00193753	-0.00728848	-0.00349709	
0.000583589	0.00358264	0.00495883	
0.00138421	0.00335549	0.00423699	
-0.00361738	-0.0069176	-0.0118266	
0.00533416	0.00899026	0.0055162	
-0.000478616	-0.00190196	0.000594138	
0.00551475	0.00983284	0.00713654	
0.00518202	0.00824636	0.00484008	
0.000298662	-0.000203676	0.00196813	
-0.00423477	-0.015717	-0.00966001	
-0.00179164	-0.00504342	-0.00274054	
-0.00028901	-0.00120381	0.00160361	
5.92011e-05	0.000538989	-0.000426213	
0.00031859	-0.000430492	0.000775773	
0.000652416	7.90244e-05	-0.000335017	
1.38171e-05	-0.000449927	0.00180966	
-4.77602e-05	0.00013218	-0.000292849	
0.0115362	0.0204645	0.0139103	
0.00528866	0.00805933	0.00431383	
0.0103226	0.0155753	0.00802768	
0.0121898	0.0237665	0.0144329	
-0.000123254	-0.000337837	0.00162764	
1.74578e-06	2.71792e-05	-0.000121181	
-8.81418e-05	-0.000370472	0.00199202	
0.00316874	0.00522387	0.00259144	
2.62848e-05	0.000147424	-0.000511279	
8.3148e-05	-0.00041556	0.00158083	
3.01641e-05	-0.00054091	0.00169579	
3.45646e-05	-0.000519933	0.00225158	
0.0238563	-0.0175116	0.0172789	
0.000555971	0.0145146	-0.0225999	
-0.00709852	0.0202989	-0.00981844	
0.00149245	-0.00282788	4.82795e-05	
-0.00557171	0.0188069	-0.00889969	
-0.00834114	0.025054	-0.0110849	
-0.00523936	0.0118568	-0.0112444	
-0.00442939	0.00864742	-0.00846581	
0.00145644	-0.00704915	0.00417134	
0.00036877	-0.00434475	0.00277163	
-0.000582669	0.00233541	-0.00116767	
0.00121584	-0.00172992	0.00294351	
-0.000259373	-0.000832086	-0.00233402	
-0.0160953	0.0319147	-0.0259564	
-0.0117701	0.0237393	-0.0154659	
0.000596072	-0.00275128	-0.0011952	
0.000855733	-0.00351743	0.00209607	
0.000481202	-0.0033965	0.00211712	
0.000263257	-0.00292304	0.00165752	
-0.00161757	0.0071207	-0.0036548	
-0.000110407	-5.42898e-05	-5.072e-05	
4.16927e-05	6.67431e-05	7.81124e-05	
-5.26483e-05	-5.65777e-05	4.1283e-05	
2.35859e-05	-7.11284e-05	-0.000120277	
-0.000358911	-0.00121713	-0.000905702	
0.031132	-0.0570645	0.0270517	
0.00211362	-0.0049984	4.6788e-05	
-0.000333294	-0.00157668	-0.00227735	
-0.00593422	0.0153414	-0.00872002	
-0.000213961	-0.000698398	-0.000743465	
7.18565e-05	-0.002122	-0.00212117	
0.0001812	-0.000381178	-0.00058068	
0.00816505	-0.00952224	0.00500754	
6.94149e-05	-0.00153196	-0.00147152	
-6.01103e-05	-0.000759023	-0.000824135	
5.35907e-06	4.68733e-05	5.9381e-05	
6.9081e-05	-0.00014883	-0.000279276	
-0.00295539	0.00263223	0.00587545	
0.0017725	-0.00865035	-0.02366	
-0.00495397	0.00245943	0.0353428	
0.00596675	0.000346486	-0.0105543	
0.00732889	0.000666994	-0.0129881	
0.0101697	0.000477515	-0.0233627	
0.00247598	0.00288924	-0.00722183	
0.00665063	0.000992924	-0.0124791	
0.00610753	0.00255808	-0.0146787	
0.0072045	0.000958113	-0.0146029	
0.0126413	-0.00139707	0.0471979	
0.00263334	-0.00307431	0.00573562	
0.00206571	0.00180537	0.0293513	
0.00146156	0.0016729	0.00416293	
0.00442934	0.00223759	-0.0114295	
0.00195083	0.00290134	-0.00612574	
0.000768302	0.00327066	-0.00298339	
-0.000300307	0.00303483	-0.0009681	
0.00703648	0.00181455	0.0340965	
0.0054074	-0.00420758	0.0118087	
0.00315436	0.00162186	0.0346593	
-0.000123144	-6.73101e-06	-5.92083e-06	
0.00457496	-0.0029945	0.0126114	
1.01449e-05	0.000109192	9.71528e-05	
-0.00153363	0.00129665	0.0257597	
2.69356e-06	0.000129588	-2.39717e-05	
-0.000512576	0.00320444	0.000466725	
0.00031205	0.00177025	-0.000241015	
-0.00239446	0.00324075	0.0107349	
-0.000247566	0.00243605	-0.000805781	
-0.00139424	0.00177389	0.0133749	
0.00146176	0.00313491	-0.00564344	
0.000398618	0.000302708	-0.000117394	
-3.82537e-05	0.00310338	-0.000594048	
0.000477968	0.00297247	-0.000356509	
0.000420321	0.00112642	-0.000277348	
0.000452171	0.00244786	-0.000264364	
-0.00579989	-0.012141	-0.00350563	
-0.0216432	-0.0983957	-0.146376	
-0.00257624	-0.00529985	-0.000946328	
0.00322386	0.00513129	0.00289633	
-0.00127418	-0.00273938	0.000231882	
0.00558517	0.0124526	0.00917712	
-0.0111108	-0.0214082	-0.0096724	
0.00522561	0.00842355	0.00508366	
-0.00198891	-0.00756792	-0.00382572	
0.000938462	0.00364115	0.00425395	
0.00145083	0.00365619	0.00423827	
-0.00103442	-0.0077789	-0.0113066	
0.00573426	0.00890392	0.00558995	
-0.00042882	-0.00150035	0.000414838	
0.00592575	0.010409	0.00735092	
0.00536822	0.0082926	0.00495548	
0.000292054	-5.99472e-05	0.00179222	
-0.00405547	-0.0155947	-0.00981125	
-0.00175852	-0.00505228	-0.00281245	
-0.000325062	-0.00128767	0.00118883	
0.00043886	5.59126e-05	-4.39314e-05	
0.00028772	-0.000383004	0.000723865	
0.000578218	-0.000152907	5.85892e-06	
1.61217e-05	-0.000411239	0.00163594	
-4.12486e-05	0.000114932	-0.000247471	
0.0117128	0.020545	0.0138533	
0.00532441	0.00816629	0.00447911	
0.0102871	0.0157773	0.00829338	
0.012016	0.0233234	0.014202	
-9.49425e-05	-0.000292479	0.00135759	
-7.51108e-08	1.66903e-06	-8.33547e-06	
-6.69034e-05	-0.00033758	0.00172557	
0.00328555	0.00512314	0.00282205	
1.2381e-05	8.00873e-05	-0.000277475	
6.57124e-05	-0.000366454	0.00127295	
2.80783e-05	-0.000504654	0.00159708	
3.89428e-05	-0.000439288	0.00187731	
0.0230907	-0.0181252	0.0188319	
0.000748789	0.0147204	-0.0225425	
-0.00712699	0.0205864	-0.0098713	
0.00157436	-0.00294355	0.000549441	
-0.00561936	0.018883	-0.00905621	
-0.00826208	0.0252408	-0.0113376	
-0.00615586	0.0122931	-0.0106038	
-0.0052536	0.00890118	-0.00792241	
0.00147724	-0.00709192	0.00403907	
0.000348568	-0.00442331	0.00267672	
-0.000594427	0.00234638	-0.00125883	
0.00131307	-0.00169173	0.00294139	
-0.000278931	-0.000589697	-0.00211719	
-0.0177708	0.0334267	-0.02479	
-0.011882	0.0243677	-0.0152745	
0.000559994	-0.00243902	-0.00113375	
0.000841823	-0.00355214	0.00195767	
0.000472526	-0.00348303	0.0020107	
0.000234501	-0.0029929	0.00156738	
-0.00165045	0.00709781	-0.00374008	
9.18464e-06	9.77222e-07	2.05353e-06	
-4.22139e-06	-6.90924e-06	-8.13841e-06	
3.79417e-06	5.63302e-06	-9.7086e-07	
2.42288e-05	-7.59008e-05	-0.000126917	
-0.000296112	-0.00090456	-0.000657671	
0.0313376	-0.0566108	0.0264178	
0.00204173	-0.00473702	0.000341458	
-2.77749e-05	-0.00163176	-0.00170921	
-0.00596225	0.0155951	-0.00866534	
-0.000142284	-0.000476308	-0.000516668	
5.86417e-05	-0.0017299	-0.00177529	
0.000118129	-0.00025321	-0.000386309	
0.00729828	-0.00966962	0.005619	
4.37065e-05	-0.00135894	-0.00130756	
-6.22746e-05	-0.000680907	-0.000788856	
-3.6649e-06	-3.30779e-05	-4.19091e-05	
5.16931e-05	-0.000118928	-0.00021842	
-0.00274005	0.00295029	0.00541226	
0.0023854	-0.00781054	-0.0232146	
-0.00438043	0.00126703	0.0362301	
0.00608349	0.000781744	-0.010821	
0.00731113	0.000849775	-0.0133374	
0.0113644	0.000501293	-0.0230912	
0.00266983	0.00241762	-0.00747149	
0.00662152	0.00107433	-0.0126114	
0.00626098	0.00207163	-0.014726	
0.00728184	0.000683955	-0.0146114	
0.0135347	-0.00176147	0.0473946	
0.00276502	-0.00321256	0.00596823	
0.00251301	0.00111595	0.0300054	
0.00116863	0.00116708	0.00475819	
0.00496778	0.00194459	-0.0113267	
0.00209324	0.00256941	-0.00644257	
0.000499877	0.00256993	-0.0017665	
-0.000185579	0.00213271	-0.000587192	
0.00756666	0.00138372	0.0344221	
0.00543051	-0.00425908	0.011913	
0.00358694	0.000957075	0.0352819	
-4.86089e-05	2.48294e-05	-2.06151e-05	
0.00468472	-0.003168	0.0128765	
9.13672e-06	5.00186e-05	4.16314e-05	
-0.00112805	0.000481756	0.0263242	
1.24748e-05	0.000602027	-0.000110198	
-0.000537492	0.00312998	0.000624877	
0.000156421	0.000920403	-0.000133284	
-0.0022918	0.00201264	0.0113587	
-0.000148426	0.00164917	-0.000504197	
-0.00125483	0.000794588	0.0139442	
0.00136829	0.00277196	-0.00539581	
0.000176668	0.000142624	-5.4481e-05	
-3.69872e-05	0.00293692	-0.000553149	
0.000268593	0.00172511	-0.000212176	
0.000175698	0.000492182	-0.000125224	
0.000238216	0.0013374	-0.000153903	
-0.00589997	-0.0121508	-0.00314033	
-0.0278451	-0.100694	-0.148491	
-0.0024316	-0.00506019	-0.00113651	
0.00339459	0.00502929	0.00328307	
-0.00125541	-0.00278104	-0.000153418	
0.00546764	0.0123925	0.00893776	
-0.0109071	-0.021476	-0.00932013	
0.00533368	0.00835073	0.00566058	
-0.00200374	-0.00772098	-0.0043412	
0.0010155	0.00356517	0.00376913	
0.00139226	0.00366257	0.0038842	
-0.000964962	-0.00756232	-0.0115962	
0.00590848	0.00867517	0.00631489	
-0.00031137	-0.00136735	0.000629237	
0.00598164	0.0106253	0.00758645	
0.00555859	0.00796362	0.00581487	
0.000160432	-0.000167866	0.00118781	
-0.00386176	-0.0154939	-0.0101178	
-0.0016775	-0.00502128	-0.00305651	
-0.000266696	-0.00104918	0.00079513	
0.000300783	2.13181e-05	-2.6715e-05	
0.000197371	-0.000257849	0.000511217	
0.000318736	-0.000117993	0.000167622	
1.93078e-05	-0.000355775	0.00139034	
2.7876e-06	-7.60561e-06	1.64764e-05	
0.0117597	0.0207422	0.013918	
0.00555331	0.00791066	0.00552095	
0.010469	0.0157659	0.00928699	
0.0118751	0.023343	0.0143552	
-9.28543e-05	-0.000302497	0.001389	
-8.66568e-07	-0.000199361	0.000791337	
-5.34628e-05	-0.000296035	0.00149103	
0.00337455	0.00504096	0.00336389	
-1.48007e-05	-0.000116663	0.000393625	
6.6227e-05	-0.000371621	0.00128926	
2.41101e-05	-0.000399545	0.00126646	
3.11847e-05	-0.000357377	0.00151212	
0.0227384	-0.0193748	0.0196077	
0.00107653	0.0151163	-0.02189	
-0.00712708	0.0207879	-0.0100052	
0.00155262	-0.0031082	0.00057689	
-0.00564959	0.0190051	-0.00917838	
-0.00833211	0.0253779	-0.0115061	
-0.00635087	0.0128142	-0.0101955	
-0.00546323	0.00938929	-0.00747438	
0.00146959	-0.00698116	0.00402398	
0.000253216	-0.0043886	0.0026362	
-0.000607123	0.00241135	-0.00126525	
0.00129453	-0.00197593	0.0027102	
-0.000394541	-8.72057e-05	-0.00168466	
-0.0180547	0.0345753	-0.0245361	
-0.0118339	0.0247606	-0.0152932	
0.000612824	-0.00202204	-0.000857295	
0.000837652	-0.0034607	0.0019537	
0.000462033	-0.00342366	0.00202285	
0.000222741	-0.00294039	0.00158502	
-0.00165961	0.00717707	-0.00376747	
-3.4852e-05	9.33377e-06	3.17456e-06	
1.0261e-05	1.70624e-05	2.01217e-05	
-1.62542e-05	-1.53067e-05	8.72563e-06	
1.89854e-05	-6.24873e-05	-0.000102872	
-0.000382917	-0.00112626	-0.000840113	
0.0315477	-0.0562316	0.0263896	
0.00222262	-0.0042261	0.000456251	
2.6291e-05	-0.00137945	-0.00141834	
-0.00589443	0.0157116	-0.00868947	
-0.000104921	-0.000360532	-0.000394907	
5.53398e-05	-0.00129132	-0.00141135	
8.97713e-05	-0.00019928	-0.000301285	
0.00699118	-0.00989591	0.00561779	
4.39029e-05	-0.00134926	-0.00135253	
-3.90008e-05	-0.000442698	-0.000520873	
-6.91387e-07	-6.36409e-06	-8.01848e-06	
4.19759e-05	-0.000101214	-0.000182549	
-0.00281575	0.00259319	0.00541659	
0.00252015	-0.00760911	-0.0226426	
-0.00385487	0.00049106	0.0366881	
0.00629605	0.000279847	-0.0108583	
0.00740691	0.000432244	-0.0131226	
0.0115016	5.16126e-05	-0.023314	
0.00254555	0.00158681	-0.00700718	
0.00692765	0.00027702	-0.0124992	
0.00634539	0.0014337	-0.0149403	
0.0076677	0.000323226	-0.0144676	
0.0138248	-0.0017184	0.0475833	
0.00274843	-0.00319384	0.00616402	
0.0026573	0.000837502	0.0303278	
0.000698924	0.000499927	0.00514843	
0.00509044	0.00120788	-0.011402	
0.00191048	0.00138288	-0.00584556	
0.000551616	0.000997026	-0.00131863	
-0.000119686	0.00141027	-0.000374234	
0.00782146	0.00136206	0.0345862	
0.00524787	-0.00416473	0.0120789	
0.00372585	0.000787541	0.0355594	
-1.90658e-05	3.95653e-05	-3.08512e-05	
0.00459787	-0.00317284	0.0130764	
1.12103e-05	4.55617e-05	3.43225e-05	
-0.000918783	0.000105982	0.0264646	
3.45493e-06	0.000151567	-2.70524e-05	
-0.000540643	0.00137434	0.00127132	
8.27107e-05	0.000511135	-7.69974e-05	
-0.00211081	0.000874776	0.011669	
-8.53893e-05	0.00102829	-0.000284023	
-0.00117038	0.000269558	0.0141517	
0.00135601	0.00101172	-0.00499364	
0.000121778	0.000105174	-3.69946e-05	
-1.52553e-05	0.00110488	-0.000206176	
0.000117366	0.000784996	-0.000100211	
0.000107314	0.000316033	-8.04478e-05	
0.000104625	0.000617015	-7.44156e-05	
-0.00630545	-0.0122123	-0.0036339	
-0.0326447	-0.104765	-0.148256	
-0.00164665	-0.00342968	-0.000832792	
0.00334374	0.00517526	0.00252413	
-0.00109762	-0.0024867	-0.000640761	
0.00492164	0.0115069	0.00773479	
-0.0106928	-0.0203293	-0.0105046	
0.00517486	0.00890825	0.00425698	
-0.00204314	-0.0077186	-0.00473463	
0.000989731	0.00392099	0.0038121	
0.00163346	0.00470211	0.00389139	
-0.00101847	-0.00759915	-0.0119913	
0.00599953	0.0092061	0.00485039	
-0.000276669	-0.000723807	-3.94469e-05	
0.00638257	0.0115013	0.00700859	
0.00574792	0.00848101	0.00428481	
0.000444128	0.000808971	0.00169624	
-0.00381441	-0.0159572	-0.0105242	
-0.0017214	-0.00507117	-0.00330211	
-0.000624269	-0.00218929	-0.000115036	
0.000227197	2.30445e-05	-2.35585e-05	
0.000135946	-0.000180046	0.000365945	
0.000266367	-0.000100646	0.000143433	
9.82164e-06	-0.00017459	0.000677129	
-7.92956e-05	0.000216738	-0.000468022	
0.011742	0.0208454	0.0133372	
0.00562695	0.00834581	0.00381806	
0.0105411	0.0160788	0.00792272	
0.0113097	0.0226741	0.0129589	
-3.46963e-05	-0.000124628	0.000560541	
-4.98478e-06	0.000218298	-0.000820793	
-3.24863e-05	-0.000201839	0.000993683	
0.00341647	0.00532392	0.00235089	
2.57689e-05	0.000257177	-0.000856929	
3.13044e-05	-0.000173579	0.000598275	
8.79712e-06	-0.000185469	0.00059301	
2.86257e-05	-0.000305958	0.00126947	
0.0227588	-0.0188093	0.0201118	
0.00144627	0.0154707	-0.0214519	
-0.00709576	0.020901	-0.0100117	
0.00191863	-0.00272642	0.00131789	
-0.00564055	0.0189978	-0.00922822	
-0.00834452	0.0254477	-0.0115999	
-0.00634321	0.0131422	-0.010004	
-0.00559429	0.00985176	-0.00727698	
0.00147326	-0.00693895	0.00397475	
0.000209752	-0.004389	0.00259472	
-0.000614448	0.00244367	-0.00128511	
0.00116938	-0.00211594	0.00264504	
-0.000316895	-6.07182e-05	-0.00134806	
-0.0181052	0.0354208	-0.0244839	
-0.0118483	0.0251498	-0.0152342	
0.000366678	-0.00124797	-0.000578644	
0.000834046	-0.00342197	0.00191527	
0.000454355	-0.0034201	0.00199626	
0.000207175	-0.00293467	0.0015682	
-0.00167008	0.00720761	-0.0038035	
-1.1013e-05	7.84808e-06	4.80316e-06	
3.59231e-06	6.08856e-06	7.19415e-06	
-6.70463e-06	-5.52922e-06	3.63658e-06	
8.88227e-06	-3.08108e-05	-4.97888e-05	
-5.18347e-05	-0.000153649	-0.00012183	
0.0319323	-0.0557721	0.0262629	
0.00219467	-0.00407541	0.000534661	
0.000583493	-0.00165234	-0.000597914	
-0.00584064	0.0158886	-0.00863514	
-6.20167e-05	-0.000222184	-0.000245663	
5.26179e-05	-0.00112302	-0.0013293	
4.39261e-05	-0.000101097	-0.000151088	
0.00690566	-0.00921229	0.00580164	
1.45737e-05	-0.000375175	-0.000397252	
-2.46317e-05	-0.000311169	-0.000369862	
-1.39325e-06	-1.3133e-05	-1.65366e-05	
1.96466e-05	-4.98882e-05	-8.80657e-05	
-0.00283158	0.00245581	0.00543159	
0.0032495	-0.00772862	-0.0220569	
-0.00374348	0.000511645	0.0369277	
0.00639797	0.000160208	-0.0109935	
0.00762136	0.000399814	-0.013287	
0.011527	0.000457724	-0.0238954	
0.00238249	0.00126328	-0.00659286	
0.00703989	0.000733624	-0.0127532	
0.00615016	0.00117298	-0.0146124	
0.00771553	0.000697648	-0.014775	
0.0139449	-0.0014377	0.047616	
0.00268611	-0.00317909	0.00650294	
0.00277735	0.000952301	0.0304665	
0.000324843	0.000403839	0.00566319	
0.00508392	0.00152028	-0.0117059	
0.00178656	0.00105865	-0.00556523	
0.000526611	0.000928875	-0.00119181	
-0.000144126	0.00175755	-0.000455039	
0.00802054	0.0015005	0.0346778	
0.00499365	-0.00398238	0.0123207	
0.00375034	0.000953873	0.0357987	
1.17693e-05	3.29017e-05	-2.02801e-05	
0.00442454	-0.00302915	0.0132887	
1.7267e-05	4.97375e-05	3.3125e-05	
-0.000928286	0.000228363	0.0266227	
9.96561e-07	4.64925e-05	-8.14509e-06	
-0.00055236	0.00113976	0.001459	
7.4852e-05	0.000486082	-7.53011e-05	
-0.00208993	0.000821116	0.0117759	
-0.00010651	0.00132315	-0.000352699	
-0.00118812	0.000336078	0.0142065	
0.00132487	0.000936469	-0.00494487	
0.000144229	0.000133414	-4.28578e-05	
-1.25084e-05	0.000971853	-0.000177704	
0.000107461	0.000747946	-9.65052e-05	
0.000102908	0.000320161	-8.15322e-05	
9.71032e-05	0.00060882	-7.52782e-05	
-0.00606411	-0.0123479	-0.00291482	
-0.0324729	-0.111473	-0.148259	
-0.00170081	-0.00356117	-0.000444474	
0.00344696	0.00501741	0.00336618	
-0.00115876	-0.00256958	-3.71748e-05	
0.00499381	0.0113969	0.00844982	
-0.0102726	-0.0210275	-0.00884412	
0.00541419	0.00848734	0.00626169	
-0.00216006	-0.00817462	-0.00451043	
0.000908997	0.00353274	0.00373518	
0.0017528	0.00464427	0.00462425	
-0.00120162	-0.00747186	-0.0118396	
0.00606215	0.00884894	0.00687991	
-1.85019e-05	-0.000946785	0.00109997	
0.00632617	0.011243	0.00804938	
0.0057482	0.00817296	0.00627793	
0.000479336	0.000674248	0.00194979	
-0.00394855	-0.0158595	-0.0102096	
-0.00171405	-0.00521362	-0.003177	
-0.000701426	-0.00241471	8.27575e-05	
0.000305619	-6.62938e-05	9.40119e-05	
0.000216239	-0.000285836	0.000589732	
0.000329653	-0.000147649	0.000202226	
2.89201e-05	-0.00036605	0.00138869	
2.3801e-05	-6.4781e-05	0.000142366	
0.0117409	0.0206813	0.0140427	
0.00561123	0.00796518	0.00572662	
0.0106484	0.0158015	0.00978887	