<VTKFile type="UnstructuredGrid" version="0.1" byte_order="LittleEndian">
	<UnstructuredGrid>
		<Piece NumberOfPoints="13764" NumberOfCells="13764">
			<CellData Scalars="scalars">
				<DataArray type="Float64" Name="Strength" NumberOfComponents="3" Format="ascii">
-0.00864418	-0.0142807	0.014235	
-0.0100115	-0.00756084	-0.0289997	
0.00299372	0.0734836	0.0006698	
0.00534411	-0.00716997	-0.00646865	
0.00644053	-7.75006e-07	-0.0110225	
0.0159255	0.0533898	-0.0346395	
0.0122867	0.0842871	-0.0369218	
0.00108002	0.0151934	-0.0195701	
0.0138174	0.0825274	-0.0382246	
0.00393053	0.0281891	-0.0279662	
0.0012409	0.0209004	0.0409068	
0.00468535	-0.00318767	-0.00124079	
-0.00724415	0.0432192	0.00611752	
-0.000110551	0.00234416	0.00130988	
0.010897	0.0690052	-0.0401476	
0.00725278	0.0864661	-0.0279214	
0.00425543	0.0967478	0.00702187	
0.000458983	0.0561339	-0.0431386	
0.00323682	0.0189273	0.0255176	
0.00373726	-0.0107616	0.00914317	
-0.00975951	0.03768	0.0130353	
0.00294177	-0.00276188	7.77885e-05	
0.00309641	-0.00483978	0.0101569	
0.000831399	0.00192596	-0.00152401	
-0.00538445	0.0512434	0.00102647	
-0.000966463	-0.0125406	0.00420108	
0.00479578	0.0876029	-0.0266433	
0.000865675	0.0380779	0.0217868	
0.00504174	0.0884619	0.00410444	
-0.00598755	0.0399087	-0.031726	
-0.00478354	0.0529303	0.0154986	
0.00308106	0.0924271	-0.00587313	
0.000268142	0.000607094	4.24832e-05	
0.00338054	0.0879535	-0.0163543	
-0.0169056	0.0779938	0.0147457	
0.0144868	0.00238229	0.0167767	
-0.0113432	0.0546662	0.0269464	
-0.0132548	-0.00709486	-0.0244869	
-0.0761021	-0.122318	-0.0293687	
0.0165166	0.0158726	0.0474478	
0.000680758	0.0114953	-0.0141471	
0.0158743	-0.0132701	0.0522211	
0.00103425	-0.0232732	0.0650826	
-0.0153137	-0.0169889	0.0570914	
0.0193169	-0.0160883	0.0510297	
0.0114268	-0.0145854	0.0377671	
0.0126199	0.000907461	0.0160994	
0.0103869	-0.0107183	0.056743	
-0.0281135	-0.0176448	0.0263602	
0.0120472	-0.00405046	0.0485371	
0.00242175	-0.0101596	0.0267786	
0.0107377	0.00944806	0.0540665	
0.00728726	0.00399863	0.0404623	
0.0193995	-0.0225812	0.0422953	
0.0150463	-0.0218522	0.0221513	
0.00219294	-0.0196188	0.00496818	
0.00886322	-0.0186408	0.054948	
0.0165542	-0.00216075	-0.0424599	
-0.00302114	-0.0218119	0.0146047	
0.00169666	0.00175589	0.0198745	
0.0115948	-0.00827196	0.0586678	
-0.00663873	0.00739551	-0.0204856	
0.023376	0.00398109	0.0383825	
0.00543389	0.00607293	0.0314872	
0.00954321	0.0137772	0.0161208	
0.0178587	-0.0227353	0.0737212	
-0.0024746	0.010409	0.0401336	
-0.00223262	0.000987122	0.0192601	
0.00800873	0.00915028	0.0437894	
0.00394742	0.0084696	-0.0107444	
0.00098616	0.000595095	-0.00483461	
0.00143668	-0.00360436	0.0252377	
0.0143115	-0.019652	0.0518443	
0.00837508	-0.00206675	0.0524022	
0.0177588	-0.0584529	-0.00303364	
-0.000836796	0.0116374	-0.0355126	
-0.00940321	0.00101753	-0.031912	
-0.00622	-0.0424076	-0.0129207	
-0.0100828	0.0146028	-0.0098491	
-0.0162669	0.0105164	-0.0221889	
0.00491798	-0.00605774	-0.0538667	
0.00705602	-0.0116897	-0.0576853	
0.00269894	-0.00963501	0.0014002	
0.0012153	-0.00723001	0.00172184	
0.000265766	0.000838522	-0.00351917	
0.00165597	0.00434116	0.00648804	
0.00830855	-0.0243018	-0.0655871	
-0.0166483	-0.0144382	-0.0471111	
-0.0205739	-0.0400334	-0.0282288	
0.00869551	-0.0404856	-0.0601823	
0.00100841	-0.00494878	0.000844726	
0.000546563	-0.00605428	-0.00066248	
0.000835473	-0.00531283	-0.00169085	
-0.00201755	0.00520383	-0.00470039	
0.00219052	-0.00165999	0.002935	
-0.00192948	-0.0024464	-0.000161968	
0.0013109	0.000406802	-0.00252064	
0.00595649	-2.65062e-05	-0.00931821	
-0.0157009	-0.0485427	-0.00270349	
0.0529731	-0.0532986	-0.0478812	
0.0104893	-0.0461269	-0.0550304	
0.00146395	-0.0530854	-0.0468116	
-0.00563523	-0.000897879	-0.0350335	
-0.00770294	-0.0557054	-0.0217637	
0.00524543	-0.0477381	-0.0505939	
0.00188417	0.000997611	-0.0428215	
0.0120401	-0.0488123	-0.0336363	
0.00455403	-0.0623211	-0.049758	
0.00195838	-0.0116767	-0.0136914	
1.16835e-06	6.77804e-06	9.18202e-06	
0.00916516	0.00643039	-0.0197213	
-0.00164452	0.00348218	0.00650081	
0.011968	-0.0185822	-0.0204892	
-0.0216215	0.00156508	0.0265708	
0.0045231	-0.000734273	-0.0107388	
0.00713339	0.000914559	-0.0127546	
0.0208214	0.0141786	-0.00715393	
0.00465597	0.013524	-0.00200158	
0.00755573	0.00371557	-0.0117893	
0.0102899	0.0176538	-6.02191e-05	
0.0111332	0.00614683	-0.0116264	
0.0225953	0.003606	0.0410962	
-0.00123929	-0.00347783	0.00362148	
-0.000110486	0.00091125	0.028245	
-0.000453286	0.00195503	0.00112906	
0.00856415	0.0142787	-0.00365987	
0.00404344	0.0131517	-0.000508837	
0.00285347	0.0105405	0.00355732	
-0.000325773	0.00745563	-0.0075773	
0.0145338	0.00554193	0.0296518	
0.00317757	-0.00767295	0.0103343	
0.00458952	0.00475938	0.0323307	
-0.000148218	0.000182712	-0.000116692	
0.00414743	-0.00392663	0.0108325	
-0.000338552	-0.000239684	-6.59924e-05	
-0.00742084	0.000134687	0.0234124	
1.09413e-06	0.000187509	-7.16509e-05	
-0.00152459	0.0108099	-0.00224976	
0.00489683	0.00262257	0.00101462	
-0.00867587	0.00650011	0.00716061	
-0.00132084	0.00549821	-0.00611976	
-0.00358401	0.001581	0.0125047	
0.00403856	0.010782	0.00266715	
-0.00118428	-0.000461299	0.000537878	
-0.000600038	0.0102679	-0.000217649	
0.00421652	0.00536726	0.0055503	
0.00242356	-0.00115244	-0.000766851	
0.00465124	0.00410968	0.00368292	
-0.00202713	-0.0127386	-0.00498116	
0.0238198	-0.101648	-0.121791	
-0.0106216	-0.00263347	0.00242766	
0.000974553	0.00676801	0.00161894	
-0.00325522	-0.00427131	0.00397881	
0.0122322	0.00534668	0.0164825	
-0.0261558	-0.0101082	0.00506409	
0.011029	0.00162197	0.00422944	
-8.09346e-05	-0.0082387	-0.000239004	
-0.00127131	0.00027827	0.00692263	
0.00105262	-0.000861329	0.00776936	
-0.0010443	-0.0045365	-0.0124577	
0.0105674	0.00205397	0.00629043	
-0.00118309	-0.00241924	0.00470771	
0.00916539	0.00397119	0.00979354	
0.00910173	0.00334161	0.00580327	
0.000604671	-0.00300946	0.00480495	
-0.00327462	-0.0157439	-0.0077188	
0.00141423	-0.00569021	-0.00110497	
-9.34722e-05	-0.00250173	0.00654092	
-0.00210479	0.00124389	-0.000243718	
0.00197493	-0.00184807	0.00134207	
-4.16706e-05	0.00228103	0.000702197	
-0.00104509	-0.00253263	0.0057225	
-0.000453102	0.000479738	-0.00132897	
0.0225592	0.0116957	0.0150912	
0.00848306	0.00489722	0.00457835	
0.0123021	0.0150052	0.00599936	
0.0275038	0.00782221	0.0182826	
-0.00154787	0.00211855	0.00537899	
-0.00016347	0.00014348	0.000778558	
-0.000997311	0.00211387	0.00657935	
0.00220076	0.00615425	0.001324	
0.000277005	3.82375e-05	-0.000923563	
0.000144142	-0.000140738	0.00617624	
0.000128848	-0.00301473	0.00532947	
-0.00129706	-0.00146787	0.00728626	
0.03021	-0.0152458	-0.00332099	
0.00996519	-0.00722905	-0.0228933	
-0.0130232	0.0190026	-0.00402277	
0.000569806	-0.00643928	-0.00175587	
-0.00530927	0.0208608	-0.00279758	
-0.0110052	0.0263619	-0.00146246	
-0.0104813	-0.000559454	-0.0145873	
-0.00785624	-0.00104265	-0.010965	
0.000934491	-0.00623934	0.00546528	
-0.000145243	-0.00343386	0.00368445	
-0.000787018	0.00266996	0.000141837	
-0.000772474	0.00266409	0.00245374	
0.000766816	-0.00152363	-0.00816432	
-0.0339519	-0.00428959	-0.0250603	
-0.0220922	0.0179386	-0.0102624	
0.00265472	-0.00425514	-0.00835626	
0.000955169	-0.00303024	0.00302679	
0.000589953	-0.00243765	0.00307498	
0.000294108	-0.00244387	0.0022545	
-0.0011354	0.00830529	-0.00176252	
-4.85993e-05	0.00144427	0.00036707	
0.00104567	0.000135385	0.000207726	
-0.000317596	-0.000121667	0.000751341	
-0.000328247	8.5987e-06	0.00033927	
-0.00159926	-0.00514037	0.000851149	
0.0538708	-0.0422105	-0.0239241	
0.00492014	-0.00551657	-0.00823119	
-0.00168636	-0.00737461	-0.00560203	
-0.0102506	0.0140678	-0.00614471	
-0.00137172	-0.00214656	-0.00146683	
0.00060423	-0.00695977	-0.00687588	
0.00112547	0.000201932	-0.00108194	
0.013012	-0.00739843	-0.00711714	
0.000401879	-0.00589994	-0.00414553	
0.000421117	-0.00326217	-0.00270812	
0.000114412	0.000711358	0.00105532	
0.000130395	4.01517e-05	-0.000112505	
-0.00190744	0.003786	0.00619661	
0.0126807	-0.0226335	-0.011673	
-0.000963747	-0.00525769	0.0344605	
0.00567333	-0.00121902	-0.0102774	
0.00846845	-0.000490069	-0.0117409	
0.0194926	0.000950191	-0.0144583	
0.00291376	0.00238557	-0.006911	
0.00882115	0.000607527	-0.0102524	
0.00950218	0.00243776	-0.0124162	
0.011397	0.000692342	-0.010646	
0.0108174	0.0110833	0.0452616	
0.00127957	-0.00152853	0.00556106	
0.00165932	0.00107516	0.0289805	
-5.45855e-05	0.00281197	0.00123148	
0.00802085	0.00188407	-0.00891781	
0.00193616	0.00236329	-0.00622505	
0.000463119	0.00322176	-0.00258836	
-0.000809704	0.00181095	-0.00207954	
0.00899944	0.00836033	0.0318567	
0.00426176	-0.00718022	0.010559	
0.00341981	0.00390802	0.0335824	
0.000119624	4.41146e-05	0.00019113	
0.00481569	-0.0047085	0.0110515	
0.000114465	8.2313e-05	9.20732e-05	
-0.0014786	-0.00145383	0.0248249	
-4.27168e-06	6.76473e-05	-2.83438e-05	
-0.000743179	0.00295863	0.000426769	
0.00152864	0.000830991	-9.84032e-05	
-0.000318354	0.000558637	0.0109584	
-0.000648081	0.00126225	-0.00168501	
-0.000224183	-0.000866523	0.0126743	
0.000448582	0.00327897	-0.00539808	
-0.000351242	-0.000452797	4.98517e-05	
-0.00021041	0.00279981	-0.000461438	
0.00149147	0.0019759	0.000116085	
0.00115	-0.000364095	-0.000291078	
0.00160861	0.00140855	7.06513e-05	
-0.00227103	-0.0132079	-0.00373466	
-0.0220924	-0.091564	-0.138531	
-0.00380513	-0.00776432	-0.000135623	
0.00165611	0.00624887	0.00266543	
-0.0017455	-0.00279252	0.000583707	
0.00731544	0.0144319	0.00800486	
-0.0141921	-0.023536	-0.00340792	
0.00640787	0.00833717	0.00274872	
-0.00222798	-0.00659684	-0.00419039	
0.00216847	0.000302759	0.00586877	
0.00136785	0.00306753	0.00366899	
-0.00328111	-0.00983144	-0.0101891	
0.00720299	0.0082088	0.00418283	
-0.000636995	-0.00214681	0.00112047	
0.00394	0.0112051	0.00488448	
0.00704146	0.00733717	0.00356647	
0.000289934	-0.000707702	0.00159893	
-0.00531633	-0.015176	-0.0098903	
-0.00106936	-0.00462247	-0.00370999	
-0.000120947	-0.00043231	0.0020342	
-0.000396459	0.000503816	-0.000178676	
0.000489507	-0.000563068	0.000477424	
-0.000629553	0.000322719	0.000196622	
-0.000252851	-0.00012385	0.00187521	
-0.000139751	0.000151241	-0.000398903	
0.0114772	0.0231019	0.010297	
0.00706814	0.00731612	0.00276273	
0.0117285	0.0160363	0.00509902	
0.00934595	0.0290315	0.00810742	
-0.00091923	0.000396972	0.00168062	
4.84656e-05	-4.66368e-05	-0.000168755	
-0.000916757	0.000554772	0.00206065	
0.00247065	0.00586895	0.00224516	
0.000191042	-1.43464e-05	-0.000527787	
-9.59635e-05	-4.63237e-05	0.00208757	
8.08895e-05	-0.000498197	0.00164475	
-0.000467495	8.82938e-05	0.00241955	
0.0318232	-0.0126274	-0.00109959	
0.0114027	-0.00608202	-0.02531	
-0.00581748	0.0228252	-0.00123233	
0.00149053	-0.00281664	-0.000236366	
-0.00592326	0.0204318	-0.0034245	
-0.00763325	0.0276641	-0.000256588	
-0.00788183	0.00982063	-0.0119008	
-0.00692531	0.00787342	-0.00749755	
0.00193783	-0.0076398	0.00373091	
0.000507226	-0.00481829	0.00250752	
-0.000484311	0.00239619	-0.000909905	
0.000159937	0.000833071	0.00397718	
2.21484e-05	0.000115822	-0.00250386	
-0.0261444	0.0217961	-0.0277115	
-0.00837314	0.0257507	-0.0145061	
0.00148935	-0.00234594	-0.00185952	
0.000933527	-0.00403505	0.00162508	
0.000755371	-0.00377071	0.00189331	
9.55985e-05	-0.00349662	0.000797668	
-0.00186556	0.00736101	-0.0026676	
0.000124134	0.000398022	-3.38354e-05	
-0.000255389	-0.000109839	-3.49298e-05	
-0.000163477	5.6615e-05	-0.000128247	
0.000261539	-4.80663e-06	-0.000264687	
-0.000643472	-0.00146759	0.00051499	
0.0342344	-0.0592374	0.0218332	
0.00385761	-0.00388899	-0.00109579	
-0.0013478	-0.00196684	-0.00212761	
-0.00405321	0.0177963	-0.00380823	
-0.00054359	-0.000588248	-0.00039753	
9.93797e-05	-0.00233347	-0.00207822	
0.000541965	-9.39076e-05	-0.000382548	
0.0126506	-0.00610147	0.000397364	
3.66166e-05	-0.00194783	-0.00116034	
-6.53653e-05	-0.00088605	-0.00069416	
-3.95314e-05	-0.000211784	-0.000325648	
0.000363754	5.03692e-05	-0.000290775	
-0.00225588	0.00406027	0.00570068	
0.0163444	-0.0201462	-0.00754774	
-0.00623449	0.000501342	0.0350729	
0.00615302	-0.0010493	-0.0102259	
0.00838226	-0.000959169	-0.0121848	
0.0127494	-0.0052602	-0.0211318	
0.000941518	0.00105885	-0.00828885	
0.0079867	-0.000865548	-0.0113941	
0.00423513	-0.00158031	-0.0156788	
0.00931947	-0.00180896	-0.0129607	
0.0142476	0.00974214	0.045606	
0.00250303	-0.001892	0.00577552	
0.000973531	0.00161752	0.0294521	
-0.00257125	0.00202836	0.0026886	
0.00346038	-0.00110827	-0.0120924	
0.00115679	0.00184981	-0.0070232	
0.000998946	0.00345528	-0.00257007	
-0.00132153	0.00187985	-0.00206106	
0.00955648	0.00882117	0.0322275	
0.00345359	-0.00559395	0.0119845	
0.00316471	0.00444044	0.0340668	
-1.81885e-05	-4.98735e-05	-0.000158999	
0.00463277	-0.0047824	0.0116944	
-0.000136783	-1.35434e-05	0.000106403	
-0.00233485	-0.000835189	0.025453	
-2.42322e-05	0.000247499	-0.000112903	
-0.000918309	0.00355569	-0.000337847	
0.00143472	0.000928929	-0.000103596	
-0.00282143	0.00298676	0.0106355	
-0.000950883	0.00120358	-0.00155832	
-0.00142986	5.97522e-05	0.0131524	
0.00179212	0.00330675	-0.0056628	
-0.000353522	-0.000443146	0.0001056	
-0.000192921	0.00334577	-0.00112762	
0.00171362	0.00230096	8.954e-05	
0.00122217	-0.000302434	-0.000308223	
0.00173649	0.00157577	0.000147005	
-0.00344258	-0.0133257	-0.00300328	
-0.0170904	-0.0345974	-0.169508	
-0.00410332	-0.00585803	-8.01769e-05	
0.00239206	0.00586534	0.00267739	
-0.00173935	-0.00266281	0.000621655	
0.00703598	0.0135183	0.00800008	
-0.009716	-0.0248705	-0.00424349	
0.00480776	0.00961252	0.00335951	
-0.00253058	-0.00681425	-0.00429855	
0.00489974	0.00200147	0.00443052	
0.00179737	0.00343404	0.00413404	
-0.00621066	-0.00678018	-0.0110339	
0.00514803	0.0100181	0.00438559	
-0.000251053	-0.00186814	0.000904748	
0.00574533	0.0111977	0.00512061	
0.00516571	0.00924776	0.00341097	
0.00056615	-0.000459387	0.00189249	
-0.00550151	-0.0157412	-0.00954641	
-0.0012837	-0.00513329	-0.00304982	
-0.000433696	-0.00114868	0.00165065	
-0.00060631	0.000197523	-0.000292348	
0.000740984	-0.000452754	0.000399039	
0.000375319	0.00027949	-0.000588148	
-0.00023052	-0.000187424	0.00187026	
-0.000105	0.000119062	-0.00029164	
0.012523	0.0219688	0.0116081	
0.00559944	0.00891614	0.00244242	
0.0108786	0.0171366	0.00465001	
0.0139758	0.0261079	0.00887221	
-0.000718435	0.000314286	0.00150346	
3.94142e-05	-3.31227e-05	-0.000116218	
-0.000729011	0.000527079	0.0018548	
0.00291802	0.00569654	0.00229072	
0.000198988	-3.25864e-05	-0.000506413	
-9.41756e-05	-0.000120574	0.00165916	
9.36203e-05	-0.000591649	0.00170305	
-0.000376492	4.12883e-05	0.00231764	
0.0320366	-0.013495	0.00515236	
0.0120556	-0.00457076	-0.0240403	
-0.0076503	0.0227613	-0.00178028	
0.00127597	-0.0029011	0.000827683	
-0.00586905	0.0208658	-0.00324924	
-0.00870515	0.0278282	-0.000346685	
-0.00455136	0.0131193	-0.010688	
-0.00432072	0.0103294	-0.00692224	
0.00157258	-0.00716447	0.00419854	
0.000322101	-0.0044532	0.00275359	
-0.000599428	0.00257788	-0.000629751	
-0.00201921	0.000836298	0.00303946	
0.000278614	0.000102471	-0.00252708	
-0.0160916	0.0307655	-0.0287915	
-0.0127581	0.0238983	-0.0156028	
0.000687315	-0.00252006	-0.00171815	
0.00088605	-0.00365652	0.00197751	
0.000689709	-0.00338291	0.00220054	
0.000215592	-0.00314115	0.00134193	
-0.00171738	0.00773595	-0.0024723	
0.000138461	4.54795e-05	7.3667e-05	
0.000105848	3.54576e-05	1.62831e-05	
-2.18328e-05	-8.20228e-05	2.96273e-05	
9.83244e-05	-2.60495e-06	-0.000105598	
-0.000854411	-0.00119884	0.00062034	
0.0315611	-0.0615258	0.0193387	
0.00238485	-0.00501007	-0.000168072	
-0.000564757	-0.00197431	-0.00198183	
-0.00600853	0.0173223	-0.00485029	
-0.000560334	-0.000786836	-0.000442216	
-4.03959e-05	-0.00235607	-0.00196697	
0.000576454	-6.39427e-05	-0.000445565	
0.0100312	-0.00808084	0.00505414	
-0.00015323	-0.00192684	-0.00099569	
-0.000129931	-0.000829446	-0.000778429	
7.71878e-06	4.18173e-05	6.43407e-05	
0.000248307	4.25505e-05	-0.000212973	
-0.00275539	0.00389468	0.00547852	
0.0194189	-0.0166984	0.00189178	
-0.00741618	0.000213385	0.0356478	
0.00651976	-0.000994297	-0.0105237	
0.00800741	-0.00125137	-0.0129477	
0.0105947	-0.00642628	-0.0228863	
0.00237062	0.00135273	-0.00786337	
0.0070424	-0.00179911	-0.0125431	
0.00659372	-0.000725492	-0.0150262	
0.0076857	-0.00306859	-0.0144747	
0.0142389	0.0112492	0.0462462	
0.00308301	-0.00437717	0.00474046	
0.0016274	0.0030261	0.0297844	
-0.00241252	0.00416496	-0.000523008	
0.00468924	-0.00108	-0.0117688	
0.00217777	0.00185088	-0.00659831	
0.00121851	0.00342294	-0.00278298	
-0.00140915	0.00201096	-0.00216045	
0.00966652	0.00999247	0.0325939	
0.00448327	-0.00571646	0.0118173	
0.00336039	0.00556176	0.0348241	
0.000124514	0.000119129	-1.92023e-05	
0.0039915	-0.00504261	0.0123973	
7.12832e-05	0.000129411	2.34957e-05	
-0.00266914	-0.000198237	0.0261515	
-1.55948e-05	0.000120309	-5.89511e-05	
-0.000909792	0.00321786	-0.000100268	
0.0015434	0.00100364	-0.000134801	
-0.00307183	0.0027672	0.0109141	
-0.00124565	0.00142171	-0.00183711	
-0.00154761	0.000426017	0.0137083	
0.00194468	0.00323565	-0.00558675	
-0.00032551	-0.000397505	9.23104e-05	
-0.000169619	0.00308264	-0.00092591	
0.00184737	0.00246753	0.000190907	
0.00118564	-0.000330197	-0.000244208	
0.00186198	0.0017279	0.000216973	
-0.00462575	-0.0132537	-0.00240875	
-0.00672207	-0.0881325	-0.157175	
-0.00340105	-0.00504232	-6.99742e-07	
0.0029794	0.00556033	0.00274048	
-0.00162209	-0.00258937	0.000427461	
0.00667528	0.0133074	0.00763566	
-0.0119124	-0.0233031	-0.00438491	
0.00564766	0.00932996	0.00326334	
-0.00255268	-0.00704043	-0.00471415	
0.000836954	0.00147396	0.00551097	
0.00184037	0.00375591	0.00412294	
-0.00623504	-0.00384646	-0.0118806	
0.00593885	0.00974471	0.00444588	
-0.000310669	-0.0014658	0.000684706	
0.00636378	0.0117367	0.00515696	
0.0053039	0.00935592	0.00349643	
0.000571118	-0.000305381	0.00172376	
-0.00574546	-0.0153394	-0.00992316	
-0.00477683	-0.00282389	-0.00262636	
-0.000480597	-0.00123689	0.00123235	
0.000436339	8.1924e-05	-9.14967e-05	
0.000562135	-0.000560896	0.000379038	
8.22831e-05	0.000557229	-0.000234531	
-0.000204696	-0.000176215	0.00169093	
-9.01971e-05	0.00010607	-0.000245428	
0.0127556	0.0219942	0.0115695	
0.00532514	0.00927388	0.00249899	
0.0103452	0.0177563	0.00466477	
0.0135876	0.0258227	0.00849333	
-0.000592726	0.000287996	0.00125298	
1.90233e-06	-3.24437e-06	-8.13551e-06	
-0.00064177	0.000462584	0.0016038	
0.00314914	0.00557256	0.00250139	
0.000108917	-2.07856e-05	-0.000274153	
-9.62496e-05	-0.000141503	0.00133917	
6.74597e-05	-0.000577345	0.001596	
-0.000309002	4.15803e-05	0.00193391	
0.0307324	-0.014199	0.0115267	
0.0124757	-0.00400825	-0.0240163	
-0.0079035	0.0229921	-0.00160198	
0.00114338	-0.00284464	0.0016162	
-0.00595152	0.0209691	-0.0034203	
-0.0086702	0.0280854	-0.000691165	
-0.00544134	0.013066	-0.0106797	
-0.00522307	0.0101216	-0.00687446	
0.0016778	-0.00722925	0.00399095	
0.000340617	-0.00453593	0.00264365	
-0.000594928	0.00261611	-0.000707035	
-0.00207721	0.000451957	0.00313578	
0.000104656	0.00023938	-0.00224759	
-0.0188961	0.0310496	-0.0285349	
-0.0131538	0.0245455	-0.0151774	
0.000580045	-0.00223129	-0.00160442	
0.000879884	-0.00368806	0.00182837	
0.000733021	-0.00348307	0.00206057	
0.000150978	-0.0032256	0.00118317	
-0.00177238	0.00773136	-0.00253518	
-6.55657e-06	-9.54439e-06	-1.87092e-06	
-1.08727e-05	-3.89925e-06	-1.71056e-06	
-3.89249e-06	5.39885e-06	-2.34607e-06	
0.000104778	-1.85777e-06	-0.000110915	
-0.000803589	-0.000731276	0.000475171	
0.0352363	-0.0597026	0.0165713	
0.00210148	-0.00484653	0.00024219	
-0.000199493	-0.00192016	-0.00145558	
-0.00625784	0.0175082	-0.00463157	
-0.000380768	-0.000532905	-0.000324565	
-7.33424e-05	-0.0019444	-0.00162654	
0.000379104	-4.49722e-05	-0.000300476	
0.00793682	-0.00848129	0.00722717	
-0.000206737	-0.00171559	-0.00086048	
-0.00013151	-0.000739667	-0.000755249	
-5.31901e-06	-2.94243e-05	-4.54657e-05	
0.000192939	3.16579e-05	-0.000169387	
-0.00271086	0.00414978	0.00482742	
0.0179891	-0.0142859	0.00991567	
-0.00622654	-0.00169846	0.0366056	
0.00641686	-0.000747746	-0.0109751	
0.00759606	-0.00174429	-0.0134986	
0.0123258	-0.00628987	-0.0223518	
0.00266359	0.000897898	-0.00797601	
0.00651199	-0.0021036	-0.0129061	
0.00687505	-0.0010559	-0.0149142	
0.00745677	-0.0035796	-0.0145099	
0.0149988	0.012037	0.0462898	
0.00313142	-0.00354048	0.00574045	
0.00267012	0.0023484	0.0304377	
-0.00298636	0.00399979	-0.00120035	
0.00516803	-0.00102006	-0.0116385	
0.00234531	0.00146481	-0.00684902	
0.000760033	0.00266396	-0.00163652	
-0.000961252	0.00141141	-0.00149456	
0.010052	0.0104215	0.032801	
0.00465339	-0.00446473	0.0124128	
0.00409501	0.00529092	0.0354481	
-6.11235e-05	3.5345e-05	3.46899e-05	
0.00514116	-0.00535045	0.0122128	
5.90182e-06	6.49753e-05	1.51448e-05	
-0.00193339	-0.000970395	0.0267247	
-8.00514e-05	0.000553871	-0.000283137	
-0.000909401	0.00317439	8.28665e-05	
0.000805605	0.000510091	-0.00011071	
-0.00279605	0.00140848	0.0115554	
-0.000847445	0.000956292	-0.00122483	
-0.00155812	-0.000397346	0.0141789	
0.00176079	0.00283685	-0.00538334	
-0.000129192	-0.000197087	2.5732e-05	
-0.000146266	0.00292087	-0.000861039	
0.0010858	0.00142398	7.20231e-05	
0.000512337	-0.0001432	-0.000125429	
0.00103248	0.000931833	6.93249e-05	
-0.00525958	-0.0130844	-0.00172038	
0.00585516	-0.0472977	-0.177741	
-0.00313394	-0.00492326	-0.000169932	
0.00335274	0.00539465	0.0030935	
-0.00155974	-0.00269099	4.03246e-05	
0.00640261	0.0133328	0.00734298	
-0.0114852	-0.0233964	-0.00401649	
0.00575065	0.00936918	0.0038854	
-0.00254298	-0.00729534	-0.00504408	
0.00241315	-0.00266463	0.00398095	
0.00170553	0.00377727	0.00377354	
-0.00845792	-0.00217287	-0.0110256	
0.0058236	0.00974976	0.00528307	
-0.000158063	-0.00129456	0.000869912	
0.00630324	0.0122	0.00502988	
0.00531818	0.00928872	0.00442661	
0.000349051	-0.000312767	0.00113373	
-0.0047983	-0.0155596	-0.0101646	
-0.00245221	-0.00409143	-0.00397452	
-0.000375201	-0.00101657	0.000830381	
0.000246597	0.000146992	-0.000112351	
0.000491093	-0.00035955	8.12547e-05	
0.000275716	-0.000266851	-3.73122e-05	
-0.000161095	-0.000154944	0.00143957	
5.99697e-06	-6.91272e-06	1.64277e-05	
0.0126313	0.0224506	0.0113267	
0.00536735	0.00938643	0.00359662	
0.0101382	0.0182379	0.00553189	
0.0129726	0.0262584	0.00826223	
-0.000611036	0.000313353	0.00127545	
-0.000268278	0.000190828	0.00076662	
-0.000563958	0.000411978	0.00137898	
0.00318042	0.00561385	0.00297442	
-0.000156022	2.87767e-05	0.000389232	
-0.000110067	-0.000122404	0.00135721	
6.47918e-05	-0.000458306	0.00126476	
-0.000255855	4.2201e-05	0.0015571	
0.0283335	-0.0159697	0.0168883	
0.0118176	-0.00444921	-0.023922	
-0.00783473	0.0232739	-0.00148021	
0.000886138	-0.00292563	0.00191645	
-0.00595437	0.0211413	-0.00346342	
-0.00879552	0.0282657	-0.000944909	
-0.00602566	0.0134151	-0.0102676	
-0.00574374	0.0103751	-0.00639102	
0.00164365	-0.00711636	0.00399248	
0.000195949	-0.00448312	0.00263902	
-0.000605948	0.0026854	-0.000688538	
-0.00213041	0.00126539	0.00278089	
-0.000133098	0.00050671	-0.00169024	
-0.0200555	0.0329628	-0.0269419	
-0.013001	0.0252157	-0.0148493	
0.000656561	-0.00185661	-0.00124784	
0.000872751	-0.00359571	0.00183076	
0.00072184	-0.0034209	0.00207787	
0.000182931	-0.00315701	0.0012502	
-0.00176906	0.00782643	-0.00253321	
4.42403e-05	7.19399e-06	6.28859e-06	
2.67994e-05	9.58399e-06	4.50613e-06	
-7.49275e-06	-2.28849e-05	5.10399e-06	
8.5191e-05	-2.13983e-06	-9.02503e-05	
-0.00111948	-0.000800461	0.000579551	
0.0353137	-0.0594647	0.0163144	
0.00243668	-0.00424611	0.000340606	
-0.000104551	-0.00163551	-0.00118921	
-0.00616859	0.0176701	-0.00451692	
-0.000288722	-0.00039899	-0.000257324	
-3.34946e-05	-0.00146043	-0.00130311	
0.000294566	-3.78673e-05	-0.000236035	
0.00710816	-0.00859747	0.00792147	
-0.000250246	-0.00172023	-0.000897983	
-9.81762e-05	-0.000471512	-0.000506177	
-1.01149e-06	-5.68553e-06	-8.68362e-06	
0.000161378	2.60191e-05	-0.000142558	
-0.00296822	0.00380545	0.00479617	
0.0168807	-0.0170999	0.00434167	
-0.00505782	-0.00283894	0.0371071	
0.00683095	-0.00128228	-0.0108148	
0.0077302	-0.00207845	-0.0131857	
0.0126184	-0.00668889	-0.0223826	
0.002587	0.000138772	-0.00732612	
0.0072303	-0.00252203	-0.012452	
0.00701359	-0.00176485	-0.0149609	
0.00808542	-0.00373894	-0.0141723	
0.015189	0.0121856	0.0464833	
0.00230326	-0.00420428	0.00587662	
0.00291602	0.0022019	0.0307625	
-0.00398556	0.00332011	-0.00134656	
0.00543521	-0.00173176	-0.0114575	
0.00211509	0.00032556	-0.00605827	
0.000681058	0.00102616	-0.00127768	
-0.000642602	0.000931321	-0.000979495	
0.0106113	0.0106585	0.0327923	
0.00496079	-0.00469897	0.0122582	
0.00431942	0.00542287	0.0357041	
9.6633e-06	-3.44577e-05	6.41821e-05	
0.00504887	-0.00617159	0.0120485	
-8.67331e-06	5.2517e-05	2.58323e-05	
-0.00144279	-0.00117128	0.026881	
-2.27931e-05	0.000138742	-7.12637e-05	
-0.000749343	0.00152862	0.00102601	
0.000447406	0.000280246	-7.30081e-05	
-0.00239917	0.000267772	0.0118623	
-0.000529888	0.000596555	-0.000749077	
-0.00146706	-0.000818084	0.0143561	
0.00165592	0.00099077	-0.00501084	
-9.83722e-05	-0.000135118	1.3153e-05	
-5.00434e-05	0.00109852	-0.00032487	
0.000494082	0.000648532	1.13713e-05	
0.00032689	-9.05164e-05	-8.32613e-05	
0.000477652	0.000428746	1.69987e-05	
-0.00625955	-0.013025	-0.00182516	
0.00720027	-0.0622219	-0.176311	
-0.00208535	-0.00337693	-0.000149325	
0.00352923	0.00539404	0.00222517	
-0.00129137	-0.00248798	-0.000476823	
0.00561294	0.0124169	0.00621458	
-0.0114722	-0.0224788	-0.00531288	
0.00553208	0.00967092	0.00237698	
-0.00242758	-0.00725151	-0.0055194	
0.000431028	-0.00225133	0.00515501	
0.00190421	0.00485777	0.00374564	
-0.000629988	-0.00140884	-0.0143662	
0.00630808	0.00984926	0.0037564	
-0.000257184	-0.000740246	0.000112268	
0.00696428	0.0128173	0.00421709	
0.00611973	0.00910275	0.00298401	
0.000716344	0.000628461	0.00171157	
-0.00561961	-0.0153183	-0.011206	
-0.00229798	-0.00417339	-0.00425287	
-0.000803171	-0.00217565	-5.91809e-05	
0.000181154	0.000126712	-7.63165e-05	
0.000274375	-0.00030471	0.000147584	
0.000159294	-0.000230825	0.000163062	
-7.5122e-05	-7.9241e-05	0.000701463	
-0.000174454	0.000206415	-0.000460157	
0.0127456	0.0224592	0.0106035	
0.00607524	0.0089725	0.00203316	
0.0107752	0.0178778	0.00424826	
0.0124158	0.0252811	0.00694917	
-0.000247346	0.000125901	0.000514681	
0.000274736	-0.000192856	-0.000801291	
-0.000381209	0.000273128	0.000918482	
0.00355648	0.00561233	0.00190846	
0.000328849	-6.81195e-05	-0.000851732	
-5.65675e-05	-5.23182e-05	0.000629846	
2.30877e-05	-0.000217515	0.000591001	
-0.000210653	2.795e-05	0.00130988	
0.0267118	-0.0163387	0.0190251	
0.0118335	-0.00435006	-0.0237894	
-0.00781808	0.0233889	-0.00142632	
0.0017156	-0.00241664	0.00217058	
-0.00591565	0.021176	-0.00347523	
-0.00866026	0.0284242	-0.00104606	
-0.00621653	0.0137259	-0.00997109	
-0.00607272	0.0107407	-0.00608301	
0.00167051	-0.00707944	0.00392986	
0.000185684	-0.00450194	0.00256436	
-0.000618507	0.00272461	-0.000692951	
-0.00191381	0.00145836	0.00283907	
-9.49562e-05	0.000431394	-0.00134534	
-0.0200758	0.0342541	-0.0264567	
-0.0129759	0.0256868	-0.0147089	
0.000386351	-0.00113323	-0.000827818	
0.000876209	-0.00355653	0.001792	
0.000684802	-0.00342892	0.00204631	
0.00018815	-0.00315007	0.00123189	
-0.00177707	0.00786938	-0.0025644	
1.78194e-05	2.79759e-06	-7.82223e-07	
9.53694e-06	3.46099e-06	1.61499e-06	
-4.00073e-06	-8.70758e-06	1.27622e-06	
4.10509e-05	-1.88694e-06	-4.42253e-05	
-0.000164303	-0.000103257	7.51691e-05	
0.0354058	-0.0592407	0.0158886	
0.00238411	-0.00410778	0.000412183	
0.000545547	-0.00178102	-0.000351355	
-0.00614173	0.0178292	-0.00442718	
-0.000176701	-0.000245841	-0.00016271	
-3.58506e-05	-0.00129859	-0.0012185	
0.000147505	-2.1045e-05	-0.000118998	
0.00722439	-0.00774658	0.00789351	
-6.63326e-05	-0.000489338	-0.000263388	
-6.82765e-05	-0.000328604	-0.000362374	
-2.03285e-06	-1.17014e-05	-1.79606e-05	
7.78011e-05	1.13779e-05	-6.96993e-05	
-0.00307615	0.00364736	0.004803	
0.0135922	-0.0182996	0.00741286	
-0.00494275	-0.00280695	0.0373595	
0.00691366	-0.0015194	-0.0109346	
0.00792521	-0.0021727	-0.0133531	
0.0123301	-0.00681649	-0.0231517	
0.00239108	-0.000174639	-0.00685358	
0.00710522	-0.00237485	-0.0128991	
0.00664823	-0.00215928	-0.0146249	
0.00795399	-0.00362838	-0.0146394	
0.0148782	0.0125264	0.046557	
0.00175244	-0.0042869	0.00633012	
0.00304849	0.00243578	0.0308889	
-0.00314587	0.00373014	-0.00317361	
0.00520595	-0.00180091	-0.0118975	
0.00191385	1.05893e-05	-0.00574397	
0.00064049	0.000952118	-0.00115712	
-0.000809688	0.00115365	-0.00121668	
0.0114848	0.0107182	0.0326355	
0.00501026	-0.00497133	0.0122076	
0.00439275	0.00591721	0.0358699	
1.21041e-06	3.06653e-05	3.79569e-05	
0.00480609	-0.00650994	0.0121034	
-1.72471e-05	6.05582e-05	6.70241e-06	
-0.0013801	-0.000912731	0.0270526	
-7.79015e-06	4.21605e-05	-2.20075e-05	
-0.000717487	0.00133229	0.0012618	
0.000423634	0.000267929	-7.33697e-05	
-0.00235147	0.000205139	0.0119778	
-0.000687354	0.000761464	-0.000960071	
-0.00146174	-0.000690423	0.0144219	
0.00156908	0.000907684	-0.00498071	
-0.000126138	-0.00015988	1.52676e-05	
-3.98949e-05	0.00096797	-0.000278553	
0.000469212	0.000618688	8.14573e-06	
0.000330661	-8.76214e-05	-8.33943e-05	
0.000467144	0.000426735	1.3563e-05	
-0.00596128	-0.0130635	-0.00118155	
0.0119998	-0.0272565	-0.188775	
-0.00228059	-0.00334177	0.000214537	
0.00356798	0.00535795	0.00305131	
-0.0014473	-0.00247635	0.000143638	
0.00578329	0.0123488	0.00697031	
-0.0105336	-0.02299	-0.00362484	
0.00568071	0.00971934	0.00447278	
-0.00269092	-0.00770699	-0.00530904	
-0.00121504	0.000247887	0.00515835	
0.00216294	0.00476692	0.00448859	
-0.00142111	-0.00190192	-0.0140584	
0.00576591	0.010184	0.00573066	
0.000186464	-0.000785054	0.00123892	
0.0065614	0.0130511	0.00516834	
0.0053993	0.0096951	0.00477102	
0.000847322	0.000414651	0.00192981	
-0.00464792	-0.0155069	-0.0109968	
-0.00112816	-0.00367632	-0.00516896	
-0.000954353	-0.00237175	0.00015308	
0.000320497	-9.03377e-05	2.10739e-05	
0.000568173	-0.000345336	0.000218819	
0.000365727	0.000155052	-0.000139762	
-0.000147622	-0.000169834	0.00144112	
5.24886e-05	-6.14625e-05	0.000140156	
0.0124691	0.0226088	0.011218	
0.00537622	0.00952517	0.00378533	
0.0102822	0.0184286	0.00603755	
0.0123544	0.0255979	0.00824697	