<VTKFile type="UnstructuredGrid" version="0.1" byte_order="LittleEndian">
	<UnstructuredGrid>
		<Piece NumberOfPoints="2220" NumberOfCells="2220">
			<CellData Scalars="scalars">
				<DataArray type="Float64" Name="Strength" NumberOfComponents="3" Format="ascii">
-0.0061349	-0.0163545	0.0124422	
0.0067447	-0.0089707	-0.0285106	
0.000921656	0.0703936	0.0155792	
0.00437035	-0.0062104	-0.0076092	
0.00577146	0.0012547	-0.0109934	
0.0148047	0.0562994	-0.0271889	
0.0158688	0.0870043	-0.0211821	
0.00544236	0.0195831	-0.0132545	
0.0175884	0.0842724	-0.0267409	
0.00758706	0.0340789	-0.0174894	
0.00668422	0.00587072	0.0444849	
0.00181123	-0.00398211	0.00366331	
-0.00394432	0.0403667	0.01557	
-0.000195228	-0.00195734	-0.00169868	
0.0129087	0.0747166	-0.0219399	
0.018556	0.0851444	-0.0194716	
0.0193571	0.09089	-0.0206964	
0.00594014	0.0678812	-0.0125859	
0.00301537	0.0124777	0.0287518	
0.00517378	-0.00559181	0.0122532	
-0.00239532	0.0332534	0.0227259	
0.00202779	0.000323924	0.000918733	
0.00263375	-0.00353122	0.0106547	
0.00149115	0.00199791	-0.00050542	
-0.0041539	0.049214	0.0107818	
-0.000406463	-0.0127703	0.00203365	
0.0162526	0.0869988	-0.0153452	
0.00968478	0.0416647	-0.00512432	
0.0132073	0.0858194	-0.00459868	
0.0029576	0.0493033	-0.00888554	
0.00587935	0.0539832	0.00101915	
0.0206784	0.0864303	-0.0187948	
-0.000309231	-0.000568008	9.88983e-05	
0.0179598	0.0848069	-0.0134061	
0.0238308	0.0755136	-0.00809361	
0.00663985	0.0206377	-0.0031948	
0.0174648	0.0579185	-0.00631155	
-0.00950291	-0.00515551	-0.025874	
-0.0220943	-0.133847	0.00528066	
-0.00102637	-0.0213882	0.0471515	
0.00225737	0.0116239	-0.0133189	
0.00694009	-0.0118365	0.0535451	
0.024595	0.00130286	0.0633308	
-0.00537881	-0.040969	0.043993	
0.0148107	-0.0103815	0.0527518	
0.0112729	-0.0137359	0.0374186	
0.0113982	0.00132645	0.0166186	
0.0147074	-0.0126319	0.0544097	
0.0209279	0.0107246	0.00241155	
0.0120753	-0.00779342	0.0470177	
0.00329601	-0.0121802	0.0252627	
0.0105042	-0.00586689	0.0536929	
0.00906392	-0.00525354	0.0390776	
0.0149094	-0.0149236	0.0463414	
0.00312429	-0.0195162	0.0277053	
0.00420739	-0.00887439	0.0171965	
0.0146838	-0.0115391	0.0547046	
0.0242585	-0.0109509	-0.000163635	
0.0170341	-0.00823541	0.0174386	
0.0114081	-0.00269895	0.0157381	
0.0142028	-0.0146969	0.0557636	
-0.00171551	0.0084332	-0.0205144	
0.0171527	0.0121317	0.038982	
0.00755638	-0.00232423	0.0308355	
0.00976697	0.0104508	0.0176004	
0.0332468	0.0082693	0.0698446	
0.00483171	-0.0109048	0.0390807	
0.00143016	-0.00611702	0.0179291	
0.00732236	-0.0112739	0.0426431	
0.00261109	0.00935059	-0.0099589	
-0.000153575	0.00164849	-0.00456614	
0.00380373	-0.00741217	0.0236904	
0.0164104	-0.0157204	0.0515961	
0.0122349	-0.0131999	0.0490247	
0.0236327	-0.052445	-0.0156452	
0.000843605	0.0178062	-0.0307803	
-0.00636545	-0.00142387	-0.0318335	
0.00370337	-0.0278166	-0.033433	
-0.00697387	0.0137197	-0.0125164	
-0.0106564	0.0105965	-0.0244858	
0.00135359	-0.0183224	-0.0499229	
0.00614388	-0.0278791	-0.0504296	
0.0015313	-0.00930896	0.00306098	
0.000387837	-0.00727741	0.000725891	
-0.000505314	-0.000138114	-0.00350801	
0.0028266	-0.00496236	0.00213391	
0.0116471	-0.040652	-0.0543268	
-0.0116576	-0.00148374	-0.0493358	
-0.011457	-0.0136231	-0.0487308	
0.0110465	-0.0450215	-0.0542629	
0.000846574	-0.00479689	0.00124281	
0.000237993	-0.00600006	0.000235597	
-0.000165605	-0.00551096	-0.000580995	
-0.00175566	0.0045179	-0.0052408	
0.00353057	0.000503805	-0.000498501	
-0.000796751	-0.00182834	-0.00231935	
0.00172859	0.00216941	0.000184647	
0.00137777	-0.00635795	-0.00867249	
0.000545698	-0.0318996	-0.0382025	
0.0443568	-0.0750848	0.000215859	
0.0120141	-0.0464348	-0.0522024	
0.00576912	-0.040563	-0.0556416	
-0.00110909	-0.0073365	-0.033911	
0.00355877	-0.0382667	-0.0448281	
0.00940738	-0.0423412	-0.0525331	
0.0106538	-0.0237846	-0.0329888	
0.0150303	-0.0437314	-0.0366966	
0.0103599	-0.0485915	-0.0600773	
0.00106181	-0.0114691	-0.0134472	
6.34579e-07	7.13526e-06	8.61482e-06	
0.0040822	-0.0124811	-0.0179378	
-0.00282617	0.00233667	0.00638626	
0.00052863	-0.00560398	-0.0292528	
-0.00648879	0.00721502	0.0322884	
0.00512348	0.00119494	-0.0101241	
0.00666292	0.00276882	-0.012368	
0.0131918	0.00865409	-0.0202286	
0.00419035	0.0112369	-0.00754354	
0.00648215	0.00496187	-0.0115931	
0.00902775	0.011331	-0.0138516	
0.00777927	0.00657136	-0.0134534	
0.0146247	0.00366109	0.0439086	
0.00105271	-0.00093685	0.00490681	
0.00237002	0.00487587	0.0273004	
-0.000360326	0.000263638	0.00216929	
0.00681945	0.01078	-0.0108152	
0.00358038	0.0111043	-0.00680664	
0.000688558	0.0104779	-0.00410222	
0.000338388	0.0102026	-0.00205125	
0.00996898	0.00443333	0.0311699	
0.00248262	-0.00135935	0.0128068	
0.00470122	0.00548692	0.0317042	
0.000130525	-0.000106168	2.79025e-06	
0.00233852	-0.000337303	0.0118734	
-0.000141354	0.000352717	0.000143342	
-0.00250204	0.00658732	0.0231164	
5.93624e-06	0.000192418	-2.99998e-05	
-0.000255025	0.0108557	-0.00116048	
8.3986e-05	0.00546385	-0.000941189	
-0.00394711	0.00823618	0.00889079	
0.000213345	0.00799869	-0.00153316	
-0.00214924	0.00599671	0.0111945	
0.00234785	0.00958492	-0.00610581	
0.000631722	0.00117266	-0.000262793	
0.000260595	0.00993646	-0.0017056	
0.000488148	0.0085518	-0.00107003	
0.000281689	0.00264866	-0.000659674	
0.000312591	0.00700319	-0.0010051	
-0.00539024	-0.0114799	-0.00458276	
-0.0341371	-0.109789	-0.107541	
-0.00513894	-0.00946086	0.0020869	
0.00296182	0.00591741	0.00178017	
-0.00242898	-0.00397327	0.00462045	
0.00642746	0.0124415	0.0154003	
-0.0133103	-0.0233883	-0.00713342	
0.00614709	0.00623315	0.00767234	
-0.00117466	-0.00799476	0.000449297	
0.000629076	0.00423997	0.00545989	
0.000121332	0.00100477	0.00770201	
-0.00396318	-0.00755368	-0.00989807	
0.00684337	0.00661706	0.007575	
-0.000562672	-0.00383286	0.0036546	
0.00592408	0.00674306	0.0103779	
0.00621564	0.00628226	0.00658788	
-0.00053259	-0.00222549	0.00513026	
-0.00257324	-0.0160667	-0.00651835	
-0.0014654	-0.00563437	-0.0006129	
-0.000833677	-0.00108458	0.00676161	
-0.00115825	0.00158539	-0.00140193	
0.000771748	-0.00111969	0.00264695	
0.00140416	0.00118666	-0.00146071	
-0.000444545	-0.00170029	0.00599013	
-0.000122908	0.000557054	-0.00133441	
0.0138798	0.0182624	0.0176542	
0.00585641	0.00663009	0.00573906	
0.0101168	0.0145999	0.00871951	
0.0152102	0.0221951	0.0195341	
9.25708e-05	-0.00149427	0.005696	
4.35915e-05	-0.000249966	0.000750149	
8.15607e-05	-0.00165213	0.00666964	
0.00302725	0.00550198	0.00167207	
-2.11899e-05	0.000319336	-0.000887215	
0.000608532	-0.00170528	0.00580197	
-0.000571272	-0.00177581	0.00573719	
-6.09016e-05	-0.00192144	0.00716771	
0.0220779	-0.0200445	0.0143288	
0.00189117	0.0190291	-0.0166648	
-0.00651295	0.0187576	-0.0113164	
0.00148223	-0.0049937	-0.0039447	
-0.0046931	0.0184569	-0.00941428	
-0.00729737	0.023865	-0.0126377	
-0.00643325	0.00817673	-0.0140864	
-0.00534552	0.0042497	-0.0112677	
0.00172225	-0.00635708	0.00485591	
7.58914e-05	-0.00373333	0.00324354	
-0.000467493	0.00264282	-0.000514813	
0.000340667	-0.00202684	0.00280277	
0.000408257	-0.00434793	-0.00688071	
-0.0181796	0.0245897	-0.027791	
-0.0133745	0.0215782	-0.0151212	
0.00218616	-0.00694019	-0.00614695	
0.00112175	-0.00284933	0.00301493	
0.000616977	-0.0026279	0.00279961	
0.000448545	-0.00222483	0.00235901	
-0.00138379	0.00762508	-0.00323131	
-0.000166189	-0.000590971	-0.00081181	
0.000358653	0.000652841	0.000744477	
-0.000249904	-0.000236023	0.000725517	
-3.55526e-05	0.000275526	0.000370234	
-0.000125953	-0.00347493	-0.00401191	
0.0414478	-0.0518697	0.0246283	
0.00376802	-0.00860259	-0.00535332	
-0.000517651	-0.0044365	-0.00802255	
-0.00542723	0.0142409	-0.00964207	
-0.000245875	-0.00189863	-0.00214851	
0.0010616	-0.00603967	-0.00735008	
0.000198057	-0.000934662	-0.00121199	
0.0095023	-0.0130657	9.34088e-05	
0.00076886	-0.00446471	-0.00540217	
4.20704e-05	-0.00280959	-0.00307791	
8.05799e-05	0.000797754	0.000963151	
1.77375e-05	-0.000101157	-0.000139649	
-0.00282465	0.00246613	0.00627905	
0.00166436	-0.005547	-0.027489	
-0.00202745	0.00317718	0.0340818	
0.00550517	0.000485913	-0.0101157	
0.00708082	0.000918923	-0.0122208	
0.0115418	0.00217794	-0.0206717	
0.0021366	0.00298431	-0.00679815	
0.00675356	0.00143902	-0.0112939	
0.00612463	0.00301207	-0.0139382	
0.00760255	0.001796	-0.0131185	
0.012592	0.00196766	0.0454783	
0.0012628	-0.00146354	0.00551962	
0.00184494	0.00264743	0.0284304	
-0.000349001	0.000674398	0.00283158	
0.00497345	0.00283824	-0.0104369	
0.00142184	0.00288336	-0.00600156	
0.000254576	0.00277275	-0.00299119	
-0.000152315	0.00274024	-0.000616387	
0.00788141	0.00317972	0.0325961	
0.00281537	-0.0018129	0.0128846	
0.00325347	0.00277075	0.033219	
4.3272e-05	-0.000148862	1.56072e-05	
0.00232958	-0.000988696	0.0125397	
-3.58934e-05	0.000147991	4.74706e-05	
-0.00170415	0.00219645	0.0243578	
2.20202e-06	7.09215e-05	-1.05064e-05	
-0.000681336	0.00289168	0.000512231	
0.000100794	0.0016816	-0.000299984	
-0.00157325	0.00263777	0.01034	
-5.40775e-05	0.00210764	-0.000441297	
-0.00134295	0.00204807	0.0122547	
0.000847889	0.00264747	-0.00556726	
0.000257102	0.000495537	-9.33692e-05	
-0.00032519	0.00271467	-0.000547305	
-6.61122e-05	0.00239338	-0.000426354	
0.000157311	0.00117829	-0.000273078	
2.60351e-05	0.00206761	-0.000361123	
-0.00534192	-0.0119254	-0.00364158	
-0.0298615	-0.111867	-0.117196	
-0.00319887	-0.00756306	-0.00205452	
0.00313113	0.00538512	0.00276612	
-0.00131855	-0.00298447	0.000273326	
0.00580885	0.0131273	0.0103452	
-0.0104482	-0.0224353	-0.0109733	
0.00478732	0.00792484	0.00518728	
-0.00169254	-0.00711641	-0.00319012	
0.00108514	0.00440573	0.00417074	
0.00106111	0.00280058	0.00386369	
-0.0049362	-0.00615438	-0.0119072	
0.00585385	0.00814912	0.00542661	
-0.000698717	-0.00229203	0.000529084	
0.00497091	0.00888838	0.00739292	
0.0056875	0.00742007	0.00479191	
4.929e-05	-0.000515306	0.00166802	
-0.00356275	-0.0156166	-0.00936822	
-0.00150328	-0.0050595	-0.00267063	
-9.48433e-05	-0.000572128	0.00196824	
9.23621e-06	0.00044431	-0.000479753	
0.000203135	-0.000332988	0.000780863	
0.000669895	-0.000240196	-0.000117553	
1.96753e-05	-0.000501442	0.00179757	
-4.16541e-05	0.000172629	-0.000401216	
0.0112698	0.0200677	0.0145093	
0.0055663	0.00740472	0.00444858	
0.0101818	0.0149421	0.00850139	
0.0109702	0.0238908	0.0162836	
-8.2988e-05	-0.000480453	0.00186277	
-6.16405e-06	5.45921e-05	-0.000168735	
-9.76327e-05	-0.000545039	0.00221836	
0.00318118	0.00515249	0.00256655	
-1.03209e-05	0.000186228	-0.000515918	
7.94916e-05	-0.000566949	0.00197511	
2.76243e-05	-0.000488057	0.00162292	
-1.44221e-05	-0.000628743	0.00234317	
0.0222076	-0.0179749	0.0171386	
0.00263311	0.0188401	-0.0203091	
-0.00597111	0.0193069	-0.0111018	
0.00142207	-0.00271364	-0.000568901	
-0.00556612	0.0177528	-0.00991391	
-0.00797953	0.0236684	-0.0127889	
-0.00535712	0.0119675	-0.0106625	
-0.00497188	0.00839879	-0.00791335	
0.00164891	-0.00740447	0.00395031	
1.58393e-05	-0.00473469	0.00250543	
-0.000567405	0.00199813	-0.00148397	
-0.000824748	-0.00253434	0.00265678	
-0.000389495	-0.00082387	-0.00226971	
-0.0151339	0.0318927	-0.0242195	
-0.0100824	0.0239135	-0.0151176	
0.00101554	-0.002884	-0.00114997	
0.000942346	-0.00385783	0.00180844	
0.00045192	-0.00375	0.001851	
9.60992e-05	-0.00318427	0.00150411	
-0.00167185	0.00658839	-0.00399257	
9.71135e-06	0.000201705	0.000214852	
-8.47178e-05	-0.000169384	-0.000198817	
0.000138198	8.47348e-05	-0.000129738	
3.05879e-05	-0.000211946	-0.000295223	
-0.000106294	-0.00109564	-0.00121336	
0.0347136	-0.0540866	0.0281797	
0.00253114	-0.00481801	-0.000311152	
-0.000739712	-0.000950383	-0.00286907	
-0.00453089	0.0149754	-0.00934857	
-0.000124988	-0.00058478	-0.000638856	
0.000154415	-0.00198753	-0.00230957	
5.19567e-05	-0.000409697	-0.000510637	
0.00824902	-0.0101536	0.00400715	
0.000135507	-0.00144274	-0.00167172	
-5.46075e-05	-0.000745653	-0.000810604	
-1.93385e-05	-0.000242504	-0.000295746	
4.22766e-05	-0.000263411	-0.000373647	
-0.00278638	0.00263802	0.00604379	
0.0010919	-0.00509426	-0.0261326	
-0.00375289	0.00316475	0.034681	
0.00571905	0.00061243	-0.010186	
0.00724109	0.000971693	-0.0124993	
0.0102177	0.00223879	-0.0223769	
0.00181595	0.00341008	-0.00729292	
0.00672156	0.00138005	-0.0117738	
0.00505998	0.00327792	-0.0148217	
0.00729304	0.00171985	-0.0138097	
0.0128586	0.00214169	0.0463544	
0.00128857	-0.00148181	0.00616894	
0.00195621	0.0025985	0.0288897	
-0.000190756	0.00174374	0.00345229	
0.00415717	0.00307859	-0.0112458	
0.00132224	0.003417	-0.00622111	
0.000595978	0.00335295	-0.00269425	
-0.000269756	0.00293222	-0.00067076	
0.00805193	0.00324396	0.0331772	
0.002782	-0.0016203	0.0131297	
0.003372	0.0027388	0.0337275	
-6.46828e-05	-0.000117693	1.64188e-06	
0.00236223	-0.000876483	0.0130597	
-1.62453e-05	0.000160381	4.82932e-05	
-0.00152336	0.00214134	0.0250289	
8.64466e-06	0.000263856	-3.73331e-05	
-0.000572443	0.00353282	0.000467965	
0.000101193	0.00165261	-0.000292744	
-0.00220439	0.0031987	0.0105037	
-0.000126964	0.00208523	-0.000453975	
-0.0016031	0.00209341	0.0127405	
0.00136386	0.00336402	-0.00560657	
0.000250396	0.000500557	-9.25379e-05	
-7.13202e-05	0.00341142	-0.000602462	
0.000162551	0.00277669	-0.000441992	
0.00015568	0.00123304	-0.000281096	
0.000149745	0.00227293	-0.000354489	
-0.00554361	-0.0120518	-0.00355076	
-0.0284885	-0.116843	-0.121627	
-0.00277521	-0.00625432	-0.00145761	
0.00321309	0.0051868	0.00276988	
-0.00126088	-0.00289155	0.00033769	
0.00541612	0.0124777	0.00997934	
-0.00966967	-0.022093	-0.0108082	
0.00457292	0.00821689	0.00569719	
-0.00179299	-0.00736145	-0.00336761	
0.00102075	0.00435386	0.0041946	
0.00127388	0.00330063	0.00429881	
-0.0037999	-0.007121	-0.0115999	
0.00557535	0.00853314	0.00592227	
-0.000555984	-0.00191375	0.000478671	
0.00551758	0.00945098	0.00756798	
0.00544682	0.00780048	0.00520688	
0.000202385	-0.000133519	0.00198419	
-0.00375561	-0.0158206	-0.00959676	
-0.00148937	-0.00516321	-0.00266043	
-0.000267625	-0.0012171	0.00159398	
1.25119e-05	0.000477068	-0.000494694	
0.000212171	-0.000350997	0.000847387	
0.000683151	-0.000261306	-9.59066e-05	
3.94973e-05	-0.00050871	0.00179277	
-3.38364e-05	0.000130385	-0.000294829	
0.0115744	0.0200014	0.0144213	
0.005369	0.00772218	0.0047395	
0.0102001	0.0152178	0.00869522	
0.0116497	0.0230973	0.0157247	
2.7661e-06	-0.000456176	0.00160524	
-3.31324e-06	3.80418e-05	-0.000118139	
3.34768e-05	-0.000532083	0.00195789	
0.00328654	0.00512246	0.00260285	
-1.12175e-05	0.000180606	-0.000500668	
8.37636e-05	-0.000484203	0.00156345	
5.42198e-05	-0.000517939	0.00170062	
8.58948e-05	-0.000628319	0.00222197	
0.0221758	-0.0189882	0.0177834	
0.00212513	0.0190997	-0.0186105	
-0.00679721	0.0196199	-0.0110742	
0.00144857	-0.00283973	-0.000188199	
-0.00562346	0.0181874	-0.00987001	
-0.00845222	0.024046	-0.0127729	
-0.00492946	0.0124046	-0.0106768	
-0.00457129	0.00880724	-0.00813854	
0.00162479	-0.00698237	0.00415631	
5.80837e-05	-0.00438575	0.00269726	
-0.000584418	0.00226989	-0.00126541	
-0.00027041	-0.00216066	0.00286922	
-0.000403589	-0.000876909	-0.00228675	
-0.0148549	0.0337237	-0.0240285	
-0.011326	0.0239235	-0.0152414	
0.000651492	-0.00270367	-0.00126355	
0.000960694	-0.00346822	0.00209807	
0.00048703	-0.00338222	0.0021092	
0.000206024	-0.00286158	0.00174706	
-0.00166585	0.00695866	-0.0038623	
-7.29101e-05	-5.43384e-05	-7.72726e-05	
3.40528e-05	6.87563e-05	7.95872e-05	
-4.63125e-05	-3.07531e-05	6.75361e-05	
1.08163e-05	-8.27698e-05	-0.000114137	
-0.000159195	-0.0010526	-0.00113084	
0.0353214	-0.0538985	0.0276914	
0.00213517	-0.00497359	-0.000250928	
-0.00033039	-0.00139427	-0.0023821	
-0.00520649	0.0151416	-0.00933163	
-8.01622e-05	-0.00068215	-0.000780518	
2.69532e-05	-0.00197665	-0.00224792	
8.65153e-05	-0.00043398	-0.000564315	
0.00745871	-0.0103517	0.00433311	
3.45689e-05	-0.00140451	-0.00158723	
-2.69431e-05	-0.000731242	-0.00084754	
4.12167e-06	4.80298e-05	5.82679e-05	
3.54312e-05	-0.000183429	-0.000263914	
-0.00285724	0.00240159	0.0060056	
4.29084e-06	-0.00557513	-0.0247269	
-0.00373104	0.00327048	0.0354536	
0.00597309	0.000744819	-0.0105233	
0.007353	0.00125243	-0.0129216	
0.0098796	0.00270032	-0.0233222	
0.00237596	0.00321939	-0.0071188	
0.00666304	0.00175157	-0.012381	
0.00582604	0.00325579	-0.0146528	
0.00707294	0.00214869	-0.0145318	
0.0132947	0.00234848	0.0472281	
0.00135099	-0.00151065	0.00677567	
0.00208994	0.00273415	0.0293484	
0.000169125	0.00244445	0.00402798	
0.00430101	0.00309416	-0.0112776	
0.00175186	0.00316091	-0.00606189	
0.000734837	0.00325254	-0.00301555	
-0.000215203	0.00312307	-0.000658064	
0.00833426	0.00329488	0.0338356	
0.00278901	-0.00149259	0.013374	
0.0036614	0.0029434	0.0346202	
-0.000102011	-4.05397e-05	4.72686e-06	
0.00246001	-0.000801848	0.0135837	
2.68785e-06	0.00014165	3.73251e-05	
-0.00140925	0.00233074	0.0257303	
4.14498e-06	0.000130545	-1.79214e-05	
-0.000465124	0.00318791	0.000582649	
0.000103366	0.00178159	-0.000317719	
-0.00222214	0.00331385	0.0107455	
-0.000159132	0.00251642	-0.000534786	
-0.00159106	0.00228175	0.0132855	
0.00144022	0.00313809	-0.00565329	
0.000219022	0.000456611	-8.56042e-05	
-4.02016e-05	0.00311368	-0.00052748	
0.000178904	0.00298849	-0.000464251	
0.000138416	0.0011949	-0.000273099	
0.000161127	0.00246669	-0.000383037	
-0.00576315	-0.0121271	-0.00352749	
-0.0268122	-0.11998	-0.127531	
-0.0023615	-0.00532142	-0.00121737	
0.00329289	0.00507922	0.00286732	
-0.00120127	-0.00276563	0.000168994	
0.0052503	0.0122201	0.00958686	
-0.0101509	-0.0211627	-0.0110148	
0.00488195	0.00830872	0.00552621	
-0.00184776	-0.00763612	-0.00370566	
0.000894121	0.00401833	0.00388611	
0.0013438	0.00360213	0.00429873	
-0.0013298	-0.00779966	-0.0112095	
0.00573143	0.00869713	0.00583436	
-0.000455426	-0.00150914	0.000351905	
0.00585645	0.0100894	0.00774878	
0.00546568	0.00800582	0.00523477	
0.000205987	-1.72713e-06	0.00180221	
-0.00366581	-0.0156764	-0.00973837	
-0.00144246	-0.00521045	-0.00266004	
-0.000308227	-0.00129938	0.00117616	
0.000434209	4.49929e-05	-7.73428e-05	
0.000184599	-0.000313159	0.000786634	
0.000415753	-0.000362294	0.00022688	
3.70987e-05	-0.000462454	0.00162056	
-3.0033e-05	0.000111878	-0.000249618	
0.011636	0.0202088	0.0142545	
0.005346	0.00787857	0.0048704	
0.0101149	0.0154128	0.00899646	
0.011446	0.0227181	0.0153833	
1.71467e-05	-0.000388418	0.00133756	
-3.01386e-07	2.49747e-06	-8.0712e-06	
4.19251e-05	-0.000470737	0.00169476	
0.00335053	0.0050558	0.00281855	
-6.76543e-06	9.79704e-05	-0.000271486	
8.30354e-05	-0.000407117	0.00126069	
5.30152e-05	-0.000484857	0.00160037	
7.69004e-05	-0.000528044	0.00185198	
0.0219408	-0.0195685	0.0185965	
0.0018608	0.0192618	-0.0185698	
-0.00690249	0.0198862	-0.0111164	
0.0015896	-0.00297221	0.000227847	
-0.00567466	0.0182534	-0.0100253	
-0.00852921	0.0242072	-0.0129412	
-0.00559425	0.012708	-0.0102956	
-0.00501737	0.00898753	-0.00787823	
0.00160408	-0.00702028	0.00404919	
6.74716e-05	-0.00444695	0.00262572	
-0.000598675	0.00227558	-0.00135622	
-0.000214186	-0.00210897	0.00292992	
-0.000368339	-0.000661416	-0.00207264	
-0.0162086	0.0346416	-0.023803	
-0.0114698	0.0244825	-0.0151167	
0.000626111	-0.00241203	-0.00114995	
0.000932576	-0.00350223	0.00197106	
0.000478015	-0.00346311	0.00201335	
0.000185056	-0.00292939	0.00166675	
-0.00169031	0.00693108	-0.0039509	
7.45014e-06	1.87027e-06	3.60481e-06	
-3.41265e-06	-7.14639e-06	-8.26861e-06	
3.42656e-06	2.03533e-06	-5.54628e-06	
1.06768e-05	-8.81672e-05	-0.000120314	
-0.000141345	-0.000781893	-0.0008341	
0.0350836	-0.053347	0.0277274	
0.00208754	-0.00471768	9.50767e-05	
-5.26314e-05	-0.00150603	-0.00181119	
-0.00529493	0.0153863	-0.00925877	
-4.6555e-05	-0.00046643	-0.000540315	
8.8537e-06	-0.0016239	-0.00186507	
5.32923e-05	-0.000288584	-0.000375152	
0.00698202	-0.0103722	0.00460012	
-7.92706e-06	-0.00124484	-0.00140995	
-8.133e-06	-0.000666992	-0.000800398	
-2.7427e-06	-3.39267e-05	-4.11082e-05	
2.60604e-05	-0.000145105	-0.000206326	
-0.00265807	0.00273523	0.00554466	
-0.000355228	-0.00575947	-0.0241653	
-0.00342057	0.00203041	0.036346	
0.00604837	0.00116553	-0.0107961	
0.00732421	0.00147828	-0.013261	
0.0104797	0.00189863	-0.0234075	
0.0025579	0.0027185	-0.00740733	
0.00657247	0.00180447	-0.0125401	
0.0059524	0.00267011	-0.0147483	
0.0070329	0.00176513	-0.0146257	
0.0138863	0.00217371	0.0477143	
0.00147277	-0.00154682	0.00710933	
0.00238652	0.00199013	0.0300892	
0.000742582	0.00246478	0.00437357	
0.00469666	0.00248541	-0.011329	
0.00188996	0.00282023	-0.00640325	
0.000484728	0.00255873	-0.00178909	
-8.70401e-05	0.00217886	-0.000411557	
0.0086658	0.00286433	0.0343234	
0.00297333	-0.0014838	0.0135385	
0.0041364	0.00219434	0.0353345	
-5.14383e-05	8.85527e-06	1.0187e-06	
0.00267389	-0.000869571	0.0139372	
3.60816e-06	6.4098e-05	1.42322e-05	
-0.00103276	0.00144526	0.0263568	
2.03461e-05	0.000606375	-8.1566e-05	
-0.000496267	0.00310846	0.000732477	
4.48656e-05	0.000926494	-0.000167595	
-0.00215533	0.00208859	0.0113743	
-8.47422e-05	0.00169502	-0.000339244	
-0.00147327	0.00127307	0.0139107	
0.00135572	0.00277268	-0.00540428	
9.3118e-05	0.000210017	-4.0299e-05	
-4.44918e-05	0.00294588	-0.000493953	
8.79664e-05	0.00173451	-0.000269744	
5.14665e-05	0.000521342	-0.000119251	
7.46301e-05	0.00134768	-0.000211419	
-0.0058103	-0.0121546	-0.00319471	
-0.0281897	-0.122344	-0.130153	
-0.00224861	-0.00506095	-0.00138189	
0.00340206	0.005012	0.00325227	
-0.00119539	-0.00279295	-0.000208285	
0.00516929	0.0121647	0.00931683	
-0.0101015	-0.0211815	-0.0106238	
0.00496743	0.00821595	0.0060933	
-0.00189047	-0.00778977	-0.00421366	
0.000832824	0.00383447	0.00351584	
0.00130307	0.00361606	0.00393377	
-0.00127581	-0.00767676	-0.0114206	
0.0058474	0.00854713	0.0064541	
-0.00036273	-0.0013793	0.000577826	
0.00593349	0.0102856	0.00797035	
0.00558033	0.00779066	0.00593855	
0.000100693	-0.00012954	0.00119654	
-0.00357811	-0.0155648	-0.0100127	
-0.00147256	-0.0051375	-0.00292485	
-0.000255802	-0.00105624	0.000785474	
0.000298076	1.24535e-05	-4.33458e-05	
0.000125915	-0.000210861	0.000552103	
0.000159717	-0.000185152	0.000288186	
3.35724e-05	-0.00039646	0.00137721	
2.03855e-06	-7.41335e-06	1.66028e-05	
0.0116708	0.0204042	0.0142967	
0.00547932	0.00772684	0.00575847	
0.0102339	0.0154193	0.00992451	
0.011374	0.022715	0.0154753	
2.33564e-05	-0.000400682	0.00136667	
2.73243e-05	-0.000260262	0.000771694	
4.05452e-05	-0.000411126	0.00146254	
0.00340894	0.00497888	0.00336742	
1.13537e-05	-0.000140646	0.00038496	
8.54105e-05	-0.000414171	0.00127514	
4.348e-05	-0.0003841	0.00126829	
6.34137e-05	-0.000428655	0.00149065	
0.0218334	-0.0207607	0.0190391	
0.00132056	0.0193119	-0.0181156	
-0.0070126	0.0200679	-0.0112098	
0.00159786	-0.00312482	0.00023348	
-0.00572881	0.0183744	-0.0101322	
-0.0086209	0.0243404	-0.0130914	
-0.00581221	0.0132255	-0.00984636	
-0.00518059	0.00949387	-0.00743095	
0.00158473	-0.00691103	0.00403891	
7.3778e-05	-0.0043714	0.00264415	
-0.000612671	0.00234098	-0.00136388	
6.94613e-05	-0.00210153	0.00289597	
-0.000424467	-0.000171419	-0.00166162	
-0.0165978	0.035672	-0.0235731	
-0.0115476	0.0248088	-0.015128	
0.000683892	-0.0020158	-0.000811516	
0.000919005	-0.00341053	0.00197208	
0.00048728	-0.00340054	0.00202721	
0.000209965	-0.00287232	0.0016857	
-0.00170758	0.00700942	-0.00397885	
-3.23666e-05	2.14652e-06	-1.04005e-07	
8.17944e-06	1.77329e-05	2.03911e-05	
-1.04049e-05	-5.47735e-06	2.08258e-05	
7.98874e-06	-7.22667e-05	-9.74908e-05	
-0.000180084	-0.000974883	-0.00105742	
0.0347316	-0.0530633	0.0281184	
0.00222013	-0.00421672	0.000432864	
4.87772e-06	-0.00129284	-0.0014904	
-0.00536802	0.0154824	-0.00922965	
-3.02069e-05	-0.000353279	-0.000412204	
3.41042e-05	-0.00122969	-0.00145967	
3.75199e-05	-0.000226281	-0.000292697	
0.00684887	-0.0104519	0.00461399	
-5.98108e-06	-0.00124859	-0.00143893	
6.24569e-07	-0.000435177	-0.00052704	
-5.12786e-07	-6.52164e-06	-7.87269e-06	
2.04987e-05	-0.000122761	-0.000172339	
-0.00271438	0.00236727	0.00554951	
-0.00085363	-0.00519786	-0.0239236	
-0.00313522	0.00119453	0.0368387	
0.00615103	0.00064447	-0.0109075	
0.00725783	0.00097309	-0.0131536	
0.0106144	0.00133557	-0.0236564	
0.00244657	0.00186645	-0.00697238	
0.00669968	0.000866859	-0.0125716	
0.00604538	0.00202491	-0.0149829	
0.00718816	0.00109722	-0.0146472	
0.0142037	0.00231943	0.0481898	
0.0015478	-0.00139015	0.00735864	
0.00261077	0.00162506	0.0305084	
0.00168965	0.00214663	0.00458373	
0.00480701	0.00173119	-0.0114454	
0.00175581	0.00161376	-0.00583645	
0.000540471	0.000991961	-0.00132812	
-5.27699e-05	0.00143848	-0.000263849	
0.00885069	0.0028136	0.0346836	
0.00308789	-0.00126906	0.0137101	
0.00445768	0.00196043	0.0357242	
-3.66137e-05	3.16408e-05	-7.05231e-06	
0.00285277	-0.000725864	0.0141855	
4.9557e-06	5.71202e-05	1.01982e-05	
-0.000763749	0.000987679	0.0265704	
5.29313e-06	0.000152613	-2.01504e-05	
-0.000505524	0.00133275	0.0013239	
2.03906e-05	0.000514315	-9.39026e-05	
-0.00202182	0.000941721	0.0116945	
-3.74633e-05	0.00105124	-0.000195833	
-0.00135784	0.000714961	0.0141684	
0.00133087	0.00101996	-0.00500354	
6.13581e-05	0.000150233	-2.91965e-05	
-2.08024e-05	0.00110806	-0.000184611	
3.27614e-05	0.000789255	-0.000123301	
2.8521e-05	0.00033357	-7.56041e-05	
2.88e-05	0.000621427	-9.8223e-05	
-0.00614646	-0.0122243	-0.00376634	
-0.0295996	-0.123461	-0.132532	
-0.00153909	-0.00342317	-0.000986603	
0.00328599	0.00518978	0.00251187	
-0.00106214	-0.00247991	-0.000683649	
0.00471879	0.0112887	0.00806647	
-0.0099241	-0.0199296	-0.0117406	
0.00490407	0.00879311	0.00469265	
-0.00193706	-0.00778109	-0.00461856	
0.000894969	0.0041345	0.00356852	
0.00156374	0.00464761	0.00394814	
-0.00117207	-0.00782759	-0.0117305	
0.00585143	0.00916245	0.00499653	
-0.000278089	-0.000719985	-7.33015e-05	
0.00625698	0.0112329	0.00739714	
0.00562112	0.0084403	0.00441726	
0.00038255	0.00085446	0.00168027	
-0.00363313	-0.0160063	-0.0103981	
-0.00151286	-0.00517468	-0.00319402	
-0.000607546	-0.00218742	-0.000130368	
0.000226071	-1.85029e-06	-3.05413e-05	
8.52986e-05	-0.000149524	0.000392457	
0.000136031	-0.000155427	0.000241293	
1.59393e-05	-0.000194312	0.000670143	
-5.63877e-05	0.000210681	-0.00047138	
0.0115911	0.0205639	0.0136527	
0.00542765	0.00830668	0.0040676	
0.0101384	0.0159301	0.00850492	
0.0108575	0.0221264	0.0139759	
1.18554e-05	-0.000163307	0.000550647	
-3.45103e-05	0.000276339	-0.000799842	
2.94956e-05	-0.000277442	0.000973377	
0.00334342	0.00532658	0.00238246	
-2.86072e-05	0.000308003	-0.000836865	
3.96045e-05	-0.000193175	0.000590923	
1.96966e-05	-0.000179262	0.000592999	
5.24718e-05	-0.000364071	0.00125064	
0.0215657	-0.0201333	0.019951	
0.000963494	0.0193558	-0.0179029	
-0.00708822	0.0201765	-0.011168	
0.00191583	-0.00281837	0.00108522	
-0.00573884	0.0183742	-0.0101646	
-0.00866657	0.0244116	-0.0131644	
-0.00594736	0.0135175	-0.00958855	
-0.00534615	0.00995225	-0.00720183	
0.0015633	-0.00687006	0.00400261	
9.51808e-05	-0.00435584	0.00262727	
-0.000621992	0.00237361	-0.00138338	
0.00027631	-0.00216569	0.00282264	
-0.000340884	-0.000132414	-0.00132941	
-0.0168702	0.0364326	-0.0234283	
-0.0116487	0.0251655	-0.0150504	
0.000413084	-0.00124772	-0.000544238	
0.0009021	-0.00337423	0.00193881	
0.000490335	-0.00339441	0.00200514	
0.000219729	-0.00286503	0.00167078	
-0.00172044	0.00704023	-0.00401674	
-1.11624e-05	4.09631e-06	5.01211e-06	
2.81828e-06	6.35134e-06	7.2776e-06	
-3.71037e-06	-1.46219e-06	8.51273e-06	
3.53265e-06	-3.54389e-05	-4.71891e-05	
-2.32732e-05	-0.000133562	-0.000149456	
0.0343139	-0.0528127	0.0284733	
0.00218872	-0.00406446	0.000534279	
0.000565683	-0.00163945	-0.00064298	
-0.00544622	0.0156495	-0.00912125	
-1.51404e-05	-0.000217737	-0.000255852	
6.2457e-05	-0.00109174	-0.00134934	
1.70619e-05	-0.000114148	-0.000146963	
0.00673345	-0.00971682	0.00503722	
3.18152e-06	-0.000351627	-0.000416305	
3.86867e-06	-0.000306448	-0.000373601	
-1.02788e-06	-1.34679e-05	-1.62344e-05	
9.24975e-06	-6.00564e-05	-8.3125e-05	
-0.0027398	0.00222333	0.00555444	
-0.00168047	-0.00446523	-0.0239178	
-0.00308391	0.00116697	0.0371537	
0.00618192	0.000499076	-0.0110807	
0.00734844	0.000818852	-0.0133894	
0.0107061	0.00173364	-0.0241758	
0.0022887	0.00152134	-0.00657293	
0.00677691	0.0012113	-0.0128295	
0.00585049	0.00172923	-0.0146705	
0.00725587	0.00142206	-0.0149233	
0.0143617	0.00262713	0.0485714	
0.00164012	-0.00118981	0.00774445	
0.00277551	0.00167344	0.0307772	
0.00267672	0.00182945	0.00490521	
0.00482605	0.00204192	-0.0117251	
0.00165266	0.00127386	-0.00556568	
0.000514418	0.000923178	-0.00120322	
-6.19476e-05	0.00179062	-0.000322329	
0.00894729	0.00290125	0.0350336	
0.00317951	-0.000966524	0.0139436	
0.00467147	0.00203556	0.0361183	
-9.43102e-06	3.49579e-05	-1.07429e-05	
0.00299115	-0.000462466	0.0144287	
7.76824e-06	6.13554e-05	8.16463e-06	
-0.000634374	0.00104807	0.0268189	
1.60273e-06	4.68188e-05	-6.09147e-06	
-0.000523284	0.00109378	0.00150193	
1.52384e-05	0.000488815	-8.98055e-05	
-0.00199608	0.000889522	0.0118224	
-4.23703e-05	0.00135048	-0.00024418	
-0.00130725	0.00075402	0.014269	
0.00129072	0.000938907	-0.00496321	
6.91334e-05	0.000184965	-3.65175e-05	
-1.91816e-05	0.000974228	-0.000160757	
2.71089e-05	0.000751647	-0.000117307	
2.39358e-05	0.000336684	-7.55543e-05	
2.4276e-05	0.000612488	-9.72548e-05	
-0.00600888	-0.0123082	-0.00308211	
-0.0330569	-0.125968	-0.134363	
-0.00156848	-0.00358706	-0.000594238	
0.00338505	0.00500114	0.00338482	
-0.00110488	-0.00258411	-8.06369e-05	
0.00472285	0.0111964	0.00874119	
-0.00984804	-0.0205888	-0.0100232	
0.00510687	0.00828233	0.00665532	
-0.00203697	-0.00822908	-0.00439575	
0.000808219	0.00375104	0.0034941	
0.00162572	0.00460049	0.00466637	
-0.00112413	-0.00791177	-0.0114224	
0.00599558	0.00871488	0.00696784	
-0.00012113	-0.000970561	0.00107228	
0.00619958	0.0109517	0.00837496	
0.00573907	0.00801712	0.00634838	
0.000382992	0.00073117	0.00193758	
-0.00364853	-0.0159039	-0.010113	
-0.0015238	-0.00529705	-0.00307376	
-0.000660772	-0.00242192	6.73937e-05	
0.000280621	-9.54543e-05	0.000132608	
0.00013247	-0.000227984	0.000634031	
0.00018076	-0.00020129	0.000310288	
3.7547e-05	-0.000403282	0.00137321	
1.63115e-05	-6.33646e-05	0.000142997	
0.011545	0.0204193	0.014286	
0.00551071	0.00779982	0.00591134	
0.0103028	0.0155493	0.0102867	
0.0109452	0.0220038	0.0151577	
3.82836e-05	-0.000427391	0.00141875	
4.08053e-05	-0.00032463	0.000926786	