<VTKFile type="UnstructuredGrid" version="0.1" byte_order="LittleEndian">
	<UnstructuredGrid>
		<Piece NumberOfPoints="9768" NumberOfCells="9768">
			<CellData Scalars="scalars">
				<DataArray type="Float64" Name="Strength" NumberOfComponents="3" Format="ascii">
-0.00802378	-0.0152105	0.0131971	
0.00653653	-0.0148184	-0.0266113	
-0.0147048	0.0713481	-0.0030853	
0.00476598	-0.00689746	-0.00697293	
0.00587748	0.000196926	-0.0111623	
0.0102126	0.0542741	-0.0341125	
-0.00257744	0.0854525	-0.0337713	
0.00124863	0.0165728	-0.0180268	
0.00230474	0.0838619	-0.0354778	
0.0023859	0.0298064	-0.0257606	
0.00271553	0.0123006	0.043828	
0.00505766	-0.00214905	-0.00171037	
-0.00941139	0.0417155	0.00987597	
0.000399697	-0.00242551	0.00107376	
-2.2074e-05	0.0714915	-0.0353843	
-0.00292679	0.0868136	-0.0245205	
0.00266511	0.096108	-0.00333758	
-0.00919463	0.0607734	-0.0336405	
0.000855679	0.0161122	0.0272773	
0.0072057	-0.0107657	0.00650934	
-0.00941831	0.0354759	0.0176395	
0.00252617	-0.00176796	0.00125583	
0.005327	-0.00501558	0.00897891	
0.00134506	-0.00047041	-0.00218487	
-0.012866	0.0494199	0.00195187	
-0.00102988	-0.0126781	0.00314716	
-0.00704377	0.08775	-0.0222675	
0.00850193	0.0401773	0.0143934	
-0.00491902	0.0876497	-0.00453174	
-0.00894902	0.0432316	-0.0250977	
-0.0026234	0.0537983	0.0105956	
-0.00240819	0.0913241	-0.00893231	
-0.000267337	0.000580446	0.000166215	
-0.00576957	0.0871618	-0.0151998	
-0.00548906	0.0777398	0.0199097	
0.0177417	0.010305	0.00826532	
0.00374504	0.0571093	0.0224045	
-0.0123177	-0.00565364	-0.0249524	
0.00443062	-0.12156	-0.072441	
-0.00837587	0.0109713	0.0503683	
0.000603108	0.0119536	-0.0134844	
0.00412568	-0.00736382	0.0550459	
0.00693073	-0.0264541	0.0628151	
-0.0176435	-0.0264543	0.0519275	
0.0155335	-0.012862	0.0525688	
0.0138046	-0.022187	0.0325448	
0.0122973	0.000889153	0.0161536	
-0.00103061	-0.0145727	0.056323	
-0.0137667	-0.012977	-0.0182562	
0.00821723	-0.00396343	0.0488042	
0.00166628	-0.0110958	0.0261572	
0.0033937	0.00416174	0.0551665	
0.00438863	0.00168488	0.0405961	
0.0132293	-0.025546	0.0424675	
0.024427	-0.0122594	0.0207037	
-0.00600286	-0.0158123	0.0106421	
0.00498491	-0.020776	0.054156	
0.02434	-0.00267702	0.0124845	
-0.00379787	-0.0254588	0.00356308	
-0.011019	0.00163777	0.016452	
-0.0026933	-0.00963825	0.0590095	
-0.0054326	0.00857309	-0.0200871	
0.0204687	0.00750392	0.0390209	
0.00409079	0.00376088	0.0316896	
0.00928717	0.0129782	0.0165486	
0.0230698	-0.0195117	0.0724284	
-0.00585329	0.00172945	0.0407012	
-0.00180878	-0.00117648	0.019077	
-0.00164633	0.00305496	0.0449111	
0.00310386	0.00888025	-0.0104678	
0.000590962	0.000912015	-0.00479074	
0.000850769	-0.0054041	0.0246946	
0.00580263	-0.0243416	0.0509799	
-0.00317179	-0.00665919	0.0521251	
0.014405	-0.0583677	-0.00649223	
0.00423639	0.0131841	-0.0341599	
-0.0101314	0.000112426	-0.0314	
-0.0104171	-0.0388701	-0.01847	
-0.00900316	0.0144279	-0.0107622	
-0.0150603	0.0110236	-0.0224573	
0.00202166	-0.0110817	-0.0526949	
0.00412366	-0.0193093	-0.0552598	
0.00242942	-0.00950933	0.00204941	
-0.000992216	-0.0072769	0.0012224	
-1.95232e-05	0.000475294	-0.00356636	
-0.00201134	-0.000160026	0.00721178	
0.00501806	-0.0320722	-0.0616975	
-0.0189061	-0.00852008	-0.0471366	
-0.0281462	-0.0295931	-0.0332475	
0.0032915	-0.043616	-0.0575602	
0.000935803	-0.00489933	0.000970025	
0.000529844	-0.00604238	-0.000213685	
0.000707446	-0.00540489	-0.0012711	
-0.00199639	0.00498049	-0.00485877	
0.0014509	-0.00124207	0.00342465	
-0.00208596	-0.00213461	-0.000828349	
0.000820685	-0.000895042	-0.0025572	
0.00460656	-0.00275004	-0.00956335	
-0.0199346	-0.0440021	-0.0147803	
0.0533712	-0.0623711	-0.0324688	
0.00568735	-0.047484	-0.0535686	
-0.0043345	-0.0493007	-0.0495788	
-0.00605221	-0.00339105	-0.0344931	
-0.0158184	-0.0485234	-0.0310916	
0.0014026	-0.0463535	-0.0511266	
0.00672532	-0.00841584	-0.0411084	
0.00720923	-0.0496202	-0.0326602	
-0.00201943	-0.059729	-0.0517157	
0.000833085	-0.0114557	-0.0137635	
1.09961e-06	6.80768e-06	9.03871e-06	
0.00850181	-0.00158331	-0.0207517	
-0.00221299	0.00306067	0.00643939	
-6.44511e-05	-0.0251207	-0.016233	
-0.021168	-0.0015187	0.0265592	
0.00445175	-0.000212343	-0.0106402	
0.00639877	0.00106928	-0.0129351	
0.0193288	0.0112963	-0.0130342	
0.00512746	0.012811	-0.00376464	
0.00658304	0.00358444	-0.0122042	
0.0122362	0.01528	-0.00510208	
0.0094671	0.00562559	-0.0130048	
0.016737	0.00156156	0.0435471	
0.00183931	-0.00377576	0.00292089	
-0.000542201	-0.00129952	0.0279979	
0.000841274	0.00181381	0.00107706	
0.00880072	0.0127392	-0.00671466	
0.00474951	0.0125975	-0.002179	
0.00215604	0.0110479	0.00171378	
-0.00168379	0.00853456	-0.00592908	
0.00966379	0.00242003	0.0316982	
0.00610835	-0.00696255	0.00934151	
0.00279554	0.000398547	0.0326183	
0.000229501	-4.66232e-05	5.85313e-05	
0.00562879	-0.00401647	0.00999258	
-6.47716e-05	9.90379e-06	-0.000412551	
-0.00747772	-0.000303124	0.023178	
5.89702e-06	0.00018987	-5.58088e-05	
-0.00171972	0.0108352	-0.00125954	
0.00359064	0.0041771	0.00100738	
-0.00895827	0.00566822	0.00731577	
-0.001837	0.00639642	-0.00486431	
-0.00389146	0.00200786	0.0122333	
0.00411802	0.0109585	0.000424801	
6.18802e-05	-0.00135685	-0.000178225	
-0.000546202	0.0101799	-6.41304e-05	
0.00270967	0.00692953	0.00455319	
0.00255194	0.000796868	-0.000717427	
0.00327275	0.00557798	0.00306114	
-0.00355851	-0.0122801	-0.00481843	
-0.00118083	-0.0650655	-0.145134	
-0.00930767	-0.00546646	0.00263154	
0.00162582	0.00651156	0.00178578	
-0.00286611	-0.00443549	0.00400484	
0.0120058	0.00653741	0.0159786	
-0.0238635	-0.0150372	-3.28776e-06	
0.00989983	0.00317703	0.00557729	
-0.000559612	-0.00815925	-0.000149918	
-0.00103301	0.000559544	0.00689315	
0.00149762	-0.00105988	0.00760469	
-0.000444095	-0.00427133	-0.012477	
0.00948293	0.00400943	0.00679429	
-0.001198	-0.00310277	0.00421716	
0.00795833	0.00548559	0.00993832	
0.00797738	0.00494385	0.00607054	
0.000857721	-0.00292054	0.00477016	
-0.00467226	-0.0149797	-0.00819535	
-0.000938007	-0.00581549	-0.000594303	
0.00029105	-0.0025359	0.00646127	
-0.00204069	0.00102709	-0.000851846	
0.00136661	-0.00170227	0.00205255	
-0.000241837	0.00224966	0.000699036	
-0.000519867	-0.00275057	0.00563363	
-0.000371241	0.000551852	-0.00130779	
0.018954	0.0152726	0.0162674	
0.00733812	0.0060163	0.0049319	
0.0112751	0.0152457	0.00659727	
0.0246674	0.0139374	0.0181389	
-0.00158081	0.000617454	0.00568193	
-0.000134529	2.37116e-05	0.000787918	
-0.00117715	0.000545836	0.0067981	
0.00235028	0.00598922	0.0014278	
0.00018087	0.000118955	-0.000928935	
-4.89915e-05	-0.000870064	0.00605897	
0.00040318	-0.00292343	0.00531142	
-0.000542215	-0.00213006	0.00714873	
0.0280507	-0.017574	0.00579953	
0.0020327	0.00356378	-0.0254177	
-0.0118927	0.0193613	-0.00458183	
8.16208e-05	-0.00625081	-0.00219535	
-0.00552321	0.0201986	-0.00497398	
-0.010271	0.0260287	-0.00459905	
-0.011349	0.00365517	-0.0132062	
-0.00883776	0.00143608	-0.00996105	
0.00102112	-0.00636311	0.00520452	
0.000260498	-0.00357492	0.00348906	
-0.000707935	0.00267154	-5.32736e-05	
-0.000950292	-0.00170754	0.00300988	
0.000245469	-0.00249237	-0.00786771	
-0.0331133	0.00977065	-0.0239038	
-0.0211897	0.0187152	-0.00998995	
0.00234131	-0.00519248	-0.00778419	
0.00093041	-0.00298078	0.00303487	
0.00064824	-0.00255175	0.002929	
0.000391296	-0.00243475	0.00221308	
-0.00132298	0.00808447	-0.00225674	
-0.00119089	0.00030415	0.000502691	
0.000876204	0.000402372	0.000456362	
0.000685648	0.000195484	0.000399152	
-0.000231221	9.33974e-05	0.00039613	
-0.0023064	-0.00482915	-0.0006403	
0.0527252	-0.0487586	-0.00163986	
0.00465943	-0.00668172	-0.00731351	
-0.00215188	-0.00624606	-0.0065674	
-0.0103262	0.0140595	-0.00551676	
-0.00105947	-0.00199427	-0.00184086	
0.000273053	-0.00651302	-0.00718344	
0.000791291	-0.000100168	-0.00134106	
0.0124752	-0.00969234	-0.00437766	
-7.2758e-05	-0.00555166	-0.00449953	
-0.000130975	-0.00309041	-0.00287033	
0.000102797	0.000736437	0.00102691	
9.19664e-05	-3.27184e-06	-0.000149211	
-0.00243645	0.00337792	0.00613655	
0.0028475	-0.0253501	-0.0120963	
-0.0039592	-0.00508017	0.0339683	
0.00522448	-0.00104917	-0.0103713	
0.00737162	-0.000765278	-0.012246	
0.0169116	0.000307132	-0.0170611	
0.00311217	0.00299187	-0.00648751	
0.00764251	0.000121979	-0.0109873	
0.00902907	0.00281127	-0.0124868	
0.00985636	0.000156933	-0.0118802	
0.0122992	0.00473895	0.0456066	
0.00204286	-0.00366139	0.0040989	
0.00170748	0.00160259	0.0287158	
0.000789376	0.00232973	0.00169458	
0.00720398	0.00204691	-0.00939585	
0.00245068	0.00301653	-0.0056609	
0.000732117	0.00329637	-0.00236344	
-0.000681512	0.00226275	-0.00158294	
0.00767413	0.00530796	0.0325686	
0.00646458	-0.00749141	0.00897167	
0.00273458	0.00234151	0.0335166	
-0.000168649	9.2756e-05	-5.63747e-05	
0.00665406	-0.00405544	0.0102075	
6.23513e-05	5.85659e-05	-0.000139896	
-0.00243167	-0.000348615	0.0245796	
-1.50216e-06	6.87365e-05	-2.33227e-05	
-0.000646122	0.00289725	0.000704455	
0.00108696	0.00133583	-0.000141259	
-0.00123915	0.000220311	0.0108092	
-0.000608702	0.0015984	-0.0013504	
-0.000922457	-4.18776e-05	0.0125639	
0.0011259	0.00365898	-0.004971	
0.00017836	-0.000529437	-0.000119022	
-7.2698e-05	0.00281328	-0.000160133	
0.00101947	0.0022229	0.000236304	
0.00110147	0.000410576	-0.000364147	
0.00111232	0.00179929	0.000149254	
-0.00380903	-0.01272	-0.00355592	
-0.0445423	-0.0611143	-0.147927	
-0.00346244	-0.0077945	-0.000852722	
0.00213122	0.00600226	0.00268035	
-0.00161453	-0.00286422	0.000430003	
0.0068264	0.0139433	0.0088987	
-0.0144241	-0.0222442	-0.00697405	
0.00624567	0.00789336	0.00378994	
-0.00204163	-0.0068384	-0.00375166	
0.00251797	-0.000978762	0.00559359	
0.00129628	0.00287597	0.00379177	
0.000760348	-0.00863368	-0.0115207	
0.00672711	0.00818362	0.00464887	
-0.000728879	-0.00223254	0.000795087	
0.00399671	0.010531	0.00592107	
0.00627773	0.00764412	0.00396687	
0.000256347	-0.000677804	0.00160208	
-0.00461255	-0.0151595	-0.00999515	
-0.0018429	-0.00491435	-0.00284952	
-0.000108039	-0.000531067	0.00199384	
-0.000394665	0.000483872	-0.000215281	
0.000445309	-0.000464564	0.000598897	
-0.000568621	0.000450862	6.75784e-05	
-0.000146417	-0.00029924	0.00185033	
-0.000113606	0.000165483	-0.000395824	
0.0107818	0.0219912	0.0125375	
0.00621806	0.00769962	0.00327325	
0.0107934	0.016132	0.005861	
0.00940745	0.0275314	0.0114869	
-0.000638659	1.99838e-05	0.00182979	
3.74242e-05	-1.53442e-05	-0.00017492	
-0.000588452	0.000135885	0.00222125	
0.00256831	0.00572309	0.00227369	
0.000130909	4.21966e-05	-0.000537616	
-3.94775e-05	-0.000337033	0.00204243	
6.65185e-05	-0.000540836	0.00161727	
-0.000282911	-0.000209709	0.00241877	
0.029088	-0.0146932	0.00916719	
0.00351565	0.00405932	-0.0276742	
-0.00686958	0.0219454	-0.00422505	
0.00139663	-0.00282423	-0.000242571	
-0.00604679	0.0195821	-0.00603552	
-0.00839046	0.0267233	-0.00498581	
-0.00857653	0.0113819	-0.00954478	
-0.0073718	0.00833088	-0.00625053	
0.00168468	-0.00756043	0.00385811	
0.000635682	-0.00482528	0.00237483	
-0.000555446	0.00225447	-0.00114129	
0.00132333	0.000145803	0.00370773	
-0.000194071	-7.86372e-05	-0.00247254	
-0.0234922	0.0285408	-0.0228411	
-0.00960366	0.0251217	-0.0142749	
0.00142298	-0.00236701	-0.00182237	
0.000862039	-0.00397253	0.00172201	
0.000670107	-0.00377508	0.00184322	
0.000289009	-0.00341933	0.000952336	
-0.00188295	0.00708136	-0.00317015	
2.76517e-05	-0.000359647	9.91839e-05	
-0.000214627	-0.000137212	-0.000111582	
0.000159008	-0.000135834	-3.01463e-05	
0.000181253	-7.30998e-05	-0.000312883	
-0.000795545	-0.00146162	-2.13661e-05	
0.0289219	-0.0612342	0.0218395	
0.00360932	-0.00402228	-0.00115776	
-0.00124334	-0.00153812	-0.00246637	
-0.00570528	0.0168084	-0.00514544	
-0.000384908	-0.00057255	-0.000556175	
0.000123863	-0.00206317	-0.00230125	
0.000377772	-0.000171781	-0.000518349	
0.0118453	-0.00709451	0.00156386	
1.51552e-05	-0.0017809	-0.00136418	
-0.000113756	-0.000760282	-0.000809948	
-3.38595e-05	-0.000223783	-0.0003144	
0.000252989	-3.62968e-05	-0.000387636	
-0.00267518	0.00368864	0.00565544	
0.00718232	-0.0244347	-0.00828285	
-0.00689235	2.49118e-05	0.0346399	
0.00552281	-0.00108308	-0.010411	
0.0072345	-0.00116117	-0.0126813	
0.0118466	-0.0032437	-0.0217274	
0.0014482	0.00215136	-0.00791064	
0.00692093	-0.000888043	-0.0118851	
0.00475127	0.000481402	-0.015426	
0.0082397	-0.00144495	-0.0135065	
0.0133506	0.00340145	0.0463879	
0.00265754	-0.00293278	0.00514674	
0.0019677	0.0013688	0.0291726	
-0.00162448	0.00331728	0.00134606	
0.00378568	0.000597757	-0.0118904	
0.00140513	0.00260633	-0.00665255	
0.000870225	0.0034389	-0.00257127	
-0.000933346	0.00239452	-0.00165025	
0.00788687	0.00466536	0.0332444	
0.00610265	-0.00720174	0.00974141	
0.00296909	0.00214268	0.0340266	
0.000162409	-1.51539e-05	-1.13821e-05	
0.0069287	-0.0044046	0.01053	
0.000112334	0.000117845	-5.49024e-05	
-0.00201636	0.000135941	0.0252752	
-1.32303e-05	0.000251576	-9.67122e-05	
-0.000765608	0.00357125	1.04294e-05	
0.00102818	0.00134029	-0.000170037	
-0.002751	0.00273879	0.010614	
-0.000755724	0.0015544	-0.00130044	
-0.00144206	0.000760512	0.0130149	
0.00157362	0.00341211	-0.00558975	
0.000157665	-0.000537277	-0.000119569	
-0.000154154	0.00338572	-0.000883672	
0.00119174	0.00258371	7.99075e-06	
0.00114716	0.000439368	-0.000378925	
0.00122353	0.0019806	6.55016e-05	
-0.00476032	-0.0127391	-0.00295769	
-0.0249548	-0.0510513	-0.16287	
-0.00366705	-0.00605185	-0.000404813	
0.00261227	0.0057179	0.00258083	
-0.00160276	-0.00274061	0.000493325	
0.00645443	0.0132022	0.00866797	
-0.0110767	-0.0232923	-0.0071391	
0.00502126	0.00896598	0.00430712	
-0.00267952	-0.00690042	-0.00392475	
-0.00216198	0.00435786	0.00456247	
0.00163165	0.00334195	0.00421239	
-0.00452258	-0.00402965	-0.0128979	
0.00513783	0.00956752	0.00500067	
-0.000422082	-0.00190387	0.000694897	
0.00528482	0.0109853	0.0057125	
0.00487367	0.00897731	0.00409214	
0.000497102	-0.00035461	0.00191721	
-0.00527572	-0.0156536	-0.00952362	
-0.00176187	-0.00518681	-0.00258819	
-0.000382059	-0.00118208	0.00161849	
-0.000452093	0.000268456	-0.000458406	
0.000508581	-0.000492053	0.000631616	
0.000465806	0.000459604	-0.00035635	
-0.000135769	-0.000314881	0.00184574	
-8.37272e-05	0.000122177	-0.000292842	
0.0115889	0.0216697	0.0124769	
0.00515138	0.00879296	0.00321653	
0.0101774	0.016986	0.00562181	
0.0126905	0.0257717	0.0106515	
-0.000502608	6.10282e-05	0.00160169	
2.89727e-05	-1.15673e-05	-0.000121691	
-0.000531133	0.000205516	0.001962	
0.00286503	0.00564089	0.00225733	
0.000138958	2.63613e-05	-0.000519757	
-3.38668e-05	-0.00030505	0.0016213	
6.87078e-05	-0.000591995	0.00168872	
-0.000239526	-0.000188257	0.00230768	
0.0278322	-0.0155369	0.0137913	
0.00390644	0.0043145	-0.0264466	
-0.00801042	0.0219079	-0.00505295	
0.00132195	-0.00290086	0.000571325	
-0.00605076	0.0200361	-0.00584807	
-0.00886055	0.0269929	-0.00533144	
-0.00651401	0.0132552	-0.0090974	
-0.00531724	0.0100399	-0.00637974	
0.00143161	-0.00711288	0.00420623	
0.000592453	-0.00443878	0.00265662	
-0.000635423	0.00247414	-0.000869299	
8.4329e-06	-0.00127321	0.00347319	
1.84509e-05	-6.76419e-05	-0.00251768	
-0.0183237	0.0336331	-0.0229556	
-0.0126544	0.0237367	-0.0153782	
0.000784327	-0.00242912	-0.00174795	
0.000834677	-0.0035936	0.00204325	
0.000664143	-0.00340058	0.00212225	
0.000261205	-0.00309723	0.00137091	
-0.00177994	0.00746361	-0.00298854	
0.000100922	2.35961e-05	-0.000106182	
8.75137e-05	5.19102e-05	4.67204e-05	
-1.23532e-05	8.75438e-05	1.03108e-05	
6.90691e-05	-3.06659e-05	-0.00012146	
-0.000885553	-0.00130642	4.94056e-05	
0.0287832	-0.0617795	0.0203613	
0.0025222	-0.00483926	-0.000619379	
-0.000448056	-0.0016746	-0.00222788	
-0.00688049	0.016366	-0.0061831	
-0.000436343	-0.000729956	-0.000620611	
6.63405e-05	-0.00205833	-0.00223097	
0.000405786	-0.000192818	-0.000568819	
0.00976435	-0.00831592	0.00476641	
-5.67654e-05	-0.00174818	-0.00125141	
-0.000113275	-0.000711674	-0.000875354	
6.41318e-06	4.41071e-05	6.21891e-05	
0.000176896	-2.83992e-05	-0.000273533	
-0.00306803	0.0035263	0.00544291	
0.0105076	-0.0226195	-0.00505772	
-0.00732205	5.00031e-05	0.0353407	
0.00575746	-0.00113162	-0.0107738	
0.00692937	-0.0012264	-0.013353	
0.0102078	-0.0042318	-0.0232485	
0.00225794	0.00184519	-0.00770548	
0.00619389	-0.00133585	-0.0128532	
0.00601949	0.000150515	-0.0150968	
0.00704792	-0.00220158	-0.0147398	
0.0138448	0.00338788	0.047193	
0.00306865	-0.00243898	0.0058911	
0.00191519	0.00166841	0.0296275	
-0.00195963	0.00426162	0.000751295	
0.00432638	-0.000140947	-0.0118106	
0.00201898	0.00220186	-0.00646216	
0.00103923	0.0033661	-0.00285623	
-0.00104945	0.00246902	-0.00180819	
0.00817301	0.00484316	0.0338529	
0.0055794	-0.00692345	0.0105032	
0.00311977	0.00263065	0.0349012	
-0.000156821	-3.22591e-05	-4.81928e-05	
0.00732237	-0.00469825	0.0107867	
9.38241e-05	5.82218e-05	9.91551e-05	
-0.00198565	0.00043436	0.0259837	
-1.02878e-05	0.000122475	-5.16432e-05	
-0.000781982	0.00321719	0.000117644	
0.0011033	0.00144801	-0.000188826	
-0.00288051	0.00270894	0.0108704	
-0.000944294	0.00184039	-0.00158767	
-0.0014084	0.0009983	0.0135732	
0.00172422	0.00321421	-0.00559595	
0.00014116	-0.000486127	-0.000111552	
-0.000142804	0.00309437	-0.000771746	
0.00127513	0.00278233	5.1415e-05	
0.0011301	0.000386167	-0.000349689	
0.00130881	0.00216045	7.39719e-05	
-0.00567424	-0.0126267	-0.00251926	
-0.0270633	-0.0614767	-0.165811	
-0.00305731	-0.00518511	-0.000298495	
0.00299959	0.00551684	0.00259812	
-0.00150116	-0.00264656	0.000314633	
0.00616994	0.0129752	0.00828434	
-0.0122885	-0.0222069	-0.00675553	
0.00556692	0.00893317	0.00401	
-0.00278438	-0.00710504	-0.00433965	
0.000485549	0.00204145	0.0053136	
0.00169254	0.00365972	0.00420219	
-0.00339493	-0.00710177	-0.0113873	
0.00565605	0.00959524	0.00476214	
-0.000408293	-0.00147271	0.000569893	
0.00582053	0.011587	0.0057372	
0.00498058	0.00916297	0.00403535	
0.000495178	-0.000210062	0.00174565	
-0.00494893	-0.0153955	-0.00998404	
-0.00222585	-0.00483455	-0.00295736	
-0.000420592	-0.00126568	0.0012029	
0.000369468	0.000207263	-0.000150582	
0.000386807	-0.000504344	0.000598744	
0.000501081	0.000225412	-0.000252098	
-0.00011853	-0.00028699	0.00166912	
-7.01367e-05	0.000103267	-0.000249311	
0.0117926	0.021881	0.012148	
0.00499413	0.00908873	0.00321429	
0.00987706	0.0174351	0.00568816	
0.0125501	0.0253659	0.0102814	
-0.000430013	7.64172e-05	0.00133267	
1.46175e-06	-1.58058e-06	-8.47991e-06	
-0.000462385	0.000185883	0.00170052	
0.00301435	0.00557106	0.00244752	
7.76565e-05	1.14042e-05	-0.000281516	
-4.43434e-05	-0.000231969	0.00131591	
7.22707e-05	-0.000554137	0.00158949	
-0.000193151	-0.00015235	0.00192599	
0.025721	-0.0164916	0.0177663	
0.00399952	0.00461068	-0.0264585	
-0.00814433	0.0221924	-0.00492988	
0.0012548	-0.00292539	0.00126803	
-0.00615404	0.0201468	-0.00590236	
-0.00885648	0.0272036	-0.00557022	
-0.00722295	0.0128642	-0.00950758	
-0.00591423	0.00968913	-0.00667361	
0.00148056	-0.00716648	0.00404448	
0.000583257	-0.0045245	0.00254159	
-0.00063835	0.00250233	-0.000950372	
0.000148493	-0.00141417	0.00344899	
-4.80261e-05	-3.63108e-05	-0.00223867	
-0.0205939	0.0330445	-0.0240108	
-0.0129667	0.0243345	-0.0150849	
0.000640124	-0.00223234	-0.0015263	
0.000813337	-0.00362542	0.00190714	
0.000668669	-0.00349245	0.00200356	
0.000220348	-0.00317519	0.00123295	
-0.00182068	0.00745212	-0.00306217	
-7.00382e-06	-2.14439e-06	7.75993e-06	
-8.96188e-06	-5.46513e-06	-4.91362e-06	
4.15807e-06	-5.58531e-06	1.95371e-07	
7.42333e-05	-3.1696e-05	-0.000127924	
-0.000767633	-0.000884788	3.9879e-05	
0.029976	-0.0605202	0.0205946	
0.00219186	-0.00474996	-4.8001e-05	
-9.32844e-05	-0.0017193	-0.00165941	
-0.00702499	0.016584	-0.00602841	
-0.000297338	-0.000494673	-0.000437647	
1.87816e-05	-0.00173514	-0.0018114	
0.000268759	-0.000127226	-0.000378622	
0.0080294	-0.00872701	0.00650813	
-0.00010995	-0.00157528	-0.00107311	
-0.000113598	-0.000680996	-0.000797601	
-4.49683e-06	-3.11399e-05	-4.38697e-05	
0.000138841	-2.37045e-05	-0.000214272	
-0.00294847	0.00382581	0.0048327	
0.0125454	-0.0208546	-0.00489225	
-0.00645149	-0.00164299	0.0362325	
0.00566243	-0.000849961	-0.0112006	
0.00658128	-0.00153047	-0.01384	
0.0116421	-0.00501473	-0.0226974	
0.00253019	0.00129337	-0.00787307	
0.00578395	-0.00157632	-0.0131356	
0.00628815	-0.000456301	-0.0150134	
0.00688965	-0.00284104	-0.0147351	
0.0147599	0.00280009	0.0474185	
0.00318787	-0.00249525	0.00616981	
0.00255136	0.000947986	0.0302698	
-0.00145371	0.00486645	0.000272651	
0.00483435	-0.00041561	-0.0116691	
0.0022014	0.00179782	-0.00673617	
0.000661766	0.00262786	-0.00167935	
-0.000738808	0.00168216	-0.00128958	
0.00868312	0.0044751	0.0342079	
0.00550058	-0.00695374	0.0106764	
0.00369983	0.00197935	0.0355353	
-7.4427e-05	-3.36299e-05	4.00152e-06	
0.00763048	-0.00490151	0.0108994	
2.403e-05	3.90125e-05	4.81038e-05	
-0.0013345	-0.000533943	0.0265436	
-5.83918e-05	0.000562565	-0.000252894	
-0.000789307	0.00316175	0.000277588	
0.000574531	0.000749469	-0.000117759	
-0.00268827	0.00138299	0.0114727	
-0.000648584	0.00121015	-0.00108635	
-0.00139644	3.45076e-05	0.0140763	
0.00155578	0.0028205	-0.00538502	
6.47503e-05	-0.000217073	-6.413e-05	
-0.00012177	0.00292767	-0.000728395	
0.000753536	0.00160794	2.03091e-05	
0.00048626	0.000170793	-0.000167836	
0.000730155	0.00117105	2.1772e-05	
-0.00609231	-0.0124873	-0.00197206	
-0.00623989	-0.0628502	-0.171363	
-0.00282636	-0.00502521	-0.000472898	
0.00326169	0.00541759	0.00295682	
-0.00145654	-0.00271801	-5.82553e-05	
0.00597952	0.0129773	0.00798366	
-0.0120027	-0.0223129	-0.00627318	
0.0056793	0.00894047	0.00457238	
-0.00287641	-0.00727864	-0.00474557	
0.000315335	0.00142094	0.00511634	
0.00160174	0.00369049	0.00383501	
-0.00300791	-0.00551722	-0.0124607	
0.00563829	0.00954959	0.00552295	
-0.000263554	-0.00131972	0.000773377	
0.00580099	0.0119546	0.00577178	
0.00503067	0.00910651	0.00478912	
0.00030029	-0.000259482	0.00115032	
-0.00492111	-0.0153687	-0.0101122	
-0.00193516	-0.00493791	-0.0031321	
-0.000329284	-0.00103255	0.000811595	
0.000242017	0.000148399	-0.000114212	
0.000388366	-0.000328704	0.000335019	
0.000354704	-0.000129591	6.00668e-05	
-9.22906e-05	-0.000245162	0.0014205	
4.59051e-06	-6.61188e-06	1.67354e-05	
0.0116864	0.0222482	0.0120486	
0.00507458	0.00917263	0.00412465	
0.0098441	0.0177852	0.00648576	
0.0120853	0.0256652	0.0102006	
-0.000444875	8.99913e-05	0.00136121	
-0.000194322	7.88727e-05	0.00079755	
-0.000405304	0.000169096	0.00146713	
0.00304105	0.00558946	0.00296747	
-0.000111845	-1.60989e-05	0.000399636	
-5.51751e-05	-0.000218549	0.00133496	
5.96314e-05	-0.000439851	0.00125998	
-0.000158618	-0.000112028	0.00155248	
0.023249	-0.0186055	0.020612	
0.00384194	0.0048596	-0.0261211	
-0.00822921	0.0224373	-0.00483252	
0.00102652	-0.00305422	0.00153029	
-0.00616555	0.0203175	-0.00593633	
-0.00885698	0.0274044	-0.00570355	
-0.00764727	0.013148	-0.00915769	
-0.00629994	0.00999731	-0.00617494	
0.00143898	-0.0070578	0.00404021	
0.000560893	-0.00442487	0.00260804	
-0.00065724	0.00256854	-0.000943922	
-0.000730332	-0.00126679	0.00336498	
-0.000247635	0.000295446	-0.00170843	
-0.021141	0.0340964	-0.023677	
-0.0128699	0.0248626	-0.0149329	
0.000667385	-0.00190985	-0.00110773	
0.00079841	-0.00353477	0.00190819	
0.000653852	-0.00343023	0.00202345	
0.000212389	-0.00311673	0.00127668	
-0.00182223	0.0075439	-0.00306841	
3.38236e-05	2.89567e-06	-2.30138e-05	
2.19249e-05	1.35057e-05	1.24332e-05	
-4.12273e-07	2.42583e-05	2.50094e-06	
6.02404e-05	-2.61585e-05	-0.000104037	
-0.00104666	-0.00103944	3.91732e-05	
0.0292983	-0.0605551	0.0206992	
0.00233904	-0.0042395	0.000347245	
-4.80041e-05	-0.00150863	-0.001316	
-0.00704781	0.0167243	-0.00589663	
-0.000225984	-0.000371014	-0.000338209	
-7.04452e-08	-0.00136571	-0.00137249	
0.000210719	-9.83811e-05	-0.000295313	
0.00727714	-0.00881001	0.00724179	
-0.000141378	-0.00160388	-0.00107252	
-7.95858e-05	-0.000443397	-0.000525138	
-8.46661e-07	-5.9947e-06	-8.38979e-06	
0.000116078	-1.97592e-05	-0.000179865	
-0.00313072	0.00350262	0.00480254	
0.00960204	-0.0211733	-0.0067888	
-0.00563607	-0.00265066	0.0366938	
0.00599619	-0.00145781	-0.0110973	
0.00672461	-0.00199556	-0.0135302	
0.011974	-0.00573303	-0.0226497	
0.00246167	0.000497068	-0.00726916	
0.00642796	-0.0023658	-0.0127208	
0.00643157	-0.00122927	-0.0150829	
0.00752524	-0.00338865	-0.0143445	
0.0150068	0.002204	0.0476499	
0.00360694	-0.00259584	0.00607434	
0.00278704	0.000437553	0.0305898	
-0.000368822	0.00526221	-0.000479749	
0.00509863	-0.00121138	-0.0115258	
0.0020093	0.000641649	-0.00599963	
0.000626904	0.00101653	-0.00129016	
-0.000490145	0.00110348	-0.000856515	
0.00896478	0.0041102	0.0344073	
0.00538313	-0.0068842	0.0108398	
0.00390154	0.0015632	0.0358255	
-6.04632e-05	1.42254e-08	-3.39947e-05	
0.00766812	-0.00492362	0.0110684	
5.49233e-06	4.58805e-05	3.62374e-05	
-0.000986137	-0.00106724	0.0266718	
-1.74359e-05	0.000140748	-6.44325e-05	
-0.000673442	0.00147731	0.00111176	
0.000318842	0.00041548	-6.95134e-05	
-0.00239344	0.000245346	0.0117513	
-0.000405522	0.000744122	-0.000673484	
-0.00132566	-0.000515832	0.0142561	
0.00148134	0.00101662	-0.00500586	
4.73082e-05	-0.00015217	-4.828e-05	
-3.99338e-05	0.00110111	-0.000274659	
0.000343126	0.00073137	-1.65299e-06	
0.000309078	0.000111115	-0.000109834	
0.000336741	0.000539863	2.76126e-06	
-0.00687311	-0.0124296	-0.00229162	
-0.0118711	-0.0613935	-0.17468	
-0.00189166	-0.00343221	-0.000349569	
0.00333103	0.00545284	0.00213778	
-0.00122656	-0.00247685	-0.00055566	
0.00531718	0.0120757	0.00680063	
-0.0119116	-0.0213138	-0.00744146	
0.00552696	0.00933525	0.00305922	
-0.00276607	-0.00722258	-0.00526333	
-0.00041898	0.00120387	0.0054468	
0.00183014	0.00475877	0.00381683	
-0.00216015	-0.00456095	-0.0133915	
0.00598553	0.00979691	0.00397798	
-0.000287581	-0.000727322	5.17111e-05	
0.00637922	0.0126749	0.0049871	
0.0056521	0.00916547	0.00322035	
0.00062609	0.000699643	0.00170114	
-0.00491361	-0.0156136	-0.010852	
-0.00238271	-0.00425489	-0.00404638	
-0.000733652	-0.00217882	-8.76413e-05	
0.000179684	0.000123118	-8.0248e-05	
0.000220924	-0.000263518	0.000262017	
0.000310884	-5.42292e-05	6.18994e-05	
-4.09628e-05	-0.000120863	0.000692155	
-0.000130378	0.000194435	-0.000472454	
0.0116844	0.0223413	0.0113453	
0.00563761	0.00901477	0.00239214	
0.0103673	0.0176348	0.00497314	
0.0115326	0.0248016	0.0088094	
-0.000179336	3.6869e-05	0.000549533	
0.000198496	-8.51611e-05	-0.000830901	
-0.000272275	0.000113376	0.000978052	
0.00328447	0.00567348	0.00192302	
0.00023775	2.63029e-05	-0.000872561	
-2.83689e-05	-9.80685e-05	0.000620069	
2.14823e-05	-0.000203065	0.000590749	
-0.0001289	-9.74346e-05	0.00130522	
0.022034	-0.018644	0.0218639	
0.0039096	0.00488952	-0.0259763	
-0.00830244	0.0225405	-0.00472279	
0.00167188	-0.00247492	0.00206605	
-0.00615767	0.0203486	-0.00592153	
-0.00892359	0.0275092	-0.00566876	
-0.0078121	0.013393	-0.00891364	
-0.00659718	0.0103522	-0.00588826	
0.00144555	-0.00701554	0.00399613	
0.000552657	-0.0044181	0.00257831	
-0.000668319	0.00260708	-0.000951678	
-0.00101546	-0.00116342	0.00330706	
-0.000191087	0.000255215	-0.00136461	
-0.0212591	0.0349738	-0.0235548	
-0.0128946	0.0252758	-0.0148424	
0.0003904	-0.00117638	-0.000733182	
0.000792057	-0.00349799	0.00187002	
0.000642444	-0.00342766	0.00199966	
0.000196777	-0.00310871	0.00126449	
-0.00183107	0.00758318	-0.00310201	
1.43368e-05	7.60235e-07	-8.03789e-06	
7.75672e-06	4.85003e-06	4.49677e-06	
1.27525e-06	9.36671e-06	1.59128e-06	
2.90403e-05	-1.31808e-05	-5.0622e-05	
-0.000152291	-0.00013804	3.46319e-06	
0.0290851	-0.0604512	0.0204815	
0.00229024	-0.00409746	0.000451214	
0.000541976	-0.0017413	-0.000432983	
-0.00712272	0.0168598	-0.00578378	
-0.000139435	-0.00022848	-0.000210462	
-1.05756e-05	-0.00123104	-0.00125985	
0.000106178	-5.00873e-05	-0.000147994	
0.00719431	-0.00782821	0.00758645	
-4.44129e-05	-0.000465246	-0.000296271	
-5.31653e-05	-0.000309401	-0.000375031	
-1.72291e-06	-1.23519e-05	-1.73387e-05	
5.5848e-05	-1.02946e-05	-8.72916e-05	
-0.00320141	0.00336206	0.0048081	
0.00789622	-0.0213935	-0.00672472	
-0.0055411	-0.00266631	0.0369355	
0.00606136	-0.00166963	-0.0112248	
0.00692702	-0.00220936	-0.0136774	
0.0118844	-0.00578768	-0.0233087	
0.00228956	0.00018195	-0.00680888	
0.00637958	-0.00227164	-0.0130936	
0.00614546	-0.00157274	-0.0147306	
0.00751452	-0.00334101	-0.0147135	
0.0151159	0.00179023	0.0476894	
0.00387265	-0.00292097	0.00608671	
0.00294577	0.000339794	0.0307293	
-0.000714316	0.00561289	0.00103655	
0.00495257	-0.00117692	-0.0119286	
0.00185914	0.000314436	-0.00568805	
0.000589181	0.000947157	-0.00116666	
-0.00061657	0.00136766	-0.00106804	
0.00908853	0.00389482	0.0345422	
0.00521071	-0.00686941	0.0110175	
0.00394296	0.00150391	0.0360703	
3.7305e-05	6.86773e-06	-3.15065e-05	
0.00758185	-0.00512979	0.0111778	
-9.55255e-06	6.08246e-05	1.26033e-05	
-0.000929763	-0.00103363	0.0268314	
-5.9374e-06	4.28692e-05	-2.0017e-05	
-0.000659508	0.00126994	0.00132538	
0.000300035	0.000397068	-6.67862e-05	
-0.00236676	0.000184579	0.0118578	
-0.000521754	0.00094779	-0.000871768	
-0.00129428	-0.0004752	0.014317	
0.00140333	0.000938547	-0.00497011	
6.2835e-05	-0.000182706	-6.16297e-05	
-3.13356e-05	0.000969003	-0.000237523	
0.00032675	0.000696414	-3.02805e-06	
0.000309925	0.000117026	-0.000110042	
0.00032857	0.000534115	9.65985e-07	
-0.00660942	-0.0124907	-0.00168187	
-0.0237665	-0.0480734	-0.181792	
-0.00204704	-0.00345208	4.37216e-05	
0.00338746	0.00536774	0.00304139	
-0.00135265	-0.00250463	6.17431e-05	
0.00546727	0.0120027	0.00750823	
-0.0112156	-0.0219423	-0.00566116	
0.00570916	0.00922837	0.00508616	
-0.00308061	-0.00767304	-0.00499481	
-0.000490955	0.001579	0.0049901	
0.00203909	0.00468979	0.00453852	
-0.00178118	-0.00343937	-0.0135894	
0.00563954	0.00992228	0.00598513	
8.47199e-05	-0.000851294	0.00118777	
0.00610563	0.0127496	0.00597494	
0.00515243	0.00948442	0.00510895	
0.000721571	0.000523623	0.00193507	
-0.00471679	-0.0154907	-0.0107148	
-0.00221978	-0.00454191	-0.0039066	
-0.000862527	-0.00238575	0.000121955	
0.000323693	-5.60946e-05	-3.59823e-05	
0.000347349	-0.000418996	0.000430788	
0.000384522	-0.000101704	0.000127898	
-7.94323e-05	-0.000251377	0.00142176	
3.93021e-05	-5.85635e-05	0.000143456	
0.0115262	0.0223818	0.0119751	
0.0051357	0.00930743	0.00422631	
0.010096	0.0179707	0.0067526	