<VTKFile type="UnstructuredGrid" version="0.1" byte_order="LittleEndian">
	<UnstructuredGrid>
		<Piece NumberOfPoints="10323" NumberOfCells="10323">
			<CellData Scalars="scalars">
				<DataArray type="Float64" Name="Strength" NumberOfComponents="3" Format="ascii">
-0.00797817	-0.0152081	0.0132773	
0.00205557	-0.0171038	-0.0258989	
-0.00829207	0.0724411	-0.00348027	
0.00492007	-0.00687593	-0.00691066	
0.00594028	0.000241719	-0.0111475	
0.00873928	0.054458	-0.0343691	
-0.00266293	0.085667	-0.0334961	
0.000932877	0.0165191	-0.0181367	
0.0012112	0.0840328	-0.0353841	
0.00164537	0.0297234	-0.0259865	
0.00241283	0.0140399	0.0433593	
0.00503693	-0.00200575	-0.00194164	
-0.00715826	0.0424311	0.00884235	
0.000446244	-0.00262714	4.97757e-05	
-0.00147181	0.0714672	-0.0355963	
-0.00244014	0.0870932	-0.0239357	
0.0074857	0.096004	-0.00182931	
-0.0107401	0.0603326	-0.0341355	
0.00149907	0.0172093	0.0266014	
0.00727715	-0.0107898	0.00641226	
-0.00751215	0.0365331	0.0164347	
0.0016223	0.00308153	8.70569e-06	
0.00479378	-0.00526533	0.00914776	
-1.49159e-05	0.000146825	-0.00258513	
-0.00867533	0.0504042	0.0011589	
-0.000951704	-0.0126899	0.00320092	
-0.00571791	0.0880932	-0.021691	
0.0104868	0.0396328	0.0147106	
0.00103089	0.0879151	-0.00381578	
-0.0102489	0.0428125	-0.0254343	
0.00173063	0.0538928	0.0105908	
0.000961747	0.0915511	-0.00789478	
-0.000155302	0.00063082	0.000120269	
-0.00356899	0.0875104	-0.0144167	
-0.00124096	0.0778822	0.0204064	
0.0183265	0.0089427	0.00862118	
0.00749405	0.0565943	0.0229306	
-0.0122612	-0.00580813	-0.0249899	
0.00322943	-0.11417	-0.0839642	
-0.00863353	0.0117849	0.0501914	
0.000717152	0.011935	-0.0135276	
0.00511614	-0.00778768	0.0549564	
0.00580424	-0.0272273	0.0626652	
-0.0180628	-0.0257703	0.052205	
0.0153512	-0.0128979	0.0526817	
0.0116097	-0.0208153	0.0343022	
0.0124581	0.000933816	0.0160494	
-0.000349388	-0.0143288	0.0564463	
-0.0156571	-0.0126361	-0.0169642	
0.00813787	-0.00375247	0.0488938	
0.00151458	-0.0109865	0.0262454	
0.00205903	0.00486367	0.0552272	
0.00418546	0.00202742	0.0406518	
0.0141027	-0.0221088	0.0441361	
0.0240305	-0.0114133	0.0216704	
-0.00657883	-0.0146644	0.0118842	
0.00508194	-0.0207731	0.0542018	
0.0251851	0.00221066	0.0109033	
-0.00918427	-0.0238661	0.00472458	
-0.00908362	0.00291926	0.0174558	
-0.00207087	-0.00994591	0.0590399	
-0.00539143	0.00852226	-0.0201542	
0.0201038	0.00764305	0.039235	
0.00374079	0.00406004	0.0317346	
0.00917322	0.0130762	0.0165762	
0.0203054	-0.0196742	0.0732822	
-0.00674279	0.00254544	0.0405601	
-0.00210606	-0.000957912	0.0190821	
-0.00270103	0.00379189	0.0448449	
0.00320816	0.00884498	-0.0104913	
0.00063325	0.000887028	-0.00479652	
0.000686663	-0.00520982	0.024768	
0.00565508	-0.0243451	0.0510484	
-0.0038357	-0.00649069	0.0521516	
0.0139156	-0.0585546	-0.00660084	
0.00209373	0.0134183	-0.0342722	
-0.0089563	0.00015896	-0.0317883	
-0.0115527	-0.0388241	-0.0180169	
-0.00905213	0.0143501	-0.0108579	
-0.0146313	0.0107441	-0.0229068	
0.00351588	-0.0108239	-0.052735	
0.00611657	-0.0188975	-0.0552925	
0.00242999	-0.00953631	0.00196284	
0.000624776	-0.00737943	0.00111371	
3.03041e-05	0.000505653	-0.00356521	
-0.00254747	-0.00610895	0.00348335	
0.00721436	-0.0314157	-0.061912	
-0.0186948	-0.00902275	-0.0471912	
-0.0270453	-0.0303827	-0.0335362	
0.00522172	-0.043311	-0.0577577	
0.000962849	-0.00490226	0.000951069	
0.000461984	-0.00605095	-0.000266237	
0.000253277	-0.00534407	-0.00166464	
-0.00202526	0.00499498	-0.00484092	
0.000686482	-0.000674837	0.0038179	
-0.00213995	-0.00213873	-0.000674446	
0.00160076	-0.000354376	-0.00231227	
0.00501088	-0.00247354	-0.00944648	
-0.0210344	-0.043867	-0.0138425	
0.0543424	-0.0609841	-0.0337345	
0.00687211	-0.0473048	-0.0537036	
-0.00477928	-0.0494603	-0.0494936	
-0.00489265	-0.00305137	-0.0347436	
-0.0143573	-0.0492211	-0.0308225	
0.00176812	-0.046312	-0.0512626	
0.00749085	-0.00738642	-0.041218	
0.00592763	-0.0497828	-0.0328017	
-0.00322592	-0.0598855	-0.0516138	
0.000825052	-0.0115316	-0.0137271	
1.17669e-06	6.81671e-06	9.0369e-06	
0.00939433	-0.000768035	-0.0204342	
-0.00221861	0.00308114	0.00643979	
-0.00106743	-0.0252773	-0.015988	
-0.0214098	-0.00152893	0.0264054	
0.00453879	-0.00020054	-0.0106208	
0.00643658	0.00110982	-0.0129347	
0.0192903	0.0116769	-0.0128152	
0.00518496	0.0128953	-0.00344482	
0.00652048	0.0036539	-0.012238	
0.0122754	0.0154809	-0.00445555	
0.00932867	0.00576713	-0.0130696	
0.0167844	0.00449356	0.0433645	
0.00182376	-0.0036605	0.00308045	
-0.0010244	-0.00027461	0.0280369	
1.76363e-05	0.00219869	0.000584887	
0.00885	0.0128961	-0.00639288	
0.00472994	0.0126728	-0.00185271	
0.0019118	0.0110826	0.00184909	
-0.00169389	0.00848485	-0.00601816	
0.00952418	0.00446996	0.0315452	
0.00541313	-0.00691659	0.0098099	
0.00234079	0.00183418	0.0326318	
0.000108713	3.51515e-05	-0.000210417	
0.00520571	-0.00379741	0.0103151	
-0.00014111	0.000195979	-0.000342333	
-0.0078226	4.46379e-05	0.0230887	
4.42603e-06	0.00018995	-5.68239e-05	
-0.00173979	0.0108369	-0.00131899	
0.00368887	0.00410462	0.00097733	
-0.0092854	0.00550593	0.00704803	
-0.00196138	0.00632178	-0.00492882	
-0.00400782	0.00213504	0.0121866	
0.00398145	0.0110059	0.000726036	
-0.000175263	-0.00135962	5.69144e-06	
-0.000625032	0.0101861	-5.79134e-05	
0.00256311	0.00696563	0.0045976	
0.0025995	0.000594217	-0.00075147	
0.00328392	0.00559037	0.00304204	
-0.00341327	-0.0123427	-0.00481814	
0.00567332	-0.0633888	-0.146001	
-0.00958339	-0.00491796	0.00276904	
0.00164679	0.00651719	0.00178218	
-0.0031083	-0.00423031	0.00405591	
0.0125243	0.00582632	0.015882	
-0.02424	-0.0144835	3.57846e-05	
0.00999968	0.00295809	0.00554829	
-0.000411704	-0.00817532	-0.000106303	
-0.00103796	0.000521192	0.00690098	
0.00140768	-0.00104112	0.0076316	
-0.000457834	-0.00437178	-0.0124532	
0.00962856	0.00382936	0.00671957	
-0.00127725	-0.003052	0.00423813	
0.00816228	0.00534953	0.0098662	
0.00809568	0.00486153	0.00600544	
0.00073283	-0.00293007	0.00479056	
-0.00467878	-0.0150252	-0.0081386	
-0.00016817	-0.00591853	-0.000232975	
0.000100786	-0.00245495	0.00650483	
-0.00205192	0.00106065	-0.000787002	
0.00134639	-0.00174416	0.00203419	
-0.000202596	0.00226575	0.000665364	
-0.000672611	-0.00268749	0.00565439	
-0.000370999	0.000549826	-0.00131087	
0.0190493	0.0152939	0.0161916	
0.00738629	0.00600056	0.00490703	
0.011263	0.0152851	0.00660452	
0.0255152	0.013047	0.0176849	
-0.00158864	0.00071844	0.00567399	
-0.000144166	3.30339e-05	0.000786791	
-0.00109103	0.000668284	0.00680821	
0.00237501	0.00599044	0.00142235	
0.000188274	0.000113343	-0.000929407	
-0.00010214	-0.000810818	0.00607299	
0.000176671	-0.00288035	0.00535334	
-0.000623866	-0.00204214	0.00717548	
0.0281704	-0.0177453	0.00488002	
0.00169408	0.0016632	-0.0256742	
-0.0115589	0.0196372	-0.00437378	
-3.28686e-05	-0.00627031	-0.00216564	
-0.00532506	0.0203038	-0.00484401	
-0.00981693	0.0262573	-0.00445551	
-0.0111647	0.00357652	-0.0134113	
-0.00874429	0.00135335	-0.0100758	
0.00113686	-0.00635663	0.00519945	
0.000351059	-0.00358453	0.00347712	
-0.000700663	0.00267616	-4.0503e-05	
0.00167338	-0.00130984	0.00293516	
0.000306705	-0.00242228	-0.00789746	
-0.0330953	0.0093424	-0.0241847	
-0.0216796	0.0185085	-0.00939919	
0.00245972	-0.00508328	-0.0078339	
0.000986038	-0.00297875	0.00302458	
0.000708818	-0.00254259	0.00292733	
0.000460274	-0.00244505	0.00219246	
-0.00130171	0.00810668	-0.00221639	
-0.000478244	-0.00113857	0.000498313	
0.000907506	0.000385728	0.000409361	
0.000466963	0.000459478	0.00049023	
-0.000240353	8.93282e-05	0.000392123	
-0.00238605	-0.00481205	-0.000523045	
0.0550589	-0.0461455	-0.00329547	
0.00478617	-0.00652174	-0.00739527	
-0.00217452	-0.00631304	-0.00651061	
-0.0101347	0.014302	-0.00530468	
-0.0010256	-0.00203183	-0.00182369	
0.00034244	-0.00651722	-0.00719213	
0.000772815	-8.17762e-05	-0.00135481	
0.0123657	-0.00970599	-0.00471939	
-0.00014134	-0.0055784	-0.00447803	
-0.000105648	-0.0031117	-0.00285546	
0.000101818	0.000733377	0.00103054	
9.4957e-05	-1.8929e-06	-0.000147554	
-0.00244335	0.00339539	0.00613675	
0.000808397	-0.0261837	-0.0105542	
-0.00408032	-0.00480944	0.0340259	
0.00530678	-0.00102728	-0.0103493	
0.00742281	-0.000714694	-0.01224	
0.0172589	0.000420421	-0.016748	
0.00333988	0.00300983	-0.00637564	
0.00765627	0.000191104	-0.0109972	
0.00952311	0.00286213	-0.0121262	
0.00992108	0.000250771	-0.0118491	
0.0124876	0.0078606	0.0451628	
0.00200117	-0.00348736	0.00427432	
0.00164561	0.00233803	0.0286939	
0.00025835	0.00295706	0.00041994	
0.0075373	0.00207188	-0.00914395	
0.00259279	0.00304668	-0.00559023	
0.000707435	0.0032997	-0.00237387	
-0.000662131	0.00224598	-0.00162033	
0.00787896	0.00723822	0.0321743	
0.00598033	-0.00747007	0.00933569	
0.00274266	0.00349013	0.0334444	
-0.000182064	-5.55566e-06	8.37544e-05	
0.00659094	-0.00393229	0.0103089	
-3.64833e-05	4.11746e-05	-0.00015464	
-0.00266444	-4.86201e-05	0.0245803	
-2.05127e-06	6.87227e-05	-2.36267e-05	
-0.000761444	0.00288387	0.000657661	
0.00115568	0.00127765	-0.000152994	
-0.00144941	0.000286305	0.0107924	
-0.000619748	0.00157806	-0.00137305	
-0.000993123	8.00228e-05	0.0125699	
0.00115834	0.0036575	-0.00497281	
8.36428e-05	-0.000563027	-5.33811e-05	
-0.000156488	0.00281154	-0.000184837	
0.00100415	0.0022333	0.000228587	
0.00113018	0.000311006	-0.000378289	
0.00113223	0.00179039	0.000134349	
-0.00366009	-0.0127867	-0.0035466	
-0.0455921	-0.0565985	-0.149552	
-0.00363517	-0.00773329	-0.000773497	
0.00215249	0.00600593	0.00267898	
-0.00165307	-0.0028453	0.000432693	
0.00695831	0.0139407	0.00883543	
-0.0148305	-0.022033	-0.0069105	
0.0064084	0.00780222	0.00374091	
-0.00199452	-0.00685111	-0.00376839	
0.00259774	-0.000954719	0.00556743	
0.00132292	0.00287329	0.00379038	
-0.0002947	-0.00845984	-0.0116872	
0.0069102	0.00810622	0.00454927	
-0.000779594	-0.00221405	0.000806773	
0.00423607	0.0105316	0.00577925	
0.00641847	0.00760447	0.00385149	
0.000268702	-0.000678012	0.00160158	
-0.00464898	-0.015263	-0.00984819	
-0.00185102	-0.00498393	-0.00273133	
-0.000117721	-0.000525652	0.00199658	
-0.000405621	0.000473837	-0.000218958	
0.000455009	-0.000464962	0.000592224	
-0.000581526	0.000422125	0.000125017	
-0.000160886	-0.000284967	0.00185316	
-0.000114352	0.000165113	-0.000396416	
0.011058	0.0220017	0.0123405	
0.00629495	0.00769087	0.00318757	
0.0107795	0.0161862	0.00582768	
0.0100104	0.0275086	0.0111105	
-0.00062751	5.14673e-05	0.00183509	
3.86615e-05	-1.7735e-05	-0.000174665	
-0.00058042	0.000180196	0.0022225	
0.00258324	0.00572844	0.00226866	
0.000134516	3.89415e-05	-0.000537697	
-5.78005e-05	-0.000318452	0.00204723	
6.48171e-05	-0.000539412	0.00161936	
-0.000299094	-0.000183329	0.00242132	
0.0293119	-0.0148532	0.00832466	
0.00446376	0.00293256	-0.0277053	
-0.00638614	0.0221632	-0.00396893	
0.00138842	-0.00283114	-0.000259932	
-0.0060374	0.0196638	-0.00584414	
-0.00813716	0.0268906	-0.00465075	
-0.00842014	0.0114853	-0.00959624	
-0.00734756	0.00840595	-0.00620832	
0.00176057	-0.00755921	0.0038435	
0.000608123	-0.00477325	0.00249474	
-0.000549292	0.00226698	-0.00112451	
-0.000751726	0.00140665	0.00360397	
-0.00022161	-6.67862e-05	-0.00247341	
-0.0233693	0.028633	-0.0229471	
-0.00982167	0.0252022	-0.0140493	
0.00144777	-0.00233484	-0.00185138	
0.000905848	-0.00397167	0.00171133	
0.000705604	-0.00377506	0.00183844	
0.000366119	-0.0034144	0.000954875	
-0.0018961	0.00710275	-0.00313213	
0.000230101	-0.000292453	-2.8035e-05	
-0.000222412	-0.000136471	-9.6904e-05	
0.00015869	-7.73347e-05	-0.000116628	
0.00018954	-6.69798e-05	-0.000309735	
-0.000808885	-0.00145678	1.43005e-05	
0.0323562	-0.0597829	0.0212957	
0.00368937	-0.00393945	-0.00122074	
-0.00127475	-0.00157486	-0.00243176	
-0.0053476	0.0170023	-0.00495723	
-0.000376573	-0.00058595	-0.000549337	
0.000121468	-0.00207155	-0.00229878	
0.000377985	-0.000168786	-0.000520047	
0.0119458	-0.00701399	0.00129357	
-2.14719e-06	-0.00179356	-0.00135206	
-0.000104202	-0.000765508	-0.000808024	
-3.32198e-05	-0.00022305	-0.000315411	
0.000260592	-3.20179e-05	-0.000383503	
-0.00268999	0.00370431	0.00565122	
0.00546977	-0.0255866	-0.00590643	
-0.00688097	0.000359119	0.0346752	
0.00558461	-0.00106316	-0.0103984	
0.00725912	-0.00113333	-0.0126921	
0.0122422	-0.00331561	-0.0215296	
0.00155706	0.00210259	-0.00791307	
0.006943	-0.000871209	-0.0118934	
0.00511626	0.000401769	-0.0153313	
0.00831696	-0.001449	-0.0134813	
0.0134914	0.00640856	0.046071	
0.00244882	-0.00270489	0.00537805	
0.00181026	0.00214791	0.0291623	
0.000898777	0.00372678	0.00108761	
0.00405826	0.000527838	-0.0118188	
0.00144899	0.002578	-0.00666324	
0.000910434	0.00343374	-0.00257203	
-0.000932861	0.00236574	-0.00169767	
0.00802136	0.00669279	0.0328949	
0.00570623	-0.00711176	0.0100597	
0.00304829	0.0033684	0.0339507	
0.000124278	-7.93173e-05	-7.23419e-05	
0.00667102	-0.00451862	0.0106621	
4.39759e-05	0.000119248	-0.000115492	
-0.00209269	0.000581738	0.0252861	
-1.4909e-05	0.000251468	-9.77645e-05	
-0.000830649	0.00356084	-2.42917e-05	
0.00109594	0.0012846	-0.000191611	
-0.00277736	0.00280699	0.0106015	
-0.000764823	0.00153519	-0.00132186	
-0.00145516	0.0009226	0.0130151	
0.00161976	0.00340091	-0.00559199	
5.78935e-05	-0.000567535	-5.42951e-05	
-0.000182405	0.00338286	-0.000904227	
0.00123006	0.00256883	-1.40243e-06	
0.00117668	0.000337727	-0.000396338	
0.00127688	0.00194982	4.8067e-05	
-0.00464318	-0.0128094	-0.00293198	
-0.0170684	-0.0501111	-0.164346	
-0.00372292	-0.00602751	-0.000380797	
0.00262868	0.00572258	0.00257758	
-0.00162985	-0.00272804	0.000493753	
0.00652107	0.0132079	0.00864061	
-0.0113674	-0.023207	-0.00706767	
0.00513037	0.00894041	0.00426355	
-0.00263463	-0.0069006	-0.00396959	
0.0038706	0.000649549	0.00618357	
0.00165079	0.00333942	0.00421391	
-0.00443413	-0.00403323	-0.0129406	
0.00526271	0.009562	0.00491456	
-0.000459523	-0.00189385	0.000705	
0.00531416	0.0110365	0.00561829	
0.00498263	0.00898291	0.00398375	
0.000513489	-0.000363049	0.00191313	
-0.00523792	-0.0156861	-0.00952205	
-0.00184138	-0.00512812	-0.00266088	
-0.000390281	-0.0011792	0.0016209	
-0.000534867	0.00021222	-0.000392836	
0.000595056	-0.000437558	0.00059629	
0.00044598	0.000469718	-0.000369537	
-0.000152473	-0.000303713	0.0018481	
-8.48894e-05	0.00012196	-0.000293089	
0.011751	0.0216956	0.0123448	
0.00522213	0.00880578	0.00311049	
0.0101585	0.017053	0.00554711	
0.0127746	0.0258392	0.0104735	
-0.000514718	8.56955e-05	0.00159851	
2.95901e-05	-1.32142e-05	-0.000121543	
-0.000555156	0.000237953	0.00195368	
0.00287404	0.00564957	0.00224982	
0.00014134	2.34219e-05	-0.000519962	
-4.71558e-05	-0.000291049	0.00162537	
7.23715e-05	-0.000593857	0.00168953	
-0.000267239	-0.000165844	0.00230857	
0.0281014	-0.0156475	0.0132285	
0.00300471	0.00339407	-0.0267189	
-0.00763844	0.0221071	-0.00487476	
0.00134066	-0.00289667	0.000572782	
-0.00608299	0.0201	-0.00566843	
-0.00873617	0.0271158	-0.00506261	
-0.00635984	0.0133927	-0.00904359	
-0.00525168	0.010135	-0.00631399	
0.00150359	-0.00711186	0.00419758	
0.000661877	-0.00444304	0.00264164	
-0.000637157	0.0024824	-0.000851796	
0.000933034	-0.000450668	0.00354927	
-3.41165e-06	-5.25707e-05	-0.00252096	
-0.0183248	0.0337415	-0.0228923	
-0.0126345	0.0238369	-0.0153033	
0.000797214	-0.00241917	-0.00176244	
0.000873069	-0.00359306	0.00203592	
0.000704703	-0.00339967	0.0021173	
0.000346182	-0.00309902	0.00135523	
-0.00180177	0.00748219	-0.00294892	
2.50287e-05	0.000113512	-9.45231e-05	
9.06719e-05	5.13295e-05	4.12632e-05	
-4.8824e-05	7.2682e-05	1.47878e-05	
7.26419e-05	-2.82018e-05	-0.000120131	
-0.000893261	-0.00130226	7.83775e-05	
0.0314081	-0.0607275	0.0199156	
0.00259265	-0.0048057	-0.000648667	
-0.000465495	-0.00169664	-0.00221188	
-0.00657511	0.0165526	-0.0060764	
-0.000422556	-0.000741431	-0.000618368	
5.41387e-05	-0.00207156	-0.00222405	
0.000412523	-0.000188623	-0.000566356	
0.00996222	-0.00819316	0.00461656	
-6.51173e-05	-0.00176323	-0.00123434	
-0.000105973	-0.000714288	-0.000875719	
6.20687e-06	4.395e-05	6.24077e-05	
0.000185872	-2.26695e-05	-0.000268471	
-0.00309143	0.00353861	0.00543491	
0.0113511	-0.0225931	-0.00310391	
-0.00734118	0.000383659	0.0353722	
0.00579899	-0.00111904	-0.0107717	
0.00692788	-0.00122543	-0.0133764	
0.0104847	-0.00436568	-0.0231345	
0.00225792	0.00181347	-0.00772339	
0.00622465	-0.00136561	-0.0128556	
0.00606202	8.03951e-05	-0.0151012	
0.00714227	-0.00225957	-0.014709	
0.0139191	0.00646704	0.0468915	
0.00314378	-0.00239851	0.00587435	
0.00182051	0.0025083	0.0296009	
-0.00160318	0.00437091	0.000971113	
0.00438278	-0.000216846	-0.0118039	
0.0020204	0.00218872	-0.00647522	
0.001087	0.0033605	-0.00285254	
-0.00108424	0.00242473	-0.0018537	
0.00823315	0.00696802	0.0334965	
0.00505599	-0.0066641	0.0109435	
0.00329221	0.00391474	0.0347953	
5.7984e-05	2.65805e-05	0.000169247	
0.00703445	-0.00497363	0.0108698	
8.18588e-05	6.83707e-05	0.000103392	
-0.00203506	0.000909846	0.0259921	
-1.09265e-05	0.000122343	-5.22619e-05	
-0.000818581	0.00321258	9.88938e-05	
0.0011769	0.00138736	-0.000215207	
-0.00288973	0.00276755	0.0108657	
-0.000971924	0.00180203	-0.00161977	
-0.00137656	0.0011793	0.0135747	
0.00178036	0.00320978	-0.00558943	
4.78846e-05	-0.000513877	-5.29895e-05	
-0.000163315	0.00309417	-0.000783117	
0.00132093	0.00276454	4.19262e-05	
0.00116105	0.000280858	-0.000352859	
0.00137101	0.0021252	5.3203e-05	
-0.00558648	-0.0126955	-0.00247933	
-0.019811	-0.0645231	-0.165791	
-0.00310539	-0.00516472	-0.000276653	
0.00301195	0.00552502	0.00258969	
-0.00152833	-0.00263413	0.000315702	
0.00623788	0.0129838	0.00825159	
-0.0124166	-0.0221825	-0.00671567	
0.00560497	0.00893851	0.00398103	
-0.00275788	-0.00708469	-0.00440519	
0.000337182	0.00205171	0.00532609	
0.00171383	0.00365816	0.00420249	
-0.00389112	-0.00698327	-0.0113142	
0.00567049	0.00963127	0.00470884	
-0.000424817	-0.00146751	0.000576128	
0.00582213	0.0116431	0.00565647	
0.00502904	0.00919106	0.00394776	
0.000508915	-0.000220952	0.00174207	
-0.00485912	-0.0154697	-0.00994323	
-0.00230337	-0.00485376	-0.00287608	
-0.000429086	-0.00126337	0.00120479	
0.000369449	0.000206556	-0.0001526	
0.000474409	-0.000489366	0.000547376	
0.000506662	0.00021444	-0.000251556	
-0.00013354	-0.000276502	0.00167137	
-7.15898e-05	0.000103068	-0.000249397	
0.011889	0.0219388	0.0120168	
0.00503352	0.00911726	0.00311586	
0.00987176	0.0175007	0.00559006	
0.0125879	0.0254472	0.0101222	
-0.000442354	9.56545e-05	0.00132888	
1.484e-06	-1.75226e-06	-8.4708e-06	
-0.000486612	0.000213891	0.00169225	
0.00301436	0.00558602	0.00243734	
7.89735e-05	9.85463e-06	-0.000281593	
-5.29507e-05	-0.000223377	0.00131853	
8.33598e-05	-0.000558747	0.00158892	
-0.000217703	-0.000131884	0.00192671	
0.025902	-0.0165832	0.0175134	
0.00309346	0.00353232	-0.0267659	
-0.0077895	0.022385	-0.00475342	
0.00127666	-0.00291349	0.00128561	
-0.00618296	0.0202112	-0.00572681	
-0.00870975	0.0273346	-0.00530456	
-0.00707533	0.0130384	-0.00941811	
-0.0058268	0.00979811	-0.00662061	
0.00153383	-0.00716838	0.00403662	
0.000655333	-0.00452516	0.00253183	
-0.000639497	0.00251133	-0.000933029	
0.00104784	-0.000303887	0.00356576	
-3.58331e-05	-1.25994e-05	-0.00224171	
-0.0205863	0.0332143	-0.0238796	
-0.0129744	0.0244205	-0.0150048	
0.000663495	-0.00222143	-0.00153834	
0.000842556	-0.00362606	0.00190128	
0.000705546	-0.00349298	0.00199718	
0.00030904	-0.00317898	0.00121199	
-0.00184056	0.00747098	-0.00302461	
-1.18248e-06	-8.68934e-06	6.2907e-06	
-9.27228e-06	-5.42811e-06	-4.37331e-06	
6.11095e-06	-3.03507e-06	-1.40103e-06	
7.80884e-05	-2.88633e-05	-0.000126469	
-0.000773546	-0.000880865	5.5664e-05	
0.0319131	-0.0596868	0.0203798	
0.00224087	-0.00473364	-6.12758e-05	
-0.000109211	-0.00173386	-0.0016474	
-0.00677253	0.0167523	-0.00591406	
-0.000287091	-0.000501078	-0.000438396	
8.23277e-06	-0.00174672	-0.00180447	
0.00027252	-0.000124204	-0.000377597	
0.00821569	-0.00860761	0.00647085	
-0.000116956	-0.00159091	-0.00105342	
-0.000103555	-0.000681831	-0.000799748	
-4.32672e-06	-3.10319e-05	-4.40232e-05	
0.00014572	-1.9492e-05	-0.000210416	
-0.00299067	0.0038384	0.00481013	
0.0126035	-0.0213154	-0.00179492	
-0.00652763	-0.00132293	0.0362702	
0.00567654	-0.000846546	-0.0112128	
0.00657682	-0.00155466	-0.0138621	
0.0117181	-0.00513297	-0.0226692	
0.00253101	0.00126789	-0.00788729	
0.0057762	-0.00162703	-0.0131533	
0.00630587	-0.000509234	-0.015025	
0.00695555	-0.0029233	-0.0147126	
0.0147724	0.00593694	0.0471681	
0.003321	-0.00246695	0.00611684	
0.00248744	0.00179801	0.0302636	
-0.0027654	0.00413441	0.00102767	
0.00483555	-0.000470578	-0.0116821	
0.00220991	0.00178743	-0.00674549	
0.000694024	0.00262419	-0.0016784	
-0.000777108	0.00164845	-0.00131503	
0.00868624	0.00664878	0.0338834	
0.00502742	-0.00665266	0.0111096	
0.00390333	0.00328836	0.035447	
2.16694e-05	1.5111e-05	7.74952e-05	
0.0074196	-0.005275	0.010886	
2.11114e-05	4.04073e-05	4.84493e-05	
-0.00141473	-7.14599e-05	0.0265696	
-6.09833e-05	0.000561961	-0.000255653	
-0.000820794	0.00315896	0.000261748	
0.000612781	0.000717019	-0.000133389	
-0.00270477	0.00144055	0.011474	
-0.000677534	0.00117846	-0.00110683	
-0.00144086	0.000232304	0.0140833	
0.00160695	0.00281372	-0.0053814	
2.26247e-05	-0.000231506	-3.76869e-05	
-0.000138616	0.00292767	-0.000739119	
0.000779419	0.00159768	1.45225e-05	
0.000500083	0.000123475	-0.000170333	
0.000762708	0.00115196	9.87806e-06	
-0.00603795	-0.0125436	-0.00191985	
0.00103718	-0.062464	-0.17178	
-0.00286713	-0.00501133	-0.000447701	
0.0032694	0.00543169	0.002944	
-0.00148175	-0.0027077	-5.62909e-05	
0.00604543	0.0129901	0.00794633	
-0.0121776	-0.0222675	-0.00621654	
0.00572196	0.00894433	0.00454531	
-0.00286886	-0.00727068	-0.00477835	
0.000184747	0.00140576	0.00513195	
0.00162148	0.0036905	0.00383443	
-0.0039141	-0.00554941	-0.0122069	
0.00563449	0.00959663	0.00547852	
-0.000280754	-0.00131387	0.000780667	
0.00579613	0.0120215	0.00567517	
0.00501769	0.00916879	0.0047171	
0.000308149	-0.000263957	0.00114844	
-0.00489235	-0.0153714	-0.0101538	
-0.00207709	-0.00491883	-0.00308117	
-0.000336129	-0.00103058	0.000813368	
0.000241924	0.000148292	-0.000115174	
0.000411461	-0.000329288	0.000306645	
0.00033062	-0.000174449	8.21171e-05	
-0.000104632	-0.000236181	0.00142256	
4.69193e-06	-6.58019e-06	1.67491e-05	
0.0117438	0.0223305	0.0119074	
0.00505386	0.00923654	0.00404466	
0.00982826	0.017864	0.00638273	
0.0120997	0.0257675	0.010017	
-0.0004593	0.000110281	0.00135649	
-0.000204189	9.17677e-05	0.000794797	
-0.000426803	0.000193948	0.00145958	
0.00303693	0.00561096	0.00295243	
-0.00011411	-1.35512e-05	0.000399641	
-6.44316e-05	-0.000208683	0.00133759	
6.96741e-05	-0.000443004	0.00125966	
-0.000178691	-9.50179e-05	0.00155296	
0.0232419	-0.0187058	0.020617	
0.00292464	0.00362762	-0.0264632	
-0.00791219	0.0226198	-0.00463363	
0.00103552	-0.00303956	0.0015642	
-0.00619983	0.0203779	-0.00577046	
-0.00875656	0.0275184	-0.00545289	
-0.00756375	0.0132981	-0.00904807	
-0.00624529	0.0100941	-0.00610508	
0.00147613	-0.00706191	0.00403405	
0.000647982	-0.00443628	0.00257697	
-0.000659523	0.00257703	-0.00092709	
0.000880005	-0.00103159	0.00341711	
-0.000236697	0.000313053	-0.00170884	
-0.0211158	0.0343063	-0.0234953	
-0.0129066	0.0249408	-0.014842	
0.000690508	-0.00189942	-0.00111723	
0.000819984	-0.00353631	0.00190385	
0.000688684	-0.00343143	0.00201661	
0.000298805	-0.0031237	0.00124961	
-0.00184039	0.00756228	-0.00303308	
1.1589e-05	2.43455e-05	-3.13626e-05	
2.26557e-05	1.34331e-05	1.12e-05	
-1.25571e-05	2.08278e-05	1.09453e-06	
6.34332e-05	-2.38691e-05	-0.000102829	
-0.00105685	-0.00103114	5.66861e-05	
0.0308731	-0.0598933	0.0205928	
0.00236861	-0.00422983	0.000344467	
-5.77513e-05	-0.00151894	-0.00130744	
-0.00686588	0.0168702	-0.00575924	
-0.000218335	-0.0003748	-0.000339992	
-4.42152e-06	-0.00137322	-0.00136824	
0.000213473	-9.53681e-05	-0.000294843	
0.0073888	-0.00871725	0.00727467	
-0.000155099	-0.00161966	-0.00105119	
-7.13976e-05	-0.00044304	-0.000527585	
-8.07802e-07	-5.97626e-06	-8.41788e-06	
0.000121584	-1.62388e-05	-0.000176818	
-0.00317412	0.00351321	0.0047794	
0.011223	-0.0211002	-0.00402759	
-0.00576069	-0.00233569	0.036735	
0.00600412	-0.00146783	-0.0111116	
0.00670054	-0.00202066	-0.0135612	
0.0120262	-0.00583849	-0.0226334	
0.00246869	0.000470883	-0.00727771	
0.00640139	-0.00241387	-0.0127472	
0.0064425	-0.00128743	-0.015094	
0.00752346	-0.00346375	-0.0143531	
0.0149792	0.00532478	0.0474566	
0.00370607	-0.00250853	0.00605848	
0.00275421	0.00130504	0.0305963	
-0.000767918	0.00485981	-0.00191044	
0.00510516	-0.00126351	-0.0115334	
0.00203275	0.000627355	-0.00600081	
0.000643254	0.00101105	-0.00128895	
-0.000516103	0.00108132	-0.000872384	
0.00891497	0.00628246	0.034124	
0.00501968	-0.00650508	0.0112563	
0.00414205	0.00288993	0.0357478	
-4.48158e-05	-2.14166e-05	4.94191e-05	
0.00757216	-0.00532054	0.0109654	
3.96627e-06	4.63116e-05	3.59672e-05	
-0.00103391	-0.000587858	0.0267106	
-1.80496e-05	0.000140595	-6.50732e-05	
-0.000692447	0.00147812	0.001103	
0.000340114	0.000397138	-7.91876e-05	
-0.00240798	0.000300943	0.0117594	
-0.000426091	0.000723545	-0.000685273	
-0.00136381	-0.000303936	0.0142727	
0.00151868	0.0010054	-0.00500296	
1.4893e-05	-0.000163484	-2.88325e-05	
-4.53099e-05	0.00110106	-0.000279147	
0.000354872	0.000726701	-4.43888e-06	
0.00031814	8.01895e-05	-0.000111954	
0.000352723	0.000530363	-1.78146e-06	
-0.00685114	-0.0124759	-0.00222864	
-0.00734812	-0.0575887	-0.176393	
-0.001917	-0.00342478	-0.000330472	
0.00333083	0.00547066	0.00212019	
-0.00124549	-0.0024713	-0.000552714	
0.00538566	0.0120878	0.00675854	
-0.0121273	-0.0212515	-0.00736987	
0.00559262	0.0093239	0.00302292	
-0.0027687	-0.00719461	-0.00531542	
-0.000487543	0.00129165	0.00542615	
0.00185773	0.00475886	0.00381377	
-0.00254669	-0.00454768	-0.0133415	
0.00598141	0.00983575	0.00393338	
-0.000296591	-0.000724337	5.52341e-05	
0.00636873	0.0127386	0.00488572	
0.00563414	0.0092155	0.00315842	
0.000640423	0.000691486	0.00170128	
-0.00508447	-0.0155776	-0.0108569	
-0.00239119	-0.00426827	-0.00403605	
-0.000746965	-0.00217667	-8.53607e-05	
0.000179657	0.000123218	-8.06791e-05	
0.000223489	-0.000268143	0.000255728	
0.000298293	-9.44491e-05	7.56133e-05	
-4.60059e-05	-0.000116703	0.000693271	
-0.000133523	0.000193654	-0.000472677	
0.0117063	0.0224358	0.0112075	
0.00561756	0.00906061	0.00232875	
0.0103421	0.0177083	0.00488164	
0.0115534	0.024897	0.00860951	
-0.000185932	4.5077e-05	0.000547361	
0.000210588	-9.8872e-05	-0.000827572	
-0.000287727	0.000130234	0.000972617	
0.00327648	0.00569431	0.00190631	
0.000244432	1.96924e-05	-0.000872089	
-3.29813e-05	-9.31771e-05	0.000621256	
2.77797e-05	-0.000204951	0.00059047	
-0.000144216	-8.33495e-05	0.00130594	
0.0218804	-0.0187552	0.0220044	
0.00320318	0.00402822	-0.026244	
-0.00802413	0.0227112	-0.00451503	
0.00166323	-0.00246099	0.00209811	
-0.00619859	0.0204039	-0.00576748	
-0.0088359	0.0276188	-0.0054253	
-0.00781037	0.0135149	-0.00876999	
-0.00657924	0.0104365	-0.00579469	
0.00146626	-0.00702279	0.00399035	
0.000649984	-0.00443395	0.00253666	
-0.00067184	0.0026148	-0.000935882	
0.000645781	-0.0012541	0.00338551	
-0.000180339	0.000270589	-0.00136475	
-0.0213274	0.0351592	-0.023322	
-0.0129491	0.0253445	-0.0147507	
0.000404167	-0.00116996	-0.000739303	
0.000805678	-0.0035008	0.00186669	
0.000673952	-0.00342996	0.00199221	
0.000280956	-0.00311879	0.00123081	
-0.00184854	0.00760092	-0.00306906	
6.01611e-06	9.07993e-06	-1.25153e-05	
8.00787e-06	4.82935e-06	4.08069e-06	
-3.8813e-06	8.74329e-06	4.3605e-07	
3.05983e-05	-1.21081e-05	-5.00436e-05	
-0.000154461	-0.000135962	5.77906e-06	
0.0302838	-0.0599781	0.0203997	
0.00231382	-0.0040909	0.000449341	
0.000540491	-0.00174584	-0.000426934	
-0.00700644	0.0169825	-0.00563349	
-0.000134808	-0.000230147	-0.000212244	
-1.32943e-05	-0.00123709	-0.00125693	
0.000107552	-4.83189e-05	-0.00014787	
0.0072616	-0.00774618	0.00763736	
-4.9651e-05	-0.000469898	-0.000289358	
-4.71211e-05	-0.000308667	-0.000377119	
-1.63561e-06	-1.23126e-05	-1.73984e-05	
5.84594e-05	-8.64317e-06	-8.58852e-05	
-0.00324954	0.00337366	0.00478085	
0.00885638	-0.0216881	-0.00418181	
-0.0057249	-0.00235002	0.0369685	
0.00605502	-0.00168756	-0.0112457	
0.00687256	-0.00224985	-0.0137219	
0.0119115	-0.00592288	-0.0232999	
0.00229696	0.000150562	-0.00681572	
0.00630381	-0.00233395	-0.0131414	
0.00613943	-0.00164601	-0.014745	
0.0074829	-0.00342739	-0.0147356	
0.0150925	0.00485538	0.0475292	
0.0040321	-0.00296564	0.00596763	
0.00292025	0.00118314	0.0307396	
-0.000952066	0.0055858	-0.00103768	
0.00494751	-0.00125008	-0.0119393	
0.00188107	0.000296717	-0.00568924	
0.000603266	0.000941579	-0.00116645	
-0.000647568	0.00134014	-0.00108816	
0.00902073	0.00604519	0.0342836	
0.00504291	-0.00642653	0.0113721	
0.00423372	0.00282757	0.0359912	
-7.65565e-06	5.9485e-06	-4.84376e-05	
0.00759844	-0.0055357	0.0109856	
-9.64086e-06	6.09329e-05	1.22573e-05	
-0.000946132	-0.000548637	0.0268718	
-6.13432e-06	4.27879e-05	-2.02507e-05	
-0.00067774	0.00127253	0.00131707	
0.000320316	0.00037974	-7.64897e-05	
-0.00237762	0.000240129	0.011868	
-0.000549401	0.000920373	-0.000886828	
-0.00131296	-0.000263069	0.0143355	
0.00143263	0.000925803	-0.00497038	
2.32732e-05	-0.000197895	-3.88923e-05	
-3.54379e-05	0.000969031	-0.00024158	
0.000338406	0.000691733	-5.38064e-06	
0.000318997	8.6397e-05	-0.000113519	
0.000344774	0.000524593	-3.29352e-06	
-0.00661914	-0.012517	-0.00161146	
-0.0149055	-0.0466385	-0.183206	
-0.00207905	-0.00343756	6.05844e-05	
0.00338947	0.00538963	0.00302166	
-0.00137914	-0.00249338	6.43624e-05	
0.00553636	0.0120145	0.00747134	
-0.0114897	-0.0218618	-0.00555283	
0.00575704	0.00923614	0.00505335	
-0.00313801	-0.00763743	-0.00503074	
-0.000489501	0.00160825	0.00498556	
0.00206627	0.00468889	0.00453733	
-0.00212421	-0.00381573	-0.0134521	
0.00560631	0.00999083	0.00593761	
7.10861e-05	-0.000845229	0.00119497	
0.00606394	0.0128357	0.00587483	
0.00509718	0.00956897	0.00504278	
0.000739599	0.000514011	0.00193309	
-0.00487058	-0.0154051	-0.0108017	
-0.00210284	-0.00463391	-0.00387561	
-0.000880002	-0.00238188	0.000123963	
0.000307026	-0.000118522	-2.98346e-05	
0.000373465	-0.000413385	0.000415223	
0.000414873	-3.29868e-05	3.9021e-05	
-9.1517e-05	-0.000242227	0.00142414	
4.01375e-05	-5.82431e-05	0.000143595	
0.0115049	0.0224989	0.0118442	
0.00507978	0.00938773	0.00415615	