<VTKFile type="UnstructuredGrid" version="0.1" byte_order="LittleEndian">
	<UnstructuredGrid>
		<Piece NumberOfPoints="1221" NumberOfCells="1221">
			<CellData Scalars="scalars">
				<DataArray type="Float64" Name="Strength" NumberOfComponents="3" Format="ascii">
-0.00606577	-0.0166603	0.0120576	
-0.00440377	-0.00972695	-0.030325	
-0.000527715	0.0696551	0.0188777	
0.00425693	-0.00609422	-0.00773957	
0.00558016	0.00138875	-0.0110488	
0.0103	0.0572816	-0.0271718	
0.00790915	0.0882642	-0.0202802	
0.00532796	0.0197936	-0.0129586	
0.00976711	0.0856433	-0.0262947	
0.00644057	0.0344744	-0.0171307	
0.00905024	0.00734716	0.0455638	
0.00198684	-0.00317767	0.00454573	
-0.00209614	0.0401449	0.0168855	
-0.00145674	0.000850072	-0.0019918	
0.00726439	0.0757248	-0.0209944	
0.00887578	0.0866818	-0.019319	
0.00683695	0.0925815	-0.0208889	
0.0029766	0.0683528	-0.0108724	
0.00475373	0.0126307	0.0294289	
0.00491055	-0.00349562	0.0138485	
0.000768417	0.0331859	0.0236034	
-0.0018177	0.0010456	0.000680583	
0.00288862	-0.00218279	0.0114821	
0.0024356	-0.000738479	-0.00012781	
-0.00382293	0.048738	0.0130664	
-0.000406531	-0.0128162	0.00173451	
0.00670628	0.0883205	-0.0146794	
0.00462397	0.0422131	-0.00708946	
0.00563326	0.0866411	-0.00360247	
0.00171098	0.0495401	-0.00774831	
0.0019211	0.054246	0.000893661	
0.00969576	0.0880498	-0.019868	
-0.000149733	-0.000625219	0.000120929	
0.00867816	0.0862032	-0.0134082	
0.012413	0.0777302	-0.0114554	
0.00305675	0.0213082	-0.00403882	
0.00884709	0.059453	-0.00902766	
-0.00933059	-0.00479991	-0.0257357	
0.0340264	-0.120364	-0.0514477	
-0.00321962	-0.0253225	0.0446282	
0.00232355	0.0117434	-0.0131054	
-1.84429e-06	-0.0152782	0.0524688	
0.0126224	0.000955936	0.0657218	
-0.00754645	-0.0425227	0.0419723	
0.0101987	-0.0105042	0.0530598	
0.00363814	-0.0150797	0.0379566	
0.00689047	0.00176309	0.0182715	
0.00746697	-0.0137457	0.0548183	
0.0187485	0.00837699	0.0114413	
0.00944639	-0.00789061	0.0469363	
0.00123556	-0.0127268	0.0248743	
0.00664837	-0.00746019	0.0533434	
0.00759731	-0.00567506	0.0387828	
0.00796514	-0.0149173	0.0474071	
0.000204569	-0.0229869	0.0248533	
0.00343758	-0.0100178	0.0164812	
0.00630294	-0.0130641	0.0551868	
0.0189081	-0.00568615	-0.011239	
0.0108585	-0.00832622	0.02147	
0.0113569	-0.00285706	0.0152164	
0.00780365	-0.0162503	0.0558342	
-0.0013244	0.0086341	-0.0202618	
0.0132074	0.0121341	0.0396822	
0.00657721	-0.0027822	0.0305759	
0.00940063	0.0102618	0.0175496	
0.0219798	0.00877467	0.0728219	
0.0035171	-0.0122006	0.0383348	
0.00119906	-0.00654293	0.0175976	
0.00473734	-0.0129573	0.041961	
0.00245889	0.00950566	-0.00979622	
-0.000218995	0.00173328	-0.00448396	
0.00258699	-0.00789531	0.0233696	
0.0093519	-0.0159405	0.0525392	
0.00703481	-0.0146881	0.0489476	
0.0224017	-0.052868	-0.0161177	
0.00388019	0.021969	-0.0272186	
-0.00670022	-0.00109759	-0.0317379	
0.00257386	-0.0272122	-0.0339208	
-0.00630583	0.0137494	-0.0127843	
-0.00949259	0.0108255	-0.0248048	
-0.00309898	-0.0179826	-0.049934	
0.00154438	-0.0285749	-0.0503906	
0.00126138	-0.00929445	0.00319128	
-9.78304e-05	-0.00725889	0.000917698	
-0.000573004	-0.000198736	-0.00349129	
-0.00111329	-0.000216777	0.00564883	
0.00777563	-0.0422817	-0.0538099	
-0.0122125	0.000478525	-0.0491073	
-0.0104534	-0.0109932	-0.0495594	
0.00810175	-0.0458513	-0.054132	
0.000813474	-0.00478652	0.00128277	
9.59597e-05	-0.00599536	0.000315951	
-0.000504671	-0.0055058	-0.000337883	
-0.00172888	0.00446548	-0.00528028	
-0.00164068	0.00171337	0.00189102	
-0.000718803	-0.00189665	-0.00228794	
0.00237578	0.000251124	-0.0014135	
0.00072044	-0.00673667	-0.00846005	
0.000980796	-0.0304726	-0.0391372	
0.0357522	-0.0793838	0.00290247	
0.00862695	-0.0468668	-0.052534	
0.00319915	-0.0399793	-0.0562224	
-0.00287254	-0.00746475	-0.0337523	
0.00380511	-0.0376189	-0.0453566	
0.00633483	-0.0422875	-0.0530469	
0.00593274	-0.0258474	-0.0326246	
0.0110519	-0.0444837	-0.0372194	
0.00635833	-0.0482856	-0.0608247	
0.000877271	-0.0112729	-0.0136308	
6.04599e-07	7.19609e-06	8.55534e-06	
0.0024818	-0.0135262	-0.0174617	
-0.00307699	0.00217913	0.00630524	
-0.0054599	-0.00342852	-0.0312424	
-0.0063777	0.00735474	0.0327288	
0.00511334	0.00130633	-0.0100897	
0.00637418	0.00285229	-0.0124733	
0.0106837	0.009223	-0.0214274	
0.00307475	0.0114023	-0.0078328	
0.00598328	0.00505109	-0.0118003	
0.00689762	0.0116401	-0.0148104	
0.00681237	0.00680052	-0.0138424	
0.0128774	0.00537385	0.0463716	
0.00141661	0.000314421	0.00530004	
0.000960066	0.00493267	0.0281166	
0.00104659	0.000270894	0.00204333	
0.00529144	0.011079	-0.0113626	
0.00250693	0.0112507	-0.00704798	
0.000417891	0.0103868	-0.00436149	
0.000260962	0.0102684	-0.00168045	
0.00787767	0.00469918	0.033021	
0.0032339	0.000703217	0.0135983	
0.00353122	0.00562226	0.0328229	
4.81974e-05	0.000143696	-4.32468e-05	
0.00282205	0.00116219	0.0124533	
-0.000101988	0.000383708	0.000107203	
-0.00279136	0.00693583	0.0234593	
6.52152e-06	0.000192972	-2.55063e-05	
-0.000397882	0.0108668	-0.000926676	
-0.000285773	0.00543978	-0.00100666	
-0.0033825	0.00838263	0.00907875	
0.00020061	0.00804071	-0.00127905	
-0.00230128	0.00617963	0.0112693	
0.00177327	0.0094949	-0.00645297	
0.000256739	0.00130337	-0.000287157	
0.000103285	0.00994869	-0.00160942	
-1.87311e-05	0.00852497	-0.00130393	
-7.41832e-05	0.00267856	-0.000580928	
-0.000126821	0.00698233	-0.00113251	
-0.00593535	-0.0111845	-0.00456851	
-0.0310221	-0.119196	-0.0942444	
-0.00448659	-0.00986077	0.00182186	
0.00311357	0.0058351	0.00172525	
-0.00218583	-0.00402417	0.0046699	
0.00643781	0.0123802	0.0151122	
-0.0122397	-0.0233933	-0.00846992	
0.00526481	0.0063208	0.00800771	
-0.00194901	-0.00785007	0.00043981	
0.00108388	0.00383603	0.00541496	
0.000564715	0.000921263	0.00757378	
-0.00342979	-0.00810973	-0.0093508	
0.00595571	0.00696458	0.00776257	
-0.00083641	-0.00396211	0.00343807	
0.00530776	0.0067945	0.0104054	
0.00550666	0.0065758	0.00670856	
-0.000580579	-0.00215042	0.0050936	
-0.00290285	-0.0159154	-0.0065755	
-0.00154392	-0.00559278	-0.000743178	
-0.000505686	-0.00110452	0.00670164	
-0.00090134	0.00150251	-0.00161895	
0.000396768	-0.000948737	0.00274453	
0.00142811	-0.000947374	0.000886197	
-0.00015172	-0.00179009	0.00590797	
-8.94324e-05	0.000565567	-0.00131583	
0.0120673	0.0184825	0.0181482	
0.00529042	0.00681656	0.00586242	
0.00964328	0.0146777	0.00878904	
0.0136305	0.0224658	0.0198225	
0.000285465	-0.00176604	0.005529	
4.38497e-05	-0.000272301	0.000731673	
0.000305246	-0.00200302	0.00647544	
0.00303201	0.00549167	0.00162226	
-4.05902e-05	0.000337324	-0.000867168	
0.00045814	-0.00190959	0.00565719	
-0.000294002	-0.00175778	0.00568943	
0.000180931	-0.00214979	0.00701199	
0.019446	-0.0218323	0.0152886	
-0.000291312	0.020738	-0.0145539	
-0.00715635	0.0185084	-0.0112579	
0.00126552	-0.00499105	-0.00402198	
-0.00514722	0.0181794	-0.00964793	
-0.00797304	0.0234296	-0.0129447	
-0.0066582	0.0089753	-0.0134051	
-0.00524041	0.00482194	-0.011028	
0.00175035	-0.00632162	0.00487587	
0.000410838	-0.00370261	0.00324562	
-0.000476605	0.00263038	-0.000553684	
0.000354228	-0.00331501	0.000900853	
0.000175448	-0.00444976	-0.00682578	
-0.0171074	0.0266369	-0.0263526	
-0.0125056	0.0219178	-0.0152589	
0.00184767	-0.00712276	-0.00605964	
0.00108745	-0.00282202	0.00304567	
0.00071616	-0.00260971	0.00278681	
0.00061443	-0.00216074	0.00237619	
-0.00150962	0.00755447	-0.00331375	
0.000901884	0.000196539	0.000131489	
0.0002656	0.000679421	0.000758958	
-0.000111924	0.0001563	0.00078094	
-5.55938e-06	0.000289207	0.000361172	
3.62248e-05	-0.00327911	-0.00415306	
0.03563	-0.0540782	0.0283098	
0.00312349	-0.00887409	-0.00534311	
-0.000616015	-0.00418543	-0.0081334	
-0.00592453	0.0141886	-0.00935889	
-1.62299e-05	-0.00185256	-0.00220186	
0.000764465	-0.00596714	-0.00744869	
7.5228e-05	-0.000965674	-0.00120121	
0.00805742	-0.0139887	-5.24293e-06	
0.00047388	-0.00439449	-0.00549	
0.000124455	-0.00268117	-0.00318962	
6.6544e-05	0.000805226	0.000957386	
6.33449e-06	-0.000106834	-0.000136294	
-0.00304984	0.0023241	0.00620929	
-0.00494844	-0.00328249	-0.0298641	
-0.00409344	0.00279182	0.0346689	
0.0053277	0.000527693	-0.010188	
0.0066084	0.000931001	-0.0124672	
0.0103432	0.00264808	-0.0213128	
0.00230467	0.00310787	-0.00673485	
0.00616594	0.00147016	-0.0116189	
0.00593727	0.00321472	-0.0140624	
0.00685086	0.00197258	-0.0135142	
0.011619	0.00378075	0.0481844	
0.00153177	8.96073e-06	0.00613679	
0.00149129	0.00267607	0.0294955	
0.00153906	0.000239105	0.00260347	
0.0046795	0.00304613	-0.0105676	
0.0016691	0.00301939	-0.00591921	
0.000521766	0.00279639	-0.00296765	
-4.22783e-05	0.0027701	-0.000477374	
0.00681995	0.0034004	0.0344634	
0.00315014	0.000353288	0.0139642	
0.0035721	0.00302653	0.0345219	
0.000123039	5.37571e-05	-4.76067e-05	
0.00277507	0.000660586	0.013376	
-3.26151e-05	0.000156113	1.93715e-05	
-0.00133265	0.00243733	0.0250873	
2.67054e-06	7.11042e-05	-9.02816e-06	
-0.000602663	0.00289559	0.000583092	
-2.07668e-05	0.00168084	-0.000312366	
-0.00224811	0.00253575	0.0104206	
5.67082e-06	0.00212469	-0.000348864	
-0.0015138	0.00210692	0.0125574	
0.00125026	0.00269513	-0.00553413	
0.000103573	0.000546373	-0.000113821	
-0.000193876	0.00273645	-0.000486137	
-0.000104474	0.00239212	-0.000410021	
1.16173e-05	0.00119351	-0.00024956	
-4.56959e-05	0.00206619	-0.000353698	
-0.00588439	-0.0116518	-0.00362724	
-0.0362465	-0.124831	-0.0944864	
-0.00328944	-0.00747021	-0.00212547	
0.0031795	0.00535602	0.00267194	
-0.00129887	-0.00300105	0.000243069	
0.00565494	0.0129406	0.0102766	
-0.0110618	-0.0215516	-0.0115604	
0.00477567	0.00769479	0.00530576	
-0.00178237	-0.00706796	-0.00311038	
0.00117345	0.0044014	0.00383271	
0.00104258	0.00273591	0.00378827	
-0.00455099	-0.00689278	-0.0111264	
0.00558245	0.00817878	0.00541462	
-0.000827834	-0.0022748	0.000436022	
0.00509612	0.00863949	0.00729825	
0.00532106	0.00754698	0.004782	
-1.60915e-06	-0.000510498	0.0016292	
-0.00350086	-0.0155576	-0.00910325	
-0.00136928	-0.005081	-0.00256346	
-9.34934e-05	-0.000603951	0.00191405	
0.000124759	0.000364817	-0.000511273	
0.000117986	-0.000271488	0.000797123	
0.000252766	-0.000287585	0.000456957	
2.92952e-05	-0.000545691	0.0017469	
-2.84819e-05	0.000172103	-0.000395301	
0.0112369	0.019688	0.0143879	
0.00521004	0.00750897	0.00448206	
0.00971862	0.0150114	0.00851709	
0.011599	0.0231896	0.0161946	
3.44796e-05	-0.000579932	0.0017981	
-8.07026e-06	6.07608e-05	-0.000163323	
2.34232e-05	-0.000670342	0.00214136	
0.00311477	0.00518186	0.00248184	
-2.28571e-05	0.000196776	-0.000501677	
8.85503e-05	-0.000648303	0.00190645	
3.99306e-05	-0.000498036	0.00158023	
4.54668e-05	-0.000715318	0.0022709	
0.0194811	-0.0196928	0.0182586	
0.000248856	0.0214644	-0.0176713	
-0.007039	0.0188204	-0.0112297	
0.00131386	-0.00276013	-0.000616269	
-0.00566294	0.0174358	-0.010353	
-0.00846591	0.0230814	-0.01344	
-0.00643452	0.0121732	-0.00970965	
-0.00543782	0.00847116	-0.00744717	
0.0015215	-0.00738438	0.00401879	
0.000184781	-0.00468514	0.00257977	
-0.000584923	0.0019587	-0.0015235	
0.0013181	-0.00278448	0.00216286	
-0.000384528	-0.000833409	-0.00226433	
-0.016633	0.0325275	-0.022089	
-0.0112636	0.0236464	-0.0145788	
0.00101932	-0.00288631	-0.0011437	
0.000894512	-0.00384363	0.00185115	
0.000500011	-0.00372712	0.00187503	
0.00022549	-0.00314343	0.00156696	
-0.00167143	0.00650743	-0.00410525	
-0.000263131	-3.66205e-05	-1.53572e-05	
-6.32147e-05	-0.000176056	-0.000200858	
6.76935e-05	-4.9483e-05	-0.000189571	
9.82638e-06	-0.000226513	-0.000285532	
-1.38239e-05	-0.00101968	-0.00127487	
0.0329714	-0.0540752	0.0298941	
0.00239212	-0.00487916	-0.000362832	
-0.000685392	-0.000824556	-0.00291008	
-0.00564989	0.014689	-0.0091289	
-3.12451e-05	-0.000567481	-0.000665326	
0.000147577	-0.00192277	-0.00236512	
1.05719e-05	-0.000415138	-0.000508665	
0.00748818	-0.0107478	0.00379877	
9.2325e-05	-0.00139357	-0.00171495	
1.97144e-06	-0.00071147	-0.000842928	
-1.73655e-05	-0.000245747	-0.000292993	
1.67818e-05	-0.000282027	-0.000361718	
-0.0029738	0.0025193	0.00599241	
-0.00474556	-0.00311523	-0.0284911	
-0.00420945	0.00311196	0.0357329	
0.00544534	0.000610208	-0.0103279	
0.00673941	0.000958541	-0.0127868	
0.0100354	0.00280489	-0.022565	
0.00215864	0.00359713	-0.00719731	
0.00624615	0.00143137	-0.0120538	
0.00544315	0.0036163	-0.0147807	
0.00686149	0.00192779	-0.0140576	
0.0109673	0.00382764	0.0496874	
0.00143108	0.000150854	0.00687781	
0.00142682	0.00267729	0.0302969	
0.00209557	3.22501e-06	0.00332074	
0.00439525	0.00336066	-0.0111856	
0.00154753	0.00356849	-0.00616771	
0.000557593	0.00334926	-0.00275072	
-0.000106343	0.00297043	-0.000519028	
0.00640433	0.00339612	0.0354912	
0.00290659	0.000545867	0.0143166	
0.00348208	0.00299571	0.0354292	
0.000105001	-5.34446e-05	-4.35453e-05	
0.00268075	0.000812815	0.0140431	
-3.18829e-05	0.000165721	1.67735e-05	
-0.00119873	0.00241977	0.026055	
1.09745e-05	0.000264364	-3.23477e-05	
-0.000550384	0.00352226	0.000562012	
-2.34768e-05	0.00165209	-0.000305898	
-0.00217522	0.00315803	0.0108097	
-3.4649e-05	0.00210694	-0.000353382	
-0.00149592	0.00223683	0.0132218	
0.00128216	0.00336587	-0.00573019	
9.17142e-05	0.000551047	-0.00011418	
-6.64533e-05	0.00341425	-0.000562904	
1.66502e-05	0.00277668	-0.000452473	
5.23872e-06	0.00124844	-0.000256512	
1.38097e-05	0.00227196	-0.000377566	
-0.00599841	-0.0118199	-0.00353133	
-0.0305541	-0.130433	-0.0956338	
-0.00267361	-0.0062494	-0.00152363	
0.00315391	0.00521831	0.00266939	
-0.00124572	-0.00291042	0.000307528	
0.00522439	0.0122856	0.00976279	
-0.0105968	-0.0211564	-0.0110963	
0.00474672	0.00788442	0.00570689	
-0.00187742	-0.00730882	-0.00320742	
0.001152	0.00432562	0.00370454	
0.00120426	0.00323521	0.00414674	
-0.00363336	-0.00779484	-0.0104249	
0.00552675	0.00841369	0.00580513	
-0.000673853	-0.00189492	0.000420344	
0.00524114	0.00935531	0.00742995	
0.00528301	0.00777988	0.00510534	
0.000120875	-0.000126486	0.00190595	
-0.00359622	-0.0157613	-0.00913701	
-0.00136759	-0.00515017	-0.00254352	
-0.000276855	-0.00124416	0.0015253	
0.000174862	0.000371922	-0.000526028	
0.000112536	-0.000291875	0.000847997	
0.000276343	-0.000296504	0.000440078	
3.11715e-05	-0.000551617	0.00172046	
-2.16913e-05	0.000127645	-0.00029008	
0.0109767	0.0199659	0.0140187	
0.00517119	0.00770645	0.00470444	
0.00977839	0.0152481	0.0086407	
0.0111332	0.0227705	0.0156155	
4.87482e-05	-0.000517429	0.00153593	
-4.58814e-06	4.25106e-05	-0.000113576	
6.73199e-05	-0.000616362	0.00186963	
0.00314172	0.00519627	0.00251031	
-2.07698e-05	0.00019063	-0.00048388	
7.54708e-05	-0.000530394	0.00149877	
4.74444e-05	-0.000526814	0.00163166	
7.40484e-05	-0.000694835	0.00213057	
0.019714	-0.0204205	0.0187665	
-0.0003347	0.021423	-0.0159761	
-0.00737302	0.0191722	-0.0114058	
0.00143521	-0.00284077	-0.000275984	
-0.0057418	0.0178697	-0.0103145	
-0.00863368	0.0235143	-0.013529	
-0.00643793	0.012378	-0.00978616	
-0.0054317	0.00869754	-0.00764432	
0.00153594	-0.00696246	0.00420575	
0.0002801	-0.00434376	0.00274201	
-0.000595446	0.00223714	-0.00131109	
0.00117846	-0.00304037	0.00150308	
-0.000389082	-0.000894816	-0.00228024	
-0.0168526	0.0338002	-0.0223269	
-0.011473	0.0239279	-0.0150088	
0.000762256	-0.00266613	-0.00128491	
0.000911449	-0.00345337	0.00213517	
0.000561053	-0.00336109	0.00211679	
0.000357559	-0.0028186	0.00178578	
-0.0016867	0.00687919	-0.00397429	
8.53318e-05	-2.86818e-05	-5.42362e-05	
2.41792e-05	7.12882e-05	8.09016e-05	
-2.14058e-05	2.92796e-05	7.93999e-05	
3.01752e-06	-8.82561e-05	-0.000110387	
-3.34244e-05	-0.000971226	-0.00120414	
0.031693	-0.0545469	0.030335	
0.00222156	-0.00492285	-0.000365882	
-0.000282483	-0.00130526	-0.00243389	
-0.00588703	0.014892	-0.00926749	
-3.30849e-06	-0.000666808	-0.000797732	
7.97741e-05	-0.00189699	-0.00231565	
3.12163e-05	-0.000448974	-0.000558263	
0.00720987	-0.0106213	0.00394408	
4.69613e-05	-0.00134118	-0.00164011	
2.03355e-05	-0.00071248	-0.000864033	
3.56171e-06	4.85918e-05	5.78004e-05	
1.6194e-05	-0.000198492	-0.000254632	
-0.00300262	0.00229906	0.00597033	
-0.00381879	-0.00301765	-0.0270986	
-0.00447267	0.0033128	0.0368797	
0.00562693	0.000720095	-0.0107308	
0.00684022	0.00123201	-0.0132519	
0.00994206	0.00322812	-0.0235402	
0.00232346	0.00329105	-0.00724591	
0.00629824	0.00181465	-0.0126359	
0.0055649	0.00338424	-0.0150102	
0.00685792	0.00236899	-0.014724	
0.00988446	0.00377668	0.0510791	
0.00128901	0.000232286	0.00751101	
0.00106963	0.00277678	0.0310993	
0.00231626	-0.000139368	0.00394378	
0.00434673	0.00328902	-0.0113959	
0.00169904	0.00322752	-0.00617294	
0.000670567	0.00323649	-0.00312685	
-8.69089e-05	0.0031488	-0.000531898	
0.00565805	0.00326273	0.0365724	
0.00253853	0.000662615	0.0145769	
0.00313025	0.00311841	0.0367429	
2.77478e-05	-9.60562e-05	-2.24997e-05	
0.00244976	0.000883148	0.0146557	
-1.9654e-05	0.000146039	-9.79423e-07	
-0.00137782	0.00259399	0.0270663	
5.51944e-06	0.000130775	-1.56227e-05	
-0.000457797	0.00317866	0.00065042	
-3.4832e-05	0.00178146	-0.000329477	
-0.00222132	0.00331376	0.0111607	
-4.5932e-05	0.00254017	-0.00042168	
-0.00160221	0.00242341	0.0139345	
0.00132905	0.00311492	-0.00585333	
6.94048e-05	0.000502309	-0.000103435	
-4.50596e-05	0.00311246	-0.000508136	
1.81885e-05	0.00298774	-0.000485129	
-4.57689e-06	0.00121007	-0.000244728	
9.20537e-06	0.00246571	-0.000410582	
-0.00612719	-0.0119388	-0.00351355	
-0.02714	-0.130495	-0.0995179	
-0.00226082	-0.00531688	-0.00124643	
0.00315592	0.0051537	0.0027666	
-0.0011936	-0.00277868	0.000148174	
0.0050015	0.0120014	0.00920491	
-0.0104626	-0.0205138	-0.0110589	
0.00481066	0.008114	0.00548104	
-0.00191597	-0.0075545	-0.00344109	
0.000971627	0.00396164	0.00327212	
0.0012421	0.00351821	0.00405698	
-0.00142748	-0.00833465	-0.00940196	
0.00551589	0.00866353	0.00568024	
-0.000535946	-0.00149532	0.000313016	
0.00543612	0.0100145	0.00749791	
0.00523521	0.00800805	0.00510009	
0.00011311	-6.78238e-06	0.00169023	
-0.00345478	-0.0155543	-0.00902858	
-0.00131846	-0.00513064	-0.00255069	
-0.000325698	-0.00132475	0.00110114	
0.00044058	-4.18057e-05	-1.96655e-06	
8.15633e-05	-0.000270145	0.000764451	
0.000242642	-0.000257112	0.000354631	
1.34977e-05	-0.000505161	0.00152725	
-1.79105e-05	0.000108057	-0.000244799	
0.0108281	0.0202036	0.0136654	
0.00513831	0.00785804	0.00478884	
0.00973468	0.0154034	0.00887312	
0.0107469	0.0223994	0.0150255	
3.35397e-05	-0.000436088	0.00126199	
-2.82065e-07	2.83603e-06	-7.6661e-06	
4.88782e-05	-0.000541746	0.00159408	
0.00315269	0.00515765	0.00271883	
-9.73886e-06	0.000102728	-0.000260632	
5.60789e-05	-0.00043384	0.00119564	
2.7988e-05	-0.000501414	0.00150101	
4.70772e-05	-0.000586844	0.00174616	
0.0197173	-0.0207582	0.0194381	
-0.000558093	0.0215997	-0.0158443	
-0.00751739	0.0194241	-0.0114522	
0.00163403	-0.00295289	0.000118419	
-0.00579194	0.0179429	-0.0104527	
-0.00870867	0.0236865	-0.0136769	
-0.00673698	0.0126266	-0.00960349	
-0.00556919	0.00889661	-0.00753292	
0.00148711	-0.0070051	0.0041024	
0.000305209	-0.00441282	0.00265727	
-0.000611981	0.00224163	-0.00139966	
0.00130307	-0.00303912	0.00142973	
-0.000370111	-0.000689543	-0.00206134	
-0.0175941	0.0346492	-0.0225503	
-0.0116316	0.0244451	-0.0149379	
0.000696267	-0.00239388	-0.00115146	
0.000872717	-0.00349097	0.00200897	
0.000547639	-0.00344261	0.00202267	
0.000340036	-0.0028911	0.00170236	
-0.00170112	0.00685425	-0.00405952	
-2.61101e-06	3.39656e-06	5.86374e-06	
-2.33182e-06	-7.39429e-06	-8.41991e-06	
1.54643e-06	-2.78887e-06	-6.02389e-06	
2.34339e-06	-9.3805e-05	-0.000116385	
-3.13226e-05	-0.000719992	-0.000893201	
0.0309175	-0.0542207	0.0305113	
0.00218243	-0.00466789	-8.06959e-06	
-4.18766e-06	-0.00144376	-0.00186246	
-0.00604623	0.0151082	-0.00919563	
2.21137e-06	-0.000457532	-0.000549969	
5.7916e-05	-0.00156357	-0.00191699	
1.86241e-05	-0.000298634	-0.000370563	
0.0070514	-0.0104636	0.00412106	
2.46046e-05	-0.00118828	-0.00145764	
2.77469e-05	-0.000658724	-0.000807312	
-2.47179e-06	-3.43221e-05	-4.07715e-05	
1.12387e-05	-0.000156627	-0.000199048	
-0.0027945	0.00265017	0.0055311	
-0.002716	-0.00281528	-0.0262284	
-0.00487001	0.00211379	0.0381493	
0.00567975	0.00113739	-0.0110523	
0.00682584	0.0014688	-0.0136389	
0.0101461	0.00215134	-0.0240433	
0.00251514	0.00275465	-0.00763448	
0.00623394	0.00184928	-0.012851	
0.00569479	0.00272003	-0.0152763	
0.00681728	0.00192482	-0.0149291	
0.00831102	0.00325737	0.0518045	
0.00107759	0.000210135	0.00774992	
0.000551163	0.00196653	0.0321415	
0.00206522	-0.000146932	0.00414758	
0.0045384	0.00255526	-0.0116796	
0.00187356	0.00286321	-0.00659639	
0.000470221	0.00254602	-0.00187234	
-2.35073e-05	0.00218651	-0.000352888	
0.00456734	0.00259138	0.0373062	
0.00207054	0.000609101	0.0146308	
0.00254487	0.00225695	0.0377759	
-1.76862e-05	-4.28784e-05	-8.26714e-06	
0.00207425	0.0007476	0.0149857	
-7.8717e-06	6.53358e-05	-4.99552e-06	
-0.00156423	0.0016862	0.0279708	
2.67258e-05	0.000607423	-7.10344e-05	
-0.000488158	0.00310037	0.000806958	
-2.45126e-05	0.000926531	-0.00017154	
-0.0023055	0.00211492	0.0119094	
-1.97139e-05	0.00170605	-0.000276325	
-0.00171383	0.00141109	0.0147317	
0.00130589	0.00273953	-0.00564623	
2.36596e-05	0.000229673	-4.68463e-05	
-3.7537e-05	0.00294334	-0.000481361	
4.93017e-06	0.0017333	-0.000282648	
-7.05279e-06	0.000527766	-0.000105169	
-1.02524e-06	0.00134678	-0.000225683	
-0.00613617	-0.0119937	-0.00319817	
-0.0246415	-0.132776	-0.0936168	
-0.00213561	-0.00505098	-0.00136684	
0.00321525	0.00511457	0.00314579	
-0.00118324	-0.00279499	-0.000199669	
0.00479658	0.0119718	0.00874851	
-0.010399	-0.0205924	-0.0105214	
0.00484074	0.0080384	0.00595673	
-0.00184193	-0.00769934	-0.00378183	
0.000780733	0.00379384	0.00280842	
0.00113603	0.00354628	0.00361181	
-0.00087556	-0.00786998	-0.00844615	
0.00550784	0.00857841	0.00622278	
-0.000456015	-0.00136959	0.00052645	
0.00539688	0.0102339	0.0075957	
0.00521729	0.00786841	0.00573088	
8.60986e-06	-0.000133118	0.00108796	
-0.00313686	-0.0154224	-0.0089511	
-0.00119211	-0.00508691	-0.00267038	
-0.000285565	-0.00107178	0.000714894	
0.000300603	-3.44414e-05	1.9045e-05	
3.10824e-05	-0.000186856	0.00051607	
0.000153269	-0.000185421	0.000223806	
-1.19536e-05	-0.000428191	0.00126924	
1.13231e-06	-7.11761e-06	1.61982e-05	
0.010665	0.0204578	0.0135219	
0.00516646	0.00776005	0.00559606	
0.00980428	0.0154394	0.00970112	
0.0104721	0.0224402	0.0148344	
1.97566e-05	-0.000443333	0.00126918	
2.16692e-05	-0.000278919	0.000732687	
2.44343e-05	-0.00046625	0.00135112	
0.00318951	0.00508626	0.00325382	
1.25316e-05	-0.000145169	0.000367403	
4.26076e-05	-0.000435108	0.00119199	
-8.56743e-06	-0.000396533	0.00115383	
1.53918e-05	-0.000470803	0.00137676	
0.0198617	-0.0216998	0.0197416	
-0.000715934	0.0216401	-0.0152598	
-0.00765836	0.0195951	-0.0115426	
0.00168731	-0.00308245	0.000114967	
-0.00584388	0.0180743	-0.0105411	
-0.00876934	0.0238388	-0.0138115	
-0.00696831	0.0130831	-0.00917582	
-0.00573029	0.00937322	-0.00709936	
0.00145998	-0.00689983	0.00408788	
0.000367702	-0.00435055	0.00264539	
-0.000624955	0.00230829	-0.00140673	
0.00123371	-0.00305586	0.00135666	
-0.00043062	-0.000206421	-0.00165339	
-0.0180889	0.0355649	-0.0223795	
-0.0117458	0.0247343	-0.0149835	
0.000690125	-0.00202663	-0.000781555	
0.000851928	-0.00340131	0.00200907	
0.000557419	-0.0033814	0.00203331	
0.000367766	-0.00283614	0.00171344	
-0.00171526	0.00693543	-0.00408446	
-6.98631e-06	-1.26357e-05	-2.30304e-05	
5.32226e-06	1.82769e-05	2.08372e-05	
-4.39787e-06	1.13915e-05	2.0498e-05	
1.20764e-06	-7.6674e-05	-9.4355e-05	
-3.27999e-05	-0.000900535	-0.00112876	
0.0302101	-0.0541358	0.0308359	
0.00218353	-0.00422601	0.000428452	
3.73214e-05	-0.0012507	-0.00152731	
-0.0061903	0.015175	-0.00916401	
3.80727e-06	-0.000347302	-0.000418493	
5.74962e-05	-0.00119814	-0.00148719	
1.28614e-05	-0.000233645	-0.000289022	
0.00702494	-0.0104537	0.00417175	
2.76459e-05	-0.00119871	-0.00148113	
2.0469e-05	-0.000431684	-0.000529944	
-4.73636e-07	-6.59027e-06	-7.81361e-06	
8.21757e-06	-0.000132106	-0.000166316	
-0.00282989	0.00228829	0.00555506	
-0.00152968	-0.00232666	-0.0250931	
-0.00554778	0.00134823	0.039001	
0.00567651	0.000608025	-0.0112968	
0.00668245	0.000932075	-0.0136741	
0.0103853	0.00145334	-0.0245585	
0.00248399	0.00187334	-0.00727146	
0.00626777	0.000847156	-0.0130542	
0.00592841	0.00201855	-0.0156858	
0.00687772	0.00113912	-0.0151639	
0.00611965	0.00294865	0.052073	
0.000773607	0.000275345	0.00773296	
-0.000289701	0.00153269	0.0327284	
0.00158244	-9.61263e-05	0.00421462	
0.00472079	0.00174892	-0.0119436	
0.00183233	0.00163073	-0.00608617	
0.000557867	0.000982451	-0.00140941	
-7.16402e-06	0.00144124	-0.00022954	
0.00307522	0.00227122	0.0376483	
0.00135522	0.00061031	0.0145006	
0.00151184	0.00191583	0.038295	
-3.51471e-05	-2.14435e-05	-6.37304e-06	
0.0015104	0.000745868	0.0150212	
-6.12947e-06	5.7503e-05	-7.31727e-06	
-0.00204432	0.00121338	0.0283926	
6.85573e-06	0.000152948	-1.75256e-05	
-0.000516548	0.00132889	0.00141065	
-1.6203e-05	0.000514355	-9.4999e-05	
-0.00242244	0.00100096	0.0123534	
-1.22563e-06	0.00105465	-0.000165457	
-0.00194036	0.00085502	0.0151287	
0.00136783	0.000979937	-0.00528946	
1.10091e-05	0.00016327	-3.283e-05	
-1.04617e-05	0.00110625	-0.000180694	
1.49336e-06	0.000788346	-0.00012874	
-6.97628e-06	0.000337589	-6.60757e-05	
-1.70001e-06	0.000620834	-0.000104245	
-0.00641183	-0.0120928	-0.00377851	
-0.0212112	-0.1394	-0.087867	
-0.00145733	-0.00342411	-0.000958859	
0.00309641	0.00529695	0.00244035	
-0.00102937	-0.00247795	-0.000625085	
0.00434366	0.0111969	0.00747368	
-0.010102	-0.0194213	-0.0114408	
0.00485965	0.00866132	0.00458507	
-0.00175174	-0.00775744	-0.00406292	
0.000764601	0.00415324	0.00277531	
0.00135478	0.00462442	0.00356136	
-0.000919861	-0.00809048	-0.00834411	
0.00550419	0.00925111	0.00481745	
-0.000302562	-0.000708355	-7.88908e-05	
0.00564319	0.0112706	0.0070032	
0.00522213	0.00858394	0.00427501	
0.000233819	0.00087037	0.00148849	
-0.00298978	-0.0160151	-0.00908271	
-0.00110672	-0.00519902	-0.00282379	
-0.000595586	-0.00219073	-0.0001207	
0.000224357	-2.91542e-05	2.71382e-05	
5.85737e-06	-0.000125402	0.000357392	
0.000120886	-0.000155167	0.000179134	
-1.35887e-05	-0.000202658	0.000607747	
-2.96052e-05	0.000200056	-0.000457534	
0.0104946	0.0207364	0.0128084	
0.00510121	0.00840464	0.00397473	
0.00969022	0.0160293	0.00831271	
0.00991072	0.0220171	0.0132652	
4.3545e-06	-0.000175666	0.0005052	
-2.23452e-05	0.000288546	-0.000755361	
8.94616e-06	-0.000305028	0.00088767	
0.00311985	0.00544215	0.00231779	
-2.5944e-05	0.00031309	-0.000794157	
1.53515e-05	-0.000198125	0.000546495	
-1.48813e-05	-0.000177722	0.000527517	
1.7234e-07	-0.000386667	0.00114019	
0.0195575	-0.0209884	0.0207187	
-0.000874175	0.0217598	-0.0148591	
-0.00774762	0.0197028	-0.0114947	
0.00194605	-0.00280856	0.00101502	
-0.0058535	0.0180867	-0.0105495	
-0.00878743	0.0239336	-0.0138617	
-0.00716302	0.0133048	-0.00894502	
-0.00592563	0.00979388	-0.0068826	
0.00142859	-0.00686156	0.00405048	
0.000417034	-0.00434113	0.00261176	
-0.000635887	0.00234174	-0.0014239	
0.00115833	-0.00306151	0.00137907	
-0.000347391	-0.000161829	-0.00132265	
-0.0185274	0.0361838	-0.0223101	
-0.0118524	0.0250794	-0.0149249	
0.000413273	-0.00125715	-0.000524558	
0.000828704	-0.00336751	0.00197437	
0.000558748	-0.00337654	0.00200964	
0.000377921	-0.00283219	0.00169216	
-0.00172474	0.00696986	-0.00411718	
-7.9685e-06	-3.09534e-06	-6.07247e-06	
1.74031e-06	6.52087e-06	7.45767e-06	
-1.33881e-06	4.99762e-06	7.81793e-06	
2.3666e-07	-3.74631e-05	-4.57103e-05	
-2.8036e-06	-0.000124247	-0.000158109	
0.0295113	-0.0540573	0.0310861	
0.00214736	-0.00407562	0.000536739	
0.00056685	-0.00163192	-0.000668329	
-0.00631627	0.0153212	-0.00905634	
3.50116e-06	-0.0002146	-0.00025906	
6.96888e-05	-0.00108091	-0.00136057	
5.77175e-06	-0.000117686	-0.000145052	
0.00687905	-0.00970259	0.00469345	
1.15428e-05	-0.000340638	-0.000425767	
1.55828e-05	-0.000305066	-0.000374795	
-9.80522e-07	-1.36058e-05	-1.6113e-05	
3.37947e-06	-6.43822e-05	-8.02692e-05	
-0.00284175	0.00214599	0.00559488	
-0.000390362	-0.00173338	-0.023791	
-0.00659611	0.00125956	0.0395112	
0.00568344	0.000458673	-0.0115703	
0.00671336	0.000717753	-0.0140916	
0.0106831	0.00174852	-0.0253127	
0.00242015	0.00151386	-0.00692109	
0.00630898	0.00112443	-0.0134948	
0.0059244	0.00168547	-0.0155009	
0.00697277	0.00138651	-0.0156241	
0.00339484	0.00254121	0.0516672	
0.000392702	0.000320811	0.00772961	
-0.00141439	0.00140134	0.0329237	
0.00109501	1.91036e-06	0.00438761	
0.00488478	0.00202325	-0.0123378	
0.0018276	0.00127852	-0.00585717	
0.000555164	0.000916517	-0.00129005	
-1.66639e-06	0.0017926	-0.000285185	
0.00121269	0.00192619	0.0376173	
0.000658848	0.00062082	0.0142119	
7.53717e-05	0.00170663	0.0385436	
-3.06996e-05	3.80878e-07	-4.00291e-06	
0.000783866	0.000730946	0.014851	
-5.47694e-06	6.12889e-05	-1.01771e-05	
-0.00289495	0.00115198	0.0286892	
2.05871e-06	4.69681e-05	-5.31841e-06	
-0.000571228	0.00109505	0.00160314	
-1.86094e-05	0.000490129	-9.13909e-05	
-0.00266858	0.000950658	0.0125634	
5.88138e-06	0.00135274	-0.000210379	
-0.00233648	0.00084609	0.0152797	
0.00143572	0.000898027	-0.00528728	
6.08373e-06	0.000199759	-3.99807e-05	
-7.64076e-06	0.000974072	-0.000160643	
-3.43965e-07	0.000751938	-0.000124805	
-1.00158e-05	0.000341104	-6.64982e-05	
-3.95044e-06	0.000613197	-0.000104758	
-0.00631371	-0.0121765	-0.00312397	
-0.0172371	-0.144596	-0.0881667	
-0.00149906	-0.00360169	-0.000602118	
0.00319108	0.00511136	0.00329496	
-0.00110146	-0.00258871	-8.37572e-05	
0.00429434	0.0111601	0.00807974	
-0.0101888	-0.0201594	-0.00976518	
0.00496959	0.00817308	0.00641224	
-0.00186564	-0.00823407	-0.00387428	
0.000639612	0.00378727	0.00272828	
0.0013495	0.00461266	0.00419723	
0.000233241	-0.00880069	-0.00728355	
0.0056064	0.00881833	0.00667189	
-0.000227781	-0.000961362	0.000987239	
0.00553881	0.011016	0.00790342	
0.00531637	0.00816477	0.00609683	
0.0001943	0.000764946	0.00171397	
-0.00294533	-0.0159979	-0.0088434	
-0.00113242	-0.00536515	-0.00268855	
-0.000659306	-0.00242596	5.09088e-05	
0.000207241	-0.000101261	0.000169918	
-4.2144e-06	-0.00019469	0.000571192	
0.000148652	-0.000199228	0.000235157	
-2.91168e-05	-0.000409158	0.00124142	
8.20497e-06	-5.98272e-05	0.00013813	
0.0103919	0.0206645	0.0134009	
0.00516368	0.00789875	0.00571066	
0.00983416	0.0156848	0.00998921	