<VTKFile type="UnstructuredGrid" version="0.1" byte_order="LittleEndian">
	<UnstructuredGrid>
		<Piece NumberOfPoints="9990" NumberOfCells="9990">
			<CellData Scalars="scalars">
				<DataArray type="Float64" Name="Strength" NumberOfComponents="3" Format="ascii">
-0.0080232	-0.0152108	0.0132179	
0.00262019	-0.0147681	-0.027217	
-0.012595	0.0717843	-0.00311366	
0.00482292	-0.00689094	-0.00694957	
0.00589974	0.000215758	-0.0111577	
0.00944411	0.0543746	-0.0342277	
-0.00317166	0.0855216	-0.0336516	
0.0011044	0.0165514	-0.0180717	
0.00138715	0.0839351	-0.0354503	
0.00204459	0.029772	-0.0258571	
0.00264892	0.0129915	0.0436481	
0.00507021	-0.00203906	-0.00180847	
-0.00857767	0.0420011	0.00949012	
0.000179011	-0.00261954	0.000513165	
-0.000959783	0.0714724	-0.0354848	
-0.00334717	0.0869105	-0.0242607	
0.00398927	0.0961279	-0.00267025	
-0.0100651	0.0605503	-0.033857	
0.00111492	0.0165629	0.0270088	
0.00729736	-0.0107539	0.00643491	
-0.00866263	0.0359041	0.0171873	
0.00333167	-0.000244174	-0.00036634	
0.00517815	-0.00512883	0.00900678	
0.000661377	-0.000412135	-0.00247805	
-0.0113913	0.0498118	0.0017046	
-0.00101249	-0.0126832	0.00316322	
-0.0071506	0.0878491	-0.0220031	
0.00929177	0.0399914	0.0144716	
-0.00307549	0.0877928	-0.00415051	
-0.00958415	0.0430328	-0.02525	
-0.00107115	0.0538691	0.0106293	
-0.00172167	0.091426	-0.00844902	
-0.0002216	0.000604208	0.000148556	
-0.00553291	0.0872811	-0.01483	
-0.0041493	0.0777779	0.020222	
0.0179946	0.00979715	0.00835702	
0.00507161	0.0569403	0.0226407	
-0.0123127	-0.00570445	-0.0249609	
0.000734423	-0.118166	-0.0784868	
-0.00875581	0.0113527	0.050238	
0.000629003	0.0119499	-0.0134987	
0.00410064	-0.00752524	0.0550441	
0.00596025	-0.0267556	0.0628117	
-0.0179645	-0.0261622	0.0519962	
0.0153321	-0.0128927	0.0526467	
0.0128358	-0.0216162	0.0333328	
0.012363	0.000913184	0.0161102	
-0.00117214	-0.0144662	0.0563667	
-0.0145191	-0.0126617	-0.0179046	
0.00807789	-0.0038785	0.0488563	
0.00152926	-0.0110555	0.0261954	
0.00266671	0.00445613	0.0552044	
0.00422937	0.00182378	0.0406259	
0.0134363	-0.0241719	0.0432202	
0.0241238	-0.0117554	0.0213564	
-0.0063038	-0.0151519	0.0114062	
0.00456596	-0.0207196	0.0542352	
0.0250536	-0.00113904	0.011304	
-0.00607773	-0.0249335	0.00417187	
-0.0106722	0.00230016	0.0166002	
-0.00289683	-0.00973533	0.0590047	
-0.00543393	0.00856048	-0.0201057	
0.0202237	0.00754107	0.0391615	
0.00390797	0.00388116	0.031713	
0.00924186	0.0130158	0.0165602	
0.0215619	-0.0195997	0.0728969	
-0.00632578	0.00207035	0.0406301	
-0.00193866	-0.0010795	0.0190793	
-0.0022517	0.00337837	0.0448781	
0.00313299	0.00886921	-0.0104781	
0.000606598	0.000902169	-0.00479314	
0.00072594	-0.00533208	0.0247246	
0.00553034	-0.0244427	0.0509815	
-0.00381037	-0.00655405	0.0521145	
0.0141756	-0.0584502	-0.00654775	
0.00207597	0.0110255	-0.0350931	
-0.00971252	0.000154503	-0.031546	
-0.0109819	-0.0388464	-0.0182396	
-0.00900365	0.014405	-0.0108058	
-0.014863	0.0109435	-0.0226417	
0.00244252	-0.0109672	-0.0527276	
0.00472243	-0.0191509	-0.0552973	
0.00242882	-0.00952014	0.00201711	
-0.00127169	-0.00723108	0.00125861	
7.87872e-07	0.000486759	-0.00356611	
-0.00414072	-0.00271261	0.00562339	
0.00568141	-0.0318253	-0.0618066	
-0.0189329	-0.00869032	-0.0471205	
-0.0278687	-0.0298178	-0.0333178	
0.00382076	-0.0434987	-0.0576622	
0.000946976	-0.00490048	0.000962966	
0.000500174	-0.00604638	-0.000230694	
0.000552651	-0.00538926	-0.00141822	
-0.00200937	0.00498526	-0.00485212	
0.0011238	-0.001281	0.00353451	
-0.00211069	-0.0021365	-0.000761777	
0.00112922	-0.000706746	-0.00250055	
0.00476949	-0.00265036	-0.00951619	
-0.0204703	-0.0439251	-0.0143566	
0.0536292	-0.0619213	-0.033009	
0.00591572	-0.0474201	-0.0536493	
-0.00474391	-0.0493591	-0.0495293	
-0.00568857	-0.00324745	-0.034584	
-0.0154394	-0.0487423	-0.0309884	
0.0013184	-0.0463326	-0.0511903	
0.0069156	-0.00804302	-0.0411703	
0.00653332	-0.0497123	-0.0327128	
-0.00274428	-0.0598056	-0.0516476	
0.000818459	-0.011483	-0.0137523	
1.13002e-06	6.81217e-06	9.03735e-06	
0.00885287	-0.00128855	-0.020635	
-0.00222249	0.00306847	0.00643725	
-0.000550765	-0.0252654	-0.0160068	
-0.0213455	-0.00152005	0.0264342	
0.0044836	-0.000208242	-0.0106333	
0.00640446	0.00108701	-0.0129391	
0.0192737	0.0114988	-0.0129612	
0.00512761	0.0128559	-0.00363326	
0.00654575	0.00361747	-0.0122225	
0.0122159	0.0153898	-0.00485186	
0.00939498	0.00569852	-0.013036	
0.0166992	0.00275464	0.0435187	
0.00185907	-0.00373379	0.00296501	
-0.000775061	-0.000885358	0.0280185	
0.000674111	0.00203128	0.000760523	
0.00878016	0.0128272	-0.00659227	
0.00472539	0.0126359	-0.00204132	
0.00206069	0.0110619	0.00177111	
-0.00171817	0.00851119	-0.00596077	
0.00952594	0.00324091	0.0316782	
0.00589343	-0.00697268	0.00947767	
0.00256406	0.000968795	0.0326367	
0.000230006	5.9115e-06	-7.21871e-05	
0.00551111	-0.00394222	0.0100922	
-0.000130423	6.28048e-05	-0.000391635	
-0.00766062	-0.000153524	0.0231288	
5.50898e-06	0.000189913	-5.61586e-05	
-0.00173774	0.0108353	-0.00127554	
0.00362959	0.00414676	0.00100412	
-0.00911069	0.00561002	0.00717995	
-0.00190374	0.00636179	-0.00489006	
-0.00396519	0.00206408	0.0122053	
0.00407067	0.0109759	0.000551683	
-3.43688e-05	-0.00136597	-0.000103603	
-0.000576452	0.0101827	-5.52476e-05	
0.00263396	0.00694568	0.00457929	
0.00257362	0.000716021	-0.00072894	
0.0032678	0.0055846	0.00306078	
-0.00351528	-0.0123018	-0.0048165	
-9.21238e-06	-0.06553	-0.144975	
-0.00941219	-0.0052608	0.00269604	
0.00163262	0.00651408	0.0017839	
-0.00294864	-0.00435783	0.00403391	
0.0122687	0.00624828	0.0159046	
-0.0240417	-0.0147736	-3.49234e-06	
0.00994171	0.00307853	0.00556899	
-0.000506524	-0.00816579	-0.000123243	
-0.00103287	0.000545297	0.00689653	
0.00149201	-0.00105804	0.00760876	
-0.00043071	-0.0043059	-0.0124703	
0.00953456	0.00393932	0.00677312	
-0.00124049	-0.00308164	0.00422313	
0.00802343	0.00543448	0.00992161	
0.00801307	0.0049162	0.00605543	
0.000812192	-0.00292376	0.00477828	
-0.00464814	-0.0149918	-0.0081984	
-0.000643848	-0.0058735	-0.000408725	
0.000238997	-0.00250642	0.00647748	
-0.00205486	0.0010288	-0.000817193	
0.00134948	-0.0017288	0.00204321	
-0.000221587	0.00225698	0.000684581	
-0.000560571	-0.00273051	0.00564191	
-0.000372351	0.000551393	-0.00130849	
0.0189543	0.0152813	0.0162807	
0.00734838	0.00601273	0.00493191	
0.011267	0.0152616	0.00660457	
0.0249903	0.0136078	0.0179712	
-0.00159565	0.00065461	0.00567602	
-0.000139263	2.7505e-05	0.000787337	
-0.00115163	0.000588309	0.00680152	
0.00235608	0.00599134	0.00142494	
0.000183779	0.000116782	-0.000929116	
-8.28377e-05	-0.000848054	0.00606423	
0.000331786	-0.00290565	0.00532845	
-0.000557513	-0.00210179	0.00715886	
0.0280836	-0.0176772	0.00541805	
0.00287205	0.00381882	-0.0253009	
-0.0118105	0.0194504	-0.0044663	
2.29192e-05	-0.0062597	-0.00218118	
-0.0054622	0.0202365	-0.0049218	
-0.0101129	0.0261149	-0.00453005	
-0.0113238	0.00363987	-0.0132431	
-0.00882861	0.00141216	-0.0099811	
0.00105791	-0.00636213	0.00520287	
0.000294931	-0.00358215	0.00348129	
-0.000706392	0.00267305	-4.82896e-05	
8.96296e-05	-0.00191058	0.00306975	
0.00025951	-0.00246382	-0.0078804	
-0.0331777	0.00964209	-0.0239013	
-0.0214198	0.0185969	-0.00975773	
0.00237937	-0.00514962	-0.0078069	
0.000947329	-0.00298054	0.00303208	
0.000669826	-0.00254893	0.0029284	
0.000418615	-0.00244121	0.00220264	
-0.00131825	0.00809265	-0.00224157	
-0.00111679	-0.000404989	0.000616603	
0.000887921	0.000396576	0.000439375	
0.000614151	0.000317236	0.000437656	
-0.000234468	9.17076e-05	0.000394827	
-0.00234864	-0.00481845	-0.000588362	
0.0535673	-0.0478561	-0.00222274	
0.00469674	-0.00662144	-0.00735224	
-0.00217797	-0.0062684	-0.00654353	
-0.0103079	0.0141262	-0.00540531	
-0.00104263	-0.00200789	-0.00183758	
0.000283414	-0.00651196	-0.00718997	
0.000782085	-9.04684e-05	-0.00134792	
0.0124144	-0.00971079	-0.00453546	
-0.000113237	-0.00556244	-0.00449056	
-0.000128447	-0.00309745	-0.00286566	
0.000101549	0.000735288	0.00102844	
9.28407e-05	-2.62942e-06	-0.000148768	
-0.00244683	0.00338492	0.00613341	
0.00191507	-0.0258006	-0.0113075	
-0.00412036	-0.00498056	0.0339776	
0.00524892	-0.00104171	-0.0103664	
0.00737715	-0.000743257	-0.0122524	
0.0170357	0.000364676	-0.0169523	
0.00321377	0.00299823	-0.00643903	
0.0076341	0.00015426	-0.0110007	
0.00922925	0.00282735	-0.0123454	
0.009872	0.00020233	-0.011876	
0.012367	0.00601044	0.0454557	
0.00202553	-0.0035917	0.00417144	
0.00170089	0.00190632	0.0287081	
0.000756633	0.00266883	0.00114984	
0.00733317	0.00205771	-0.00930059	
0.00252642	0.00302753	-0.00562534	
0.000735762	0.0032975	-0.00236367	
-0.000674674	0.00225751	-0.00159546	
0.00772042	0.00609331	0.0324316	
0.00633182	-0.00750144	0.00906512	
0.00274717	0.00280644	0.0334916	
-0.000196371	4.07962e-05	-8.09341e-06	
0.00669487	-0.00400115	0.0102073	
2.26143e-05	5.57199e-05	-0.000152785	
-0.00251694	-0.000217053	0.0245817	
-1.6743e-06	6.87329e-05	-2.34374e-05	
-0.000685911	0.00289356	0.000687716	
0.00111521	0.00131258	-0.000147036	
-0.00134892	0.000243188	0.0108	
-0.000615143	0.00159027	-0.0013586	
-0.000955587	1.06182e-05	0.0125663	
0.00116187	0.003659	-0.00496588	
0.000140889	-0.000545796	-9.37557e-05	
-9.784e-05	0.00281337	-0.000167013	
0.00101525	0.00222583	0.000236922	
0.00111368	0.000371393	-0.000370517	
0.00112074	0.00179533	0.000145705	
-0.00376539	-0.0127429	-0.0035492	
-0.0451406	-0.0591891	-0.148591	
-0.00352695	-0.00777288	-0.000818033	
0.00213663	0.00600511	0.00267863	
-0.00163062	-0.00285627	0.000431474	
0.00688294	0.0139413	0.00887142	
-0.0146331	-0.0221333	-0.00693629	
0.00632193	0.00785076	0.00376497	
-0.00202331	-0.00684347	-0.00375824	
0.00255605	-0.000971075	0.00558012	
0.0013094	0.00287398	0.00379107	
0.000401002	-0.00857084	-0.0115924	
0.00679591	0.00815697	0.00460861	
-0.000751598	-0.00222453	0.00079952	
0.00407462	0.0105381	0.0058657	
0.00632143	0.00763684	0.00392494	
0.000260306	-0.000678007	0.00160199	
-0.00461604	-0.015209	-0.00992977	
-0.00184582	-0.00494763	-0.00279379	
-0.000111321	-0.00052924	0.00199489	
-0.000398553	0.00047834	-0.000221129	
0.000459269	-0.000454135	0.000596698	
-0.000575954	0.000437343	9.24215e-05	
-0.000151274	-0.00029381	0.00185151	
-0.000114196	0.000165367	-0.000395956	
0.0108873	0.0219963	0.0124635	
0.00623722	0.00770323	0.00324425	
0.0107794	0.0161573	0.00585303	
0.0096259	0.0275336	0.0113329	
-0.000632979	3.02161e-05	0.00183245	
3.80271e-05	-1.62714e-05	-0.000174801	
-0.000582479	0.000151751	0.00222267	
0.00256886	0.0057277	0.00227131	
0.000132475	4.09737e-05	-0.000537611	
-4.58435e-05	-0.000330853	0.00204423	
6.60318e-05	-0.000540512	0.001618	
-0.000288047	-0.000199418	0.00241992	
0.0291567	-0.0148096	0.00882507	
0.00393426	0.00303377	-0.0277629	
-0.00672348	0.022022	-0.00411433	
0.0013905	-0.00282834	-0.000250145	
-0.00604901	0.0196112	-0.00596808	
-0.00831177	0.0267836	-0.00485921	
-0.00856769	0.0114145	-0.00952744	
-0.00739522	0.00834804	-0.00621067	
0.0017059	-0.00756154	0.00385347	
0.000641932	-0.00480557	0.00241705	
-0.000553674	0.00225901	-0.00113541	
0.000613047	0.00100823	0.00377322	
-0.000205047	-7.30174e-05	-0.00247294	
-0.0235211	0.0285799	-0.022799	
-0.00971849	0.0251447	-0.0141828	
0.00143651	-0.00235184	-0.00183422	
0.000876411	-0.00397267	0.00171855	
0.000683715	-0.00377543	0.00184082	
0.000323931	-0.00341834	0.000949184	
-0.00188879	0.00708913	-0.00315709	
8.16729e-05	-0.000362154	-2.58156e-05	
-0.000217517	-0.000137137	-0.000106194	
0.000166139	-0.000113596	-6.49671e-05	
0.000184528	-7.06968e-05	-0.000311696	
-0.000803808	-0.00145819	-6.63813e-06	
0.0301374	-0.060744	0.0216645	
0.00364515	-0.003986	-0.00118373	
-0.00125619	-0.00155176	-0.00245324	
-0.00562475	0.0168708	-0.00505765	
-0.000379768	-0.000577351	-0.000555318	
0.000124503	-0.00206448	-0.00230204	
0.000377666	-0.000169562	-0.000519512	
0.0118861	-0.00706417	0.00144948	
8.67595e-06	-0.00178545	-0.0013601	
-0.000109454	-0.000761393	-0.000810151	
-3.35152e-05	-0.000223532	-0.000314795	
0.000255688	-3.43336e-05	-0.000386278	
-0.00268822	0.00369529	0.00564987	
0.00666749	-0.0246975	-0.00794979	
-0.00693911	0.000154305	0.0346441	
0.00553422	-0.00107633	-0.0104129	
0.00722323	-0.0011485	-0.0126977	
0.0119918	-0.00327587	-0.0216564	
0.00150114	0.00213333	-0.00790974	
0.00691052	-0.000879443	-0.0118999	
0.004899	0.000448884	-0.0153889	
0.00825569	-0.0014455	-0.0135057	
0.0134158	0.00462166	0.0462817	
0.00265931	-0.00283185	0.0052047	
0.00193002	0.00168475	0.0291694	
-0.000788916	0.0035746	0.0015181	
0.00389318	0.000570117	-0.011863	
0.00143318	0.00259601	-0.00665426	
0.000887121	0.00343686	-0.00257128	
-0.000929933	0.00238571	-0.00166736	
0.0079072	0.005482	0.0331277	
0.00600968	-0.00717267	0.00982754	
0.00301551	0.00263445	0.0340006	
0.000154507	-2.91429e-05	-4.439e-05	
0.00690595	-0.00445577	0.0105296	
8.7454e-05	0.000121548	-8.43252e-05	
-0.00203456	0.000322967	0.0252818	
-1.38011e-05	0.000251529	-9.71451e-05	
-0.000789483	0.00356774	-3.11417e-06	
0.00105563	0.00131834	-0.000179722	
-0.00276479	0.00276442	0.0106085	
-0.00075982	0.00154749	-0.00130794	
-0.00144228	0.000828829	0.0130155	
0.00159541	0.00340789	-0.00558945	
0.000117919	-0.000552487	-9.45156e-05	
-0.000165087	0.00338473	-0.000891364	
0.00120638	0.00257818	5.59277e-06	
0.00115967	0.000399386	-0.000386725	
0.00124412	0.00196896	5.91877e-05	
-0.00473092	-0.0127616	-0.00294302	
-0.0237797	-0.0512363	-0.163031	
-0.00368984	-0.00604202	-0.000394201	
0.0026141	0.00572231	0.00257849	
-0.00161485	-0.00273499	0.000493636	
0.00648548	0.0132032	0.00865593	
-0.0112399	-0.0232391	-0.00709901	
0.00507708	0.00895104	0.00428523	
-0.0026717	-0.00689686	-0.00394242	
-0.00223232	0.00409616	0.00443378	
0.00164067	0.0033404	0.00421321	
-0.00449524	-0.00400728	-0.0129193	
0.0051827	0.00956855	0.00496603	
-0.000438298	-0.00189958	0.000699073	
0.00528533	0.0110107	0.00567548	
0.0049045	0.00898612	0.00405019	
0.000503388	-0.000357998	0.00191569	
-0.00526396	-0.0156554	-0.00953973	
-0.00179706	-0.00517667	-0.00258913	
-0.000385392	-0.00118104	0.00161942	
-0.000504087	0.000196451	-0.000440159	
0.000547542	-0.000470461	0.000615859	
0.000461323	0.000463083	-0.000358098	
-0.000142137	-0.000310473	0.00184675	
-8.43283e-05	0.000122067	-0.000292907	
0.0116348	0.0216891	0.0124264	
0.005168	0.00880449	0.00317566	
0.0101568	0.0170192	0.0055952	
0.012719	0.0258022	0.0105772	
-0.000507534	7.02824e-05	0.00160046	
2.92526e-05	-1.21935e-05	-0.00012163	
-0.000541283	0.000218533	0.00195862	
0.00286154	0.0056479	0.00225455	
0.000140084	2.52968e-05	-0.000519785	
-3.77348e-05	-0.00030001	0.00162288	
7.35015e-05	-0.000593437	0.00168869	
-0.000250591	-0.000179062	0.00230813	
0.0279028	-0.0156446	0.0135758	
0.00329225	0.00367021	-0.0266385	
-0.00787792	0.0219834	-0.00498026	
0.0013277	-0.00289997	0.000572301	
-0.00606721	0.0200585	-0.00578608	
-0.0088075	0.0270417	-0.00523717	
-0.00652551	0.0132938	-0.00904709	
-0.00532946	0.0100678	-0.00633693	
0.00145048	-0.00711413	0.00420357	
0.000628748	-0.00444378	0.00264325	
-0.000636685	0.00247707	-0.000863149	
0.000628556	-0.00113519	0.00346065	
1.05976e-05	-6.02384e-05	-0.00251897	
-0.0184328	0.0336562	-0.0228709	
-0.0126591	0.0237722	-0.0153457	
0.000794074	-0.00242299	-0.00175453	
0.00084523	-0.00359401	0.00204124	
0.000679167	-0.00340084	0.00211979	
0.000296347	-0.00309984	0.00136068	
-0.00178843	0.00747038	-0.00297484	
6.53998e-05	5.38616e-05	-0.000122453	
8.87037e-05	5.17438e-05	4.4716e-05	
-2.99202e-05	8.33687e-05	7.70565e-06	
7.04976e-05	-2.97277e-05	-0.000120941	
-0.000891246	-0.0013031	6.00707e-05	
0.0296375	-0.0614529	0.0202277	
0.00255749	-0.00482187	-0.000632419	
-0.000452079	-0.00168236	-0.002223	
-0.00679745	0.0164287	-0.00613225	
-0.000430701	-0.000733564	-0.000621016	
6.70492e-05	-0.00206148	-0.00223004	
0.000407915	-0.000190663	-0.000568434	
0.00984659	-0.00826238	0.00471108	
-5.72542e-05	-0.00175355	-0.00124578	
-0.000108461	-0.000711798	-0.000876447	
6.29958e-06	4.40482e-05	6.2276e-05	
0.000180377	-2.62281e-05	-0.000271639	
-0.00308428	0.00353207	0.00543509	
0.010935	-0.0225258	-0.00458543	
-0.00737309	0.000180738	0.0353448	
0.00575779	-0.00112784	-0.0107816	
0.00690328	-0.00122538	-0.0133757	
0.0103117	-0.00429345	-0.0232055	
0.00225839	0.00183234	-0.00771252	
0.00618565	-0.00134851	-0.0128641	
0.00603235	0.000120264	-0.0151	
0.0070724	-0.00222867	-0.0147335	
0.0138906	0.0046268	0.0470917	
0.00315064	-0.00240248	0.00586505	
0.00189716	0.0020048	0.0296184	
-0.00203995	0.00422183	0.000743699	
0.00434877	-0.000173604	-0.011808	
0.00202273	0.00219666	-0.00646635	
0.00105758	0.0033639	-0.00285493	
-0.00106103	0.00245286	-0.00182609	
0.00816927	0.00568961	0.0337346	
0.00544288	-0.00683019	0.0106416	
0.00320375	0.00314188	0.0348635	
-0.000130781	-6.82114e-05	9.0113e-05	
0.00730083	-0.0048069	0.0107591	
9.06864e-05	6.25684e-05	9.95788e-05	
-0.0020004	0.000627797	0.0259889	
-1.0512e-05	0.000122414	-5.19101e-05	
-0.000796157	0.00321554	0.000110328	
0.00113275	0.00142442	-0.000200492	
-0.00288696	0.00273048	0.0108681	
-0.000954065	0.00182609	-0.00160038	
-0.00138903	0.00107317	0.0135745	
0.00174433	0.00321267	-0.0055939	
0.000104227	-0.000500093	-8.91587e-05	
-0.000151081	0.00309433	-0.000776145	
0.00129244	0.00277576	4.87691e-05	
0.00114123	0.000346917	-0.000356201	
0.00133246	0.00214742	6.61093e-05	
-0.0056569	-0.0126473	-0.00249797	
-0.0228803	-0.0596162	-0.167131	
-0.00307727	-0.0051767	-0.00028913	
0.00299867	0.00552346	0.00259414	
-0.00151319	-0.00264097	0.000315409	
0.00620163	0.0129776	0.00827017	
-0.0123782	-0.0221796	-0.00672946	
0.0055923	0.00893084	0.00399467	
-0.00278722	-0.00709185	-0.00436565	
0.000415739	0.00205507	0.00531637	
0.00170256	0.00365857	0.00420224	
-0.0036527	-0.00709627	-0.0113157	
0.00565684	0.00961253	0.00474149	
-0.000416299	-0.00147013	0.000572771	
0.00581182	0.0116136	0.00570614	
0.00499023	0.00917961	0.00400045	
0.000500737	-0.000214703	0.00174422	
-0.00491462	-0.0154261	-0.0099654	
-0.00222764	-0.00486635	-0.00290761	
-0.000424116	-0.00126482	0.00120362	
0.000369317	0.000206926	-0.000151804	
0.000417081	-0.000502932	0.000579835	
0.000501521	0.000220339	-0.00025603	
-0.00012415	-0.000282847	0.00167009	
-7.07549e-05	0.000103133	-0.000249356	
0.0118115	0.0219129	0.0120971	
0.00500036	0.00910552	0.00317479	
0.00986437	0.0174675	0.00564867	
0.0125605	0.025401	0.0102162	
-0.000435647	8.38995e-05	0.00133096	
1.47122e-06	-1.64811e-06	-8.47628e-06	
-0.000472708	0.000197206	0.00169712	
0.00300636	0.00558108	0.00244414	
7.83111e-05	1.08485e-05	-0.000281508	
-4.76691e-05	-0.000228527	0.00131695	
7.75067e-05	-0.000556115	0.00158922	
-0.00020292	-0.000144024	0.00192639	
0.025736	-0.0165971	0.0176873	
0.00331854	0.00391579	-0.0266757	
-0.00802111	0.0222635	-0.00485716	
0.00126053	-0.00292153	0.00127628	
-0.00616946	0.0201694	-0.00584074	
-0.00879479	0.0272554	-0.00547506	
-0.007225	0.0129164	-0.00944921	
-0.00590613	0.00972477	-0.00664024	
0.00149162	-0.00716901	0.004042	
0.00061891	-0.00452913	0.0025284	
-0.000639354	0.00250553	-0.000944239	
0.00081072	-0.0011694	0.00344244	
-4.3727e-05	-2.67846e-05	-0.00223987	
-0.0206756	0.0330872	-0.0239188	
-0.0129868	0.0243619	-0.0150504	
0.000651054	-0.00222739	-0.00153137	
0.000820052	-0.00362636	0.00190566	
0.000682227	-0.00349329	0.00200043	
0.000256908	-0.00317853	0.00122033	
-0.00182806	0.00745904	-0.00304924	
-4.28499e-06	-4.40548e-06	8.77873e-06	
-9.07843e-06	-5.45564e-06	-4.71601e-06	
5.25049e-06	-4.574e-06	-1.34715e-07	
7.58015e-05	-3.05989e-05	-0.000127345	
-0.000771777	-0.00088179	4.46776e-05	
0.0305344	-0.0602926	0.0205488	
0.00221542	-0.00474162	-5.43303e-05	
-9.63523e-05	-0.0017243	-0.00165574	
-0.00696516	0.016637	-0.00597515	
-0.000293404	-0.000496497	-0.000438725	
1.79402e-05	-0.00173857	-0.0018098	
0.000269976	-0.000125654	-0.000378542	
0.00810355	-0.00867515	0.00650106	
-0.000109735	-0.00158127	-0.0010661	
-0.000108844	-0.000680874	-0.000798967	
-4.41423e-06	-3.11004e-05	-4.39303e-05	
0.000141485	-2.21084e-05	-0.000212838	
-0.00297014	0.00383204	0.00481976	
0.0129426	-0.020951	-0.00315568	
-0.006528	-0.00151785	0.0362398	
0.0056495	-0.000849884	-0.0112147	
0.0065543	-0.0015412	-0.0138604	
0.0116751	-0.00507026	-0.0226842	
0.00252936	0.00128246	-0.00787911	
0.00575963	-0.001599	-0.0131514	
0.00629026	-0.000479748	-0.0150198	
0.00690432	-0.00288029	-0.014731	
0.0147859	0.00404727	0.0473377	
0.00329514	-0.00245619	0.00613089	
0.00254674	0.00128415	0.0302684	
-0.00215788	0.0045677	0.000637119	
0.00483287	-0.000440143	-0.011675	
0.00220755	0.00179338	-0.00673919	
0.000674422	0.00262645	-0.00167908	
-0.000753773	0.00166865	-0.00130035	
0.00865811	0.00533253	0.0341038	
0.00538283	-0.0068433	0.0108129	
0.00379483	0.0024965	0.0355047	
-4.84203e-05	-2.77044e-05	5.98579e-05	
0.007644	-0.0050432	0.0108304	
2.4401e-05	4.05085e-05	4.66767e-05	
-0.0013488	-0.000346057	0.0265559	
-5.93985e-05	0.000562264	-0.000254126	
-0.000802234	0.00316062	0.000271107	
0.00058985	0.000736841	-0.000124484	
-0.0026978	0.00140415	0.0114727	
-0.000659596	0.00119763	-0.00109502	
-0.00140505	0.000115175	0.0140805	
0.00157417	0.0028181	-0.00538408	
4.80768e-05	-0.000224104	-5.41797e-05	
-0.000128181	0.00292773	-0.000732625	
0.000763645	0.00160404	1.8828e-05	
0.000491182	0.000153336	-0.000170959	
0.000742795	0.00116384	1.74668e-05	
-0.00608646	-0.0125029	-0.00194624	
-0.00366169	-0.0617071	-0.17192	
-0.00284305	-0.00501959	-0.000462324	
0.00325857	0.00542683	0.00295192	
-0.00146774	-0.00271328	-5.70629e-05	
0.00601065	0.0129811	0.00796771	
-0.01211	-0.0222792	-0.00623807	
0.00570484	0.00893885	0.00455807	
-0.00288962	-0.00727016	-0.00475712	
0.0002934	0.00140737	0.00512332	
0.00161125	0.00368998	0.00383446	
-0.00330823	-0.00557105	-0.0123661	
0.00563149	0.00957145	0.00550566	
-0.000271371	-0.00131699	0.000776686	
0.00579037	0.0119853	0.00573444	
0.00501555	0.00913674	0.00476146	
0.000303496	-0.000261462	0.00114953	
-0.00492407	-0.0153649	-0.0101293	
-0.00199242	-0.00492866	-0.00311488	
-0.000331989	-0.00103175	0.000812291	
0.000241808	0.00014842	-0.000114887	
0.000398166	-0.000329169	0.000323242	
0.000345866	-0.000148803	6.75319e-05	
-9.68462e-05	-0.000241618	0.00142137	
4.62969e-06	-6.59503e-06	1.67429e-05	
0.0116894	0.0222896	0.0119941	
0.00505901	0.00920234	0.00409238	
0.00983063	0.0178219	0.006442	
0.0120867	0.0257082	0.0101279	
-0.000451504	9.78977e-05	0.0013591	
-0.000198243	8.41244e-05	0.000796497	
-0.000414465	0.000179127	0.00146408	
0.00303194	0.00560163	0.00296239	
-0.000112922	-1.51443e-05	0.000399592	
-5.88879e-05	-0.000214511	0.001336	
6.42324e-05	-0.000441266	0.00125979	
-0.000166618	-0.000105136	0.00155275	
0.023166	-0.0187128	0.0206436	
0.0037278	0.00450218	-0.0262113	
-0.008126	0.0225024	-0.00475125	
0.00102661	-0.00304889	0.00154553	
-0.00618366	0.0203379	-0.00587765	
-0.00881335	0.0274488	-0.00561339	
-0.00767763	0.013186	-0.00909234	
-0.00630601	0.0100261	-0.00613551	
0.00144385	-0.00706128	0.00403802	
0.000603165	-0.00443152	0.00259068	
-0.000658807	0.00257151	-0.000937945	
-2.72202e-06	-0.00135292	0.00342488	
-0.000243016	0.000302718	-0.00170866	
-0.0212197	0.034151	-0.0235679	
-0.0128987	0.0248876	-0.0148957	
0.000676256	-0.00190596	-0.00111143	
0.000802194	-0.00353612	0.00190712	
0.00066623	-0.00343137	0.00202014	
0.000246845	-0.0031215	0.00126169	
-0.00182916	0.00755062	-0.00305611	
2.62738e-05	1.05591e-05	-2.99478e-05	
2.21982e-05	1.34838e-05	1.19875e-05	
-5.74886e-06	2.36688e-05	9.63524e-07	
6.15387e-05	-2.52624e-05	-0.000103554	
-0.00105269	-0.00103429	4.39893e-05	
0.0296982	-0.0603992	0.020691	
0.0023501	-0.00423614	0.000346228	
-5.00111e-05	-0.00151231	-0.00131324	
-0.00701878	0.0167669	-0.0058354	
-0.000223225	-0.000371914	-0.000339443	
-1.21713e-06	-0.00136849	-0.00137107	
0.000211692	-9.68524e-05	-0.000295333	
0.00732021	-0.00876823	0.00726302	
-0.000143462	-0.00161015	-0.00106466	
-7.61318e-05	-0.000443019	-0.000526376	
-8.29567e-07	-5.98786e-06	-8.40107e-06	
0.000118182	-1.83767e-05	-0.00017874	
-0.00315292	0.00350868	0.00478887	
0.0101197	-0.0213048	-0.00552324	
-0.00573642	-0.00252638	0.0367026	
0.00598182	-0.00146381	-0.0111121	
0.00669087	-0.00200748	-0.013554	
0.0119968	-0.00578453	-0.0226396	
0.00246354	0.000485928	-0.00727294	
0.00640182	-0.00238866	-0.0127387	
0.00643074	-0.00125477	-0.0150894	
0.00751826	-0.00342583	-0.0143495	
0.0150365	0.00343568	0.047586	
0.0036672	-0.00251804	0.00607368	
0.00279329	0.00077544	0.0305942	
-0.000293387	0.00510509	-0.00134637	
0.00509919	-0.00123506	-0.0115296	
0.00202084	0.000635163	-0.00599942	
0.000633063	0.00101435	-0.00128992	
-0.00050039	0.00109449	-0.000863287	
0.00891904	0.0049575	0.0343213	
0.00530694	-0.00674249	0.0109716	
0.00400786	0.00208075	0.0358006	
-6.65827e-05	-1.98063e-05	-2.159e-06	
0.00774199	-0.00506522	0.0109578	
5.59081e-06	4.60755e-05	3.60014e-05	
-0.000988354	-0.000875577	0.0266893	
-1.7692e-05	0.000140668	-6.47258e-05	
-0.00068112	0.00147779	0.0011081	
0.00032735	0.000408382	-7.3565e-05	
-0.00240209	0.000266415	0.0117542	
-0.000413597	0.000735752	-0.000678585	
-0.00133168	-0.000430789	0.0142642	
0.00149402	0.00101239	-0.00500538	
3.46023e-05	-0.000157676	-4.11082e-05	
-4.18385e-05	0.00110113	-0.000276395	
0.000347825	0.000729539	-2.35402e-06	
0.000312317	9.98307e-05	-0.000111914	
0.000343152	0.000536132	1.10742e-06	
-0.0068813	-0.01244	-0.00226046	
-0.0117948	-0.059662	-0.175354	
-0.00190164	-0.00342934	-0.00034171	
0.00332553	0.00546304	0.00213134	
-0.0012349	-0.00247431	-0.000554167	
0.00534766	0.0120799	0.00678294	
-0.0120353	-0.0212736	-0.00739652	
0.00556106	0.00932764	0.00304069	
-0.00278825	-0.00720599	-0.00528036	
-0.00042689	0.00123141	0.00544215	
0.00184228	0.00475851	0.00381541	
-0.00224676	-0.00453592	-0.0133911	
0.00597886	0.00981523	0.00396084	
-0.000291999	-0.000725801	5.34997e-05	
0.00636577	0.0127046	0.00494818	
0.00563517	0.00919118	0.00319741	
0.000632348	0.000696112	0.00170109	
-0.00499734	-0.015599	-0.0108477	
-0.00238199	-0.00426079	-0.00404403	
-0.000738821	-0.002178	-8.66744e-05	
0.000179498	0.000123215	-8.0728e-05	
0.000226208	-0.000264325	0.000256903	
0.000306623	-7.14142e-05	6.62887e-05	
-4.27874e-05	-0.00011923	0.000692615	
-0.000131556	0.000194002	-0.000472614	
0.0116749	0.0223869	0.0112946	
0.00562235	0.00903763	0.00236738	
0.0103528	0.0176678	0.00493273	
0.0115349	0.0248428	0.00872975	
-0.00018236	4.00541e-05	0.000548568	
0.000203401	-9.08398e-05	-0.000829577	
-0.000278873	0.000120168	0.00097584	
0.00327491	0.005685	0.00191784	
0.000240816	2.3723e-05	-0.000872276	
-3.0221e-05	-9.60819e-05	0.000620549	
2.42692e-05	-0.000203888	0.000590606	
-0.000134989	-9.1813e-05	0.00130556	
0.021887	-0.0187469	0.0219557	
0.00375904	0.00499054	-0.025985	
-0.0082194	0.0225995	-0.00463702	
0.0016647	-0.00246946	0.00208181	
-0.00617753	0.020367	-0.00586727	
-0.00888615	0.0275524	-0.0055805	
-0.00787566	0.0134168	-0.00883775	
-0.00661871	0.010374	-0.00584031	
0.00144353	-0.00702032	0.00399402	
0.000594019	-0.00442664	0.00255771	
-0.000670426	0.00260968	-0.000946033	
-0.000421052	-0.00137016	0.00337179	
-0.000187298	0.000261487	-0.00136466	
-0.0213751	0.0350139	-0.0234311	
-0.0129303	0.0252965	-0.0148061	
0.00039535	-0.00117409	-0.000735577	
0.000792661	-0.00349987	0.0018692	
0.000653179	-0.00342924	0.00199611	
0.000229613	-0.00311473	0.00124694	
-0.00183774	0.00758956	-0.00309042	
1.18712e-05	3.99535e-06	-1.07883e-05	
7.85054e-06	4.84262e-06	4.34758e-06	
-9.15677e-07	9.49659e-06	9.49152e-07	
2.9676e-05	-1.27604e-05	-5.03903e-05	
-0.000153413	-0.00013695	4.14186e-06	
0.0293241	-0.0603737	0.0204769	
0.00229849	-0.00409563	0.000450711	
0.000542011	-0.001743	-0.00043059	
-0.00712203	0.0168919	-0.00571854	
-0.000137883	-0.000228741	-0.000211447	
-1.13611e-05	-0.00123342	-0.0012588	
0.000106698	-4.92043e-05	-0.000148028	
0.00721938	-0.00778961	0.00761481	
-4.60945e-05	-0.000467239	-0.000293414	
-5.07104e-05	-0.000308945	-0.00037602	
-1.68595e-06	-1.23366e-05	-1.73625e-05	
5.68517e-05	-9.64795e-06	-8.67687e-05	
-0.00322412	0.00336913	0.00479331	
0.00836368	-0.0215031	-0.00577906	
-0.00566473	-0.00254048	0.0369422	
0.0060423	-0.001679	-0.0112417	
0.00688465	-0.0022284	-0.013705	
0.0118968	-0.00585216	-0.0233013	
0.00229158	0.000168409	-0.00681205	
0.00633476	-0.00230058	-0.0131193	
0.00613773	-0.0016046	-0.0147385	
0.00749659	-0.00338325	-0.0147231	
0.0151557	0.00299054	0.0476357	
0.00396688	-0.00296873	0.00600508	
0.0029747	0.000673114	0.0307332	
-0.000895942	0.00568613	0.000205505	
0.00494741	-0.00120957	-0.0119338	
0.00187002	0.000306608	-0.00568783	
0.000594526	0.000944962	-0.00116672	
-0.000628873	0.0013564	-0.00107662	
0.00903238	0.00472424	0.0344675	
0.00520115	-0.00670093	0.0111312	
0.00406684	0.00201593	0.0360458	
2.17624e-05	6.92948e-06	-4.37364e-05	
0.00768667	-0.00527234	0.0110445	
-9.55773e-06	6.0844e-05	1.26003e-05	
-0.000919726	-0.000840556	0.0268499	
-6.01648e-06	4.28315e-05	-2.01243e-05	
-0.000666982	0.00127125	0.00132181	
0.000308113	0.000390402	-7.08099e-05	
-0.00237519	0.00020576	0.0118614	
-0.000532597	0.000936594	-0.000878361	
-0.00129234	-0.000390469	0.0143259	
0.00141301	0.000933625	-0.00497087	
4.74371e-05	-0.000189901	-5.34184e-05	
-3.27016e-05	0.00096905	-0.000239156	
0.000331465	0.000694561	-3.59571e-06	
0.000313316	0.000105744	-0.000112287	
0.000335101	0.000530363	-5.88313e-07	
-0.00662967	-0.0124935	-0.00164753	
-0.0147788	-0.0432899	-0.183989	
-0.00206003	-0.00344613	5.08877e-05	
0.00338332	0.00537899	0.00303436	
-0.00136418	-0.00249963	6.32496e-05	
0.00550034	0.0120059	0.00749211	
-0.0113574	-0.021899	-0.00559965	
0.00573895	0.00922813	0.00506759	
-0.00312494	-0.00765277	-0.00500506	
-0.00049022	0.00158311	0.00499067	
0.0020519	0.00468892	0.00453771	
-0.00179532	-0.00366488	-0.013534	
0.00562145	0.00995247	0.00596678	
8.00036e-05	-0.000848906	0.00119063	
0.00608091	0.0127873	0.00593588	
0.00512019	0.00952313	0.005084	
0.00072967	0.000519477	0.001934	
-0.00476743	-0.015474	-0.0107294	
-0.00221934	-0.00454964	-0.00390138	
-0.000869547	-0.00238419	0.000122827	
0.000316409	-8.7695e-05	-3.77285e-05	
0.000356958	-0.000413477	0.000428689	
0.000401989	-7.35101e-05	8.88297e-05	
-8.38438e-05	-0.000247763	0.00142273	
3.96162e-05	-5.84075e-05	0.000143527	
0.0114993	0.0224363	0.0119279	
0.00510571	0.00934396	0.0041986	