<VTKFile type="UnstructuredGrid" version="0.1" byte_order="LittleEndian">
	<UnstructuredGrid>
		<Piece NumberOfPoints="3663" NumberOfCells="3663">
			<CellData Scalars="scalars">
				<DataArray type="Float64" Name="Strength" NumberOfComponents="3" Format="ascii">
-0.00682646	-0.0158527	0.0126922	
-0.000134092	-0.0134446	-0.0274267	
-0.015218	0.0699058	0.00990304	
0.0044301	-0.00655221	-0.00730711	
0.00591651	0.000867848	-0.0109482	
0.0150858	0.0559022	-0.0277854	
0.00883232	0.0873312	-0.0238925	
0.00482265	0.0191162	-0.014114	
0.0131869	0.0845011	-0.028503	
0.00713882	0.0335398	-0.0186441	
0.00564476	0.00427298	0.044667	
0.00305766	-0.00427343	0.00219151	
-0.0112931	0.0390485	0.015498	
0.000318606	4.23234e-05	-0.00258383	
0.00943473	0.0744469	-0.0244921	
0.011471	0.086198	-0.0204357	
0.00932479	0.0927621	-0.0195818	
0.00171614	0.0672917	-0.0165685	
0.000698786	0.0118906	0.029086	
0.00794324	-0.00773439	0.00915628	
-0.00814942	0.0321444	0.0230346	
0.000353071	-0.000982318	0.00210239	
0.00432491	-0.00499762	0.00939256	
-0.00167717	0.00190936	2.61748e-05	
-0.0143072	0.0477574	0.00883634	
-0.000707942	-0.012676	0.00251322	
0.00703377	0.0879345	-0.017224	
0.00660435	0.0426035	-0.000488889	
-0.00117264	0.0868187	-0.00636418	
0.000652841	0.0488276	-0.0116715	
-0.00224431	0.0542724	0.00260405	
0.0101193	0.0886034	-0.0175937	
-0.000503394	-0.000393689	0.000142357	
0.00764207	0.0862697	-0.0143296	
0.0138452	0.0784574	-0.00112183	
0.00860877	0.0201541	-0.000611267	
0.0112997	0.0598204	-0.000124058	
-0.0103003	-0.00538039	-0.0255597	
0.0132559	-0.129321	0.0404738	
-0.00762481	-0.0136687	0.0493756	
0.00172036	0.011463	-0.0135548	
0.00283639	-0.00790506	0.0546535	
0.0257929	-0.00438396	0.0627519	
-0.00925623	-0.0380855	0.0458153	
0.0153489	-0.0114921	0.052351	
0.0076103	-0.0180892	0.0365237	
0.0133924	-0.00145706	0.0150291	
0.00950251	-0.0129534	0.0555155	
0.0154432	0.0164417	-0.00748243	
0.010726	-0.00783038	0.0473254	
0.00301619	-0.0118745	0.0254009	
0.00878447	-0.00390765	0.0541464	
0.00774869	-0.00440795	0.0394572	
0.0112739	-0.017008	0.0466894	
-0.0019349	-0.0172084	0.0293301	
0.00555636	-0.00895215	0.0167975	
0.0111057	-0.0117575	0.055532	
0.0259701	-0.00586456	-0.00100121	
0.0108219	-0.0191984	0.0133837	
0.00663213	-0.00123289	0.0185152	
0.00764864	-0.0138618	0.0572715	
-0.00276923	0.00818183	-0.0205252	
0.018952	0.0109955	0.0385142	
0.00703073	-0.00148484	0.0310179	
0.0100281	0.0107716	0.0173142	
0.036714	0.00200771	0.0686139	
0.00151896	-0.00865097	0.0398694	
0.000909595	-0.0052948	0.0182192	
0.00427345	-0.00871213	0.0436251	
0.0026283	0.00911642	-0.0101772	
-1.65908e-05	0.00147704	-0.00462795	
0.0029413	-0.00694347	0.0239138	
0.0116727	-0.0163709	0.0527107	
0.00754979	-0.0121452	0.0502411	
0.0227575	-0.0533335	-0.0142174	
-0.0007876	0.0195032	-0.0299269	
-0.00926717	-0.000967344	-0.0313081	
0.0011799	-0.0298714	-0.031942	
-0.00765829	0.0140859	-0.0118534	
-0.0127826	0.0112149	-0.0233823	
0.000271139	-0.0178489	-0.0502457	
0.00353688	-0.0263634	-0.051604	
0.00178977	-0.00933543	0.00292062	
0.000604123	-0.00726507	0.000830802	
-0.00046307	5.54687e-06	-0.00353531	
-0.00410563	-0.00480906	0.00095453	
0.00662224	-0.0391796	-0.0563573	
-0.0155863	-0.00420855	-0.0483205	
-0.0198019	-0.016972	-0.045124	
0.00556576	-0.0450776	-0.0552101	
0.000831316	-0.00482195	0.00120593	
0.000459959	-0.00599909	0.000191462	
0.000744949	-0.00545277	-0.000726407	
-0.00181216	0.00463707	-0.00516741	
-0.000116754	-0.00343605	0.00137114	
-0.000938788	-0.00189703	-0.00222202	
0.000523073	0.00213317	0.0017681	
0.00165807	-0.0056745	-0.00911154	
-0.00386628	-0.0352943	-0.035058	
0.0458946	-0.0740707	-0.00626764	
0.00842479	-0.0469563	-0.0525938	
0.00228374	-0.0423664	-0.0547251	
-0.0041394	-0.00654523	-0.0339662	
-0.0053586	-0.0402517	-0.0430374	
0.00636488	-0.0433706	-0.0523071	
0.00936073	-0.0206282	-0.0354563	
0.0151109	-0.0436365	-0.0369295	
0.00797739	-0.0502137	-0.0592953	
0.000238853	-0.0118223	-0.0132224	
7.6793e-07	7.02126e-06	8.74689e-06	
0.00416524	-0.0106043	-0.0191262	
-0.00271749	0.00259363	0.00634371	
-0.00205218	-0.00876769	-0.0282721	
-0.00882025	0.00701518	0.0317572	
0.00498358	0.000738206	-0.0102321	
0.00666782	0.00234448	-0.012444	
0.0154867	0.00860594	-0.018534	
0.00449651	0.0112695	-0.0073016	
0.00666379	0.0047163	-0.0115792	
0.0103377	0.0116135	-0.0126292	
0.00855397	0.00631678	-0.0130837	
0.0130511	0.00032254	0.0443921	
0.00196491	-0.00216806	0.00414661	
0.00276051	0.00349295	0.0274254	
0.000408478	0.00131106	0.00173521	
0.00757858	0.0108136	-0.0102422	
0.00406358	0.0111035	-0.00652058	
0.00114387	0.0105877	-0.00370437	
-0.000411778	0.00999354	-0.00290698	
0.00855641	0.002656	0.0316939	
0.00445492	-0.00355927	0.0117346	
0.004915	0.0039993	0.0318262	
2.381e-05	-0.000183463	3.53069e-05	
0.00396357	-0.00202301	0.0111985	
-0.000271422	0.000229037	0.000205965	
-0.00250304	0.0056865	0.0233309	
8.30548e-06	0.000191028	-3.8163e-05	
-0.000766139	0.0107791	-0.00163383	
0.00102533	0.00541048	-0.000677683	
-0.00463584	0.00813951	0.00866606	
-0.000312703	0.00785267	-0.00215911	
-0.00188092	0.00568358	0.0114033	
0.00272324	0.00975748	-0.00565306	
0.00107949	0.000752849	-0.000336263	
2.42419e-05	0.00990891	-0.00191299	
0.00156501	0.00848166	-0.000492662	
0.00101749	0.00246771	-0.000637395	
0.00138558	0.00692315	-0.000609771	
-0.00497986	-0.0117073	-0.00452249	
-0.0312126	-0.106502	-0.112051	
-0.00586211	-0.00895557	0.00252452	
0.00260135	0.00611843	0.0017054	
-0.00211606	-0.00402939	0.00473998	
0.00655211	0.0127627	0.0151263	
-0.0165066	-0.021954	-0.0048583	
0.00731163	0.00571269	0.0070735	
-0.000448312	-0.0080817	0.000508719	
-0.000692127	0.00367348	0.00585782	
0.000388083	0.00112414	0.00767918	
-0.00479923	-0.00815142	-0.00905071	
0.00752726	0.00610953	0.00739822	
-0.000634846	-0.00360296	0.00386233	
0.00609167	0.00691286	0.0101953	
0.00663598	0.00598976	0.00649397	
0.000185162	-0.00228973	0.0051319	
-0.00382966	-0.0158276	-0.0065864	
-0.00131345	-0.00564536	-0.000931	
-0.000273307	-0.00101636	0.00682155	
-0.00132542	0.00130494	-0.00153964	
0.00107011	-0.0014228	0.00238827	
6.0416e-05	0.00176647	-0.0015443	
-0.000284386	-0.00161942	0.006024	
-0.000192586	0.000543181	-0.00133359	
0.0151709	0.0179952	0.0169383	
0.00627652	0.0064481	0.00554593	
0.0105495	0.0146174	0.00827063	
0.0166131	0.0221892	0.0184991	
-0.00047502	-0.000981374	0.00577996	
8.72792e-06	-0.000201827	0.000765467	
-0.000406993	-0.00102903	0.0067769	
0.00283442	0.00563906	0.00159807	
2.37063e-05	0.000276759	-0.000901548	
0.000460276	-0.00142561	0.00588102	
-0.000100053	-0.00180587	0.00575975	
-0.000203848	-0.00160785	0.00724166	
0.0246419	-0.0183766	0.012409	
0.00123828	0.0154351	-0.0202243	
-0.00759979	0.018791	-0.0107633	
0.00134658	-0.00516445	-0.00379048	
-0.00493871	0.0188612	-0.00864637	
-0.0080369	0.0243457	-0.0114718	
-0.00822959	0.00667609	-0.0140472	
-0.0066718	0.00336799	-0.0109313	
0.00138871	-0.00640026	0.00496131	
0.000135534	-0.00376436	0.00323171	
-0.000532546	0.00265514	-0.000418011	
0.000590593	-0.00283558	0.00195799	
0.000154525	-0.00417649	-0.0070164	
-0.0228796	0.0207272	-0.0277664	
-0.0148887	0.020764	-0.0150868	
0.00191612	-0.00683527	-0.00636929	
0.000992797	-0.00289653	0.00304501	
0.000533737	-0.00262214	0.00284595	
0.000394687	-0.00229627	0.00231828	
-0.00134093	0.0077358	-0.00305597	
-0.000962675	-0.000458644	-0.00036454	
0.000427468	0.000631144	0.000731422	
-0.000411197	-0.000288623	0.000629817	
-8.61094e-05	0.000242677	0.000385649	
-0.000698392	-0.00391014	-0.00354514	
0.0411202	-0.0537491	0.0216748	
0.00386711	-0.00841625	-0.00559393	
-0.00108448	-0.00491053	-0.00771364	
-0.00665903	0.0138639	-0.00956588	
-0.000577175	-0.00195113	-0.00204416	
0.000745329	-0.0062675	-0.00722041	
0.000412682	-0.000838129	-0.00123045	
0.011125	-0.01173	-0.000673882	
0.000642207	-0.00466894	-0.00526235	
-0.000196901	-0.00299257	-0.00290538	
9.12539e-05	0.000784258	0.000977823	
3.98314e-05	-8.64502e-05	-0.000145201	
-0.0027787	0.00271343	0.0062087	
-0.000470607	-0.00805924	-0.0268027	
-0.00106797	0.00298063	0.0341091	
0.00543854	8.99489e-05	-0.0101627	
0.00716379	0.000521979	-0.0121959	
0.012679	0.00095817	-0.0200922	
0.00207314	0.00243425	-0.00702554	
0.00702186	0.00113753	-0.0111635	
0.00613462	0.00194639	-0.014116	
0.00824582	0.00128747	-0.0127861	
0.0116232	-0.00125961	0.0455892	
0.00225193	-0.00270619	0.00463002	
0.00205391	0.00175101	0.0284279	
0.000812709	0.00145704	0.00240108	
0.00509505	0.00203644	-0.0105593	
0.00140271	0.00239305	-0.00621002	
0.000248277	0.00268861	-0.003062	
-0.000294949	0.00264796	-0.000903746	
0.00666988	0.00182578	0.0328671	
0.00518728	-0.00419311	0.0114468	
0.00313675	0.00145544	0.0332354	
-8.27342e-05	-0.000150524	2.27074e-05	
0.00423971	-0.00282558	0.0116721	
-6.8883e-05	0.000111641	9.08798e-05	
-0.00153071	0.00128244	0.0244007	
2.23012e-06	7.03948e-05	-1.35818e-05	
-0.000501971	0.00295468	0.000364438	
0.000295645	0.00167052	-0.000229765	
-0.000621863	0.00284803	0.0103824	
-0.00018191	0.00204571	-0.000651004	
-0.000831214	0.00171657	0.0123389	
0.000559337	0.00241554	-0.00569935	
0.000435252	0.000339751	-0.000126498	
-0.000170187	0.00270235	-0.000671967	
0.000314515	0.00237675	-0.000416939	
0.000410601	0.00111776	-0.000265121	
0.000347071	0.00204659	-0.0003203	
-0.00501478	-0.0120942	-0.00361667	
-0.028754	-0.0986866	-0.129145	
-0.00306593	-0.00776643	-0.00152635	
0.00286727	0.00555581	0.00274713	
-0.00137469	-0.0029606	0.000361793	
0.00608251	0.0134317	0.00985855	
-0.0113985	-0.0229218	-0.00894456	
0.0050934	0.00814285	0.00456598	
-0.00169832	-0.0070954	-0.00327873	
0.000498768	0.0032917	0.00520328	
0.00111416	0.00288793	0.00379381	
-0.00504932	-0.00542219	-0.0122494	
0.00590232	0.00836035	0.0050996	
-0.000634761	-0.00226607	0.000696318	
0.00449367	0.00962657	0.0067934	
0.0056927	0.00759867	0.00455718	
0.000141863	-0.000559452	0.00165	
-0.00381491	-0.0155762	-0.00941637	
-0.00164727	-0.00491266	-0.00288359	
-8.92539e-05	-0.000541582	0.00197848	
-6.85066e-06	0.000522094	-0.000397587	
0.000294515	-0.000403271	0.000717093	
0.000641093	4.88486e-05	-0.000324434	
-3.86399e-06	-0.000436022	0.0018153	
-6.12952e-05	0.000171484	-0.000399882	
0.0106578	0.0211953	0.0134118	
0.00566002	0.00753444	0.00416059	
0.0104389	0.0151164	0.00798145	
0.00985535	0.0255943	0.0144304	
-0.000208753	-0.000314957	0.0018854	
2.19618e-06	4.08938e-05	-0.000172681	
-0.000181993	-0.000330728	0.00225328	
0.00300944	0.0052864	0.00253778	
2.36119e-05	0.000157509	-0.000525198	
9.08393e-05	-0.000445221	0.00200234	
2.71181e-05	-0.000498983	0.00162094	
-3.02044e-05	-0.000500553	0.00237374	
0.0245854	-0.0163813	0.015563	
0.000689826	0.0136814	-0.0243702	
-0.0060181	0.0198412	-0.010305	
0.0015245	-0.00267745	-0.000492569	
-0.0055978	0.0183165	-0.00902554	
-0.00784133	0.0245588	-0.0113846	
-0.00611892	0.011065	-0.0113101	
-0.00535766	0.00796721	-0.00818415	
0.00155241	-0.0074706	0.0039315	
0.000393306	-0.00463884	0.00268275	
-0.000562629	0.00207127	-0.00140415	
0.00071419	-0.000853113	0.00365067	
-0.000321446	-0.000795237	-0.00229955	
-0.0167805	0.0295156	-0.0263516	
-0.0092484	0.0236977	-0.0161814	
0.00100288	-0.00290132	-0.00112719	
0.000851578	-0.00390287	0.00179366	
0.000459731	-0.00375686	0.0018669	
0.000225513	-0.00323732	0.00139719	
-0.00167482	0.0067412	-0.00379757	
0.000236141	0.000149217	0.000163089	
-0.000101495	-0.000166033	-0.000194861	
0.000100346	0.000174082	-5.54179e-05	
6.13143e-05	-0.000183721	-0.000309898	
-0.000298891	-0.00124832	-0.00102639	
0.0286637	-0.0564052	0.0309286	
0.00268017	-0.0047527	-0.000195538	
-0.000872914	-0.00117236	-0.00276114	
-0.00478633	0.0150905	-0.00918087	
-0.00021312	-0.000599329	-0.000603938	
0.000137235	-0.00210839	-0.00221013	
0.000158356	-0.000380413	-0.00051238	
0.00950056	-0.00907226	0.0039321	
0.000149446	-0.00154031	-0.00158782	
-8.06307e-05	-0.000791041	-0.000767275	
-2.61471e-05	-0.000236652	-0.000301286	
9.69407e-05	-0.000221629	-0.000391153	
-0.0028007	0.00286343	0.00594737	
0.000620841	-0.00863712	-0.0251208	
-0.00462209	0.00256723	0.0346012	
0.00568523	0.000253146	-0.0102226	
0.00724836	0.000507424	-0.0125272	
0.010392	0.000163639	-0.0224145	
0.00161404	0.00276513	-0.00759908	
0.00679639	0.000847355	-0.0117851	
0.0046445	0.00189722	-0.0151888	
0.00752833	0.000809949	-0.0137713	
0.0122476	-0.0014138	0.0463664	
0.00240624	-0.00286605	0.00524177	
0.00196953	0.00167366	0.0288998	
0.00142855	0.00151087	0.00327368	
0.00384609	0.00191599	-0.0116042	
0.00136412	0.00295527	-0.00643668	
0.000608468	0.00334601	-0.00269559	
-0.000350876	0.00283431	-0.000983053	
0.00687875	0.00177048	0.0334434	
0.00526627	-0.00413866	0.0116703	
0.00308345	0.00140253	0.033759	
-0.000143917	-2.76613e-05	6.59358e-06	
0.00433978	-0.00286697	0.0121791	
-3.20312e-05	0.00012155	0.000111929	
-0.00150138	0.00115024	0.025063	
7.28205e-06	0.000262059	-4.85548e-05	
-0.000473771	0.00357054	0.000293683	
0.00027914	0.00164385	-0.000222723	
-0.00224933	0.00320625	0.0104945	
-0.000215469	0.00201818	-0.000672111	
-0.00136007	0.00163244	0.0128266	
0.00134736	0.00331487	-0.00563235	
0.000432914	0.000346217	-0.00012292	
-5.65886e-05	0.00339573	-0.00069442	
0.000429151	0.00276084	-0.000367005	
0.000423961	0.00116931	-0.000278329	
0.00040221	0.00225645	-0.000259877	
-0.00540073	-0.0121417	-0.00353892	
-0.0255464	-0.0998467	-0.137012	
-0.00301408	-0.00623205	-0.00115344	
0.00306491	0.00528536	0.00278773	
-0.00134028	-0.00285752	0.000406226	
0.00575885	0.0127011	0.00957415	
-0.0100357	-0.0227464	-0.00909419	
0.00465417	0.00858217	0.00510874	
-0.00192144	-0.0072997	-0.00347943	
0.000599253	0.00367338	0.00489009	
0.00137651	0.00335273	0.00424138	
-0.00350346	-0.0070555	-0.0117777	
0.00533506	0.00896001	0.00556078	
-0.000475812	-0.00190466	0.000587129	
0.00551881	0.00979685	0.007181	
0.0051954	0.00820877	0.00488604	
0.000291068	-0.000197414	0.00196995	
-0.00418076	-0.0157371	-0.00964559	
-0.0017736	-0.00505433	-0.00272978	
-0.00028758	-0.00120446	0.0016033	
6.64355e-05	0.000519361	-0.000448418	
0.000313127	-0.000424363	0.000781296	
0.000650188	7.88382e-05	-0.000339161	
1.66442e-05	-0.000454395	0.0018086	
-4.69009e-05	0.000132085	-0.000293007	
0.0115506	0.0204191	0.0139606	
0.00529199	0.0080296	0.00436106	
0.0103189	0.0155364	0.00809931	
0.0121588	0.0237125	0.0145451	
-0.000115968	-0.000347373	0.00162632	
1.40252e-06	2.80824e-05	-0.000120973	
-7.91226e-05	-0.000383816	0.00199012	
0.00318311	0.00520894	0.0026016	
2.4058e-05	0.000150289	-0.000510525	
8.31584e-05	-0.000420046	0.0015798	
3.03176e-05	-0.000538643	0.00169658	
4.05776e-05	-0.000528914	0.00224967	
0.0238098	-0.0176092	0.0172313	
0.000821434	0.0148649	-0.0223589	
-0.00704508	0.0202485	-0.00995605	
0.00148796	-0.00283002	2.80214e-05	
-0.00556214	0.018769	-0.00897886	
-0.00832944	0.0249858	-0.0112379	
-0.00511201	0.0118868	-0.0112683	
-0.00437864	0.00865547	-0.00848183	
0.00146874	-0.00704814	0.0041665	
0.000325492	-0.00436366	0.00274591	
-0.000581415	0.00233134	-0.00117565	
0.00126666	-0.00190644	0.00280371	
-0.00027241	-0.000836605	-0.0023305	
-0.0158356	0.0320388	-0.0259539	
-0.0117184	0.0237537	-0.0154745	
0.000589087	-0.00275058	-0.00119933	
0.000863305	-0.00351577	0.00209442	
0.000472629	-0.00339849	0.00211492	
0.000246739	-0.00292232	0.00166041	
-0.00161576	0.00711144	-0.00367126	
-0.000129577	-9.78004e-06	-2.29788e-05	
4.10977e-05	6.66846e-05	7.84318e-05	
-5.68188e-05	-5.23489e-05	4.12429e-05	
2.26362e-05	-7.20125e-05	-0.000119906	
-0.000346215	-0.00120555	-0.000925491	
0.0316119	-0.0568551	0.0269093	
0.00210179	-0.00500284	2.71394e-05	
-0.000335134	-0.00156337	-0.00228576	
-0.00584698	0.0153265	-0.00880237	
-0.000208333	-0.000697766	-0.000745332	
6.47241e-05	-0.00211246	-0.00213032	
0.000176788	-0.000385568	-0.000579092	
0.00810086	-0.00959529	0.00496642	
6.68239e-05	-0.00152248	-0.00148103	
-6.08739e-05	-0.000757822	-0.000824915	
5.32248e-06	4.69474e-05	5.93039e-05	
6.68182e-05	-0.00015157	-0.000278299	
-0.00293545	0.0026189	0.00589056	
0.00209169	-0.00805583	-0.0238362	
-0.00482765	0.0025629	0.0353529	
0.00597668	0.000398667	-0.0105467	
0.00734109	0.000742669	-0.0129764	
0.0101035	0.000665979	-0.0233867	
0.00247176	0.0029171	-0.00721218	
0.00665599	0.00107733	-0.0124693	
0.00609383	0.00262156	-0.0146738	
0.0071824	0.00107095	-0.0146059	
0.0127358	-0.0012686	0.047173	
0.00255523	-0.00302361	0.00579724	
0.0020344	0.00189463	0.0293472	
0.00121792	0.00122554	0.00438855	
0.00440747	0.00230707	-0.0114245	
0.00193939	0.00292105	-0.00612005	
0.000767335	0.00326867	-0.00298554	
-0.000294638	0.00304344	-0.000941284	
0.00718162	0.00187818	0.0340608	
0.00517738	-0.00408959	0.0119517	
0.00314245	0.00171816	0.0346543	
-0.000113437	3.80917e-05	-2.63337e-05	
0.00438276	-0.00291801	0.0126966	
6.71201e-06	0.000110705	9.57111e-05	
-0.00155683	0.00138364	0.0257537	
2.85869e-06	0.000129679	-2.3394e-05	
-0.000505296	0.00320369	0.000476546	
0.000296898	0.00177183	-0.000246893	
-0.00237844	0.00325632	0.0107338	
-0.000241787	0.00244413	-0.00078196	
-0.00141564	0.00181775	0.0133666	
0.00146524	0.00313507	-0.00564229	
0.000388105	0.000318453	-0.000110439	
-3.57961e-05	0.00310405	-0.000588547	
0.000462191	0.00297334	-0.000367815	
0.000400479	0.00113346	-0.000277437	
0.000432989	0.00244986	-0.00027548	
-0.00577952	-0.0121507	-0.00349878	
-0.025375	-0.0994734	-0.145044	
-0.00255961	-0.00530238	-0.00096808	
0.00323412	0.0051212	0.00290069	
-0.00126705	-0.00274216	0.000227485	
0.00555844	0.0124363	0.00920998	
-0.0109929	-0.0214285	-0.00975388	
0.00519286	0.00842404	0.00511313	
-0.00197169	-0.00757931	-0.00380789	
0.000893435	0.00371979	0.00419371	
0.00144271	0.00365305	0.00424243	
-0.000957422	-0.00779933	-0.0112976	
0.00573376	0.00888544	0.0056163	
-0.000425861	-0.00150207	0.000411014	
0.00593044	0.0103756	0.00739387	
0.00537484	0.00826546	0.00499006	
0.000284944	-5.44579e-05	0.00179341	
-0.00402476	-0.0156127	-0.00978795	
-0.00171026	-0.00508041	-0.00278879	
-0.000323707	-0.00128808	0.00118846	
0.000439005	5.62869e-05	-4.18107e-05	
0.000282035	-0.00037725	0.000728972	
0.000577034	-0.000156978	1.18902e-05	
1.84231e-05	-0.000415158	0.00163486	
-4.06464e-05	0.000114783	-0.000247617	
0.0117296	0.0205067	0.0138904	
0.00532341	0.00814103	0.00452194	
0.010272	0.0157442	0.0083671	
0.0119821	0.0232708	0.0143073	
-8.76909e-05	-0.00030049	0.00135648	
-9.08455e-08	1.73495e-06	-8.31905e-06	
-5.85136e-05	-0.000348894	0.0017238	
0.00329813	0.00510907	0.00283061	
1.11453e-05	8.1656e-05	-0.000277058	
6.75301e-05	-0.000369461	0.00127211	
2.84543e-05	-0.000502558	0.00159763	
4.35142e-05	-0.000446681	0.0018755	
0.0230748	-0.0182493	0.0187196	
0.00101696	0.0151171	-0.0222578	
-0.0070673	0.0205313	-0.0100134	
0.00157037	-0.00295	0.000522682	
-0.00560857	0.0188412	-0.00913552	
-0.0082663	0.025173	-0.0114662	
-0.00604093	0.0123153	-0.0106404	
-0.00520887	0.00889831	-0.00795216	
0.00148887	-0.00708853	0.00403538	
0.000303901	-0.00443949	0.0026525	
-0.000593156	0.00234156	-0.00126675	
0.00133649	-0.00187903	0.00281067	
-0.000287247	-0.000596177	-0.00211388	
-0.0175552	0.0335062	-0.0248246	
-0.0118286	0.0243796	-0.0152893	
0.000557447	-0.00243887	-0.00113445	
0.000849416	-0.00354952	0.0019565	
0.000464267	-0.00348374	0.00200899	
0.000217834	-0.00299121	0.00157113	
-0.00164857	0.00708702	-0.00375643	
9.09887e-06	-2.16221e-06	-4.05914e-07	
-4.16383e-06	-6.90601e-06	-8.16644e-06	
4.26139e-06	5.28075e-06	-9.77723e-07	
2.32202e-05	-7.684e-05	-0.000126489	
-0.000287035	-0.000895878	-0.000673057	
0.0318464	-0.0563697	0.026299	
0.00203474	-0.00474043	0.000325987	
-3.23734e-05	-0.00162281	-0.0017171	
-0.00586731	0.0155808	-0.00874669	
-0.000137833	-0.000476032	-0.000517881	
5.26544e-05	-0.00172295	-0.0017817	
0.000115039	-0.000256161	-0.000385212	
0.00724511	-0.00974406	0.00555428	
3.91198e-05	-0.00135058	-0.00131592	
-6.08417e-05	-0.000680468	-0.000789076	
-3.63001e-06	-3.31349e-05	-4.18471e-05	
4.98656e-05	-0.000120988	-0.000217633	
-0.00272056	0.00293698	0.00542842	
0.00251272	-0.00747795	-0.0233089	
-0.00425963	0.00136726	0.0362408	
0.00608959	0.000832922	-0.0108136	
0.00732184	0.000928607	-0.0133263	
0.011289	0.00062447	-0.0231259	
0.00266538	0.00244452	-0.00746453	
0.00662031	0.00115443	-0.0126054	
0.00624853	0.00213001	-0.0147233	
0.00725167	0.00078708	-0.0146216	
0.0136159	-0.00158511	0.0473754	
0.00267005	-0.00315968	0.0060388	
0.00247486	0.00120972	0.0300043	
0.000850452	0.000700192	0.00490399	
0.00495096	0.00199447	-0.0113258	
0.00208127	0.00258898	-0.00643891	
0.000499217	0.00256883	-0.00176805	
-0.000176681	0.00213766	-0.00057094	
0.00771059	0.00146378	0.0343854	
0.00518721	-0.00413769	0.0120624	
0.00357407	0.00105935	0.0352787	
-3.13962e-05	3.81242e-05	-3.0432e-05	
0.00447712	-0.0030797	0.0129708	
7.62457e-06	5.09566e-05	4.07822e-05	
-0.0011548	0.000568895	0.0263217	
1.32788e-05	0.000602479	-0.000107399	
-0.000531249	0.00312877	0.000634135	
0.000148341	0.000921224	-0.0001361	
-0.00227724	0.00202846	0.0113591	
-0.000142816	0.00165382	-0.000489959	
-0.00128101	0.000837546	0.0139395	
0.00137242	0.00277205	-0.0053949	
0.000171734	0.000149632	-5.12453e-05	
-3.5603e-05	0.00293752	-0.000548293	
0.000258239	0.00172573	-0.000218434	
0.00016673	0.000495244	-0.000125099	
0.00022694	0.00133854	-0.000159518	
-0.00587414	-0.0121624	-0.00313632	
-0.0306711	-0.103773	-0.145757	
-0.00241774	-0.00506018	-0.00115683	
0.00340157	0.00502131	0.00328649	
-0.00124867	-0.00278295	-0.000158156	
0.00544201	0.0123759	0.00896778	
-0.0107943	-0.0214919	-0.00940506	
0.00529989	0.00834976	0.00569078	
-0.0019888	-0.00773287	-0.00432306	
0.000939978	0.00362486	0.00372898	
0.0013853	0.00365945	0.00388751	
-0.00102877	-0.00754444	-0.0116007	
0.00591078	0.00865862	0.00633286	
-0.000310061	-0.00136902	0.000626044	
0.00598701	0.0105886	0.00762849	
0.00556859	0.00793944	0.00583549	
0.000155576	-0.000164285	0.00118874	
-0.00383778	-0.0155097	-0.0100961	
-0.00166543	-0.00503495	-0.00303913	
-0.000266241	-0.00104951	0.000794426	
0.000300535	2.3827e-05	-2.74315e-05	
0.000193238	-0.000254087	0.00051455	
0.000314676	-0.000121741	0.000172712	
2.0859e-05	-0.000358894	0.00138932	
2.7508e-06	-7.59673e-06	1.64849e-05	
0.011774	0.0206968	0.0139704	
0.00555256	0.00788922	0.00554914	
0.0104491	0.0157343	0.00935543	
0.0118465	0.0232849	0.0144561	
-8.51374e-05	-0.000310721	0.00138786	
1.6808e-06	-0.000204625	0.000789995	
-4.63042e-05	-0.000305681	0.00148924	
0.00338498	0.00502748	0.00337163	
-1.2968e-05	-0.000118804	0.000393039	
6.8246e-05	-0.000374753	0.0012884	
2.46068e-05	-0.00039793	0.00126674	
3.47657e-05	-0.00036326	0.00151035	
0.0227276	-0.0195104	0.0194735	
0.0014765	0.0155238	-0.0215647	
-0.00706734	0.0207313	-0.0101432	
0.00154895	-0.0031146	0.000548795	
-0.00564225	0.0189589	-0.00925499	
-0.00833813	0.0253054	-0.0116316	
-0.00623096	0.0128419	-0.0102304	
-0.00540869	0.00939219	-0.00750698	
0.00148325	-0.00697606	0.00402004	
0.000205562	-0.00439866	0.00261962	
-0.000605943	0.00240606	-0.00127309	
0.00116178	-0.00212154	0.00266228	
-0.000398402	-9.39478e-05	-0.00168303	
-0.0178451	0.0346497	-0.0245705	
-0.0117811	0.0247686	-0.0153043	
0.000615616	-0.00202189	-0.00085489	
0.000845972	-0.00345707	0.00195246	
0.000456059	-0.00342334	0.00202119	
0.000208413	-0.00293746	0.00158961	
-0.00165913	0.00716447	-0.00378307	
-2.75779e-05	1.93915e-05	1.19334e-05	
1.01267e-05	1.70623e-05	2.01756e-05	
-1.70364e-05	-1.41233e-05	9.19704e-06	
1.81776e-05	-6.32308e-05	-0.000102503	
-0.000371082	-0.00111537	-0.00085927	
0.0320643	-0.0559739	0.026286	
0.0022226	-0.00422572	0.000453521	
2.35186e-05	-0.00137326	-0.00142394	
-0.00579879	0.0156969	-0.0087659	
-0.000101147	-0.000360421	-0.000395837	
5.29145e-05	-0.00128704	-0.0014149	
8.71355e-05	-0.000201575	-0.000300433	
0.0069493	-0.00996069	0.00555084	
3.96865e-05	-0.00134168	-0.00135973	
-3.76405e-05	-0.000442536	-0.000520908	
-6.84187e-07	-6.37393e-06	-8.00551e-06	
4.04464e-05	-0.000102913	-0.000181862	
-0.00279452	0.00257836	0.00543384	
0.00290997	-0.00753589	-0.0226238	
-0.00374577	0.000587029	0.0366989	
0.00629551	0.000330467	-0.0108574	
0.00740672	0.000502432	-0.0131207	
0.0114264	0.000167876	-0.0233516	
0.00254021	0.00161281	-0.00700376	
0.0069166	0.000344605	-0.012504	
0.00633282	0.00149321	-0.0149408	
0.00762867	0.000400129	-0.0144867	
0.0138911	-0.00150903	0.0475709	
0.00263077	-0.00313573	0.00624442	
0.00261661	0.000934249	0.0303288	
0.000340014	0.00025584	0.00519523	
0.00507329	0.00125819	-0.011405	
0.00189902	0.00140169	-0.00584521	
0.000551629	0.00099654	-0.00131907	
-0.000113848	0.00141335	-0.000363889	
0.0079586	0.00145501	0.0345509	
0.0049907	-0.00403792	0.0122292	
0.0037143	0.000896589	0.0355583	
3.11372e-06	4.37602e-05	-2.99857e-05	
0.00437479	-0.00307366	0.0131757	
9.73636e-06	4.63431e-05	3.3714e-05	
-0.00094932	0.000192013	0.0264638	
3.64538e-06	0.000151678	-2.63646e-05	
-0.000536808	0.00137129	0.00127598	
7.82578e-05	0.000511533	-7.85267e-05	
-0.00209857	0.000889203	0.0116703	
-8.09257e-05	0.00103084	-0.000275749	
-0.00120023	0.000312017	0.0141487	
0.00136009	0.00101246	-0.00499274	
0.000118163	0.000109916	-3.47808e-05	
-1.52383e-05	0.00110508	-0.000204421	
0.000112104	0.000785334	-0.000102838	
0.00010156	0.000317911	-8.03525e-05	
9.92437e-05	0.000617531	-7.68381e-05	
-0.00627345	-0.012226	-0.00363611	
-0.0332902	-0.109075	-0.144905	
-0.00163846	-0.00342882	-0.00084611	
0.00334679	0.00517023	0.00252813	
-0.00109433	-0.0024864	-0.000644373	
0.00490117	0.0114906	0.00776338	
-0.0105805	-0.0203394	-0.0105914	
0.00514342	0.00890904	0.00428974	
-0.00203183	-0.00772972	-0.00471848	
0.000963396	0.00393893	0.00379916	
0.00162727	0.00469826	0.00389612	
-0.00111717	-0.00759243	-0.0119847	
0.00599652	0.00919593	0.00486935	
-0.000274578	-0.000724382	-4.17758e-05	
0.00638502	0.0114675	0.00705092	
0.00574963	0.0084671	0.0043061	
0.000439161	0.000813441	0.00169503	
-0.0037986	-0.01597	-0.0105054	
-0.00171224	-0.00508042	-0.00329159	
-0.000623855	-0.00218879	-0.000116288	
0.000226892	2.48912e-05	-2.47314e-05	
0.000132819	-0.000177397	0.000368292	
0.000261198	-0.000107343	0.000148311	
1.04445e-05	-0.000176077	0.000676532	
-7.81807e-05	0.000216401	-0.000468325	
0.0117527	0.0208024	0.0133846	
0.0056182	0.00833637	0.00384731	
0.0105105	0.0160637	0.00798527	
0.0112862	0.022619	0.0130534	
-3.15128e-05	-0.000127878	0.000559928	
-7.91312e-06	0.00022345	-0.000819417	
-2.7604e-05	-0.00020817	0.000992331	
0.00341967	0.00531685	0.00235964	
2.17035e-05	0.00026176	-0.000855632	
3.22417e-05	-0.000175043	0.000597887	
9.19183e-06	-0.00018472	0.000593108	
3.13715e-05	-0.000310739	0.00126795	
0.0227305	-0.0189374	0.0200115	
0.00182004	0.0159317	-0.0210649	
-0.00703829	0.0208436	-0.0101444	
0.00191289	-0.00273901	0.00129854	
-0.00563693	0.0189488	-0.00930342	
-0.00835297	0.025371	-0.0117237	
-0.00622371	0.0131731	-0.0100332	
-0.00553583	0.00985831	-0.00730845	
0.00148842	-0.00693297	0.00397143	
0.000164718	-0.00439624	0.00258178	
-0.000613865	0.00243794	-0.00129289	
0.000948641	-0.00224939	0.00262656	
-0.000319742	-6.64635e-05	-0.00134674	
-0.0179007	0.0354975	-0.0245059	
-0.0117988	0.0251537	-0.0152413	
0.00036897	-0.00124798	-0.000576696	
0.000843368	-0.0034179	0.00191423	
0.000450449	-0.00341922	0.00199488	
0.000194781	-0.00293108	0.00157356	
-0.00167157	0.00719389	-0.00381913	
-6.30435e-06	1.08148e-05	6.73164e-06	
3.54666e-06	6.09014e-06	7.20862e-06	
-6.871e-06	-5.10258e-06	3.93546e-06	
8.49333e-06	-3.11688e-05	-4.96006e-05	
-5.00965e-05	-0.00015214	-0.000124349	
0.0324522	-0.0554763	0.0262139	
0.0021955	-0.0040745	0.000533539	
0.000582421	-0.00165121	-0.000601241	
-0.00574694	0.0158741	-0.00870598	
-5.93648e-05	-0.000222075	-0.000246246	
5.34688e-05	-0.00112038	-0.00133105	
4.24861e-05	-0.000102243	-0.000150675	
0.0068659	-0.00927081	0.00575148	
1.37583e-05	-0.0003733	-0.000398906	
-2.34719e-05	-0.000311062	-0.000369874	
-1.37373e-06	-1.31541e-05	-1.65062e-05	
1.89124e-05	-5.06967e-05	-8.77177e-05	
-0.00281048	0.00243952	0.00544907	
0.00378752	-0.00742168	-0.0220773	
-0.00364029	0.000602512	0.0369385	
0.00639244	0.000207491	-0.0109962	
0.00761703	0.000460234	-0.013288	
0.0114546	0.000577766	-0.0239283	
0.00237692	0.00128743	-0.00659097	
0.00702993	0.000793209	-0.0127558	
0.00613717	0.00122988	-0.0146146	
0.0076781	0.000771818	-0.0147918	
0.0139863	-0.00120722	0.0476115	
0.00255278	-0.00311508	0.0065872	
0.00273533	0.0010487	0.0304686	
-5.49575e-05	0.000421031	0.00567289	
0.00506876	0.00157241	-0.0117068	
0.00177525	0.00107661	-0.00556606	
0.00052681	0.000928367	-0.00119223	
-0.000137132	0.00176118	-0.000442492	
0.0081509	0.0016044	0.0346441	
0.00472992	-0.00384642	0.012467	
0.00374458	0.00106213	0.0357985	
2.5994e-05	2.69533e-05	-1.35388e-05	
0.004191	-0.00291839	0.0133892	
1.54945e-05	5.05519e-05	3.27558e-05	
-0.000958479	0.000311773	0.0266225	
1.05479e-06	4.65268e-05	-7.93938e-06	
-0.000549202	0.00113618	0.00146287	
7.06597e-05	0.00048643	-7.67214e-05	
-0.00207895	0.00083531	0.0117775	
-0.000100878	0.00132625	-0.000342332	
-0.00121964	0.000377392	0.0142037	
0.00132918	0.000936847	-0.00494418	
0.000139642	0.000138926	-4.03884e-05	
-1.27062e-05	0.000972023	-0.000176309	
0.000102391	0.000748254	-9.89129e-05	
9.70717e-05	0.000321978	-8.14248e-05	
9.1833e-05	0.000609285	-7.75239e-05	
-0.00603617	-0.0123582	-0.00292082	
-0.0314698	-0.115304	-0.145471	
-0.00169036	-0.00356291	-0.000457828	
0.00344851	0.0050113	0.00337184	
-0.00115398	-0.00257086	-4.09046e-05	
0.00496983	0.0113823	0.00847679	
-0.0101758	-0.0210325	-0.0089346	
0.0053811	0.00848219	0.00629451	
-0.00214562	-0.0081858	-0.00449465	
0.000888362	0.00355162	0.00372162	
0.00174388	0.00464157	0.00462868	
-0.00130148	-0.00748093	-0.0118215	
0.00606638	0.00883091	0.00689644	
-2.18485e-05	-0.000948497	0.00109859	
0.00633219	0.0112062	0.00808677	
0.00576025	0.00814825	0.00629586	
0.000472531	0.000679963	0.00194926	
-0.00391663	-0.0158728	-0.0101981	
-0.00171614	-0.00522161	-0.00316119	
-0.00069898	-0.00241482	8.15004e-05	
0.000306024	-6.38104e-05	9.44179e-05	
0.000210796	-0.000281428	0.000593722	
0.000319191	-0.000160338	0.000209489	
3.0368e-05	-0.000368788	0.00138766	
2.3427e-05	-6.46972e-05	0.000142452	
0.0117532	0.0206357	0.0140827	
0.00561119	0.0079443	0.00575269	
0.010624	0.0157762	0.00984793	
0.0114339	0.0224837	0.0143439	