<VTKFile type="UnstructuredGrid" version="0.1" byte_order="LittleEndian">
	<UnstructuredGrid>
		<Piece NumberOfPoints="15429" NumberOfCells="15429">
			<CellData Scalars="scalars">
				<DataArray type="Float64" Name="Strength" NumberOfComponents="3" Format="ascii">
-0.00895772	-0.0142475	0.0142613	
-0.0205466	-0.0115524	-0.0213427	
0.0159234	0.0716008	0.00878959	
0.00570627	-0.00737482	-0.00601589	
0.00653454	-0.0003783	-0.0110392	
0.00794398	0.0531489	-0.0381732	
0.00246015	0.0848648	-0.0385546	
-0.000290474	0.0135438	-0.0209253	
0.00185294	0.0828195	-0.0409281	
0.000825878	0.0261831	-0.0303678	
0.00219685	0.0231579	0.0398177	
0.00528302	-0.0022549	-0.000935402	
-0.00166079	0.0436387	0.00811694	
0.0022064	-0.000486497	0.00158241	
0.000587546	0.0681666	-0.0436315	
-0.00222389	0.086766	-0.0291234	
0.00688568	0.0963356	0.0134879	
-0.00709909	0.0524812	-0.0474712	
0.00376213	0.0188588	0.0256385	
0.00532047	-0.00986095	0.00944588	
-0.00438619	0.0383982	0.014286	
-0.000979694	-0.000844349	0.00403474	
0.00304512	-0.00494278	0.0101687	
0.000818162	0.00209976	-0.00130055	
0.00418235	0.0513521	0.00488615	
-0.000915362	-0.0124848	0.00458958	
-0.00221085	0.0883268	-0.0259842	
0.00383205	0.0363833	0.0245298	
0.0119658	0.0874455	0.0121678	
-0.0109946	0.0357681	-0.0355044	
0.00401165	0.0519864	0.0192728	
0.00198138	0.0930271	-0.0017537	
0.000540346	0.000388833	4.67818e-05	
-0.00156748	0.0887961	-0.0140427	
-0.00899914	0.0792729	0.0167	
0.0131854	-0.00087379	0.0180553	
-0.00477226	0.0545671	0.0295699	
-0.0137885	-0.0067359	-0.024467	
-0.087159	-0.0884922	-0.0816575	
0.0135878	0.0138022	0.0492291	
0.00062397	0.0114709	-0.0142917	
0.00784447	-0.019772	0.052214	
-0.0131457	-0.0207622	0.0648868	
-0.0179327	-0.0135092	0.0575605	
0.0161005	-0.0172088	0.0520673	
0.0158756	-0.0129771	0.036923	
0.0128745	0.000661134	0.0160007	
0.00408157	-0.0185972	0.0557343	
0.0287349	-0.0151369	-0.0389619	
0.00991566	-0.00334369	0.0493145	
0.000997962	-0.00982303	0.0271307	
0.00345401	0.0128214	0.0545675	
0.0051887	0.00583706	0.0407629	
0.0241937	-0.0208752	0.0410027	
0.0164506	-0.0186355	0.0241964	
0.0015051	-0.0201543	-0.00338093	
0.00478334	-0.0276803	0.0517921	
0.0125427	-0.0329806	0.0357276	
0.00528607	-0.024234	0.00906793	
0.00229987	0.00376701	0.0196082	
0.00462963	-0.0119658	0.0592315	
-0.00713894	0.00762199	-0.0203629	
0.0199983	0.00460512	0.0403972	
0.00355951	0.00785997	0.0315218	
0.00919652	0.0144821	0.0158716	
-0.000864368	-0.0200521	0.076923	
-0.00657443	0.0144499	0.0385705	
-0.00357184	0.00243948	0.0190238	
0.00320093	0.0114984	0.0440443	
0.00420558	0.00819211	-0.0109595	
0.00117645	0.000354548	-0.00484204	
0.000183014	-0.00264835	0.0255094	
0.0166224	-0.0225725	0.050199	
0.00108727	-0.00213558	0.0532661	
0.0149593	-0.0596462	0.000786	
-0.0059885	0.00719338	-0.0363915	
-0.00600709	0.00245505	-0.0327908	
-0.00886361	-0.0435477	-0.0070986	
-0.010077	0.0147327	-0.00982415	
-0.0140696	0.0107231	-0.0236997	
0.00689828	-0.00226807	-0.0542016	
0.0095785	-0.00756932	-0.0582996	
0.00280805	-0.00966074	0.0012578	
0.00194736	-0.00720675	0.00116706	
0.000406795	0.00101728	-0.00347235	
0.00573913	-0.00254253	0.00514283	
0.0105995	-0.0209619	-0.0667661	
-0.0150416	-0.0148024	-0.0478037	
-0.0187821	-0.0422622	-0.0266264	
0.0103015	-0.0398775	-0.0607695	
0.00110683	-0.00495325	0.000804429	
0.000314999	-0.00609867	-0.000598742	
0.000204266	-0.00536232	-0.0017931	
-0.00206885	0.00529464	-0.0046177	
0.000209343	-0.000456204	0.00403202	
-0.00196575	-0.00241799	0.000300409	
-0.00120222	0.00177014	-0.00194271	
0.00696462	0.00121406	-0.00856243	
-0.0171011	-0.0479694	0.00669233	
0.0513646	-0.0520747	-0.0515846	
0.00958241	-0.0469789	-0.0549434	
-0.00311281	-0.0555982	-0.0442881	
-0.00442845	0.000792926	-0.0353642	
-0.00561115	-0.0575124	-0.018162	
0.00200603	-0.0494585	-0.0496409	
-0.000215915	0.00295017	-0.0429581	
0.00607934	-0.0512361	-0.0321773	
-0.00189801	-0.0651999	-0.0468185	
0.00249425	-0.011455	-0.0138999	
1.33776e-06	6.74357e-06	9.24266e-06	
0.0109114	0.00935098	-0.0176665	
-0.00169783	0.00355522	0.00649661	
0.00619043	-0.0219988	-0.019813	
-0.0229924	-0.00200524	0.0255564	
0.00460102	-0.00139758	-0.0107099	
0.00706841	0.000203629	-0.0129116	
0.0191372	0.0163642	-0.00762599	
0.00413664	0.0138027	-0.00167752	
0.00727402	0.00328114	-0.0121828	
0.00853089	0.0186619	0.000479479	
0.0105761	0.00631522	-0.0121739	
0.0214634	0.002998	0.0419353	
-0.00201939	-0.00336103	0.00338878	
-0.00193991	-0.000307889	0.0283003	
0.000438529	0.00186828	0.00132446	
0.00727639	0.0150255	-0.00380771	
0.00348291	0.0133838	0.000116033	
0.00211687	0.0101422	0.00507048	
-0.000581609	0.00662619	-0.00836088	
0.0132147	0.00525062	0.0304479	
0.00392772	-0.00739796	0.0103352	
0.00308842	0.0039565	0.0327416	
0.00017573	0.000121646	-0.000187853	
0.00485242	-0.00414193	0.0105019	
-0.000339015	-0.000240769	-6.88622e-05	
-0.00815367	-0.00193772	0.0231907	
-1.37403e-07	0.00018529	-8.04527e-05	
-0.00126379	0.0108575	-0.00241971	
0.0051559	0.00185725	0.0014484	
-0.00967108	0.00562211	0.00671754	
-0.00178751	0.00455222	-0.00679562	
-0.00367289	0.000115234	0.0126339	
0.00336032	0.0105658	0.00424072	
-0.00121152	0.000255505	0.000620524	
-0.00056165	0.0103174	7.86313e-05	
0.00374327	0.00446236	0.00664222	
0.00225341	-0.00157965	-0.00052034	
0.0047364	0.00329991	0.00438092	
-0.00176774	-0.0126728	-0.0054292	
0.023356	-0.100019	-0.12402	
-0.0107443	-0.00109425	0.00317285	
0.000895732	0.00684441	0.00150028	
-0.00356597	-0.00382245	0.0042073	
0.0142097	0.0036928	0.0154266	
-0.0273228	-0.00662096	0.00539916	
0.0112702	0.00047391	0.00403565	
0.000800282	-0.00821305	-0.000581551	
-0.00165378	0.000407361	0.00686118	
0.00145793	-0.00120026	0.00768909	
-0.00169543	-0.00446784	-0.0124629	
0.0107819	0.00144547	0.00621686	
-0.00153292	-0.00216053	0.0047608	
0.00907065	0.00435939	0.0098003	
0.00919703	0.00323291	0.00582295	
0.000367822	-0.00300384	0.00485772	
-0.00380812	-0.0157291	-0.00765693	
0.00169735	-0.00548139	-0.00171605	
5.8706e-06	-0.00264244	0.00651487	
-0.00187111	0.00142454	-0.000746623	
0.00202244	-0.00188892	0.00123502	
0.000139055	0.00228282	0.000715025	
-0.00102397	-0.00231634	0.00584459	
-0.0004904	0.000488046	-0.00132087	
0.0216971	0.0123953	0.0160217	
0.00849205	0.00493399	0.00464709	
0.0124742	0.0151687	0.00556791	
0.0288037	0.00634148	0.0170754	
-0.00189479	0.00277981	0.00498015	
-0.000210168	0.000224726	0.000751734	
-0.000870496	0.00292589	0.00631169	
0.0021865	0.00623952	0.00111085	
0.000317838	-2.60094e-05	-0.000916076	
-0.000215249	0.000166739	0.00620102	
0.000106559	-0.00305097	0.00533615	
-0.000976055	-0.000956719	0.00745124	
0.0281515	-0.0182213	-0.00665084	
0.00602954	-0.0107692	-0.0229928	
-0.0134234	0.0192383	-0.0010979	
0.000446094	-0.00662212	-0.00114041	
-0.00509693	0.0211503	-0.00124594	
-0.0106408	0.0266316	0.00152798	
-0.010207	-0.000281325	-0.0148923	
-0.00781245	-0.000853985	-0.0110921	
0.00106051	-0.00602806	0.00571882	
0.000166728	-0.00335478	0.00377889	
-0.000812228	0.00266269	0.000277748	
0.00119051	0.000371866	0.00352277	
0.00068746	-0.000767159	-0.00831761	
-0.0334876	-0.00630336	-0.025591	
-0.0240778	0.0163418	-0.00873476	
0.00277614	-0.00375609	-0.00860903	
0.00101457	-0.00296194	0.00309696	
0.00073873	-0.00229563	0.00316862	
0.000444041	-0.00241143	0.00228177	
-0.00118588	0.00838703	-0.00147246	
0.000898143	0.00115175	0.000478349	
0.00106854	0.000117617	8.69335e-05	
-0.000248082	-0.000238613	0.000750389	
-0.000362887	-2.66702e-05	0.000303846	
-0.00147819	-0.00492554	0.00189079	
0.053839	-0.0415101	-0.0261103	
0.00489107	-0.00515449	-0.00855156	
-0.00174105	-0.00784296	-0.00499605	
-0.0109541	0.0144557	-0.003837	
-0.00127485	-0.00232261	-0.00130277	
0.000554684	-0.00720598	-0.0066939	
0.00106899	0.000384924	-0.00109925	
0.0121891	-0.00740878	-0.00861047	
0.000276317	-0.00617479	-0.00380569	
0.000562037	-0.00321296	-0.00277148	
0.000103735	0.000706582	0.0010652	
0.000138356	5.86015e-05	-9.4646e-05	
-0.00201516	0.00389112	0.00614841	
0.0133483	-0.0244966	-0.0060934	
-0.00252737	-0.00852475	0.0338715	
0.00573335	-0.00193295	-0.0102102	
0.00844434	-0.00128299	-0.0117963	
0.0201606	-3.19432e-05	-0.0137555	
0.00371995	0.00177808	-0.00674586	
0.00880021	7.86289e-05	-0.0103834	
0.0107058	0.000985922	-0.0117109	
0.0116077	0.000320838	-0.0105546	
0.00887491	0.0128185	0.0454107	
0.00118411	-0.00175281	0.00553802	
0.00103574	9.64138e-05	0.029143	
-0.000674896	0.00282468	0.00102444	
0.00871442	0.0008254	-0.00849584	
0.00270554	0.00195278	-0.00611419	
0.000706976	0.00332249	-0.00243023	
-0.000742322	0.0014811	-0.00236497	
0.00766573	0.00848785	0.0323024	
0.00589821	-0.00678342	0.010082	
0.00245984	0.00339141	0.0338547	
-0.000202972	-0.000107014	6.69659e-05	
0.00681425	-0.00485087	0.00993375	
0.000112012	-4.24529e-05	-0.00011619	
-0.00236184	-0.00318461	0.024696	
-4.88102e-06	6.61832e-05	-3.24568e-05	
-0.000787059	0.0029839	0.000225082	
0.00165436	0.000568462	-3.09126e-05	
-0.00109039	2.04347e-05	0.0109702	
-0.000683078	0.000956369	-0.00187594	
-0.000481655	-0.00199163	0.0125922	
0.00100974	0.00334476	-0.0053139	
-0.000453052	-0.000341909	0.000105643	
-0.000166152	0.00280392	-0.000527791	
0.00156699	0.001903	0.000341419	
0.00105266	-0.000642043	-0.000175598	
0.00168871	0.00130337	0.000252263	
-0.00202012	-0.0131976	-0.00416581	
-0.0240768	-0.0938105	-0.137431	
-0.00413084	-0.00762152	0.000503755	
0.00160031	0.00637213	0.00250003	
-0.00185162	-0.00272482	0.000650967	
0.00773393	0.0146229	0.00740982	
-0.0163772	-0.0223562	-0.00249842	
0.0070751	0.00801975	0.00221483	
-0.00199772	-0.00654448	-0.00444313	
0.00258245	0.000100736	0.00573336	
0.00146484	0.00309994	0.00363101	
-0.00377281	-0.00994086	-0.00998545	
0.00759265	0.00826071	0.00349889	
-0.000821567	-0.00206216	0.00118338	
0.00414956	0.0116646	0.00361468	
0.0072231	0.00754937	0.00285344	
0.000301393	-0.0007276	0.0015957	
-0.00590485	-0.0148634	-0.0101643	
-0.00119329	-0.00456195	-0.00378099	
-0.00013371	-0.000402936	0.00204788	
-0.000399472	0.000502528	-0.000184028	
0.00061473	-0.00053577	0.000354299	
-0.000629299	0.00032967	0.00019665	
-0.000289933	-3.49442e-05	0.00188153	
-0.000153376	0.000151479	-0.000396358	
0.0118445	0.0236302	0.00892675	
0.007174	0.00750302	0.00211602	
0.0118855	0.0163259	0.00415477	
0.0102823	0.0295831	0.00482823	
-0.000950694	0.000590313	0.0016151	
5.4495e-05	-6.81206e-05	-0.000160445	
-0.000910684	0.000824378	0.00198282	
0.00243161	0.00602246	0.00197375	
0.000214664	-5.87493e-05	-0.00051871	
-0.000141954	5.50782e-05	0.00209419	
7.14193e-05	-0.000507085	0.00164967	
-0.000527704	0.000286201	0.00240215	
0.0303739	-0.0158278	-0.00363038	
0.0100278	-0.00713951	-0.0257256	
-0.00584729	0.0228724	0.0019255	
0.00157623	-0.0027995	-2.18779e-05	
-0.00588603	0.0207273	-0.00191363	
-0.00688335	0.0278147	0.00305214	
-0.00861809	0.010556	-0.0108341	
-0.00758329	0.00824846	-0.00649844	
0.0020313	-0.00758653	0.0038608	
0.000762549	-0.00477027	0.00257388	
-0.000487217	0.00244797	-0.000791174	
-0.000717111	-0.000386108	0.00402039	
-2.50392e-05	0.000348529	-0.00249458	
-0.0281471	0.0219658	-0.0258795	
-0.00968538	0.02558	-0.0142708	
0.00164563	-0.00216076	-0.00197888	
0.000991115	-0.00402396	0.00166205	
0.000850711	-0.00373977	0.00194772	
0.000365245	-0.0034951	0.000781979	
-0.00194361	0.00744157	-0.00247252	
-0.000121997	-0.000306323	0.000263474	
-0.000261809	-0.00010248	5.0182e-06	
-0.000142538	-7.32627e-05	0.000142876	
0.000284751	2.17005e-05	-0.000240955	
-0.000581686	-0.00133592	0.000860778	
0.0377742	-0.0565553	0.0240567	
0.00417004	-0.00355955	-0.00121075	
-0.00131086	-0.00222567	-0.00190897	
-0.00433498	0.0181313	-0.0017663	
-0.000518043	-0.00064008	-0.000358361	
0.000194239	-0.00242234	-0.00199193	
0.000560229	-3.70612e-05	-0.000370755	
0.0131294	-0.00520736	-0.000193604	
0.000123448	-0.00204127	-0.00100637	
-2.30928e-05	-0.000888077	-0.000702691	
-3.70573e-05	-0.000209173	-0.000329321	
0.000387958	8.48214e-05	-0.000252045	
-0.00241899	0.00417642	0.00560249	
0.0160314	-0.0212912	-0.00503399	
-0.00698237	-0.00113974	0.0350706	
0.00617156	-0.00185546	-0.0101793	
0.00830432	-0.00208818	-0.0121973	
0.0136996	-0.00798796	-0.0197901	
0.00132612	0.000347522	-0.00833568	
0.00801072	-0.0020038	-0.0113268	
0.0050794	-0.00325455	-0.0152446	
0.00966483	-0.00318794	-0.0125411	
0.0137686	0.0104	0.0457981	
-0.00187143	-0.0023361	0.00586479	
0.00110341	0.000956663	0.0295927	
-0.00348779	0.0024536	-0.000320753	
0.00409104	-0.00260296	-0.0117246	
0.00144026	0.00144826	-0.00709976	
0.00110507	0.00348981	-0.00251285	
-0.00128032	0.00152746	-0.00237672	
0.00867994	0.0093935	0.0324518	
0.0049505	-0.00501547	0.0117672	
0.00349473	0.00417916	0.034204	
-1.63072e-05	-9.24519e-05	-0.000139518	
0.00651193	-0.00550708	0.0104696	
-5.06077e-06	0.000172699	-2.40909e-05	
-0.0024396	-0.00207639	0.0254772	
-2.66168e-05	0.00024015	-0.000130575	
-0.00103606	0.00351776	-0.000526358	
0.0015532	0.000732567	-8.23081e-05	
-0.00301218	0.00280723	0.0106853	
-0.000961523	0.000902078	-0.00175831	
-0.00124188	-0.000676682	0.0132097	
0.00191307	0.00328793	-0.00567097	
-0.000482307	-0.000257884	0.000189465	
-0.000262911	0.00332457	-0.00122293	
0.00185273	0.00219461	0.000245187	
0.00114961	-0.000572389	-0.000208785	
0.00187786	0.00140736	0.000245131	
-0.0033014	-0.0133681	-0.00331016	
-0.0260986	-0.0220792	-0.171092	
-0.00431946	-0.00573709	0.000147624	
0.00235713	0.00601251	0.00246768	
-0.00184451	-0.00259784	0.00066186	
0.00732257	0.0137132	0.00755051	
-0.0112823	-0.0244695	-0.00344928	
0.00530479	0.00957315	0.00287397	
-0.00288272	-0.00650888	-0.00460387	
0.00496633	0.00219912	0.00429886	
0.00186189	0.00344969	0.00412394	
-0.00637475	-0.00581481	-0.0115469	
0.00535922	0.0102611	0.00368263	
-0.000366479	-0.00183416	0.000956108	
0.00576086	0.0115477	0.00443623	
0.00532221	0.00949927	0.00256079	
0.000653141	-0.000498711	0.00186265	
-0.00582241	-0.0155986	-0.009739	
1.17706e-05	-0.00472545	-0.0039056	
-0.000461472	-0.00113965	0.0016597	
-0.000698243	3.78389e-05	-8.57284e-05	
0.000819424	-0.000340273	0.00036593	
0.000495819	0.000498734	-0.00027712	
-0.000289469	-0.000119317	0.00187547	
-0.00011652	0.000118157	-0.000289563	
0.0130406	0.0221844	0.01091	
0.00573969	0.00909765	0.00152384	
0.0110672	0.0174611	0.00329413	
0.0142676	0.0265782	0.00733454	
-0.000782443	0.000458953	0.00144155	
4.27861e-05	-4.87832e-05	-0.000110088	
-0.000831814	0.000737228	0.00174654	
0.00287512	0.00587354	0.00198716	
0.000221722	-7.96845e-05	-0.000494759	
-0.000121108	-5.21461e-05	0.00166856	
9.53342e-05	-0.00059636	0.00170884	
-0.000474954	0.000203148	0.00230092	
0.03164	-0.015105	0.00440391	
0.0101688	-0.00852549	-0.0239459	
-0.00765555	0.0229315	0.000465653	
0.00141741	-0.00271742	0.00120644	
-0.00603989	0.0210639	-0.00199589	
-0.00872485	0.0278654	0.00215518	
-0.00556286	0.0140201	-0.00908353	
-0.00483282	0.0109117	-0.00570567	
0.00165085	-0.00708326	0.00436464	
0.000766338	-0.00426223	0.00299166	
-0.000633741	0.00260752	-0.000507363	
-0.00106997	0.00205229	0.00297222	
0.000295172	0.000340801	-0.00251702	
-0.0185445	0.0320132	-0.0261698	
-0.0136189	0.0236877	-0.0154691	
0.000828132	-0.00244004	-0.00179855	
0.000929969	-0.00363776	0.00202501	
0.000798997	-0.00333164	0.00226823	
0.000473215	-0.00313731	0.00131539	
-0.00180799	0.00780962	-0.00227292	
-0.000142538	7.49878e-05	3.74784e-05	
0.000107292	3.61238e-05	1.67064e-06	
7.9396e-05	1.28776e-05	4.07935e-05	
0.000109137	8.86825e-06	-9.48983e-05	
-0.000833797	-0.00100135	0.000939694	
0.0336493	-0.0598802	0.0219895	
0.0027281	-0.00486532	-0.000134269	
-0.000494807	-0.0021452	-0.00183941	
-0.00587131	0.0178157	-0.00330021	
-0.000545575	-0.000825379	-0.000399526	
5.96195e-05	-0.00245414	-0.0018689	
0.000601298	-9.41972e-06	-0.000421741	
0.0108423	-0.00679666	0.00545976	
-3.70908e-05	-0.00202734	-0.000815952	
-8.53174e-05	-0.000837942	-0.000783232	
6.73982e-06	4.13182e-05	6.51127e-05	
0.000273507	6.80191e-05	-0.000174093	
-0.00298606	0.00402004	0.00531968	
0.0236117	-0.0102378	0.000773191	
-0.008139	-0.00140719	0.0356239	
0.00652433	-0.00189116	-0.010482	
0.00792146	-0.00266205	-0.0128887	
0.0118597	-0.00867303	-0.0216405	
0.00240456	0.000911723	-0.00795729	
0.00720098	-0.0032051	-0.0122612	
0.00686322	-0.00159222	-0.0149247	
0.00831668	-0.00458136	-0.0138133	
0.0126938	0.0124237	0.0465914	
0.00427688	-0.00341446	0.00465003	
0.000885582	0.00249044	0.029985	
-0.00396117	0.00259532	0.00111481	
0.00502566	-0.00190159	-0.0115925	
0.00225749	0.00158977	-0.00667567	
0.00132629	0.00345567	-0.00272621	
-0.00148466	0.00162424	-0.00244167	
0.00850518	0.0103715	0.0329408	
0.00691744	-0.0052876	0.0108549	
0.00392252	0.00509091	0.0349782	
-7.39658e-07	6.64228e-05	-0.000159207	
0.00600147	-0.00442827	0.011864	
0.000127145	6.90307e-05	-4.04341e-05	
-0.00253388	-0.00118946	0.0262475	
-1.69809e-05	0.000116072	-6.80611e-05	
-0.00102336	0.00319168	-0.000250702	
0.00167671	0.000783673	-9.84352e-05	
-0.00318754	0.00256573	0.0109843	
-0.00128407	0.00105519	-0.00206356	
-0.00122342	-0.000254841	0.0138032	
0.00205605	0.0032145	-0.00559621	
-0.000440964	-0.000236627	0.00015565	
-0.000220022	0.00306684	-0.00101498	
0.00199202	0.00235027	0.00035684	
0.00110414	-0.00058955	-0.000139878	
0.00202002	0.0015402	0.000320252	
-0.0046018	-0.0133071	-0.00260404	
0.0119773	-0.101208	-0.149553	
-0.00360623	-0.00492655	0.000191475	
0.00295787	0.00571981	0.00251811	
-0.00171668	-0.00253567	0.000468696	
0.00696497	0.0134933	0.00718983	
-0.013069	-0.0229334	-0.00376978	
0.00602314	0.0092615	0.0029719	
-0.00298806	-0.00671953	-0.00498508	
-0.000131412	-0.000191854	0.00577702	
0.00191507	0.00378022	0.00410028	
-0.00737489	-0.00450704	-0.0110222	
0.00602049	0.00992644	0.00409264	
-0.00036665	-0.00144307	0.000722948	
0.00636555	0.0120974	0.00444793	
0.00539855	0.00959473	0.00283326	
0.000664745	-0.000358501	0.00168726	
-0.00593451	-0.0151952	-0.0101757	
-0.00513945	-0.00244111	-0.00236543	
-0.000506641	-0.0012298	0.00123971	
0.000441295	7.65334e-05	-7.97422e-05	
0.000641573	-0.00053723	0.000283132	
-0.000230436	0.00054846	-0.000144021	
-0.000256483	-0.000114454	0.00169626	
-0.00010063	0.000105166	-0.000243455	
0.012858	0.0225155	0.0107306	
0.00550481	0.00941922	0.00169359	
0.0106958	0.0179906	0.00328908	
0.0138572	0.0262897	0.00694862	
-0.000659657	0.00041088	0.0011909	
1.99007e-06	-4.41802e-06	-7.65618e-06	
-0.000736263	0.000643912	0.00150634	
0.00309562	0.00577551	0.00219246	
0.000121612	-4.70201e-05	-0.000267212	
-0.000119064	-8.54908e-05	0.00134827	
7.54909e-05	-0.000604476	0.00159275	
-0.000394036	0.000177812	0.00191899	
0.0308503	-0.0137994	0.0122924	
0.0105313	-0.00820644	-0.0239945	
-0.00776999	0.0231949	0.000661281	
0.00123376	-0.00254255	0.00203984	
-0.00613008	0.0211805	-0.00211995	
-0.008713	0.0281549	0.00171741	
-0.00614457	0.0138577	-0.00936036	
-0.00548907	0.0106404	-0.00594662	
0.00171534	-0.00717291	0.00413921	
0.000746218	-0.00438635	0.00284126	
-0.00062683	0.00265202	-0.000575869	
-0.00133064	0.00186551	0.00305058	
0.000187568	0.000434051	-0.00222422	
-0.0212937	0.0321908	-0.0258068	
-0.0141216	0.0243618	-0.0148915	
0.000681535	-0.0021723	-0.00166925	
0.000903725	-0.00367891	0.00187069	
0.000829535	-0.00344277	0.00212062	
0.000401004	-0.00322613	0.00115846	
-0.00185666	0.00781141	-0.00232477	
9.94058e-06	6.54295e-06	2.4861e-06	
-1.10044e-05	-4.02555e-06	-2.1434e-07	
-4.79706e-06	-4.22908e-06	3.02551e-06	
0.000116009	1.02379e-05	-9.9561e-05	
-0.000806436	-0.000550162	0.000685169	
0.0363369	-0.0587319	0.0188756	
0.00231557	-0.00477612	0.000280263	
-0.000158944	-0.00201631	-0.00134809	
-0.00615989	0.017963	-0.00311075	
-0.000369312	-0.000558397	-0.000301329	
-2.46609e-05	-0.00202041	-0.00155445	
0.000394242	-6.67739e-06	-0.000287376	
0.00863296	-0.00729743	0.00783965	
-0.00013386	-0.00179955	-0.00071445	
-9.4375e-05	-0.000747163	-0.000760326	
-4.57873e-06	-2.90035e-05	-4.60579e-05	
0.000212901	5.09776e-05	-0.000139885	
-0.00297013	0.00426568	0.00462683	
0.022019	-0.00413725	0.0113311	
-0.00704849	-0.00357197	0.0364851	
0.00647727	-0.00167038	-0.0109242	
0.00763229	-0.0031476	-0.0133241	
0.0134118	-0.00772917	-0.0214135	
0.00271209	0.000428232	-0.00804077	
0.00672772	-0.00346954	-0.0125885	
0.00704772	-0.00195069	-0.0148313	
0.00812883	-0.00487127	-0.013863	
0.0127956	0.0131403	0.0468502	
0.0033609	-0.00321924	0.00583206	
0.00184242	0.00162131	0.0306688	
-0.00427965	0.00078433	-0.00274991	
0.00538129	-0.00183292	-0.0115117	
0.00243785	0.00117917	-0.00690925	
0.000830865	0.0026866	-0.0015928	
-0.00106057	0.00114556	-0.00166277	
0.00783705	0.0105288	0.0335118	
0.00739095	-0.0037267	0.0113332	
0.00451898	0.00458232	0.035639	
-4.20736e-05	5.57514e-05	-3.86876e-05	
0.00735458	-0.00479648	0.011336	
2.80309e-05	6.08541e-05	-5.57929e-06	
-0.00180749	-0.00212687	0.0267766	
-8.67416e-05	0.000532994	-0.000326003	
-0.00100547	0.00316206	-7.04565e-05	
0.000875575	0.000391737	-9.40212e-05	
-0.00293592	0.00115625	0.0116028	
-0.000900859	0.000711777	-0.00135933	
-0.00127241	-0.00114596	0.0142263	
0.00185421	0.0028128	-0.00539878	
-0.000176239	-0.000145751	6.59866e-05	
-0.000180996	0.00290889	-0.000941417	
0.00117538	0.00135247	0.000168708	
0.000477619	-0.000257637	-8.08827e-05	
0.00111977	0.000828283	0.000125451	
-0.00534696	-0.0131144	-0.00185581	
0.0081103	-0.0401073	-0.180095	
-0.00328105	-0.00485998	4.05813e-05	
0.00333829	0.00556682	0.00288412	
-0.00165019	-0.00265063	8.38133e-05	
0.00669368	0.0135218	0.00687762	
-0.0127233	-0.0230072	-0.00331564	
0.0061613	0.009307	0.00356977	
-0.00299659	-0.00690479	-0.00540055	
0.00254365	-0.00262741	0.00395028	
0.00179123	0.00380301	0.00374148	
-0.00837877	-0.00262709	-0.0110517	
0.00586086	0.00998299	0.00494947	
-0.000205406	-0.001274	0.000903129	
0.00632231	0.0125646	0.00423373	
0.0052928	0.0096047	0.0039144	
0.000416182	-0.000347281	0.00110605	
-0.00520666	-0.0153129	-0.0104786	
-0.00154645	-0.00461863	-0.00389083	
-0.000394029	-0.00101285	0.000835403	
0.00024105	0.000157947	-0.00011261	
0.000544739	-0.000288334	-9.6218e-06	
0.000285428	-0.000241379	-9.99297e-05	
-0.000198386	-9.98659e-05	0.00144587	
6.66713e-06	-6.87192e-06	1.63043e-05	
0.0126804	0.0230346	0.0103829	
0.00546424	0.00961913	0.00297886	
0.0105626	0.0184754	0.00426698	
0.0131724	0.0267665	0.00664751	
-0.000682879	0.000440455	0.00120713	
-0.000301447	0.000284217	0.000729488	
-0.000647304	0.000568021	0.00129176	
0.00311971	0.00583657	0.00268948	
-0.000175825	6.55619e-05	0.000378773	
-0.000139264	-6.32656e-05	0.0013649	
8.02575e-05	-0.000483671	0.00126022	
-0.000318283	0.000154591	0.00154523	
0.0285939	-0.0138303	0.0186925	
0.0094553	-0.00804836	-0.0241419	
-0.00779313	0.02343	0.00089515	
0.000967312	-0.00261269	0.00232481	
-0.00621221	0.0213328	-0.00216861	
-0.00884691	0.0283529	0.00157776	
-0.00664006	0.0140342	-0.00915078	
-0.00605015	0.0108086	-0.00545977	
0.00164098	-0.0070665	0.00414323	
0.000650081	-0.00428147	0.00292158	
-0.000647323	0.00271913	-0.000550806	
-0.000620551	0.00230111	0.00289473	
-8.21934e-05	0.00064997	-0.00165327	
-0.0219058	0.0336124	-0.0250183	
-0.0139925	0.0250331	-0.0145635	
0.000716484	-0.00180959	-0.00130486	
0.000876549	-0.00359005	0.00187437	
0.000809261	-0.00337961	0.00214133	
0.000422366	-0.00316787	0.00119646	
-0.001847	0.00791045	-0.00231499	
-4.42644e-05	2.69159e-06	1.12051e-05	
2.71431e-05	9.93157e-06	1.05635e-06	
2.24246e-05	1.57409e-06	1.03054e-05	
9.4302e-05	7.98138e-06	-8.11128e-05	
-0.00113068	-0.00054917	0.000821919	
0.0355678	-0.0591063	0.0183401	
0.00252309	-0.00422333	0.000360515	
-0.000110344	-0.00170089	-0.00111349	
-0.00616693	0.0180888	-0.00294388	
-0.00028292	-0.000415532	-0.000242457	
-4.36794e-05	-0.00150533	-0.00126672	
0.000307508	-4.92993e-06	-0.00022491	
0.00776493	-0.00766622	0.00838098	
-0.00022395	-0.00179363	-0.000776832	
-7.56015e-05	-0.000476471	-0.00050982	
-8.5053e-07	-5.60205e-06	-8.80033e-06	
0.000177799	4.29074e-05	-0.000118312	
-0.00327326	0.00391782	0.00455747	
0.0187758	-0.0108111	0.0114551	
-0.00600236	-0.00484602	0.0369224	
0.0069603	-0.00210248	-0.0106923	
0.00785812	-0.00327555	-0.0129691	
0.0136311	-0.00811295	-0.0214636	
0.0026606	-0.000300836	-0.00733471	
0.0074897	-0.00357445	-0.0121336	
0.00719547	-0.00267855	-0.0148294	
0.00871979	-0.00469862	-0.0136074	
0.0128724	0.0126549	0.0472597	
0.00267476	-0.00349681	0.00620948	
0.00212754	0.00126197	0.0310045	
-0.00378197	0.00169211	-0.00348633	
0.00567621	-0.00253341	-0.0112618	
0.00224418	6.00664e-05	-0.00605275	
0.000714763	0.00103803	-0.00126061	
-0.000706001	0.000762072	-0.00108795	
0.00834548	0.0103541	0.0336855	
0.0080963	-0.00488821	0.0104343	
0.00467769	0.00437891	0.0359478	
6.28852e-05	3.26936e-05	-8.4541e-06	
0.00652875	-0.00629447	0.0113134	
3.16895e-06	5.34118e-05	2.57701e-05	
-0.00130888	-0.00248042	0.0269107	
-2.44289e-05	0.00013355	-8.18305e-05	
-0.000811983	0.00155846	0.000949023	
0.000486299	0.000214145	-6.35719e-05	
-0.00254233	-1.94786e-05	0.0118891	
-0.000570436	0.000449088	-0.000826682	
-0.0011664	-0.00159361	0.0143799	
0.00171787	0.000955985	-0.00502328	
-0.00012942	-9.59266e-05	4.89491e-05	
-5.85979e-05	0.00109459	-0.000354253	
0.000537861	0.000615082	5.48619e-05	
0.000303903	-0.000165414	-5.67207e-05	
0.000520776	0.00037808	4.0145e-05	
-0.00647823	-0.0129969	-0.00189592	
0.00588158	-0.0624633	-0.176966	
-0.00217628	-0.00334337	2.72023e-05	
0.00353025	0.00551223	0.00204077	
-0.00135765	-0.00247522	-0.000427219	
0.00589783	0.0125885	0.00574206	
-0.0127743	-0.0220878	-0.0045431	
0.00597417	0.00955878	0.00201302	
-0.00292533	-0.00690716	-0.00577889	
-0.000548703	-0.0033628	0.00452139	
0.00199604	0.00490118	0.00368583	
-0.00145287	-0.00371168	-0.0139424	
0.00639849	0.00998753	0.00343545	
-0.000291111	-0.00072775	0.000135422	
0.00701882	0.0131015	0.00342747	
0.00614432	0.00929377	0.00254704	
0.000807269	0.000588656	0.00169426	
-0.00584389	-0.0148113	-0.0118916	
-0.00114198	-0.00449247	-0.00443496	
-0.000838818	-0.00217269	-4.21243e-05	
0.000183927	0.000118527	-8.51168e-05	
0.000330331	-0.000272156	9.07621e-05	
0.000157183	-0.000250681	0.000135489	
-8.83285e-05	-5.08148e-05	0.000705575	
-0.000193441	0.000209666	-0.000454434	
0.0127425	0.023037	0.00967032	
0.0062285	0.00904401	0.00151945	
0.0112785	0.0179223	0.00323478	
0.012623	0.025698	0.00542274	
-0.000277783	0.000176194	0.000486683	
0.000313389	-0.000286874	-0.000763403	
-0.000438717	0.000375424	0.000860001	
0.00354077	0.00574368	0.00167079	
0.000375945	-0.000147013	-0.000827508	
-7.08711e-05	-2.4269e-05	0.000633088	
3.36794e-05	-0.0002311	0.000588064	
-0.000258752	0.000121494	0.00130177	
0.0272033	-0.0139247	0.0205901	
0.00935468	-0.00781986	-0.0241159	
-0.00787609	0.0235053	0.00101163	
0.00182017	-0.00218084	0.00236243	
-0.00622346	0.0213576	-0.00216092	
-0.00880633	0.0284979	0.00139445	
-0.00693697	0.0142616	-0.00883686	
-0.00646899	0.0110994	-0.00510309	
0.00163074	-0.00704377	0.00407292	
0.000674693	-0.00430643	0.00284013	
-0.000660414	0.00275913	-0.000550993	
-0.000373142	0.00215679	0.00304035	
-5.1721e-05	0.000548569	-0.00131203	
-0.0220287	0.0347957	-0.0245397	
-0.0139782	0.0255198	-0.0143931	
0.000419467	-0.00110358	-0.000864009	
0.000861071	-0.00355647	0.00183426	
0.000761243	-0.00339085	0.00211132	
0.000411875	-0.00316671	0.0011666	
-0.00185635	0.00795667	-0.00233915	
-1.67125e-05	-5.68646e-06	5.05443e-06	
9.65375e-06	3.59841e-06	4.34926e-07	
8.6018e-06	-7.25666e-07	4.47881e-06	
4.54904e-05	3.13134e-06	-3.99572e-05	
-0.000165095	-6.83865e-05	0.00010904	
0.0347346	-0.0594174	0.0180076	
0.00244956	-0.00409587	0.000432312	
0.000549205	-0.00180042	-0.000299431	
-0.00628028	0.0181869	-0.0028877	
-0.000174926	-0.000254313	-0.000154653	
-4.33805e-05	-0.00133882	-0.00118815	
0.000154525	-3.12441e-06	-0.000113109	
0.00788065	-0.00710094	0.00799839	
-6.77088e-05	-0.00050647	-0.000235915	
-5.29796e-05	-0.000331706	-0.000365199	
-1.68164e-06	-1.15081e-05	-1.82179e-05	
8.58157e-05	1.97919e-05	-5.81408e-05	
-0.00341395	0.00375618	0.00453946	
0.0156963	-0.015483	0.00962087	
-0.00602447	-0.0048153	0.0371605	
0.00713155	-0.00225091	-0.0107581	
0.00807603	-0.00322984	-0.013154	
0.0133421	-0.00837807	-0.0222274	
0.00248163	-0.000576046	-0.00683676	
0.00731384	-0.00337606	-0.0126551	
0.00685305	-0.00303668	-0.0144635	
0.0085337	-0.00467104	-0.0141173	
0.012566	0.0128327	0.0473573	
0.00275108	-0.00329404	0.00660055	
0.0022563	0.00143845	0.0311452	
-0.00028544	0.00444558	-0.00376439	
0.00546442	-0.00264634	-0.0116962	
0.00205996	-0.000253515	-0.00571855	
0.000667741	0.000962628	-0.00114321	
-0.000883927	0.000945232	-0.00135218	
0.00914376	0.0101173	0.0337053	
0.00801437	-0.00524066	0.0104193	
0.00476419	0.00479782	0.0361381	
1.50783e-05	2.03319e-05	4.19731e-05	
0.00585739	-0.00647607	0.011717	
-9.8173e-06	6.18224e-05	1.10022e-05	
-0.00120301	-0.00221976	0.027098	
-8.31391e-06	4.05516e-05	-2.51679e-05	
-0.000777118	0.00137338	0.00119562	
0.000460976	0.000205517	-6.3398e-05	
-0.0024783	-9.0188e-05	0.0120083	
-0.000736848	0.000577409	-0.00105775	
-0.00117621	-0.00147075	0.0144512	
0.0016103	0.000874525	-0.00499969	
-0.00016662	-0.000102826	6.12044e-05	
-4.51308e-05	0.000965271	-0.000303386	
0.000512999	0.00058533	5.00374e-05	
0.000308049	-0.000163579	-5.73761e-05	
0.000510605	0.000376684	3.63318e-05	
-0.00624494	-0.0130116	-0.00125817	
0.0100594	-0.00884792	-0.191343	
-0.00240229	-0.00326459	0.000364877	
0.00358554	0.00547565	0.00290996	
-0.00153989	-0.00243121	0.000188443	
0.00610846	0.0125109	0.00653466	
-0.0118459	-0.0226098	-0.00275164	
0.0061346	0.00969172	0.00408572	
-0.00309942	-0.00738285	-0.00561016	
-0.000485957	-0.000182456	0.00529789	
0.00227318	0.00479763	0.0044449	
4.90459e-05	-0.00248436	-0.014099	
0.00574866	0.0104796	0.00536	
0.000181949	-0.000766787	0.00125944	
0.00656907	0.0134129	0.00438759	
0.00529774	0.010074	0.0042385	
0.000909165	0.000357133	0.00192273	
-0.00509035	-0.0150378	-0.0115776	
-0.00108994	-0.00325522	-0.00548057	
-0.00100742	-0.00236038	0.000165055	
0.000322936	-8.89178e-05	-1.17659e-06	
0.000596373	-0.000354405	0.000111938	
0.000369439	5.35446e-05	-0.00019805	
-0.000177935	-0.000113006	0.00144957	
5.80173e-05	-6.31053e-05	0.000138247	
0.0123936	0.0232207	0.0103498	
0.00542402	0.00979565	0.00317566	
0.0106858	0.0186618	0.00498468	
0.0126067	0.0260594	0.00676832	