<VTKFile type="UnstructuredGrid" version="0.1" byte_order="LittleEndian">
	<UnstructuredGrid>
		<Piece NumberOfPoints="3996" NumberOfCells="3996">
			<CellData Scalars="scalars">
				<DataArray type="Float64" Name="Strength" NumberOfComponents="3" Format="ascii">
-0.00694445	-0.0157905	0.012713	
-0.00155018	-0.0133835	-0.0274265	
-0.0190061	0.0690449	0.00954626	
0.00446711	-0.00662922	-0.00722091	
0.00593719	0.000765573	-0.0109467	
0.0140227	0.0559344	-0.0283128	
0.00515164	0.0873695	-0.0249219	
0.00455145	0.0189755	-0.0144003	
0.0102114	0.0846514	-0.0293569	
0.00662036	0.0334007	-0.0191029	
0.00560365	0.00423119	0.0446892	
0.00315596	-0.00434108	0.00190341	
-0.0119539	0.0386602	0.0160052	
0.000702593	0.00134793	-0.00209787	
0.00708024	0.0744137	-0.0254556	
0.00746718	0.0864978	-0.021144	
0.00481463	0.0932085	-0.0192566	
-0.000371552	0.0670413	-0.0177289	
0.000587964	0.0117506	0.029154	
0.00817606	-0.0081961	0.00853549	
-0.00839295	0.0318347	0.0233951	
0.0019245	-0.00103963	0.000826186	
0.00446692	-0.00520609	0.00921578	
-0.00129259	0.00200641	0.000890764	
-0.0159504	0.0471735	0.00924011	
-0.000746531	-0.012658	0.00261583	
0.0026001	0.0880646	-0.0179456	
0.00590676	0.042719	0.000631042	
-0.0058445	0.0866591	-0.00636147	
-0.000497957	0.048638	-0.0125225	
-0.00415236	0.0541339	0.00341138	
0.00548456	0.0890591	-0.0175215	
-0.000541328	-0.000330539	0.000163576	
0.00306383	0.0865064	-0.014808	
0.00982696	0.079093	0.000266339	
0.00906591	0.0199699	-0.000124888	
0.00890302	0.060234	0.00122258	
-0.0104923	-0.00533572	-0.0254992	
0.031485	-0.122333	0.0516402	
-0.0103029	-0.0118415	0.0493566	
0.00158789	0.0114345	-0.0136034	
2.04044e-05	-0.00720512	0.0548124	
0.0232149	-0.00561406	0.0636465	
-0.0107424	-0.0374378	0.0460412	
0.0146343	-0.0116611	0.0525261	
0.00596279	-0.0200475	0.0357937	
0.0137153	-0.0010808	0.0147711	
0.00641582	-0.0129819	0.0559369	
0.0148345	0.0132767	-0.0133433	
0.00990946	-0.00766329	0.0475385	
0.00253006	-0.0118215	0.0254801	
0.00736221	-0.00329048	0.0543908	
0.00711466	-0.00408425	0.0396181	
0.00875408	-0.0180055	0.0468521	
-0.0024204	-0.0170937	0.0293578	
0.00636038	-0.0103007	0.0157092	
0.00812823	-0.0119386	0.0559954	
0.0236854	-0.0125499	0.000785923	
0.00863415	-0.021192	0.0119027	
0.0069702	-0.000380142	0.0184206	
0.00425587	-0.0135156	0.0576944	
-0.00299625	0.00817456	-0.0205028	
0.0185549	0.010933	0.0387248	
0.00665817	-0.00119748	0.0311195	
0.0100178	0.0108725	0.017266	
0.0349858	0.000807359	0.0695307	
0.000206055	-0.00800652	0.0400258	
0.000667915	-0.00506569	0.0182997	
0.0026824	-0.00796089	0.0438871	
0.00261484	0.00906005	-0.0102388	
1.19428e-05	0.00143343	-0.00464308	
0.00245303	-0.00681162	0.0240052	
0.00843556	-0.0169832	0.0531276	
0.00486844	-0.0117175	0.0506635	
0.0219846	-0.053828	-0.0136785	
-0.000508861	0.0189581	-0.0302806	
-0.00973965	-0.000599404	-0.0311909	
-4.09811e-05	-0.0305038	-0.0313872	
-0.00766166	0.0142117	-0.011718	
-0.0129056	0.0115272	-0.0231832	
-0.000678909	-0.0175599	-0.0503626	
0.00229619	-0.0259781	-0.0518902	
0.0018157	-0.0093401	0.00290094	
0.000714471	-0.00725749	0.000826415	
-0.000440159	4.18041e-05	-0.00353948	
0.000195867	-0.0064439	-0.00077077	
0.00508095	-0.0389411	-0.0567108	
-0.0166595	-0.00447491	-0.0479632	
-0.0216308	-0.0171738	-0.0442281	
0.00380667	-0.0451794	-0.0553112	
0.000829067	-0.00482565	0.0011999	
0.000476388	-0.00599944	0.000194279	
0.000897767	-0.0054322	-0.000717436	
-0.0018217	0.00466368	-0.00514474	
0.00272736	-0.00248332	-0.000196298	
-0.00101684	-0.00193319	-0.00215801	
0.0007703	0.00143343	0.00226736	
0.00176214	-0.00551176	-0.00919432	
-0.00541545	-0.0361231	-0.0340265	
0.0449892	-0.0745634	-0.00732878	
0.00690708	-0.0472385	-0.0525958	
0.000754621	-0.0428631	-0.054416	
-0.00494782	-0.0061822	-0.0339389	
-0.0074738	-0.0404899	-0.0425211	
0.00492769	-0.0437439	-0.0521854	
0.00843053	-0.0200744	-0.0360134	
0.0140625	-0.0440111	-0.0369346	
0.0063258	-0.0508037	-0.0590302	
-1.28198e-05	-0.0118759	-0.0131841	
8.02159e-07	6.99836e-06	8.76939e-06	
0.00419755	-0.0101474	-0.019371	
-0.00273635	0.00263044	0.00632357	
-0.003834	-0.009672	-0.0277948	
-0.00986678	0.0068363	0.0314955	
0.00496259	0.000605246	-0.010253	
0.006637	0.00219268	-0.0124902	
0.0156643	0.00867789	-0.0183538	
0.0044014	0.0112965	-0.00732368	
0.00662583	0.00461507	-0.0116437	
0.010352	0.0117398	-0.0125044	
0.00858447	0.00624885	-0.013099	
0.0122341	0.000245615	0.0446376	
0.00211288	-0.00233276	0.0039825	
0.00239126	0.00313154	0.0275112	
0.000266282	0.00131014	0.00175442	
0.00752036	0.0108607	-0.0102389	
0.00400748	0.0111327	-0.00651243	
0.00128916	0.0106054	-0.00361696	
-0.000656938	0.00991291	-0.00314128	
0.0077483	0.00253168	0.0319197	
0.00488445	-0.00373381	0.0115108	
0.00444558	0.0036555	0.0319455	
0.000176093	-5.9367e-05	-3.32913e-05	
0.00428506	-0.00213517	0.0110618	
-0.00030847	0.000127119	0.000237142	
-0.00284082	0.00540859	0.0233645	
8.33835e-06	0.000190717	-4.01354e-05	
-0.000927145	0.0107518	-0.00175323	
0.00122802	0.00538066	-0.000587427	
-0.00488617	0.008113	0.00855726	
-0.000489108	0.00779384	-0.00234318	
-0.00200489	0.0055526	0.0114504	
0.00282131	0.00979006	-0.00555575	
0.0011511	0.000616954	-0.000375164	
-5.29035e-05	0.00990216	-0.00196694	
0.00173046	0.00846029	-0.000325338	
0.00114305	0.00241996	-0.00060997	
0.0015694	0.00689794	-0.000465192	
-0.00495263	-0.0117166	-0.00454378	
-0.0396509	-0.10078	-0.114725	
-0.00601227	-0.00881793	0.00267432	
0.0025405	0.00615598	0.00167337	
-0.00204011	-0.00398541	0.00481166	
0.00685454	0.0128324	0.0149352	
-0.0172185	-0.0214821	-0.00456607	
0.00748861	0.00558084	0.00700096	
-0.000426618	-0.0080874	0.000481663	
-0.000226394	0.00335421	0.00608102	
0.000585758	0.00117089	0.00765822	
-0.00517635	-0.00749754	-0.00940911	
0.00759736	0.00605668	0.00737872	
-0.00072109	-0.00355444	0.00389316	
0.0060936	0.00701753	0.0101245	
0.00665893	0.00599153	0.00647677	
0.000373934	-0.00230199	0.00511548	
-0.00417614	-0.0157018	-0.00669123	
-0.00141955	-0.00562109	-0.000935335	
-7.99988e-05	-0.000966178	0.0068326	
-0.00146094	0.00145968	-0.00126036	
0.00108134	-0.0014925	0.00233994	
1.00086e-05	0.00178469	-0.00152502	
-0.000192718	-0.00157247	0.00603939	
-0.000207107	0.000542312	-0.00133214	
0.015196	0.0180648	0.0168527	
0.0063088	0.00645816	0.00550639	
0.0106063	0.0146593	0.00814301	
0.0169562	0.0222492	0.0181271	
-0.000593373	-0.000854106	0.00578847	
-1.96989e-06	-0.000188277	0.000769094	
-0.00048704	-0.000865544	0.00679356	
0.00279496	0.00567353	0.0015575	
3.14611e-05	0.000265164	-0.000905027	
0.00037994	-0.00136733	0.00589989	
7.4197e-05	-0.00180092	0.00576104	
-0.000183176	-0.00151402	0.00726156	
0.0249226	-0.0182531	0.0120782	
-0.000979071	0.0145863	-0.0208811	
-0.00808142	0.0188056	-0.0104004	
0.00122997	-0.00524201	-0.00372774	
-0.00507235	0.0189589	-0.00837174	
-0.00837776	0.0244637	-0.0109935	
-0.00872752	0.00650187	-0.0138379	
-0.00698675	0.00328778	-0.0107667	
0.00133522	-0.00638726	0.0049966	
0.000263891	-0.00370584	0.00329219	
-0.000550818	0.0026569	-0.000388267	
0.00118496	-0.00252125	0.00211356	
8.22566e-05	-0.00412907	-0.00704912	
-0.0239131	0.0202203	-0.0272981	
-0.0153466	0.0204924	-0.0150254	
0.00183699	-0.00682619	-0.00640733	
0.000967763	-0.00289446	0.00305725	
0.0005511	-0.00260503	0.00285974	
0.000476594	-0.00227636	0.00232383	
-0.00136024	0.00775672	-0.00300132	
0.000317735	-0.000942389	-0.000613909	
0.000446403	0.000633319	0.000719189	
-0.000337754	-0.000355502	0.000639871	
-9.47901e-05	0.00023325	0.000389521	
-0.000866069	-0.00401114	-0.00339577	
0.0404068	-0.0543027	0.0217401	
0.00381089	-0.00841778	-0.00563783	
-0.00126501	-0.00501071	-0.00762545	
-0.00713985	0.0137714	-0.00936497	
-0.000603893	-0.00196397	-0.0020256	
0.000610177	-0.0063315	-0.00718156	
0.000443749	-0.000809669	-0.00123896	
0.0112747	-0.0115804	-0.000917816	
0.000527706	-0.00473522	-0.00521928	
-0.000247624	-0.00301418	-0.00288124	
8.98338e-05	0.000781965	0.0009804	
4.33966e-05	-8.17752e-05	-0.000146908	
-0.00281286	0.00275192	0.00617979	
-0.00162492	-0.00930382	-0.026365	
-0.00155216	0.00273853	0.0341176	
0.00541288	-5.54813e-05	-0.0101789	
0.00713547	0.000341479	-0.0122212	
0.0128863	0.000586186	-0.0199769	
0.00216139	0.00227416	-0.00705367	
0.00702161	0.000989671	-0.0111798	
0.00628385	0.00161726	-0.0140935	
0.00832867	0.00110695	-0.0127517	
0.0112598	-0.00129896	0.045692	
0.0023738	-0.00284172	0.00448725	
0.00207363	0.00150751	0.0284468	
0.0001573	0.0018915	0.00222129	
0.00517131	0.00178498	-0.0105687	
0.00150817	0.00226071	-0.00623595	
0.000335293	0.00267038	-0.00307117	
-0.000316687	0.00261866	-0.000981517	
0.0062525	0.00176712	0.03296	
0.005722	-0.00447075	0.0110845	
0.003136	0.00120625	0.0332532	
0.000120559	-0.000128431	1.12498e-05	
0.00463278	-0.00295211	0.0114933	
-8.37549e-05	9.28539e-05	0.000101637	
-0.00152675	0.00104398	0.0244182	
2.06554e-06	7.02554e-05	-1.44307e-05	
-0.000460969	0.00296821	0.000313661	
0.000345733	0.0016638	-0.000212741	
-0.00065925	0.00285158	0.0103809	
-0.000212628	0.00202385	-0.00070997	
-0.000862033	0.00159037	0.0123566	
0.000653923	0.00236318	-0.00571278	
0.000466108	0.000285913	-0.000148753	
-0.000110551	0.00269754	-0.000707203	
0.000403098	0.00236725	-0.000398439	
0.000458077	0.0011004	-0.000261569	
0.000424906	0.0020365	-0.000294859	
-0.00500747	-0.0120943	-0.00364703	
-0.0217992	-0.101003	-0.12875	
-0.00310309	-0.00778498	-0.0013668	
0.0028157	0.00559936	0.00271934	
-0.00139376	-0.00295114	0.000380455	
0.00616374	0.013492	0.00973282	
-0.0118893	-0.0228328	-0.00855745	
0.00522934	0.00814244	0.00442106	
-0.00173508	-0.00706298	-0.00333539	
0.000494171	0.00278853	0.00548822	
0.00113399	0.00290241	0.00377685	
-0.00522466	-0.00486652	-0.0124056	
0.00593917	0.00841711	0.00497238	
-0.000655778	-0.00225168	0.000725726	
0.00448638	0.0097861	0.00657121	
0.00568523	0.0076777	0.00444348	
0.00016604	-0.000573896	0.00164254	
-0.00402693	-0.0154802	-0.00949581	
-0.00173469	-0.00488524	-0.00288353	
-8.32004e-05	-0.000535711	0.00198006	
-0.000103165	0.000548894	-0.000345425	
0.000305707	-0.000421694	0.000701628	
0.000643034	3.3107e-05	-0.000323551	
-1.07999e-05	-0.000419984	0.00181874	
-6.52328e-05	0.000171403	-0.000399427	
0.0106267	0.0214271	0.0130755	
0.00566166	0.0076015	0.00404619	
0.010464	0.0152041	0.00780271	
0.0100149	0.0258648	0.0138424	
-0.000217684	-0.000275494	0.00189015	
4.1796e-06	3.70842e-05	-0.000173539	
-0.000182373	-0.000274215	0.0022604	
0.00296451	0.00533346	0.00249947	
2.92927e-05	0.000149385	-0.000527405	
9.44087e-05	-0.00042116	0.00200698	
3.95934e-05	-0.000504226	0.00161882	
-3.27829e-05	-0.000467171	0.00238009	
0.024844	-0.0161705	0.0154142	
-0.000361448	0.013007	-0.0247318	
-0.00629251	0.0199587	-0.00992443	
0.00152914	-0.00268085	-0.000467076	
-0.0056254	0.0184296	-0.00879064	
-0.00792061	0.024735	-0.0109633	
-0.00657211	0.0109173	-0.0112098	
-0.00559639	0.00789321	-0.00810458	
0.00152351	-0.00747326	0.00394193	
0.000458821	-0.00457495	0.00278182	
-0.000562782	0.00208657	-0.0013826	
-0.000481346	-0.000705229	0.00370849	
-0.000300931	-0.00078453	-0.00230705	
-0.0176841	0.0290826	-0.0262725	
-0.00942329	0.0235634	-0.0162945	
0.00102608	-0.00289741	-0.00112006	
0.000831841	-0.00390701	0.00179648	
0.000469784	-0.00375121	0.00187728	
0.000287527	-0.00323558	0.00139115	
-0.00168231	0.0067693	-0.00374828	
-0.00011838	0.000227894	0.000206056	
-0.000106612	-0.000167217	-0.00019138	
4.846e-05	0.000193444	-6.12299e-05	
6.8563e-05	-0.000176806	-0.000312472	
-0.00034512	-0.00128258	-0.00096923	
0.0273605	-0.0565085	0.0319599	
0.00272699	-0.00472956	-0.00016908	
-0.000904816	-0.00122051	-0.00273131	
-0.00512264	0.0151191	-0.00896232	
-0.000213907	-0.000604016	-0.000599562	
0.000133967	-0.00213494	-0.00218623	
0.000175389	-0.000369379	-0.000515052	
0.00973946	-0.00885704	0.0038638	
0.000138447	-0.00156594	-0.00156475	
-7.58113e-05	-0.000796702	-0.000762551	
-2.69772e-05	-0.000235618	-0.000302222	
0.000108366	-0.000209812	-0.00039472	
-0.00284834	0.00290074	0.00591023	
-0.0006789	-0.00915637	-0.0249345	
-0.00497813	0.00227764	0.034576	
0.0056544	9.63688e-05	-0.0102447	
0.007203	0.000283121	-0.0125626	
0.0105668	-0.000434902	-0.0223306	
0.00166942	0.00259634	-0.00764742	
0.00677523	0.000620025	-0.0118131	
0.00472737	0.0015168	-0.0152072	
0.00758268	0.000501337	-0.0137583	
0.0119714	-0.00159166	0.0464439	
0.00254455	-0.00299421	0.00510462	
0.00204756	0.00141953	0.0289132	
0.00106619	0.0022313	0.00298224	
0.00394707	0.00160648	-0.0116182	
0.00144159	0.00284275	-0.00647153	
0.00062047	0.00334646	-0.00269393	
-0.000354894	0.00280347	-0.00106964	
0.00648101	0.00165855	0.0335354	
0.00584634	-0.00446125	0.011272	
0.00314016	0.00113984	0.0337691	
-1.87038e-05	-0.000149123	2.86022e-05	
0.00480776	-0.00303083	0.011965	
-2.55056e-05	0.000117097	0.000118207	
-0.00143663	0.000886401	0.0250816	
6.4549e-06	0.000261513	-5.19878e-05	
-0.000466754	0.00357644	0.00024663	
0.000323103	0.00163849	-0.00020673	
-0.00228263	0.0031724	0.0104988	
-0.000232096	0.00199537	-0.000734296	
-0.00132833	0.00148992	0.0128493	
0.00134638	0.00330436	-0.00564003	
0.000464944	0.000291468	-0.000146742	
-5.92948e-05	0.00339219	-0.000717583	
0.000476886	0.00275758	-0.000337763	
0.000483761	0.00114631	-0.000278181	
0.000456837	0.00225015	-0.000229269	
-0.00542851	-0.0121264	-0.00356942	
-0.0194418	-0.0989202	-0.138662	
-0.0030706	-0.00622154	-0.0010759	
0.00302415	0.00532388	0.00276586	
-0.001365	-0.00284597	0.000419262	
0.00583189	0.0127499	0.00947138	
-0.0104387	-0.0227028	-0.00877167	
0.00476173	0.00860986	0.00496963	
-0.00197324	-0.00726353	-0.0035336	
0.000522505	0.00339511	0.00509567	
0.00139742	0.00336052	0.00422897	
-0.0038281	-0.00670459	-0.0118823	
0.0053397	0.00904643	0.00542482	
-0.000487726	-0.00189614	0.000606571	
0.00551097	0.00989987	0.00704956	
0.00516388	0.00831862	0.00474206	
0.000313346	-0.000216451	0.00196426	
-0.00435297	-0.0156724	-0.00968744	
-0.0018263	-0.00506176	-0.00268746	
-0.000292179	-0.00120256	0.00160421	
4.05985e-05	0.000576092	-0.000377521	
0.000326668	-0.000444176	0.000764619	
0.0006551	7.83541e-05	-0.000330524	
7.27496e-06	-0.000440851	0.0018117	
-4.9368e-05	0.00013232	-0.000292591	
0.0115142	0.0205577	0.0137979	
0.00528729	0.00811723	0.00421371	
0.0103323	0.0156555	0.0078744	
0.0122523	0.0238787	0.0142055	
-0.000136822	-0.000318508	0.00163014	
2.44246e-06	2.53146e-05	-0.000121587	
-0.000106014	-0.000343228	0.00199573	
0.00314128	0.00525519	0.00256654	
3.03577e-05	0.000141496	-0.000512797	
8.23197e-05	-0.000407002	0.00158285	
3.07924e-05	-0.000545491	0.00169417	
2.17007e-05	-0.000501729	0.00225558	
0.0239297	-0.0173058	0.0174097	
9.53771e-05	0.0135894	-0.0231789	
-0.00719552	0.0204046	-0.00953707	
0.00150158	-0.00282304	8.9786e-05	
-0.00558576	0.0188819	-0.00874062	
-0.00834823	0.0251872	-0.0107896	
-0.0055089	0.0118151	-0.0111658	
-0.00454513	0.00864191	-0.00841518	
0.00143186	-0.007049	0.00418223	
0.000430057	-0.00429755	0.00283634	
-0.000584358	0.00234342	-0.00115163	
0.000880887	-0.00131201	0.00327549	
-0.000234655	-0.000821879	-0.0023409	
-0.0166185	0.0317141	-0.0258931	
-0.0118748	0.0237157	-0.0154368	
0.000613998	-0.00275107	-0.00118851	
0.000841482	-0.00351947	0.00209948	
0.000499914	-0.00339097	0.00212239	
0.000317893	-0.00291012	0.00167136	
-0.00162015	0.00713833	-0.00362158	
-1.90252e-05	-0.000109454	-7.71744e-05	
4.29885e-05	6.69875e-05	7.72864e-05	
-4.15661e-05	-6.39192e-05	4.33535e-05	
2.55007e-05	-6.93592e-05	-0.000120939	
-0.000383323	-0.00123988	-0.000864792	
0.0302585	-0.0574047	0.0273666	
0.00214279	-0.00498694	8.28996e-05	
-0.000329695	-0.00160274	-0.0022606	
-0.00609807	0.0153815	-0.00854457	
-0.000222418	-0.000699687	-0.000740225	
8.51215e-05	-0.00214018	-0.00210338	
0.000188678	-0.000372526	-0.000584018	
0.0082969	-0.00937395	0.00508301	
7.36483e-05	-0.00155082	-0.00145233	
-5.77902e-05	-0.000760862	-0.00082305	
5.39595e-06	4.67455e-05	5.95086e-05	
7.3522e-05	-0.000143307	-0.000281066	
-0.002998	0.00265594	0.00584548	
0.0005998	-0.00966049	-0.023336	
-0.00520139	0.00223961	0.0353242	
0.00595311	0.000231873	-0.0105668	
0.00730619	0.000502159	-0.0130098	
0.0103165	9.88614e-05	-0.0233039	
0.00248298	0.00283214	-0.00724245	
0.00664434	0.000812861	-0.0124967	
0.00613524	0.00242783	-0.0146899	
0.00725703	0.000725684	-0.0145916	
0.012453	-0.00153738	0.0472508	
0.00273824	-0.00315834	0.00564127	
0.00211918	0.00164022	0.0293602	
0.00164593	0.0024593	0.0036622	
0.00447468	0.00209735	-0.0114388	
0.00197099	0.00286217	-0.00613824	
0.000772055	0.00327458	-0.00297912	
-0.000313729	0.00301621	-0.00102324	
0.00675657	0.00173713	0.0341607	
0.00581195	-0.00442366	0.0115369	
0.00318623	0.00145241	0.0346674	
-7.72974e-05	-0.000100025	2.13915e-05	
0.00491235	-0.00311183	0.0124575	
1.80859e-05	0.000107261	9.81988e-05	
-0.00148612	0.00112623	0.0257733	
2.31859e-06	0.000129394	-2.5192e-05	
-0.000528359	0.00320555	0.000446937	
0.000342685	0.00176651	-0.000229855	
-0.00242645	0.00320712	0.0107385	
-0.000260968	0.00241868	-0.000854457	
-0.00135841	0.00168637	0.0133909	
0.00145641	0.00313443	-0.00564579	
0.000418053	0.000268734	-0.000132218	
-4.4193e-05	0.00310199	-0.000604921	
0.000507073	0.00297097	-0.000333326	
0.000459144	0.00111139	-0.000277494	
0.000488954	0.00244365	-0.000241615	
-0.00583931	-0.0121214	-0.00352343	
-0.0167883	-0.0989652	-0.146588	
-0.00260781	-0.00529378	-0.000902695	
0.00320377	0.00515352	0.00288371	
-0.00128922	-0.00273299	0.000240128	
0.00563303	0.012483	0.00911116	
-0.011341	-0.0213581	-0.00953054	
0.00528817	0.00842044	0.00502989	
-0.00202931	-0.0075417	-0.003862	
0.000883925	0.00353115	0.00435718	
0.00146618	0.00366097	0.00422942	
-0.00136814	-0.00770112	-0.0113259	
0.00573752	0.00894091	0.0055347	
-0.000436328	-0.00149658	0.000421803	
0.00591748	0.01048	0.0072605	
0.00535908	0.00834664	0.00488134	
0.000305831	-7.12813e-05	0.00178939	
-0.00417975	-0.0155524	-0.00983622	
-0.00187343	-0.00496263	-0.00290208	
-0.000328385	-0.00128677	0.00118939	
0.000439588	6.35819e-05	-2.64393e-05	
0.000283124	-0.000396501	0.00071852	
0.00057777	-0.000154486	1.72975e-05	
1.07737e-05	-0.000403378	0.00163773	
-4.23659e-05	0.000115189	-0.000247223	
0.0116826	0.0206318	0.0137581	
0.00533042	0.00821605	0.00438835	
0.0103183	0.0158477	0.00813737	
0.0120725	0.0234303	0.0139862	
-0.000108613	-0.000276113	0.00135974	
-4.12712e-08	1.53115e-06	-8.36838e-06	
-8.37552e-05	-0.000314361	0.00172886	
0.00326059	0.00515379	0.00279985	
1.47091e-05	7.68317e-05	-0.000278322	
6.19448e-05	-0.00036042	0.00127462	
2.79388e-05	-0.000509006	0.00159559	
2.85298e-05	-0.000424196	0.00188064	
0.0231109	-0.0178525	0.0190895	
0.000363629	0.013773	-0.0231515	
-0.00723031	0.0206911	-0.00958467	
0.00158446	-0.00292868	0.000603218	
-0.00563585	0.0189596	-0.00889446	
-0.0082491	0.0253664	-0.0110778	
-0.00638686	0.0122657	-0.0105061	
-0.00534494	0.00891593	-0.0078497	
0.00145352	-0.00709411	0.00404717	
0.000416243	-0.00438146	0.00273684	
-0.0005962	0.00235518	-0.00124249	
0.000969446	-0.00128935	0.00327629	
-0.000262397	-0.000575973	-0.00212372	
-0.0182021	0.0332991	-0.0246706	
-0.0119958	0.0243486	-0.0152327	
0.000568451	-0.00243823	-0.00113285	
0.000827148	-0.00355528	0.00196015	
0.00049097	-0.00347894	0.00201472	
0.000269293	-0.0029933	0.00156211	
-0.00165342	0.00711652	-0.0037063	
4.73957e-06	6.57381e-06	5.14897e-06	
-4.35948e-06	-6.92432e-06	-8.06207e-06	
2.69781e-06	6.21493e-06	-1.1216e-06	
2.62507e-05	-7.4009e-05	-0.000127667	
-0.000313333	-0.000921666	-0.000625861	
0.0303842	-0.05702	0.026698	
0.00206139	-0.00472775	0.000369253	
-1.92964e-05	-0.00164905	-0.00169362	
-0.00613637	0.0156293	-0.00848737	
-0.000148312	-0.000477274	-0.00051449	
6.95303e-05	-0.00174319	-0.0017628	
0.00012336	-0.000247271	-0.000388593	
0.00741607	-0.00951452	0.00573852	
5.16382e-05	-0.00137538	-0.00129075	
-6.35792e-05	-0.000681493	-0.000788717	
-3.72079e-06	-3.29761e-05	-4.2012e-05	
5.53169e-05	-0.000114748	-0.000219819	
-0.00278327	0.00297376	0.00537952	
0.0018611	-0.00899933	-0.0228439	
-0.00462162	0.00104964	0.0362084	
0.00607225	0.000669779	-0.010836	
0.00729267	0.000678653	-0.0133588	
0.0115133	0.000249756	-0.0230223	
0.00267761	0.00236182	-0.00748657	
0.00662759	0.000904656	-0.0126223	
0.00628185	0.00194837	-0.0147337	
0.0073599	0.000489638	-0.0145807	
0.0133702	-0.0019866	0.0474394	
0.00290069	-0.00330154	0.00585527	
0.00257796	0.000941598	0.0300085	
0.00159176	0.00217928	0.00426119	
0.00499688	0.00184074	-0.0113312	
0.0021148	0.00252998	-0.00645132	
0.000502482	0.00257231	-0.00176313	
-0.00020442	0.00212198	-0.000621006	
0.00728578	0.00127495	0.0344911	
0.00587005	-0.00447854	0.0116229	
0.00362129	0.000774236	0.0352855	
-5.68781e-05	-1.73456e-05	-7.81866e-07	
0.00505756	-0.0033065	0.0127014	
1.30968e-05	4.90778e-05	4.17204e-05	
-0.00107187	0.000310059	0.0263311	
1.05505e-05	0.000601086	-0.000116139	
-0.000551322	0.00313226	0.00060601	
0.000172817	0.000918471	-0.000127884	
-0.00232179	0.00197776	0.0113589	
-0.000161128	0.00163885	-0.000534374	
-0.00121786	0.00070549	0.0139529	
0.00136083	0.00277169	-0.00539827	
0.000185806	0.000127464	-6.15215e-05	
-4.0674e-05	0.00293582	-0.00056302	
0.000287808	0.00172395	-0.000199118	
0.000193154	0.000485613	-0.000125607	
0.000259947	0.00133492	-0.000142245	
-0.00595144	-0.0121268	-0.00315257	
-0.0212134	-0.099135	-0.150608	
-0.00245993	-0.005058	-0.00109508	
0.00338035	0.00504804	0.00327304	
-0.00126926	-0.00277697	-0.000145125	
0.00551784	0.0124231	0.0088742	
-0.0111342	-0.0214312	-0.00917002	
0.00539766	0.00834982	0.00560692	
-0.00204118	-0.007694	-0.00437878	
0.00108138	0.00339464	0.00390869	
0.00140672	0.00366731	0.0038766	
-0.00112381	-0.00752157	-0.0116113	
0.00590384	0.00871095	0.00627646	
-0.000315715	-0.00136382	0.000635231	
0.00596885	0.0106999	0.00749446	
0.00553836	0.00801626	0.00576801	
0.0001701	-0.000175306	0.00118548	
-0.00394687	-0.0154549	-0.0101576	
-0.00178731	-0.00493646	-0.00313888	
-0.000267975	-0.00104856	0.000796106	
0.000301579	1.30932e-05	-2.38123e-05	
0.000196357	-0.000261863	0.000509713	
0.000324395	-0.000115087	0.000158592	
1.55399e-05	-0.000349544	0.00139202	
2.85403e-06	-7.62111e-06	1.64612e-05	
0.0117228	0.02083	0.0138301	
0.00555402	0.00795714	0.00546024	
0.010509	0.0158329	0.00914235	
0.0119273	0.0234548	0.0141419	
-0.000107484	-0.000285653	0.00139123	
-6.55289e-06	-0.000188456	0.000794028	
-6.80471e-05	-0.000276092	0.00149391	
0.00335336	0.005071	0.00334391	
-1.83329e-05	-0.000112183	0.000394817	
6.19472e-05	-0.000365299	0.00129103	
2.39449e-05	-0.000403038	0.00126543	
2.32148e-05	-0.000345289	0.00151498	
0.0227533	-0.019075	0.0199052	
0.000492717	0.0143661	-0.0224236	
-0.00723838	0.0208925	-0.00972164	
0.00156258	-0.0030934	0.000633157	
-0.00566897	0.0190864	-0.00901824	
-0.00832257	0.0255091	-0.0112471	
-0.00659398	0.0127738	-0.0100991	
-0.00556749	0.00939489	-0.00739615	
0.00144486	-0.00698607	0.00403226	
0.000342498	-0.00435659	0.00268289	
-0.000609512	0.00242062	-0.00124879	
0.00127104	-0.00163006	0.00294807	
-0.000386059	-7.34535e-05	-0.00168784	
-0.018474	0.0344571	-0.024415	
-0.011939	0.0247441	-0.0152545	
0.000609731	-0.00202174	-0.000861773	
0.000822534	-0.00346522	0.00195613	
0.000478003	-0.0034213	0.00202662	
0.000255176	-0.00294299	0.00157806	
-0.00166226	0.00719787	-0.00373438	
-3.05244e-05	-1.50694e-05	-1.44262e-05	
1.05586e-05	1.70846e-05	1.99715e-05	
-1.3751e-05	-1.76796e-05	8.61341e-06	
2.06326e-05	-6.09619e-05	-0.000103534	
-0.000405453	-0.00114781	-0.000800349	
0.0305426	-0.056694	0.0266333	
0.00222347	-0.00422639	0.00046247	
3.09842e-05	-0.00139164	-0.0014072	
-0.00607766	0.0157422	-0.00851867	
-0.000110308	-0.000361079	-0.000393292	
5.97127e-05	-0.00129965	-0.0014043	
9.43599e-05	-0.000194605	-0.000303029	
0.00708759	-0.00975998	0.00574334	
5.07859e-05	-0.00136433	-0.00133797	
-4.07103e-05	-0.000442858	-0.000520951	
-7.02655e-07	-6.34312e-06	-8.04055e-06	
4.50466e-05	-9.77458e-05	-0.000183806	
-0.00286204	0.00262055	0.00538084	
0.00215117	-0.00806568	-0.0225224	
-0.00408524	0.000281095	0.0366663	
0.00629766	0.000169202	-0.0108606	
0.00740748	0.00027936	-0.0131272	
0.0116509	-0.00018744	-0.0232399	
0.00255492	0.00153367	-0.00701552	
0.00695107	0.000135545	-0.0124889	
0.00636723	0.00130813	-0.0149419	
0.00774654	0.000165077	-0.0144284	
0.0136792	-0.00201887	0.0476198	
0.00293582	-0.00329007	0.00602646	
0.00273409	0.000652198	0.0303282	
0.00132028	0.00138366	0.00487979	
0.00512513	0.00110316	-0.011397	
0.00193235	0.00134568	-0.00584687	
0.00055215	0.000997997	-0.00131772	
-0.000132225	0.00140355	-0.000396045	
0.00754046	0.00122119	0.034658	
0.00572504	-0.00439089	0.0117805	
0.00375916	0.000585832	0.0355628	
-5.0916e-05	1.34308e-05	-1.42009e-05	
0.00500682	-0.00333386	0.0128864	
1.45286e-05	4.4138e-05	3.49551e-05	
-0.000856522	-6.39706e-05	0.0264677	
2.98248e-06	0.000151332	-2.85216e-05	
-0.000548683	0.00138034	0.00126189	
9.18195e-05	0.000510137	-7.40744e-05	
-0.00213679	0.000840584	0.0116664	
-9.51316e-05	0.00102266	-0.000301533	
-0.00111977	0.00018407	0.0141575	
0.00134839	0.00101024	-0.00499594	
0.000128525	9.48691e-05	-4.19137e-05	
-1.5532e-05	0.00110451	-0.000209705	
0.000127201	0.000784349	-9.46409e-05	
0.000118669	0.000311975	-8.07043e-05	
0.000115183	0.000615877	-6.93578e-05	
-0.00637024	-0.0121831	-0.00363405	
-0.0261153	-0.100043	-0.152787	
-0.00166397	-0.00343055	-0.000805629	
0.00333638	0.00518789	0.00251294	
-0.00110518	-0.00248693	-0.000633877	
0.00496619	0.0115373	0.0076762	
-0.01092	-0.0202981	-0.010346	
0.00523696	0.00890356	0.00419898	
-0.00207308	-0.00769349	-0.00477019	
0.00107828	0.00381094	0.00390399	
0.00164748	0.00470926	0.00388205	
-0.000972963	-0.00760811	-0.0119929	
0.00600459	0.00922905	0.00480926	
-0.00028137	-0.000722434	-3.51689e-05	
0.00637659	0.0115673	0.0069142	
0.00574329	0.00851307	0.00423654	
0.00045468	0.000799822	0.00169857	
-0.00385528	-0.0159241	-0.0105746	
-0.00174646	-0.00504154	-0.00333792	
-0.000626228	-0.00219006	-0.000112767	
0.000228138	1.6624e-05	-1.98931e-05	
0.000140423	-0.000187522	0.000360646	
0.000272459	-9.59864e-05	0.000134758	
8.51754e-06	-0.000171568	0.000678076	
-8.13357e-05	0.000217377	-0.000467482	
0.011716	0.020934	0.0132294	
0.0056439	0.00836758	0.00375512	
0.0106022	0.0161117	0.00779098	
0.0113606	0.0227778	0.0127593	
-4.08018e-05	-0.000117954	0.00056143	
1.34147e-06	0.000207516	-0.00082362	
-4.20848e-05	-0.000188902	0.000995882	
0.003409	0.0053409	0.00232943	
3.37171e-05	0.000247538	-0.000859567	
2.92829e-05	-0.000170656	0.000599101	
8.40168e-06	-0.000186997	0.00059269	
2.29218e-05	-0.000296117	0.00127224	
0.0228051	-0.018525	0.020344	
0.000718047	0.0146911	-0.0220522	
-0.00721281	0.0210081	-0.00973578	
0.00193269	-0.0026989	0.00135645	
-0.00565766	0.0190868	-0.00907106	
-0.00833283	0.0255894	-0.0113437	
-0.00659432	0.0130919	-0.00991538	
-0.00571237	0.00984742	-0.00719737	
0.00144699	-0.00694778	0.00398222	
0.000303526	-0.00436497	0.00263234	
-0.000616813	0.002454	-0.00126884	
0.00134234	-0.00179436	0.00279493	
-0.000310529	-4.90593e-05	-0.00135055	
-0.0185249	0.0352932	-0.0243821	
-0.0119492	0.0251369	-0.0152023	
0.000363504	-0.00124765	-0.000582224	
0.000817992	-0.00342827	0.00191763	
0.000467587	-0.0034199	0.0019995	
0.00023724	-0.00293944	0.0015596	
-0.00167158	0.00723173	-0.00377083	
-1.4437e-05	-1.01459e-06	-2.6315e-06	
3.69086e-06	6.09096e-06	7.15122e-06	
-5.97292e-06	-6.46808e-06	3.37298e-06	
9.67953e-06	-3.00849e-05	-5.01347e-05	
-5.51887e-05	-0.000156638	-0.000116569	
0.0308962	-0.0562903	0.026451	
0.0021931	-0.00407723	0.000538254	
0.000584996	-0.0016549	-0.000590998	
-0.00603401	0.0159176	-0.00847319	
-6.60903e-05	-0.000222369	-0.000244645	
5.07364e-05	-0.00112849	-0.00132551	
4.64705e-05	-9.87725e-05	-0.000151955	
0.00699534	-0.00909034	0.00589512	
1.51399e-05	-0.00037877	-0.000394055	
-2.62256e-05	-0.000311225	-0.000369979	
-1.419e-06	-1.30885e-05	-1.65899e-05	
2.1137e-05	-4.82383e-05	-8.87125e-05	
-0.00287872	0.00248622	0.00539456	
0.0023316	-0.00800035	-0.0220713	
-0.00396524	0.000310941	0.0369073	
0.00640854	5.70481e-05	-0.010989	
0.00762785	0.000266723	-0.0132866	
0.0116729	0.000211368	-0.0238274	
0.00239287	0.00121398	-0.00659781	
0.00705756	0.00060408	-0.01275	
0.00617371	0.0010542	-0.0146106	
0.0077899	0.000540576	-0.0147422	
0.0138177	-0.00181182	0.0476439	
0.00291141	-0.00328159	0.00635426	
0.00285873	0.000762358	0.0304648	
0.00105338	0.0009024	0.00552608	
0.00511244	0.00141146	-0.0117063	
0.00180845	0.00102331	-0.00556435	
0.000526531	0.000929866	-0.00119102	
-0.000159117	0.00174962	-0.00048145	
0.00774385	0.00133259	0.03475	
0.0055013	-0.00422148	0.0120232	
0.00377951	0.000745571	0.0358027	
-2.20791e-05	2.70956e-05	-2.24026e-05	
0.00486747	-0.00321197	0.0130909	
2.12019e-05	4.82367e-05	3.30946e-05	
-0.000864082	5.9347e-05	0.0266257	
8.54165e-07	4.6419e-05	-8.58518e-06	
-0.000559467	0.00114668	0.00145119	
8.33397e-05	0.000485248	-7.25347e-05	
-0.00211394	0.000788462	0.0117736	
-0.000118755	0.00131625	-0.000374716	
-0.00113003	0.000251461	0.0142131	
0.0013157	0.000935797	-0.00494705	
0.000152838	0.000121418	-4.85526e-05	
-1.23625e-05	0.000971576	-0.000180532	
0.000117095	0.000747352	-9.13552e-05	
0.000114477	0.000316239	-8.18094e-05	
0.000107448	0.00060781	-7.05901e-05	
-0.00612343	-0.0123246	-0.00290781	
-0.0285394	-0.104388	-0.154205	
-0.00172232	-0.00355711	-0.000417812	
0.00344323	0.00503172	0.0033527	
-0.00116904	-0.0025667	-3.05102e-05	
0.00504545	0.011425	0.00839726	
-0.0104787	-0.0210031	-0.0086781	
0.00547859	0.00849403	0.00620205	
-0.00219592	-0.00814831	-0.00454833	
0.000959703	0.003501	0.00375502	
0.00177183	0.00464957	0.00461688	
-0.00104656	-0.00749973	-0.0118408	
0.00605199	0.00888869	0.00684362	
-1.40551e-05	-0.000943564	0.00110265	
0.00631563	0.0113187	0.00796757	
0.00572321	0.0082275	0.00623575	
0.00049361	0.000662371	0.00195119	
-0.00401798	-0.0158238	-0.0102507	
-0.00171683	-0.00519137	-0.00321457	
-0.000706181	-0.00241455	8.46774e-05	
0.000302808	-7.51904e-05	9.67038e-05	
0.000225705	-0.000295852	0.00058148	
0.000343434	-0.000133195	0.000188404	
2.58562e-05	-0.000360433	0.00139089	
2.4488e-05	-6.49401e-05	0.000142206	
0.0117137	0.0207701	0.0139466	
0.00561049	0.00801109	0.00566972	
0.010697	0.0158555	0.0096637	
0.0115078	0.0226495	0.0140761	