<VTKFile type="UnstructuredGrid" version="0.1" byte_order="LittleEndian">
	<UnstructuredGrid>
		<Piece NumberOfPoints="13986" NumberOfCells="13986">
			<CellData Scalars="scalars">
				<DataArray type="Float64" Name="Strength" NumberOfComponents="3" Format="ascii">
-0.00875726	-0.0142412	0.0142297	
-0.0110547	-0.00588367	-0.0289869	
0.00235148	0.0735258	0.00184567	
0.00536732	-0.00721849	-0.00640806	
0.00646534	-5.53588e-05	-0.0110177	
0.0150111	0.0534843	-0.0349745	
0.00996005	0.0844456	-0.0373895	
0.000969229	0.0150074	-0.0197396	
0.0116216	0.0826741	-0.0387583	
0.00372437	0.0279857	-0.0282354	
0.00173268	0.021136	0.0407924	
0.00480344	-0.00307658	-0.00106645	
-0.00728606	0.0431837	0.00647605	
0.000134609	0.00241468	0.00118934	
0.0093708	0.0689488	-0.0407151	
0.00448704	0.0865432	-0.028433	
0.00160144	0.0968244	0.00771122	
-0.00043993	0.0556181	-0.0438651	
0.00322588	0.0188841	0.0255702	
0.00413111	-0.0106245	0.00914485	
-0.00959074	0.0376437	0.0133282	
0.00377239	-0.00126979	-0.000786913	
0.00333507	-0.00485103	0.0100816	
0.000798183	0.00196101	-0.001499	
-0.0056243	0.0512275	0.00168877	
-0.00101346	-0.0125253	0.00426445	
0.0019275	0.0876667	-0.0269681	
0.00057555	0.0378496	0.0222347	
0.00324369	0.0885376	0.00513704	
-0.00646449	0.0393979	-0.0323175	
-0.00515767	0.0527095	0.0162209	
2.90382e-08	0.0925419	-0.00563419	
0.000309251	0.000588118	3.57208e-05	
0.000287817	0.0880514	-0.0164425	
-0.0184518	0.0776145	0.0151195	
0.0142795	0.00204603	0.0170114	
-0.0121212	0.0542258	0.0275638	
-0.0134027	-0.00704811	-0.0244432	
-0.0840718	-0.116676	-0.031161	
0.0163367	0.015635	0.0476197	
0.000590834	0.0114768	-0.0141826	
0.0141151	-0.0138939	0.0525903	
-0.00186611	-0.0224366	0.0653939	
-0.0159176	-0.0163695	0.057151	
0.018742	-0.016385	0.0511919	
0.0109394	-0.0147884	0.0378553	
0.0126257	0.00090503	0.0161073	
0.00876454	-0.0113457	0.0569248	
-0.0180895	-0.03636	0.0122859	
0.0116492	-0.00405978	0.0486687	
0.00207712	-0.0101212	0.026842	
0.00991371	0.00987285	0.0541804	
0.00696936	0.00417539	0.0405289	
0.0181991	-0.0237511	0.0422178	
0.0144476	-0.0218141	0.0226081	
0.00536086	-0.0194563	0.00282798	
0.00714769	-0.0196464	0.0548796	
-0.0224441	0.0140068	-0.0374772	
0.000895509	-0.0224527	0.013706	
0.00180026	0.00190133	0.0198628	
0.00992335	-0.00847928	0.0589754	
-0.00679489	0.00739018	-0.0204536	
0.0228259	0.00385443	0.0387549	
0.00522565	0.0062633	0.0315076	
0.00955207	0.0138386	0.0160856	
0.0149068	-0.0224199	0.0745181	
-0.00296617	0.0110526	0.0399514	
-0.00238073	0.00117958	0.0192448	
0.00755341	0.00950499	0.0438203	
0.00394184	0.00843768	-0.0107847	
0.00100546	0.000565499	-0.00483762	
0.00115116	-0.00348197	0.0252859	
0.0134211	-0.0208248	0.0516545	
0.00710004	-0.00182687	0.0526273	
0.017773	-0.0585172	-0.00258657	
-0.00159108	0.00867396	-0.0363405	
-0.00932121	0.00130811	-0.0319452	
-0.00639235	-0.0426317	-0.0121833	
-0.010029	0.0146725	-0.00982129	
-0.0159974	0.0107267	-0.0223045	
0.00442598	-0.00556723	-0.0539946	
0.00641355	-0.0111393	-0.0579053	
0.00270698	-0.0096404	0.00138053	
0.00138248	-0.00718263	0.00180631	
0.000286754	0.000863359	-0.00351339	
-0.0016468	0.00487924	0.00598779	
0.00762827	-0.0238867	-0.0658667	
-0.0166938	-0.0145176	-0.0471048	
-0.0207787	-0.0402662	-0.027798	
0.00785388	-0.0404407	-0.0603811	
0.00102161	-0.00494904	0.00084165	
0.000528225	-0.00605878	-0.000661384	
0.000815403	-0.00532646	-0.00166496	
-0.00202525	0.00521573	-0.00468942	
0.00208669	-0.000931304	0.00333065	
-0.00192154	-0.00245774	-9.95159e-05	
0.00105115	0.000369173	-0.00264181	
0.00608168	0.000107558	-0.00924318	
-0.0156368	-0.0486567	-0.00139556	
0.0522661	-0.0534536	-0.0485771	
0.00946952	-0.0463013	-0.0551257	
0.000556934	-0.0534397	-0.0464981	
-0.0059417	-0.000658847	-0.0350088	
-0.00813684	-0.055916	-0.0211478	
0.00420172	-0.048004	-0.0504997	
0.00113044	0.00127471	-0.0428648	
0.0113597	-0.0490356	-0.0336201	
0.00361825	-0.0626861	-0.0494601	
0.00204911	-0.0116613	-0.0137054	
1.17167e-06	6.77617e-06	9.19075e-06	
0.00933932	0.00679839	-0.0195297	
-0.00165633	0.00350061	0.00649438	
0.0114525	-0.0186914	-0.020705	
-0.0221252	0.0014078	0.0261886	
0.00452055	-0.000828575	-0.0107419	
0.00713201	0.000841495	-0.0127722	
0.0205598	0.0146224	-0.00707098	
0.00453817	0.0135759	-0.00198026	
0.00754705	0.00369762	-0.0118128	
0.00994591	0.0178628	1.50741e-05	
0.0111105	0.00623459	-0.0116186	
0.0223013	0.0032571	0.0413114	
-0.00169475	-0.0034941	0.00341499	
-0.000381515	0.000809375	0.0282609	
-0.000739977	0.00183466	0.00119164	
0.00828666	0.0144522	-0.00366083	
0.003952	0.0131891	-0.000464154	
0.00286651	0.0104877	0.00371973	
-0.000394292	0.0073412	-0.0076934	
0.0141355	0.00536526	0.0298948	
0.00353938	-0.00775569	0.010161	
0.00433278	0.00470219	0.0323923	
-0.000251329	3.38424e-05	-8.84555e-05	
0.00444688	-0.00397989	0.0106999	
-0.000340584	-0.000236846	-6.7099e-05	
-0.0076475	-2.8254e-05	0.0233541	
1.68711e-06	0.000187198	-7.28998e-05	
-0.00149818	0.0108061	-0.00231526	
0.00494567	0.00250492	0.00108868	
-0.00880008	0.0065235	0.00699987	
-0.00137649	0.00537926	-0.00621934	
-0.00367578	0.00144251	0.0125026	
0.00402645	0.0107513	0.0028346	
-0.00120688	-0.000367398	0.000561227	
-0.000581419	0.010275	-0.000222037	
0.00414342	0.0052517	0.00572136	
0.00239849	-0.00124168	-0.000708914	
0.00463229	0.0040173	0.00381447	
-0.00202144	-0.0127313	-0.00502999	
0.0236575	-0.101784	-0.121817	
-0.0106359	-0.00250614	0.00252586	
0.000937768	0.0067837	0.00159606	
-0.00320918	-0.00424691	0.00404727	
0.0125311	0.00532464	0.0162783	
-0.0263579	-0.00953214	0.00523815	
0.0110856	0.0014567	0.00416399	
-3.23584e-06	-0.00824286	-0.000257943	
-0.00125995	0.000266626	0.00692857	
0.00119365	-0.000865803	0.00775234	
-0.00105289	-0.00456509	-0.0124535	
0.0105924	0.00196529	0.00629285	
-0.00124191	-0.00236985	0.00472175	
0.00911722	0.00399039	0.00984154	
0.00909849	0.00330467	0.00584434	
0.000582564	-0.00300962	0.00481089	
-0.00334517	-0.0157943	-0.00760547	
0.00143731	-0.00567524	-0.00116698	
1.68943e-05	-0.00250284	0.00654487	
-0.00209915	0.00125421	-0.00025173	
0.00199477	-0.00185038	0.00131242	
-1.54731e-05	0.00228454	0.000695987	
-0.000968459	-0.00249685	0.0057552	
-0.000464057	0.000478712	-0.00132669	
0.0224557	0.0116245	0.0153311	
0.00849039	0.00486458	0.00461731	
0.0123565	0.014997	0.00595479	
0.0276353	0.00767091	0.0181816	
-0.001616	0.00222119	0.00532089	
-0.000170008	0.00015424	0.000775661	
-0.00100346	0.00222726	0.0065449	
0.00217983	0.00617318	0.00129467	
0.000282414	3.06205e-05	-0.000922926	
7.67993e-05	-9.35356e-05	0.00618215	
0.000198114	-0.00301626	0.00532996	
-0.00122355	-0.00140255	0.00731594	
0.0300555	-0.015452	-0.00396971	
0.0103347	-0.00866154	-0.0222321	
-0.0133269	0.0188844	-0.00364542	
0.000561755	-0.00646166	-0.00169218	
-0.0053352	0.0208952	-0.00256981	
-0.0110669	0.0263743	-0.00100557	
-0.0106345	-0.000609437	-0.0144871	
-0.00792683	-0.00109437	-0.010919	
0.000900817	-0.00621444	0.00550526	
-0.000136145	-0.00343415	0.00368768	
-0.000796468	0.0026675	0.000161518	
-0.00175359	0.00238108	0.00222745	
0.000741984	-0.00143167	-0.00818833	
-0.034202	-0.00466525	-0.0246917	
-0.0224107	0.01756	-0.0102753	
0.00264444	-0.00420515	-0.00839181	
0.000935706	-0.00302497	0.00304124	
0.000594032	-0.00241947	0.00309089	
0.000294388	-0.00244447	0.00225608	
-0.00115352	0.00831547	-0.00172331	
-0.00106948	0.00105511	0.000274348	
0.00104785	0.000133339	0.00020058	
-0.000425919	-0.000152705	0.000688808	
-0.000331618	2.79647e-06	0.000336415	
-0.00156685	-0.00512869	0.000994243	
0.0532396	-0.0428642	-0.0242939	
0.00487077	-0.00549345	-0.00828516	
-0.00172023	-0.00744002	-0.00551429	
-0.0105859	0.0139333	-0.00591008	
-0.00136608	-0.00216242	-0.00145179	
0.000553218	-0.00700029	-0.00684778	
0.00112175	0.000239755	-0.00107928	
0.0129229	-0.00734099	-0.00736069	
0.000385245	-0.00593366	-0.00410686	
0.000422754	-0.00325974	-0.0027148	
0.000110743	0.00071067	0.00105694	
0.000130529	4.37618e-05	-0.000111149	
-0.00192491	0.00380767	0.00618475	
0.0127183	-0.0230224	-0.0108672	
-0.00156757	-0.00557135	0.0344089	
0.00566455	-0.00130495	-0.0102813	
0.00845886	-0.000554782	-0.0117577	
0.0195493	0.000867801	-0.0144113	
0.00298969	0.0022639	-0.00692473	
0.00882471	0.000586658	-0.0102634	
0.00956053	0.00219162	-0.0124294	
0.0114368	0.00069041	-0.010619	
0.0102767	0.0110846	0.0454116	
0.00141193	-0.00152698	0.00553255	
0.00169868	0.00087114	0.0290005	
-0.000196216	0.00302009	0.000505943	
0.0080502	0.00173201	-0.00893194	
0.00202605	0.0022623	-0.00623861	
0.000532865	0.00321788	-0.00258359	
-0.00081465	0.0017696	-0.00211526	
0.0086381	0.00824342	0.0320047	
0.00464517	-0.00719227	0.010396	
0.00338551	0.00374369	0.0336225	
0.000214256	1.47925e-05	8.64701e-05	
0.00519193	-0.00472979	0.0108786	
0.000131587	9.47983e-05	4.41838e-05	
-0.00161395	-0.00167503	0.0248171	
-4.1338e-06	6.74945e-05	-2.88585e-05	
-0.000705177	0.00297471	0.000390827	
0.0015513	0.000791139	-8.92068e-05	
-0.000429493	0.000527515	0.0109621	
-0.000656398	0.00122556	-0.00171045	
-0.000291739	-0.00101004	0.0126696	
0.000550852	0.00325117	-0.00540987	
-0.000365968	-0.000441195	5.10926e-05	
-0.000163944	0.00280055	-0.000485057	
0.00152568	0.00194919	0.000146275	
0.00113922	-0.000408876	-0.000276259	
0.00163332	0.00137944	0.000105903	
-0.0022669	-0.0132052	-0.00378426	
-0.0234672	-0.0922331	-0.137959	
-0.00382061	-0.00776305	-3.64221e-05	
0.00162247	0.00627288	0.00264272	
-0.00175709	-0.00278415	0.000599546	
0.00737184	0.0144697	0.00790625	
-0.0144956	-0.0234139	-0.00310332	
0.00648938	0.00832139	0.00262986	
-0.00221289	-0.00658224	-0.00422957	
0.00228849	0.000370059	0.0058228	
0.0013812	0.00307999	0.00365726	
-0.00361879	-0.00971133	-0.0101994	
0.00721523	0.0082519	0.0040971	
-0.000651875	-0.00213335	0.00114106	
0.00387964	0.011302	0.00472579	
0.00702448	0.00739435	0.00350328	
0.000290651	-0.000710223	0.00159874	
-0.00542268	-0.0151307	-0.0099194	
-0.00107495	-0.00462492	-0.00370914	
-0.000119516	-0.00042552	0.00203686	
-0.000397495	0.0005032	-0.000179289	
0.000509353	-0.000561737	0.000458683	
-0.000630547	0.00032208	0.000195842	
-0.000255692	-0.000109879	0.00187679	
-0.000143077	0.000150868	-0.000398221	
0.011473	0.023215	0.0100901	
0.00706333	0.00735128	0.00270957	
0.0117559	0.0160641	0.00500551	
0.00931758	0.029182	0.00765609	
-0.000927564	0.000420061	0.00167169	
4.95092e-05	-4.93359e-05	-0.000167823	
-0.000919453	0.000584966	0.00205257	
0.00244403	0.00589687	0.00221554	
0.000195017	-1.96216e-05	-0.000526599	
-9.4764e-05	-2.78696e-05	0.00208925	
8.03269e-05	-0.00049671	0.00164618	
-0.000475765	0.00011424	0.00241822	
0.0316972	-0.0129425	-0.0016987	
0.0112977	-0.00737419	-0.0250314	
-0.00604961	0.0227959	-0.000848578	
0.00149557	-0.00281818	-0.00021386	
-0.0059707	0.0204644	-0.0032163	
-0.0076849	0.027667	0.000201655	
-0.00815705	0.00975856	-0.0117817	
-0.00710353	0.00782112	-0.00739851	
0.00191578	-0.00764263	0.00374681	
0.000513013	-0.00480079	0.00254476	
-0.000488004	0.00240298	-0.000893798	
5.54897e-05	0.00205051	0.00351785	
3.0725e-05	0.000140514	-0.00250402	
-0.0268127	0.0215161	-0.0273306	
-0.00858122	0.0256828	-0.0145399	
0.00152345	-0.00232901	-0.001857	
0.000923667	-0.00403757	0.00163065	
0.000764326	-0.00376765	0.00190058	
0.00013462	-0.00350034	0.000783156	
-0.00187567	0.00737275	-0.00264035	
-3.17847e-05	0.000408677	-5.00324e-05	
-0.000255595	-0.000110954	-3.07721e-05	
-0.000181041	-2.77699e-06	-0.000116695	
0.000264622	-2.34511e-08	-0.000261949	
-0.000636942	-0.00145455	0.000561697	
0.0337144	-0.0592823	0.0226341	
0.00390328	-0.00385445	-0.00107268	
-0.0013367	-0.00200384	-0.002103	
-0.00431957	0.0177914	-0.00358192	
-0.000542297	-0.000590923	-0.000396388	
0.000117888	-0.002351	-0.00206032	
0.000547568	-8.03897e-05	-0.000378241	
0.01272	-0.00598078	0.000359064	
5.3627e-05	-0.00196064	-0.00114085	
-6.16978e-05	-0.000888911	-0.000691918	
-3.89412e-05	-0.000211315	-0.000326257	
0.000366332	5.84466e-05	-0.000286408	
-0.00227931	0.00408064	0.00568378	
0.0154436	-0.0210624	-0.0070226	
-0.00649874	0.000307795	0.0350469	
0.00613598	-0.00113071	-0.0102378	
0.00835213	-0.00105507	-0.0122109	
0.0127691	-0.00563643	-0.0210418	
0.000969906	0.000948327	-0.00830432	
0.00797171	-0.000969181	-0.0114087	
0.00424907	-0.00184512	-0.0156566	
0.00933679	-0.00195421	-0.0129412	
0.0139961	0.00971458	0.0457146	
0.00184981	-0.00169357	0.00607501	
0.00102456	0.00143969	0.0294755	
-0.00101694	0.00252175	0.00323766	
0.00347359	-0.00132955	-0.0120743	
0.0012017	0.00178012	-0.00703847	
0.00101023	0.00345896	-0.00256506	
-0.00132115	0.0018425	-0.00209752	
0.00928513	0.00875881	0.0323421	
0.00378244	-0.00552091	0.0119274	
0.00314612	0.00431206	0.0341032	
-1.86291e-05	-5.71926e-05	-0.000156538	
0.0049958	-0.00486246	0.0115184	
-0.000116995	1.7827e-05	0.000127867	
-0.00234167	-0.00104999	0.0254586	
-2.39844e-05	0.000246806	-0.000114937	
-0.000917848	0.00355519	-0.000368241	
0.00145177	0.000904775	-9.49278e-05	
-0.0028455	0.00296891	0.0106409	
-0.000955654	0.00117114	-0.00158198	
-0.00141101	-6.27954e-05	0.013162	
0.00180079	0.0033006	-0.00566848	
-0.000371399	-0.000426013	0.000115909	
-0.000194073	0.00334245	-0.00114389	
0.00173876	0.00228276	0.00011532	
0.00121507	-0.000343464	-0.000295801	
0.00175995	0.00154941	0.000167682	
-0.00345836	-0.013324	-0.00303842	
-0.0170137	-0.0336163	-0.169793	
-0.0041384	-0.00583827	-4.65579e-05	
0.00236184	0.00589238	0.00265705	
-0.00175423	-0.00265287	0.000631932	
0.00709063	0.013544	0.0079288	
-0.00993635	-0.0248409	-0.00400536	
0.00487233	0.00962224	0.00326164	
-0.00260448	-0.00677268	-0.00432827	
0.00500046	0.00195056	0.00434446	
0.00181007	0.00343903	0.0041286	
-0.00629796	-0.00664507	-0.0110756	
0.00513268	0.0100746	0.00429513	
-0.000256239	-0.00186241	0.000917949	
0.00573646	0.0112425	0.00505296	
0.00514279	0.00930508	0.00331209	
0.000575255	-0.000466055	0.00188919	
-0.0055764	-0.0157153	-0.00956481	
-0.00107725	-0.00512727	-0.00314441	
-0.000437245	-0.00114695	0.0016523	
-0.000615873	0.00016579	-0.000294738	
0.000749533	-0.000454517	0.000381798	
0.000378651	0.000276268	-0.00058763	
-0.000236883	-0.00017719	0.00187154	
-0.000107291	0.000118935	-0.000291123	
0.0125566	0.0220318	0.0114916	
0.00558329	0.00896268	0.00234015	
0.0108884	0.0171867	0.00450791	
0.0140542	0.0261459	0.00869465	
-0.000730282	0.000331488	0.00149514	
4.00369e-05	-3.50095e-05	-0.000115549	
-0.000742888	0.000554317	0.00184261	
0.00289009	0.00572709	0.00226448	
0.000203256	-3.8012e-05	-0.000504757	
-8.9816e-05	-0.000109095	0.00166122	
9.52322e-05	-0.00059206	0.00170382	
-0.000387399	6.31058e-05	0.00231666	
0.0320204	-0.0137193	0.00482571	
0.0121097	-0.00512923	-0.0239165	
-0.00772655	0.0227725	-0.00145163	
0.00127743	-0.00288845	0.000877031	
-0.00589487	0.0208981	-0.00307141	
-0.00871327	0.0278447	2.39493e-05	
-0.00489601	0.0131146	-0.0105582	
-0.00449132	0.0103406	-0.00681141	
0.00154271	-0.00716283	0.00422075	
0.000416708	-0.00444287	0.00276203	
-0.000604524	0.00258222	-0.000613285	
-0.00158031	0.000373956	0.00338907	
0.000295264	0.000129427	-0.00252553	
-0.0168017	0.0305972	-0.0286082	
-0.0129271	0.0238354	-0.0155951	
0.00071514	-0.00251545	-0.00171691	
0.000871612	-0.00365845	0.00198493	
0.000695116	-0.0033776	0.00221072	
0.000239682	-0.00314702	0.00132802	
-0.00172394	0.00774778	-0.00244513	
0.000104068	0.000118079	4.56139e-05	
0.000106016	3.56857e-05	1.50179e-05	
-2.99827e-06	-8.12455e-05	3.86086e-05	
9.98063e-05	-9.20153e-07	-0.000104342	
-0.000856939	-0.00117491	0.000664011	
0.0307493	-0.0617522	0.0200555	
0.00242766	-0.00499443	-0.000126921	
-0.000543228	-0.00200047	-0.00196425	
-0.00613016	0.0173535	-0.00462015	
-0.000564124	-0.000787574	-0.000437441	
-1.36795e-05	-0.00237489	-0.00194763	
0.000580893	-5.13883e-05	-0.000442055	
0.0100844	-0.00795254	0.00517668	
-0.000133547	-0.00194104	-0.00097395	
-0.000120792	-0.000833804	-0.000776221	
7.5241e-06	4.17243e-05	6.44718e-05	
0.000251767	4.64969e-05	-0.000208314	
-0.00278685	0.00391729	0.00545384	
0.0201552	-0.0156724	0.00272353	
-0.00768357	-3.32917e-06	0.0356122	
0.00649732	-0.00107689	-0.0105405	
0.00796501	-0.00138135	-0.0129741	
0.0106981	-0.00673799	-0.0227675	
0.00238371	0.00129782	-0.00787447	
0.00702987	-0.00194909	-0.0125397	
0.00664181	-0.000828427	-0.0150117	
0.00772295	-0.00325461	-0.0144275	
0.0138359	0.0111937	0.0464086	
0.0033948	-0.00435626	0.0045469	
0.00150497	0.0029018	0.0298194	
-0.00329357	0.00342641	-0.000994438	
0.00474303	-0.00118507	-0.0117463	
0.00220296	0.00181595	-0.00660468	
0.00122495	0.00342922	-0.00277658	
-0.00141269	0.00197248	-0.00219644	
0.00938303	0.00990021	0.0327237	
0.00513311	-0.00558257	0.0116233	
0.00333656	0.00538955	0.0348722	
0.000123907	0.000103228	-6.39193e-05	
0.00442907	-0.00493177	0.012301	
7.97556e-05	0.000125687	1.58471e-05	
-0.00263099	-0.00038632	0.0261673	
-1.55798e-05	0.000119923	-5.99516e-05	
-0.000922185	0.00321577	-0.000121796	
0.00156237	0.000976792	-0.000127015	
-0.00309102	0.0027382	0.0109229	
-0.00125042	0.00138539	-0.00186403	
-0.00150877	0.000304611	0.0137232	
0.0019472	0.00323501	-0.00559094	
-0.000341471	-0.000382362	9.9967e-05	
-0.000173358	0.00308055	-0.000938801	
0.00187054	0.00244962	0.000220167	
0.00117714	-0.000369599	-0.000231768	
0.00188361	0.00170322	0.000239499	
-0.00465505	-0.0132498	-0.00243198	
-0.00691998	-0.0875895	-0.157562	
-0.00343254	-0.00502499	2.96193e-05	
0.00295424	0.00558688	0.00272592	
-0.00163536	-0.00258135	0.00043722	
0.00672934	0.0133314	0.00756603	
-0.0121249	-0.0232447	-0.00420893	
0.00571649	0.00931868	0.00320171	
-0.00263553	-0.00699877	-0.00473906	
0.000963281	0.00105846	0.00558854	
0.00185164	0.00376141	0.00411727	
-0.00593205	-0.00414931	-0.0119394	
0.00594044	0.00976984	0.00441116	
-0.000315362	-0.00146219	0.000692687	
0.00635864	0.0117825	0.00508241	
0.00529	0.00939903	0.00342583	
0.000583149	-0.000313968	0.00171916	
-0.00579037	-0.0153223	-0.00994227	
-0.00485394	-0.00274356	-0.00257617	
-0.000484193	-0.00123564	0.0012336	
0.000436886	8.01352e-05	-9.15732e-05	
0.000571726	-0.000561348	0.000364813	
3.10698e-05	0.000563988	-0.000231163	
-0.000210068	-0.000167482	0.00169212	
-9.19471e-05	0.000106166	-0.000244969	
0.0127299	0.0220706	0.011491	
0.00532156	0.00930959	0.00240534	
0.0103716	0.0177991	0.00451151	
0.0136537	0.0258715	0.00829835	
-0.000605031	0.000303155	0.00124445	
1.91632e-06	-3.38577e-06	-8.08799e-06	
-0.000654923	0.000486001	0.00159272	
0.00312125	0.00560422	0.00247966	
0.00011118	-2.37982e-05	-0.000273234	
-9.83383e-05	-0.000134115	0.00134059	
6.74679e-05	-0.000582466	0.00159507	
-0.000316832	5.98836e-05	0.00193323	
0.030759	-0.0142649	0.0114551	
0.0123061	-0.00480914	-0.0239751	
-0.00797613	0.0230027	-0.00125795	
0.00113164	-0.00281922	0.00167337	
-0.00599411	0.020996	-0.00325202	
-0.00866451	0.0281104	-0.000331128	
-0.00570985	0.0130608	-0.0105623	
-0.00532925	0.0101469	-0.00677085	
0.00164603	-0.00723123	0.0040089	
0.000433706	-0.00453021	0.00264435	
-0.000599154	0.00262145	-0.000689287	
-0.00149466	-3.71147e-05	0.00349119	
0.00011827	0.000265008	-0.0022454	
-0.0195678	0.0308557	-0.0283363	
-0.0133326	0.0244871	-0.0151525	
0.000590759	-0.00222693	-0.00160952	
0.000863902	-0.00369128	0.0018342	
0.000736994	-0.00347931	0.00206931	
0.00016918	-0.00322967	0.00117381	
-0.00177941	0.00774399	-0.00250537	
-3.13927e-06	-1.08166e-05	4.1936e-06	
-1.08879e-05	-3.92761e-06	-1.58086e-06	
-5.23315e-06	4.13065e-06	-2.32839e-06	
0.000106283	-6.58447e-08	-0.000109606	
-0.00080857	-0.000707217	0.000504365	
0.0344081	-0.060082	0.0171018	
0.00212395	-0.00483886	0.000267405	
-0.000186245	-0.0019352	-0.00144012	
-0.00639428	0.017532	-0.00439086	
-0.000383854	-0.000533006	-0.00032166	
-5.74845e-05	-0.00195779	-0.00161357	
0.000382133	-3.62806e-05	-0.000298217	
0.00795711	-0.00836469	0.0073584	
-0.000190313	-0.00172732	-0.00084369	
-0.000125299	-0.000741752	-0.000755148	
-5.20013e-06	-2.93429e-05	-4.55644e-05	
0.000195503	3.47113e-05	-0.000166038	
-0.00274106	0.00417065	0.00479988	
0.0186342	-0.0126688	0.0109295	
-0.00649356	-0.0019328	0.0365671	
0.00639049	-0.000835886	-0.0109952	
0.00756715	-0.00188245	-0.0135091	
0.0124765	-0.00646334	-0.0222388	
0.0026731	0.000843622	-0.00798445	
0.00650982	-0.00224987	-0.0128947	
0.00690583	-0.00115131	-0.0149051	
0.00751306	-0.00373069	-0.0144561	
0.0145679	0.0119977	0.0464662	
0.0033344	-0.00347308	0.00567128	
0.00254405	0.00220113	0.0304757	
-0.00299412	0.00372204	-0.00191138	
0.00520339	-0.00110926	-0.0116242	
0.00236999	0.00142759	-0.00685327	
0.000764743	0.00266787	-0.00163134	
-0.000969806	0.00138428	-0.0015165	
0.00965576	0.0103078	0.0329761	
0.005223	-0.00430527	0.0122491	
0.00403273	0.00510158	0.0355017	
-5.39111e-05	3.47398e-05	4.51824e-05	
0.00563467	-0.00518798	0.012073	
7.93442e-06	6.54211e-05	1.21548e-05	
-0.00189759	-0.00117328	0.0267325	
-8.01261e-05	0.000552039	-0.000287688	
-0.000918828	0.00317427	6.20281e-05	
0.00081571	0.000495461	-0.000107347	
-0.00281813	0.00137502	0.0115606	
-0.000851522	0.000932911	-0.0012416	
-0.00152886	-0.000524681	0.0141853	
0.00176092	0.00283626	-0.00538787	
-0.000134156	-0.000193359	2.95771e-05	
-0.000147216	0.00291941	-0.00087226	
0.00110239	0.00141145	8.77302e-05	
0.000508754	-0.000160368	-0.000120392	
0.00104536	0.00091744	8.11792e-05	
-0.00530156	-0.0130767	-0.00173386	
0.00706621	-0.046234	-0.178063	
-0.00315593	-0.00491436	-0.000137059	
0.00333175	0.00541961	0.00308474	
-0.0015725	-0.00268552	4.9902e-05	
0.0064548	0.0133577	0.00727343	
-0.0116953	-0.0233425	-0.00383187	
0.00582146	0.00936175	0.00382032	
-0.00261441	-0.00725299	-0.00507751	
0.0024441	-0.00265186	0.00397345	
0.00171563	0.00378284	0.00376807	
-0.00840741	-0.00223012	-0.0110607	
0.00582058	0.00977878	0.00525227	
-0.000159728	-0.00129134	0.000876127	
0.00629805	0.0122462	0.00494936	
0.00530032	0.00932972	0.00438261	
0.000356495	-0.000318056	0.00113064	
-0.00489238	-0.0155327	-0.0101798	
-0.00225704	-0.00423149	-0.00394801	
-0.000377666	-0.00101603	0.000831181	
0.000247592	0.000146932	-0.000110598	
0.000499462	-0.000351617	6.58666e-05	
0.00027723	-0.000263621	-4.90822e-05	
-0.000163716	-0.000147161	0.00144095	
6.10041e-06	-6.92965e-06	1.63979e-05	
0.0126072	0.0225305	0.0112391	
0.00537248	0.00941672	0.00353521	
0.0101802	0.0182761	0.00538931	
0.0130283	0.0263134	0.00806217	
-0.000624308	0.000329035	0.00126607	
-0.00027153	0.000201368	0.00076345	
-0.000575647	0.000431831	0.00136908	
0.00315471	0.00564502	0.00295547	
-0.000159365	3.30236e-05	0.000387896	
-0.000113254	-0.000114806	0.00135848	
6.45382e-05	-0.000462136	0.00126416	
-0.000262032	5.68112e-05	0.00155654	
0.0283556	-0.015857	0.0170154	
0.0119955	-0.00430876	-0.0238725	
-0.00792855	0.0232756	-0.00112749	
0.00087465	-0.00289725	0.00196913	
-0.00599557	0.0211688	-0.00329225	
-0.00880077	0.0282907	-0.000575946	
-0.00627991	0.0133995	-0.010154	
-0.00586214	0.0103841	-0.00628503	
0.00160812	-0.00711906	0.00400988	
0.000274909	-0.00446837	0.00266136	
-0.000610556	0.00269055	-0.000670006	
-0.00210967	0.000788616	0.00297333	
-0.000124828	0.00052648	-0.00168596	
-0.0205931	0.0328177	-0.0267637	
-0.0131666	0.0251648	-0.0148288	
0.000657202	-0.00185308	-0.00125547	
0.000854724	-0.00359948	0.00183622	
0.000723513	-0.00341718	0.00208685	
0.000199661	-0.00316652	0.00122742	
-0.00177409	0.00783979	-0.00250205	
3.27799e-05	2.71897e-05	1.51204e-05	
2.68441e-05	9.62579e-06	4.22459e-06	
-2.42374e-06	-2.3254e-05	7.79803e-06	
8.64237e-05	-6.28933e-07	-8.91857e-05	
-0.00112648	-0.000766383	0.000613866	
0.0344326	-0.0599175	0.0167117	
0.00244065	-0.00424684	0.000346913	
-9.99698e-05	-0.00164491	-0.00117901	
-0.006304	0.0176923	-0.00428213	
-0.000292365	-0.000398544	-0.000254586	
-3.32808e-05	-0.00146641	-0.00129829	
0.0002974	-3.08706e-05	-0.000233813	
0.00713533	-0.00850479	0.00801404	
-0.000240398	-0.00172971	-0.000885432	
-9.63202e-05	-0.000472435	-0.000506251	
-9.90256e-07	-5.66936e-06	-8.7024e-06	
0.000163503	2.87317e-05	-0.000139768	
-0.0030019	0.00382728	0.00476517	
0.0176155	-0.0161411	0.00511568	
-0.0053265	-0.00308108	0.0370703	
0.00682302	-0.00135513	-0.0108224	
0.00771827	-0.00219308	-0.0131879	
0.0127552	-0.00684585	-0.022279	
0.00259646	8.83166e-05	-0.00732876	
0.00724651	-0.0026219	-0.0124343	
0.00704083	-0.00185711	-0.014949	
0.00815362	-0.00383992	-0.0141198	
0.0148024	0.012065	0.0466679	
0.0023626	-0.00416367	0.00588684	
0.00279899	0.00204272	0.030799	
-0.00334147	0.00408842	-0.00100785	
0.0054705	-0.00181691	-0.0114373	
0.0021387	0.000290501	-0.00605594	
0.000682926	0.00102828	-0.00127637	
-0.000648668	0.000914294	-0.000993084	
0.0103693	0.0104995	0.0329407	
0.00550128	-0.00465145	0.0120524	
0.00423521	0.00520914	0.0357637	
2.92486e-05	-2.81545e-06	6.70736e-05	
0.00540225	-0.00616224	0.011908	
-8.10033e-06	5.29003e-05	2.52933e-05	
-0.0014094	-0.00138699	0.026886	
-2.28237e-05	0.000138286	-7.23902e-05	
-0.000755178	0.00153403	0.00101597	
0.000453016	0.000272093	-7.11736e-05	
-0.00242089	0.000231419	0.0118652	
-0.000533605	0.000582496	-0.000758494	
-0.00143547	-0.000937364	0.0143595	
0.00165487	0.00098796	-0.00501509	
-0.00010173	-0.000132373	1.63607e-05	
-4.94752e-05	0.00109805	-0.000328907	
0.000502382	0.000642504	1.81742e-05	
0.000324541	-0.000101566	-8.03601e-05	
0.00048393	0.000421892	2.22081e-05	
-0.00631416	-0.0130106	-0.00182327	
0.00503369	-0.0613545	-0.176743	
-0.00209867	-0.00337249	-0.000127418	
0.0035167	0.00541094	0.00221994	
-0.00130053	-0.00248688	-0.000467722	
0.00565674	0.0124419	0.00614713	
-0.0116794	-0.0224359	-0.00511877	
0.00559449	0.00966074	0.00230758	
-0.0025213	-0.00721325	-0.00553592	
0.000454403	-0.00257541	0.00500312	
0.00191148	0.00486634	0.00373717	
0.000282771	-0.00212915	-0.014296	
0.00631337	0.00986582	0.00373083	
-0.000260678	-0.000738767	0.000117376	
0.00696687	0.0128524	0.00413938	
0.00611261	0.00912754	0.00295318	
0.000726239	0.000622483	0.00171076	
-0.00561388	-0.0152752	-0.0112849	
-0.00222988	-0.00418577	-0.00428156	
-0.000806127	-0.00217602	-5.66625e-05	
0.00017991	0.000128271	-7.69952e-05	
0.000282175	-0.000301337	0.000140334	
0.000148939	-0.000243762	0.000154005	
-7.60606e-05	-7.55929e-05	0.000702197	
-0.000177439	0.00020744	-0.000459016	
0.0127167	0.0225343	0.0105249	
0.00609101	0.00898183	0.00198789	
0.0108368	0.0178853	0.00413747	
0.0124674	0.0253262	0.00676468	
-0.000252824	0.000132096	0.000510869	
0.000278701	-0.000203321	-0.000798025	
-0.000389115	0.000285997	0.000911948	
0.00354478	0.00563105	0.0018938	
0.000336053	-7.71034e-05	-0.000848894	
-5.82043e-05	-4.87745e-05	0.000630392	
2.34524e-05	-0.000219645	0.000590559	
-0.000215173	3.94613e-05	0.00130971	
0.0267514	-0.0161765	0.0191585	
0.0117828	-0.00422021	-0.0238503	
-0.0079285	0.023385	-0.00107325	
0.00171627	-0.00239792	0.00219549	
-0.00595475	0.0212047	-0.00330034	
-0.00865953	0.0284516	-0.000695395	
-0.00647907	0.0136976	-0.00986336	
-0.00620159	0.0107377	-0.00597628	
0.00163324	-0.00708423	0.00394461	
0.00024596	-0.00448228	0.0025983	
-0.00062268	0.0027299	-0.000673902	
-0.00220097	0.00106711	0.00279243	
-8.82878e-05	0.000447581	-0.00134142	
-0.0206142	0.0341131	-0.0262781	
-0.0131289	0.0256445	-0.0146853	
0.00038571	-0.0011307	-0.000833139	
0.000857067	-0.00356099	0.00179658	
0.000684779	-0.00342584	0.00205497	
0.000194623	-0.00315887	0.00121237	
-0.00178528	0.00788264	-0.00253086	
1.3844e-05	1.086e-05	4.44905e-06	
9.5547e-06	3.46757e-06	1.52208e-06	
-2.157e-06	-9.13342e-06	2.38108e-06	
4.1655e-05	-1.13646e-06	-4.37268e-05	
-0.000165106	-9.86348e-05	7.9915e-05	
0.0344598	-0.0597522	0.0162419	
0.00238499	-0.00411047	0.000415895	
0.000548338	-0.00178286	-0.000344518	
-0.00631879	0.0178285	-0.00422274	
-0.00017938	-0.00024535	-0.000160925	
-3.56356e-05	-0.0013038	-0.00121461	
0.000149139	-1.74508e-05	-0.000117701	
0.00727875	-0.00768356	0.00792128	
-6.46681e-05	-0.000491332	-0.000260913	
-6.76039e-05	-0.000329265	-0.000362303	
-1.99407e-06	-1.16644e-05	-1.80009e-05	
7.88405e-05	1.27277e-05	-6.83677e-05	
-0.00310983	0.00367092	0.00477081	
0.0137371	-0.0180023	0.00788055	
-0.00520666	-0.00304465	0.0373258	
0.00691937	-0.00158732	-0.0109334	
0.00792541	-0.00226312	-0.0133518	
0.0124548	-0.00698459	-0.0230559	
0.00240274	-0.000221283	-0.00685314	
0.00712191	-0.00246006	-0.0128863	
0.00667537	-0.00224815	-0.0146112	
0.00801371	-0.00372685	-0.0145956	
0.0144871	0.0123893	0.0467425	
0.00183228	-0.00420942	0.00636445	
0.0029441	0.00227635	0.0309263	
-0.00370042	0.00341066	-0.00290814	
0.00524045	-0.00189095	-0.0118783	
0.00193723	-2.49789e-05	-0.00574017	
0.000641791	0.000954072	-0.00115608	
-0.000817141	0.00113278	-0.00123315	
0.0111616	0.0105115	0.032834	
0.00549909	-0.00498092	0.0119997	
0.00433917	0.00571545	0.0359269	
1.68116e-06	2.9517e-05	3.88743e-05	
0.00502601	-0.00653242	0.0120102	
-1.74709e-05	6.05599e-05	6.37333e-06	
-0.001323	-0.00109624	0.0270619	
-7.79093e-06	4.20281e-05	-2.23311e-05	
-0.000722478	0.00133917	0.00125361	
0.000428973	0.000260264	-7.15653e-05	
-0.00237065	0.000169325	0.0119814	
-0.000692187	0.000744138	-0.000971509	
-0.00143632	-0.000800841	0.0144263	
0.0015664	0.000905265	-0.00498538	
-0.000130629	-0.000155953	1.91284e-05	
-3.91971e-05	0.000967691	-0.000281824	
0.000477364	0.000612836	1.44214e-05	
0.000328447	-9.87087e-05	-8.04389e-05	
0.000473539	0.000419927	1.86911e-05	
-0.00601613	-0.0130504	-0.00117625	
0.0119265	-0.0221065	-0.189545	
-0.00229812	-0.00333154	0.00023313	
0.00355975	0.00537346	0.0030456	
-0.00145918	-0.00247074	0.000152861	
0.00583751	0.0123705	0.00690764	
-0.010708	-0.022958	-0.00342509	
0.0057468	0.00972311	0.00440127	
-0.00276148	-0.00767074	-0.00533453	
-0.00104808	4.79732e-05	0.00520179	
0.00217674	0.00477237	0.00448208	
-0.000826599	-0.00213406	-0.0140786	
0.00575454	0.0102182	0.00570093	
0.000194275	-0.000781957	0.00124084	
0.00656306	0.0130914	0.00509246	
0.00537386	0.00973931	0.00473089	
0.000855563	0.000404332	0.00192957	
-0.00468822	-0.0154947	-0.0110145	
-0.00112038	-0.00360498	-0.00522315	
-0.000960153	-0.00237071	0.000155848	
0.000321103	-8.88756e-05	2.07745e-05	
0.000574102	-0.000349842	0.000196143	
0.000372518	0.000127117	-0.000150444	
-0.00014949	-0.000162852	0.00144266	
5.33978e-05	-6.18194e-05	0.000139795	
0.0124415	0.0226804	0.0111479	
0.00537752	0.00955559	0.00373153	
0.0103335	0.018455	0.00592794	