<VTKFile type="UnstructuredGrid" version="0.1" byte_order="LittleEndian">
	<UnstructuredGrid>
		<Piece NumberOfPoints="3330" NumberOfCells="3330">
			<CellData Scalars="scalars">
				<DataArray type="Float64" Name="Strength" NumberOfComponents="3" Format="ascii">
-0.00667259	-0.0159394	0.0126622	
0.0007975	-0.0141273	-0.0270942	
-0.0107313	0.0705628	0.0108964	
0.00440543	-0.00646913	-0.00738893	
0.0058913	0.000967808	-0.0109522	
0.0158404	0.0558624	-0.0274149	
0.012209	0.0871552	-0.0229193	
0.00505633	0.0192396	-0.0138559	
0.015786	0.0842715	-0.0277671	
0.00753144	0.0336569	-0.0182577	
0.00573141	0.00446733	0.0446274	
0.00279963	-0.00425354	0.00254232	
-0.00996921	0.0395131	0.0151933	
0.00119588	-0.00118833	-0.00195868	
0.0114661	0.0744145	-0.0236329	
0.0151292	0.0857463	-0.0198179	
0.013886	0.09213	-0.0196932	
0.00357867	0.0674591	-0.0154565	
0.00102128	0.012052	0.0290043	
0.00745562	-0.00729279	0.00989303	
-0.00735306	0.0325122	0.0227696	
-0.0016583	-0.000189539	0.00157523	
0.00401517	-0.00473998	0.00965631	
-0.00143211	0.00194617	-0.000768301	
-0.011949	0.0483839	0.00883902	
-0.000644622	-0.0126963	0.00240425	
0.0112254	0.0876091	-0.0164663	
0.0077197	0.0423746	-0.00157837	
0.00386069	0.0867337	-0.00595783	
0.00165191	0.0489695	-0.0108821	
0.00020299	0.0543227	0.00205263	
0.0147201	0.0879269	-0.0175577	
-0.000461527	-0.000447584	0.000122322	
0.0120714	0.0858162	-0.0137887	
0.0181071	0.0775232	-0.00245448	
0.0082714	0.0202622	-0.00117313	
0.0139966	0.0592082	-0.00144029	
-0.0100878	-0.00539145	-0.0256356	
0.00730757	-0.130902	0.036601	
-0.00520902	-0.0155921	0.0491299	
0.00187012	0.0114949	-0.0134992	
0.00528756	-0.00876427	0.0543496	
0.0276122	-0.00295249	0.0620634	
-0.00781729	-0.0387684	0.0455085	
0.0158731	-0.0112408	0.0522503	
0.00970135	-0.0162146	0.0369056	
0.0131483	-0.0016223	0.0152215	
0.0122626	-0.0129551	0.0549782	
0.0146472	0.0180258	-0.00468855	
0.0114684	-0.00791388	0.0471377	
0.00341694	-0.0119198	0.0253345	
0.00996575	-0.00444504	0.0539165	
0.00832836	-0.00467565	0.0393074	
0.0134927	-0.0162806	0.0463599	
-0.000780669	-0.017115	0.0294419	
0.0052623	-0.00786775	0.0174186	
0.0136285	-0.0116855	0.0549873	
0.0258713	-0.00468391	-0.00398504	
0.0132335	-0.0167726	0.0144398	
0.00704025	-0.00265599	0.0182129	
0.0107268	-0.0141905	0.0567028	
-0.00251112	0.00821213	-0.0205406	
0.0191078	0.0111908	0.0383863	
0.00733956	-0.00172984	0.0309312	
0.0100071	0.0106819	0.0173721	
0.0376991	0.00350073	0.0680268	
0.00274727	-0.00926206	0.0396785	
0.00111586	-0.0055076	0.0181424	
0.00567324	-0.00940843	0.0433367	
0.0026468	0.00917074	-0.010117	
-4.52915e-05	0.00151976	-0.0046131	
0.0033831	-0.007061	0.0238277	
0.0141418	-0.0162577	0.0521406	
0.0098968	-0.012503	0.049754	
0.023333	-0.0529343	-0.0146644	
0.00219836	0.0148849	-0.0322671	
-0.00857925	-0.00123353	-0.0314761	
0.00223177	-0.0292758	-0.0324097	
-0.00759529	0.0139684	-0.0120149	
-0.0124754	0.0109488	-0.023649	
0.00117918	-0.0180551	-0.0501397	
0.00482758	-0.0267082	-0.0512987	
0.00175175	-0.00933191	0.00294696	
0.000416352	-0.00728594	0.000751978	
-0.000477588	-2.98931e-05	-0.00353134	
-0.00358138	-0.0015032	0.00501034	
0.00837049	-0.0394001	-0.0559392	
-0.0144462	-0.0037568	-0.0486837	
-0.0176876	-0.0165123	-0.046122	
0.0075073	-0.0449673	-0.0550359	
0.000835433	-0.00481816	0.00121365	
0.000427081	-0.00600032	0.000194213	
0.000547986	-0.00547557	-0.000722057	
-0.00179897	0.00461129	-0.00519092	
-0.00298136	-0.00176853	0.000947443	
-0.000878554	-0.00186476	-0.00227014	
-0.000330047	0.00263751	0.000858573	
0.0015979	-0.00583482	-0.00901634	
-0.00245255	-0.0344448	-0.0359891	
0.0466115	-0.0736897	-0.00492177	
0.00993977	-0.0466962	-0.0525273	
0.00373033	-0.0418678	-0.0549994	
-0.00317897	-0.00682012	-0.0340015	
-0.00296036	-0.0398768	-0.0435794	
0.00772761	-0.0430182	-0.0523869	
0.0102969	-0.0212233	-0.0348288	
0.0158492	-0.0434088	-0.0368525	
0.00941365	-0.0496608	-0.0595144	
0.000499624	-0.01175	-0.0132698	
7.30654e-07	7.04463e-06	8.72118e-06	
0.00422762	-0.0110511	-0.0188514	
-0.00270853	0.00254622	0.00636397	
-0.000655264	-0.0076862	-0.0286407	
-0.00791676	0.00710363	0.0319717	
0.00501256	0.000865684	-0.0102067	
0.00669575	0.00247751	-0.0124024	
0.0151903	0.00853182	-0.0188118	
0.00456005	0.0112385	-0.00730581	
0.0066805	0.00479499	-0.0115375	
0.0102496	0.0114824	-0.0128184	
0.00847499	0.00637013	-0.0131093	
0.0138402	0.000724814	0.0441367	
0.00173345	-0.00196811	0.00434372	
0.00297569	0.0038717	0.0273481	
0.000755531	0.00078485	0.0019251	
0.00757682	0.0107606	-0.0102976	
0.00408081	0.0110765	-0.00655033	
0.00101058	0.0105678	-0.00378847	
-0.00016911	0.0100605	-0.00267983	
0.00932604	0.00293074	0.0314442	
0.00390416	-0.00327018	0.0120086	
0.00521003	0.00437501	0.0317246	
-0.000165853	-6.93074e-05	3.0532e-05	
0.00354266	-0.00180538	0.0113729	
-0.000223362	0.000280211	0.000191672	
-0.00229481	0.00593524	0.023288	
7.91807e-06	0.000191354	-3.61303e-05	
-0.000598014	0.0108031	-0.00151203	
0.00080094	0.00543629	-0.000754349	
-0.00442765	0.0081547	0.00875636	
-0.000142294	0.00790051	-0.00198656	
-0.00182961	0.00578496	0.0113588	
0.00264567	0.0097207	-0.00574708	
0.00099374	0.000875213	-0.000300633	
0.000108008	0.00991552	-0.00185571	
0.00134801	0.00850608	-0.000644179	
0.000865613	0.00251878	-0.00065835	
0.00116118	0.00695035	-0.000732238	
-0.0050227	-0.011685	-0.00451896	
-0.025651	-0.108853	-0.111153	
-0.00571528	-0.00907862	0.00239324	
0.00267654	0.00607408	0.00173496	
-0.00221554	-0.00404765	0.00467622	
0.00636669	0.0126739	0.0152753	
-0.0157309	-0.022409	-0.00526492	
0.00709544	0.00585136	0.00717271	
-0.000531408	-0.0080727	0.000515319	
-0.00108396	0.00353646	0.00587883	
0.000220074	0.00107774	0.00769316	
-0.00434822	-0.00857862	-0.00887499	
0.00743553	0.00618995	0.00741583	
-0.000566964	-0.00365499	0.00382375	
0.00609622	0.0068292	0.0102483	
0.00659694	0.00601449	0.00650323	
-2.23828e-05	-0.00228402	0.00513754	
-0.00348862	-0.0159625	-0.00642554	
-0.00163163	-0.00558862	-0.000721164	
-0.000472919	-0.00106169	0.0068043	
-0.00114841	0.00134462	-0.00164182	
0.00104261	-0.001344	0.00244457	
0.000111493	0.00176909	-0.00153855	
-0.000374772	-0.00165612	0.00600952	
-0.000176085	0.000545098	-0.00133477	
0.0150598	0.0179869	0.0170348	
0.00622543	0.00645892	0.00558189	
0.0104773	0.0145881	0.00838985	
0.0163096	0.0221375	0.0188157	
-0.000341496	-0.0011081	0.00576809	
1.88645e-05	-0.000214538	0.000761765	
-0.000308366	-0.00118699	0.00675865	
0.00288206	0.00560178	0.00163157	
1.48193e-05	0.000287873	-0.000898127	
0.000530261	-0.00148717	0.0058615	
-0.000271837	-0.00180985	0.00575315	
-0.000209885	-0.00169416	0.00722291	
0.0242485	-0.0185919	0.0128085	
0.00307263	0.0157661	-0.0197508	
-0.007143	0.0187993	-0.011038	
0.00143719	-0.00510001	-0.00383979	
-0.00479732	0.0187725	-0.008892	
-0.00769121	0.0242476	-0.0118782	
-0.00769745	0.00695214	-0.0142022	
-0.00632225	0.00351221	-0.0110835	
0.001459	-0.00640423	0.00492803	
1.11042e-05	-0.00376017	0.00323584	
-0.000511758	0.00265368	-0.000446062	
-0.000123936	-0.00236032	0.00259326	
0.000241582	-0.00421835	-0.00698498	
-0.0217173	0.0214656	-0.0281022	
-0.0144741	0.0210148	-0.0151124	
0.0020091	-0.00684307	-0.00632696	
0.00102492	-0.00289365	0.00303256	
0.000530016	-0.00263299	0.00283305	
0.000373415	-0.00229049	0.00232461	
-0.00132563	0.00771469	-0.00310702	
-0.000820947	0.000440041	0.000559159	
0.000411613	0.000631741	0.000738668	
-0.000369241	-0.000232819	0.000678838	
-7.58675e-05	0.000251554	0.000381828	
-0.000537279	-0.00380527	-0.00368122	
0.0418424	-0.053066	0.0218633	
0.00391552	-0.0084259	-0.00553852	
-0.000902879	-0.00480296	-0.00779971	
-0.00619496	0.013981	-0.00969	
-0.000526758	-0.00194059	-0.00206521	
0.000876733	-0.00620419	-0.00725526	
0.000371465	-0.000864969	-0.00122451	
0.0108883	-0.0119516	-0.00043017	
0.00073326	-0.00460883	-0.00529987	
-0.000139013	-0.00296092	-0.00293789	
9.12631e-05	0.000786994	0.000974508	
3.53516e-05	-9.07203e-05	-0.000143662	
-0.00275449	0.00266612	0.00623723	
0.000672847	-0.00745786	-0.0269696	
-0.000833714	0.00315375	0.0340982	
0.00546797	0.000218225	-0.0101437	
0.0071879	0.000669488	-0.0121734	
0.0124619	0.00129696	-0.0202088	
0.00202466	0.00258992	-0.00698395	
0.0070104	0.00125212	-0.0111585	
0.00604994	0.00226319	-0.014106	
0.00814567	0.00144085	-0.0128338	
0.0119869	-0.000876576	0.0454966	
0.00202848	-0.00252594	0.00482954	
0.00197058	0.00202938	0.0284131	
0.00106683	0.000781619	0.00260392	
0.00504797	0.00227021	-0.0105345	
0.00133294	0.00252556	-0.00617262	
0.000188109	0.00270845	-0.0030478	
-0.000268393	0.0026741	-0.000829232	
0.00711696	0.00203159	0.0327558	
0.00450406	-0.00383947	0.0118494	
0.00312991	0.00176776	0.0332179	
-0.0001651	2.89235e-05	6.67574e-07	
0.00372943	-0.00258572	0.0118976	
-6.6333e-05	0.000118622	8.36722e-05	
-0.00159501	0.00152757	0.0243817	
2.28721e-06	7.05282e-05	-1.27678e-05	
-0.000552797	0.00293812	0.000411419	
0.000247173	0.00167528	-0.000247597	
-0.000696801	0.00282612	0.0103832	
-0.000150726	0.00206471	-0.000594731	
-0.000869799	0.00182674	0.01232	
0.000520375	0.00247253	-0.00567798	
0.000399673	0.000386484	-0.000107352	
-0.000230469	0.00270535	-0.000636311	
0.000216754	0.002385	-0.000427558	
0.000357671	0.00113404	-0.000270844	
0.000262311	0.00205571	-0.000337748	
-0.00503565	-0.0120842	-0.0036032	
-0.031834	-0.102326	-0.125493	
-0.00305994	-0.0077323	-0.00167976	
0.00292844	0.0055102	0.00276736	
-0.00135711	-0.00296865	0.00034097	
0.0060041	0.0133632	0.00998332	
-0.0109673	-0.0229371	-0.00940137	
0.00497543	0.00812135	0.00472149	
-0.00167845	-0.00711777	-0.00322964	
0.000531526	0.00372261	0.00489742	
0.0010966	0.00286959	0.00381019	
-0.00458147	-0.00608104	-0.0121146	
0.0058831	0.00829765	0.00521185	
-0.000626759	-0.00227812	0.000660953	
0.00455232	0.00945302	0.00699168	
0.00571116	0.00752343	0.00464688	
0.000116052	-0.000545836	0.0016562	
-0.00367823	-0.0156289	-0.00936395	
-0.00166103	-0.00497397	-0.00276198	
-9.53203e-05	-0.000548432	0.00197602	
5.06384e-05	0.000472086	-0.000451936	
0.000274811	-0.000387067	0.000733325	
0.000634455	4.95931e-05	-0.000337028	
1.85959e-06	-0.000452016	0.00181114	
-5.68613e-05	0.000171641	-0.000400371	
0.0107501	0.0209352	0.0137287	
0.00566089	0.00747406	0.0042552	
0.0104071	0.015041	0.00813956	
0.00993158	0.0252198	0.0150066	
-0.000195077	-0.000353617	0.00188068	
1.92908e-07	4.44814e-05	-0.000171791	
-0.000177352	-0.000385023	0.00224562	
0.00305999	0.00524089	0.00256439	
1.68666e-05	0.000165195	-0.000523012	
8.541e-05	-0.000471757	0.00199709	
1.72593e-05	-0.000493873	0.00162238	
-2.93057e-05	-0.000533267	0.00236669	
0.0242352	-0.0166289	0.0158072	
0.000869184	0.0155317	-0.0231829	
-0.00578478	0.0197297	-0.0106165	
0.00151262	-0.0026786	-0.000514295	
-0.00556287	0.0181917	-0.00925297	
-0.00776634	0.024373	-0.0117745	
-0.00571093	0.0112687	-0.0113122	
-0.00514917	0.00807038	-0.00820828	
0.00158447	-0.00745901	0.0039244	
0.000310018	-0.00469804	0.0025809	
-0.000560966	0.00205475	-0.00142459	
0.00155889	-0.00158698	0.00307254	
-0.000343024	-0.000803219	-0.00229226	
-0.0159789	0.0300706	-0.0261914	
-0.00921035	0.0238198	-0.0159976	
0.000991399	-0.00290051	-0.00113574	
0.000875363	-0.00389432	0.00179173	
0.000451356	-0.00375907	0.00185704	
0.000167042	-0.00323215	0.00141139	
-0.00166614	0.00670803	-0.00384489	
0.000270127	-0.00015687	-4.8597e-05	
-9.73204e-05	-0.000165599	-0.000197003	
0.000142094	0.0001427	-5.2742e-05	
5.41325e-05	-0.000190509	-0.000306753	
-0.000251808	-0.00121267	-0.00107911	
0.0303123	-0.0560695	0.0298815	
0.00264124	-0.00477072	-0.000225202	
-0.000839632	-0.00112173	-0.00279032	
-0.00449368	0.0150788	-0.00932525	
-0.000204326	-0.000595578	-0.000609719	
0.000140965	-0.00208031	-0.00223444	
0.000137095	-0.000390269	-0.000510754	
0.00923639	-0.00930869	0.00398561	
0.000155216	-0.00151542	-0.00160979	
-8.22979e-05	-0.000783	-0.00077435	
-2.49049e-05	-0.000237853	-0.000299968	
8.43627e-05	-0.000232682	-0.000387232	
-0.00276304	0.00281901	0.00598377	
0.00194479	-0.007369	-0.0254467	
-0.00429948	0.00281404	0.0346241	
0.00571739	0.000383923	-0.0102001	
0.00729351	0.000688485	-0.0124924	
0.0102751	0.000738365	-0.0224577	
0.00159484	0.00293358	-0.00754026	
0.00681744	0.00103569	-0.0117585	
0.00463768	0.0022729	-0.0151409	
0.00748408	0.00108651	-0.0137774	
0.0125114	-0.000890212	0.0463046	
0.00215304	-0.00268588	0.00544259	
0.00189641	0.00196003	0.028886	
0.000834438	0.000579574	0.00374874	
0.00384308	0.00223877	-0.0115485	
0.00130496	0.00307073	-0.00639512	
0.000603463	0.00334604	-0.00269578	
-0.000344745	0.00286145	-0.000900532	
0.00729661	0.00203011	0.0333375	
0.00455103	-0.00374182	0.0120951	
0.00305034	0.00173164	0.0337449	
-8.05041e-05	9.97847e-05	-6.78483e-05	
0.0037572	-0.00259197	0.0124303	
-3.52274e-05	0.000129363	0.00010177	
-0.00157422	0.00142031	0.0250454	
7.77558e-06	0.00026255	-4.54142e-05	
-0.000491817	0.00356253	0.000340118	
0.000236834	0.00164743	-0.000240232	
-0.00222403	0.00322921	0.0104929	
-0.000198553	0.00203795	-0.000613613	
-0.00141588	0.00177191	0.0128021	
0.00135607	0.00332565	-0.00562404	
0.000396132	0.000393208	-0.000103099	
-5.72196e-05	0.00339921	-0.000670868	
0.000372583	0.00276462	-0.000392057	
0.000361584	0.00118932	-0.000279643	
0.000343835	0.00226191	-0.000288001	
-0.00538112	-0.0121492	-0.00352296	
-0.0301227	-0.106586	-0.130785	
-0.0029557	-0.00623867	-0.00123039	
0.00310924	0.00524978	0.00279929	
-0.00131795	-0.00286743	0.00039091	
0.00567397	0.0126479	0.00967282	
-0.00971389	-0.0227168	-0.00948255	
0.00457186	0.00853046	0.0052589	
-0.00188469	-0.00732707	-0.00343082	
0.000616101	0.00391911	0.00468896	
0.001353	0.00334201	0.00425275	
-0.00355137	-0.00723628	-0.0116467	
0.00536377	0.00885926	0.00568396	
-0.000475314	-0.00191132	0.000563762	
0.00553282	0.00969132	0.00730086	
0.00525176	0.00809285	0.00500794	
0.000267777	-0.000179041	0.00197417	
-0.00406171	-0.0157808	-0.0096057	
-0.00172094	-0.00508321	-0.00270475	
-0.000284044	-0.00120642	0.00160124	
0.000101281	0.000487772	-0.000475439	
0.000291621	-0.0004061	0.000798632	
0.000655391	6.45995e-05	-0.000333243	
2.39511e-05	-0.000467658	0.00180436	
-4.40923e-05	0.000131739	-0.000293513	
0.0115886	0.0202869	0.0141075	
0.00531165	0.00793997	0.00448856	
0.0103082	0.0154285	0.00829298	
0.012053	0.0235443	0.0148624	
-9.2128e-05	-0.000375106	0.0016221	
3.70054e-07	3.06723e-05	-0.000120351	
-5.2157e-05	-0.000422164	0.00198331	
0.0032261	0.00516825	0.00262217	
1.66673e-05	0.000158487	-0.000508278	
8.23638e-05	-0.000433958	0.00157661	
3.2624e-05	-0.000532134	0.00169786	
5.58611e-05	-0.000554715	0.00224229	
0.0236252	-0.0178848	0.0171631	
0.00195371	0.0161044	-0.0213661	
-0.00687838	0.0200938	-0.0103194	
0.00147579	-0.0028348	-3.0915e-05	
-0.00554539	0.0186344	-0.00920366	
-0.00831059	0.0247724	-0.0116329	
-0.00479068	0.0120031	-0.0112761	
-0.00426966	0.00869372	-0.00849016	
0.00151494	-0.00703458	0.00415176	
0.000186329	-0.00439497	0.00269807	
-0.000578755	0.0023168	-0.00119806	
0.000880114	-0.00226274	0.00268761	
-0.000311853	-0.00084784	-0.00231987	
-0.0151573	0.0324621	-0.0257988	
-0.0115628	0.0238001	-0.0154729	
0.000578047	-0.00274515	-0.00121381	
0.000890852	-0.00350564	0.00208906	
0.000457127	-0.00339855	0.00210867	
0.000206037	-0.00291407	0.00167304	
-0.00161703	0.00707598	-0.00371667	
-5.77629e-05	9.57806e-05	6.16062e-05	
3.9548e-05	6.66879e-05	7.90531e-05	
-6.1916e-05	-4.02929e-05	4.69758e-05	
1.98433e-05	-7.46e-05	-0.000118621	
-0.000306322	-0.00117005	-0.000981907	
0.0330714	-0.0561284	0.0265873	
0.00208066	-0.00500942	-3.74186e-05	
-0.000340202	-0.00152267	-0.0023103	
-0.00557326	0.0152844	-0.0090116	
-0.000185844	-0.000695603	-0.00075212	
4.51399e-05	-0.00208189	-0.00215845	
0.000161047	-0.00039829	-0.000574546	
0.00792118	-0.00980437	0.00482979	
5.77291e-05	-0.00149391	-0.00150878	
-6.03417e-05	-0.000753251	-0.000828149	
5.15761e-06	4.71677e-05	5.90182e-05	
5.98615e-05	-0.000159542	-0.000275043	
-0.00288367	0.00257562	0.00593293	
0.002568	-0.00729972	-0.0240337	
-0.00445975	0.00283661	0.0353832	
0.00600526	0.00053394	-0.0105247	
0.00738226	0.000939669	-0.0129416	
0.009947	0.00121816	-0.0234343	
0.00245551	0.00299718	-0.00718647	
0.0066771	0.00130482	-0.0124381	
0.00604728	0.00280023	-0.0146632	
0.00713289	0.00138991	-0.0146054	
0.0129941	-0.0006571	0.0471158	
0.00223423	-0.00282879	0.00602325	
0.00197134	0.00217388	0.0293337	
0.000193881	0.000169501	0.00468042	
0.00435166	0.00251099	-0.0114052	
0.00189988	0.00297996	-0.00610545	
0.000765835	0.00326293	-0.00299207	
-0.00027913	0.00306685	-0.000864523	
0.00760963	0.00215866	0.0339517	
0.00443123	-0.00367027	0.0123785	
0.00313576	0.00204219	0.0346391	
7.69143e-06	9.91904e-05	-6.79982e-05	
0.00375051	-0.00260699	0.0129635	
-2.59408e-07	0.000117481	8.75379e-05	
-0.0016143	0.00164968	0.0257367	
3.24194e-06	0.00012993	-2.18044e-05	
-0.000486703	0.00320094	0.000504926	
0.000252541	0.00177537	-0.000265422	
-0.00232994	0.00329498	0.010733	
-0.000225876	0.00246575	-0.000714408	
-0.00148655	0.00194878	0.0133417	
0.00147544	0.00313504	-0.00564092	
0.000353796	0.000360938	-9.2938e-05	
-3.07528e-05	0.00310614	-0.000572689	
0.000406406	0.00297643	-0.000398794	
0.000339502	0.00115261	-0.000278244	
0.000372976	0.00245506	-0.000307259	
-0.00572488	-0.0121738	-0.00348806	
-0.0289625	-0.110247	-0.136174	
-0.00251174	-0.00530668	-0.00103209	
0.00326374	0.0050952	0.00290692	
-0.00124802	-0.00274953	0.000212591	
0.00548015	0.0123843	0.00930284	
-0.0106574	-0.0214593	-0.0100294	
0.00509756	0.00841801	0.00520912	
-0.00193975	-0.00760599	-0.00376143	
0.00074499	0.00383182	0.00411664	
0.00142034	0.00364229	0.00425417	
-0.00121947	-0.00779323	-0.0112711	
0.00573622	0.00883106	0.00568939	
-0.000420802	-0.00150654	0.000398493	
0.00593969	0.010276	0.00750343	
0.00540254	0.00818527	0.00508133	
0.000264285	-3.86331e-05	0.00179613	
-0.00394505	-0.015648	-0.00974913	
-0.00165838	-0.00511127	-0.00275924	
-0.000320583	-0.00128958	0.00118592	
0.000439481	5.26327e-05	-4.2185e-05	
0.000260342	-0.000360771	0.000744757	
0.000565495	-0.000193382	3.86975e-05	
2.45088e-05	-0.000426534	0.00163082	
-3.86455e-05	0.00011425	-0.000248109	
0.011756	0.0203825	0.0140271	
0.00532842	0.00806568	0.00463887	
0.0102345	0.0156459	0.00857072	
0.0118813	0.0231079	0.0145989	
-6.44176e-05	-0.000323623	0.00135253	
-1.35223e-07	1.93068e-06	-8.26754e-06	
-3.33848e-05	-0.000381146	0.00171687	
0.00333375	0.00507297	0.00284649	
7.19656e-06	8.61116e-05	-0.000275817	
7.24117e-05	-0.00037844	0.00126971	
3.20733e-05	-0.000496612	0.00159851	
5.5753e-05	-0.000467624	0.00186893	
0.0229963	-0.0185759	0.0184593	
0.00211155	0.016466	-0.0211491	
-0.00691053	0.0203756	-0.0103615	
0.00156368	-0.00296484	0.000443727	
-0.00560001	0.0186983	-0.00935743	
-0.0082986	0.0249469	-0.0118318	
-0.0057276	0.012406	-0.0106932	
-0.00508099	0.00890818	-0.00801209	
0.00153478	-0.00707142	0.00402534	
0.000166272	-0.00446793	0.00260528	
-0.000592018	0.00232509	-0.00128876	
0.000806282	-0.00235041	0.00266128	
-0.000311189	-0.000614029	-0.00210369	
-0.0169447	0.0337915	-0.0248139	
-0.0116634	0.0244104	-0.0152976	
0.000557606	-0.00243604	-0.00113774	
0.00087806	-0.00353778	0.00195304	
0.000451489	-0.0034817	0.00200487	
0.0001792	-0.00298109	0.00158692	
-0.00165307	0.00704802	-0.00380131	
9.31844e-07	-7.93258e-06	-4.33313e-06	
-4.00565e-06	-6.91337e-06	-8.21835e-06	
5.14889e-06	4.24991e-06	-1.51608e-06	
2.03164e-05	-7.95933e-05	-0.000125069	
-0.000257934	-0.000869362	-0.000716899	
0.0333411	-0.0555313	0.0261034	
0.0020232	-0.00474652	0.000274916	
-4.57175e-05	-0.00159502	-0.00174065	
-0.00559089	0.0155386	-0.00895092	
-0.000120656	-0.00047481	-0.000522335	
3.48092e-05	-0.00170068	-0.00180138	
0.000104095	-0.000264823	-0.000382132	
0.00711521	-0.00994887	0.00534199	
2.39529e-05	-0.00132524	-0.00134029	
-5.36661e-05	-0.000678519	-0.000790299	
-3.46397e-06	-3.3297e-05	-4.16295e-05	
4.44864e-05	-0.000127013	-0.000215067	
-0.00267103	0.00289386	0.00547337	
0.00349359	-0.00719746	-0.0232825	
-0.00393036	0.00163139	0.0362743	
0.00610708	0.000965767	-0.0107938	
0.00735569	0.00113613	-0.0132936	
0.011067	0.000978345	-0.0232247	
0.00264825	0.00252145	-0.0074479	
0.00662126	0.00137165	-0.0125854	
0.00620459	0.00229111	-0.0147221	
0.00717457	0.00107853	-0.0146437	
0.0137619	-0.000882618	0.0473588	
0.0023009	-0.00295454	0.00629011	
0.00233329	0.00150914	0.0300077	
-0.000215786	8.44027e-05	0.00500213	
0.00490029	0.00213441	-0.0113259	
0.00204047	0.00264765	-0.00643066	
0.000498665	0.00256547	-0.00177326	
-0.00015221	0.00215067	-0.000525653	
0.00809755	0.00178129	0.0342873	
0.00441567	-0.0037062	0.0125021	
0.00355979	0.00138774	0.0352757	
3.54731e-05	3.9382e-05	-1.94488e-05	
0.00380623	-0.00273651	0.0132604	
4.12521e-06	5.41066e-05	3.70573e-05	
-0.0012272	0.00082798	0.0263172	
1.52434e-05	0.000603672	-9.97404e-05	
-0.00051514	0.00312464	0.000660871	
0.000124681	0.000923073	-0.0001449	
-0.00223667	0.00206672	0.0113621	
-0.000129279	0.0016666	-0.000447771	
-0.00136911	0.000963759	0.0139258	
0.00138501	0.002772	-0.00539376	
0.000155701	0.000168431	-4.32576e-05	
-3.32463e-05	0.0029394	-0.000534219	
0.00022389	0.00172776	-0.000235769	
0.000139653	0.000503489	-0.000124867	
0.000192147	0.00134159	-0.000175446	
-0.00580515	-0.0121902	-0.00313417	
-0.0278157	-0.114202	-0.138181	
-0.0023766	-0.00505918	-0.00121668	
0.00341991	0.0050021	0.00329025	
-0.0012347	-0.00278574	-0.00017087	
0.00537165	0.0123241	0.00905914	
-0.0104843	-0.0215097	-0.00968646	
0.00520258	0.00833901	0.00578733	
-0.00196312	-0.00776022	-0.00427743	
0.000869457	0.00366997	0.00369944	
0.00136674	0.00365016	0.00389893	
-0.00128726	-0.00758287	-0.0115446	
0.0059156	0.00861414	0.0063797	
-0.000310754	-0.0013735	0.000615644	
0.00600518	0.0104806	0.00773703	
0.00559801	0.00787488	0.00588558	
0.000141406	-0.000153772	0.00119142	
-0.00378237	-0.0155388	-0.0100597	
-0.00164592	-0.00505603	-0.00301006	
-0.00026486	-0.00105023	0.000792273	
0.000299238	3.07434e-05	-3.36554e-05	
0.000177737	-0.00024345	0.000524911	
0.000288129	-0.000152783	0.000193618	
2.5438e-05	-0.000367824	0.00138609	
2.62824e-06	-7.56366e-06	1.65156e-05	
0.0118077	0.0205665	0.014101	
0.00555056	0.00783054	0.00562427	
0.010396	0.0156418	0.00954482	
0.0117655	0.0231118	0.0147409	
-6.02731e-05	-0.000334426	0.00138335	
8.67629e-06	-0.000219659	0.000786022	
-2.42043e-05	-0.000333335	0.00148314	
0.0034131	0.00499369	0.00338654	
-7.22248e-06	-0.000124866	0.000391297	
7.3737e-05	-0.000384058	0.00128597	
2.7735e-05	-0.000393033	0.00126754	
4.48882e-05	-0.000379988	0.00150522	
0.0226806	-0.0198606	0.0191397	
0.00222738	0.0169292	-0.0203542	
-0.00692801	0.0205719	-0.0104777	
0.00154448	-0.00312878	0.000465444	
-0.00564548	0.0188143	-0.00947129	
-0.0083843	0.0250748	-0.0119894	
-0.00591016	0.0129436	-0.0102732	
-0.0052579	0.0094151	-0.0075702	
0.00153198	-0.00695948	0.0040107	
8.0776e-05	-0.0044154	0.00258778	
-0.000606019	0.00238959	-0.00129515	
0.000337082	-0.00243046	0.0026304	
-0.000407959	-0.000113535	-0.00167787	
-0.0172637	0.0349088	-0.0245578	
-0.0116395	0.0247838	-0.0153024	
0.000628248	-0.00202049	-0.00084684	
0.000875981	-0.00344526	0.00194962	
0.000449851	-0.00342079	0.00201763	
0.000177839	-0.00292577	0.0016075	
-0.00166958	0.00712555	-0.00382723	
1.19918e-05	2.91534e-05	1.50605e-05	
9.74101e-06	1.71103e-05	2.02716e-05	
-1.73563e-05	-1.12255e-05	1.21329e-05	
1.58551e-05	-6.5474e-05	-0.000101334	
-0.000333185	-0.00108209	-0.000913873	
0.0335213	-0.0550758	0.0262032	
0.002224	-0.00422358	0.000446222	
1.49051e-05	-0.00135409	-0.00144051	
-0.00553828	0.0156535	-0.00895292	
-8.71627e-05	-0.000359663	-0.000399059	
4.53165e-05	-0.00127363	-0.00142561	
7.79282e-05	-0.000208356	-0.000298176	
0.00685419	-0.0101347	0.00533629	
2.52834e-05	-0.0013189	-0.00138047	
-3.13949e-05	-0.000441568	-0.000521487	
-6.46659e-07	-6.40704e-06	-7.96461e-06	
3.59627e-05	-0.00010795	-0.00017968	
-0.00274091	0.00253044	0.005481	
0.00424537	-0.0067139	-0.0226823	
-0.00346275	0.000834463	0.0367357	
0.00629166	0.000462007	-0.0108559	
0.00741094	0.000687639	-0.0131119	
0.0112046	0.000501887	-0.0234588	
0.00252381	0.00168604	-0.00699559	
0.00688283	0.000525965	-0.012518	
0.00628913	0.0016569	-0.0149472	
0.00751507	0.000615197	-0.0145409	
0.0139756	-0.000730241	0.0475819	
0.00221617	-0.00290753	0.00651256	
0.00252214	0.0012126	0.0303393	
-0.000612692	0.000541412	0.00515791	
0.00501826	0.00139863	-0.0114169	
0.00186359	0.00145752	-0.00584591	
0.000551842	0.000995197	-0.00132081	
-9.74824e-05	0.00142146	-0.000335174	
0.00831598	0.00179752	0.0344635	
0.0042162	-0.00358059	0.0126598	
0.00371375	0.0012281	0.0355643	
4.95238e-05	1.24416e-05	-5.91534e-06	
0.00368538	-0.00269404	0.013472	
6.34251e-06	4.89863e-05	3.06466e-05	
-0.00102859	0.000438726	0.0264687	
4.10544e-06	0.000151972	-2.44844e-05	
-0.00052674	0.00136192	0.00128951	
6.5139e-05	0.000512511	-8.31745e-05	
-0.00206767	0.000924715	0.0116771	
-6.91404e-05	0.00103742	-0.000253043	
-0.00129358	0.00043387	0.014143	
0.00137027	0.00101457	-0.00499201	
0.000106486	0.000122598	-2.96043e-05	
-1.5715e-05	0.0011058	-0.000199422	
9.50413e-05	0.000786467	-0.000110025	
8.41871e-05	0.000322958	-8.01172e-05	
8.26895e-05	0.000618951	-8.36347e-05	
-0.0061879	-0.0122586	-0.00365393	
-0.0268343	-0.116893	-0.139919	
-0.001614	-0.003426	-0.000885209	
0.00335197	0.00515976	0.00253451	
-0.00108556	-0.00248479	-0.000655825	
0.00484694	0.0114404	0.00785168	
-0.010275	-0.0203342	-0.0108773	
0.0050561	0.00890364	0.00439211	
-0.00199772	-0.00775548	-0.00468291	
0.000923115	0.00397836	0.00376559	
0.00161102	0.00468615	0.00391244	
-0.00128531	-0.0076723	-0.0119124	
0.00598312	0.00917137	0.00491892	
-0.000270015	-0.000725394	-4.93449e-05	
0.00638958	0.0113757	0.00716473	
0.0057507	0.0084332	0.00435764	
0.000425727	0.000825723	0.00169205	
-0.00377209	-0.015989	-0.0104727	
-0.0016957	-0.00510116	-0.00326277	
-0.000622328	-0.0021872	-0.000120386	
0.000225456	3.04477e-05	-3.02907e-05	
0.000121877	-0.000170326	0.000375216	
0.000232257	-0.000136746	0.000170642	
1.22048e-05	-0.000180404	0.00067514	
-7.44047e-05	0.000215277	-0.000469301	
0.011781	0.0206825	0.013503	
0.00558967	0.00831238	0.00392516	
0.0104216	0.0160205	0.00815885	
0.0112121	0.0224646	0.0133226	
-2.11856e-05	-0.000137198	0.000558205	
-1.58793e-05	0.000238144	-0.000815238	
-1.27726e-05	-0.000226172	0.000988431	
0.00342377	0.00530117	0.00237876	
9.25261e-06	0.000274818	-0.000851756	
3.47678e-05	-0.000179341	0.000596798	
1.1248e-05	-0.000182674	0.000593472	
3.88719e-05	-0.000324342	0.00126397	
0.0226264	-0.0192705	0.0197798	
0.00222747	0.0172421	-0.0199085	
-0.00691483	0.0206865	-0.0104642	
0.0019018	-0.00277132	0.001241	
-0.00564761	0.0188078	-0.00951431	
-0.00841686	0.0251397	-0.0120746	
-0.00591439	0.0132778	-0.0100576	
-0.00538061	0.0098877	-0.00736519	
0.00153509	-0.00691707	0.0039647	
5.06356e-05	-0.00440856	0.0025562	
-0.000614662	0.00242191	-0.00131464	
1.71907e-06	-0.0024882	0.00257002	
-0.000326818	-8.32117e-05	-0.00134257	
-0.017354	0.0357516	-0.0244549	
-0.0116788	0.0251642	-0.0152298	
0.000378312	-0.00124755	-0.000570298	
0.000872375	-0.00340683	0.00191222	
0.000447636	-0.00341639	0.00199254	
0.000169558	-0.00291861	0.00159343	
-0.00168425	0.00715579	-0.00386306	
9.7039e-06	8.8854e-06	4.58311e-06	
3.40991e-06	6.11827e-06	7.23528e-06	
-6.62134e-06	-4.12385e-06	5.31622e-06	
7.3672e-06	-3.2259e-05	-4.90421e-05	
-4.46303e-05	-0.000147613	-0.000131437	
0.0338163	-0.0545518	0.0262379	
0.00219838	-0.00407095	0.000531247	
0.000578538	-0.00164803	-0.000611224	
-0.00550105	0.0158328	-0.00887721	
-5.03165e-05	-0.000221762	-0.000248122	
5.59026e-05	-0.00111264	-0.00133591	
3.75111e-05	-0.000105622	-0.000149635	
0.00677167	-0.00942865	0.00559058	
1.07272e-05	-0.000367775	-0.000403589	
-1.85319e-05	-0.000310456	-0.000370244	
-1.28793e-06	-1.32325e-05	-1.64252e-05	
1.67278e-05	-5.31251e-05	-8.66774e-05	
-0.00275783	0.00238831	0.00549583	
0.0042284	-0.00598254	-0.0224516	
-0.00338016	0.000833232	0.0369812	
0.00637229	0.000328158	-0.0110059	
0.00759646	0.000612652	-0.0132958	
0.0112416	0.000914241	-0.0240242	
0.00236018	0.00135543	-0.00658688	
0.00699491	0.000949328	-0.0127665	
0.00609286	0.00138525	-0.014625	
0.00757301	0.000983193	-0.0148362	
0.0140244	-0.00036604	0.0476517	
0.00210886	-0.0028572	0.006862	
0.00264478	0.00131631	0.0304876	
-0.000998415	0.00129575	0.00545733	
0.00501973	0.00171584	-0.0117121	
0.00174226	0.00112902	-0.00556937	
0.000527404	0.000926967	-0.0011941	
-0.000117508	0.00177081	-0.000408022	
0.00847733	0.00196282	0.0345726	
0.00397021	-0.00335236	0.0128788	
0.00376498	0.00138016	0.0358119	
3.6157e-05	-1.40646e-05	-5.32583e-07	
0.00349838	-0.00250351	0.0136813	
1.1282e-05	5.32696e-05	3.0059e-05	
-0.00102637	0.000545801	0.0266344	
1.1924e-06	4.66199e-05	-7.37789e-06	
-0.000540899	0.00112548	0.00147397	
5.83324e-05	0.000487324	-8.09991e-05	
-0.00205192	0.000869131	0.0117858	
-8.55633e-05	0.00133425	-0.000314051	
-0.00131209	0.00049313	0.0142011	
0.00133912	0.000937922	-0.00494433	
0.000124948	0.000153591	-3.49931e-05	
-1.37013e-05	0.000972601	-0.000172406	
8.59578e-05	0.000749369	-0.00010559	
7.95602e-05	0.000326827	-8.10944e-05	
7.58983e-05	0.000610565	-8.38762e-05	
-0.00596813	-0.012379	-0.00294882	
-0.0249128	-0.120378	-0.142469	
-0.00165868	-0.00356848	-0.000496442	
0.00345015	0.00499682	0.00338468	
-0.00113973	-0.00257435	-5.22781e-05	
0.00489645	0.0113393	0.00856175	
-0.00993057	-0.0210146	-0.00922361	
0.00529055	0.00845665	0.00639572	
-0.00208502	-0.00821279	-0.00446348	
0.000860031	0.00359415	0.00368505	
0.00171443	0.00463268	0.00464452	
-0.00136821	-0.00755619	-0.0117621	
0.00607489	0.00878443	0.00693794	
-3.67025e-05	-0.00095382	0.00109422	
0.00634017	0.0111112	0.00818983	
0.0057905	0.00808543	0.00633788	
0.000452125	0.000695379	0.00194829	
-0.0038503	-0.0158902	-0.0101796	
-0.00171716	-0.00524199	-0.00312032	
-0.000691406	-0.0024151	7.77675e-05	
0.000305088	-6.61683e-05	9.55446e-05	
0.000192804	-0.000270028	0.000604865	
0.000274534	-0.000189981	0.00024444	
3.36969e-05	-0.000376925	0.0013853	
2.21747e-05	-6.44318e-05	0.000142717	
0.0117782	0.0205268	0.0141899	
0.00560786	0.00788828	0.00582043	
0.0105524	0.0157062	0.01001	
0.0113455	0.0223361	0.0145963	
-4.34184e-05	-0.000362082	0.00144151	