<VTKFile type="UnstructuredGrid" version="0.1" byte_order="LittleEndian">
	<UnstructuredGrid>
		<Piece NumberOfPoints="2997" NumberOfCells="2997">
			<CellData Scalars="scalars">
				<DataArray type="Float64" Name="Strength" NumberOfComponents="3" Format="ascii">
-0.006495	-0.0160516	0.0126175	
0.00490308	-0.0137051	-0.0268584	
-0.00626215	0.0708384	0.0122832	
0.00439088	-0.00638519	-0.00746518	
0.00586238	0.00106304	-0.0109598	
0.0161411	0.0558736	-0.0272045	
0.0147811	0.0869368	-0.0221289	
0.00524148	0.0193515	-0.013632	
0.0176179	0.0840712	-0.0272201	
0.00776253	0.0337719	-0.0179453	
0.00588148	0.00479376	0.0445744	
0.00248039	-0.00423453	0.00287827	
-0.00820666	0.0399311	0.0151232	
0.00182802	-0.0015067	-0.000879529	
0.0128907	0.0743876	-0.0229277	
0.0178533	0.0852844	-0.0194252	
0.0175759	0.0914345	-0.0198164	
0.00500807	0.0675778	-0.0144337	
0.00150968	0.0122107	0.0289167	
0.00678122	-0.00684331	0.0106637	
-0.0061067	0.0328544	0.0226364	
-0.00188277	0.00124963	0.000317189	
0.00359242	-0.00443488	0.00996054	
-0.000693151	0.00222712	-0.00100355	
-0.00928333	0.0488768	0.00921855	
-0.000566144	-0.0127188	0.00229157	
0.0145117	0.0872066	-0.0158554	
0.00886583	0.0420815	-0.00264655	
0.00836224	0.0864125	-0.00540761	
0.00240998	0.0490812	-0.0101669	
0.00265895	0.0542482	0.00168906	
0.0184554	0.0871676	-0.0176425	
-0.000417319	-0.000492356	0.000106836	
0.0156364	0.0852689	-0.0133834	
0.0216877	0.0765037	-0.00393118	
0.00794602	0.0203415	-0.00178216	
0.0163111	0.058538	-0.00281911	
-0.00987313	-0.00536601	-0.0257181	
0.00261642	-0.13439	0.0218142	
-0.00321493	-0.0174763	0.0486412	
0.00201739	0.0115299	-0.0134423	
0.00697714	-0.00966056	0.0539756	
0.0282886	-0.00142763	0.0617721	
-0.00660195	-0.0394559	0.0451196	
0.0160671	-0.0109427	0.0522607	
0.011406	-0.0147565	0.037002	
0.0130123	-0.00133606	0.0153509	
0.0142637	-0.0128789	0.054477	
0.0160672	0.0171289	-0.00312706	
0.0120142	-0.00791853	0.0470064	
0.00365335	-0.0119696	0.0252864	
0.0107446	-0.00490568	0.053726	
0.00878235	-0.00489397	0.0391854	
0.0149944	-0.0157367	0.0460586	
0.000789398	-0.0173764	0.0292757	
0.00509314	-0.00745483	0.0176354	
0.0152626	-0.0116005	0.054541	
0.0251726	-0.00619087	-0.00588496	
0.0155386	-0.013866	0.0151723	
0.00752983	-0.0037909	0.0178008	
0.013055	-0.0144022	0.056124	
-0.00224398	0.00826173	-0.0205471	
0.0189325	0.0114796	0.0383879	
0.00754783	-0.00193565	0.0308699	
0.00995519	0.0106078	0.0174379	
0.0376776	0.00512404	0.067899	
0.00376212	-0.00981678	0.0394656	
0.00127171	-0.00570639	0.0180711	
0.00672796	-0.010029	0.0430341	
0.00265802	0.00922451	-0.0100615	
-7.54005e-05	0.00156072	-0.00459871	
0.00371254	-0.00716552	0.0237581	
0.0159026	-0.0161314	0.051642	
0.0116228	-0.0127499	0.049286	
0.0236837	-0.0526508	-0.0150296	
-0.000555532	0.0136653	-0.0328198	
-0.00778517	-0.00139035	-0.0316193	
0.00303453	-0.0287446	-0.0327923	
-0.00746413	0.0138564	-0.0121749	
-0.0120058	0.0107441	-0.0239208	
0.00181858	-0.0181966	-0.0500401	
0.0058806	-0.027045	-0.0509819	
0.00169923	-0.00932151	0.00297613	
0.000191145	-0.00726961	0.000922492	
-0.000486355	-6.50201e-05	-0.00352324	
-0.00178583	0.00335003	0.00501968	
0.00999528	-0.0396575	-0.0554519	
-0.0133405	-0.00315899	-0.0489949	
-0.0155021	-0.0158039	-0.0470727	
0.00917515	-0.0448547	-0.0548298	
0.000839613	-0.00481032	0.00122134	
0.000378683	-0.00599855	0.000201882	
0.000331439	-0.00549295	-0.00069386	
-0.00178358	0.00458054	-0.00520742	
-0.00275686	0.0011832	0.00200607	
-0.000838655	-0.00184088	-0.00229995	
-0.000348866	0.00275724	-2.95509e-05	
0.00155771	-0.00599137	-0.0089054	
-0.00124386	-0.033612	-0.0367976	
0.046828	-0.0736068	-0.00336657	
0.011174	-0.0465011	-0.0524105	
0.00488908	-0.0414014	-0.0552212	
-0.00223347	-0.00701661	-0.0339917	
-0.000558264	-0.0393907	-0.0440616	
0.00880385	-0.0427204	-0.0524213	
0.0110037	-0.021887	-0.0341672	
0.0161634	-0.0433498	-0.036752	
0.0103977	-0.0492114	-0.0596829	
0.000740916	-0.0116666	-0.0133192	
6.98434e-07	7.06869e-06	8.68389e-06	
0.00430535	-0.0114864	-0.0185465	
-0.00271798	0.00248978	0.00638044	
0.000383162	-0.00690801	-0.028847	
-0.00723264	0.00714533	0.0321264	
0.00504739	0.000982872	-0.0101806	
0.0067118	0.00258962	-0.0123736	
0.0147521	0.00849382	-0.0191783	
0.00456042	0.0112142	-0.00734268	
0.00666694	0.00485718	-0.0115232	
0.0100499	0.0113746	-0.0130736	
0.00833672	0.00642186	-0.0131771	
0.0144322	0.00143996	0.04393	
0.00146582	-0.00171792	0.00454338	
0.0030024	0.00425413	0.0272903	
0.000747088	0.000267732	0.00206231	
0.0074845	0.0107239	-0.0104065	
0.00403142	0.0110614	-0.00660548	
0.000894882	0.010544	-0.00387557	
4.7475e-05	0.0101144	-0.00246503	
0.00988734	0.00334633	0.0312308	
0.00332568	-0.00283802	0.0122893	
0.00527235	0.00476451	0.0316595	
-0.000124552	0.000120928	-4.04155e-05	
0.00308357	-0.00147016	0.0115538	
-0.000207924	0.000299908	0.000178901	
-0.00223892	0.0061592	0.0232378	
7.30046e-06	0.000191696	-3.41573e-05	
-0.000446722	0.0108231	-0.00139329	
0.000569569	0.0054543	-0.000819048	
-0.00425478	0.00817213	0.00882186	
6.47674e-06	0.00793852	-0.00182752	
-0.00186548	0.00585834	0.0113156	
0.00257481	0.00967998	-0.0058447	
0.000895471	0.000982928	-0.000274084	
0.000183536	0.00992148	-0.00180168	
0.00109565	0.00852801	-0.000782665	
0.000694323	0.00256781	-0.000669263	
0.000902221	0.00697537	-0.000832666	
-0.00509112	-0.0116465	-0.00452999	
-0.0194956	-0.110257	-0.110911	
-0.00556229	-0.00919119	0.0022824	
0.00276109	0.00602624	0.00175879	
-0.00231737	-0.0040391	0.00462884	
0.00629841	0.012582	0.0153626	
-0.0149379	-0.0228092	-0.00576686	
0.00684106	0.00598687	0.00729956	
-0.000643704	-0.00806025	0.000511297	
-0.00080804	0.00368388	0.0058328	
0.000106318	0.00104261	0.00769705	
-0.00388562	-0.00870226	-0.00896252	
0.00730887	0.00629866	0.00744203	
-0.000525335	-0.00370898	0.00377862	
0.00608737	0.00676875	0.0102855	
0.00652846	0.00606899	0.00651442	
-0.000227108	-0.00227568	0.00513345	
-0.00322865	-0.0160254	-0.00638262	
-0.00172522	-0.00556927	-0.000622867	
-0.000650339	-0.00109041	0.00678181	
-0.00105827	0.00143623	-0.00162271	
0.000970411	-0.00125984	0.00251657	
0.000348099	0.00171795	-0.00157025	
-0.000443665	-0.00167879	0.00599562	
-0.000158836	0.000547937	-0.00133552	
0.0148383	0.0180328	0.0171632	
0.0061486	0.00649181	0.0056202	
0.0103867	0.0145768	0.00850027	
0.016014	0.0221063	0.0190665	
-0.000201312	-0.00123181	0.00575042	
2.79837e-05	-0.000226297	0.000758168	
-0.000195663	-0.00133687	0.00673336	
0.00293207	0.00556557	0.00165569	
4.77691e-06	0.000298245	-0.000894836	
0.00058248	-0.00155067	0.00584247	
-0.000417569	-0.00180867	0.00574183	
-0.00019335	-0.00176997	0.00720246	
0.0237315	-0.0189132	0.0132573	
0.00174857	0.0166916	-0.0190804	
-0.00677289	0.0187968	-0.0112115	
0.00149457	-0.00505083	-0.00387807	
-0.00469099	0.0186713	-0.00908954	
-0.00741373	0.0241361	-0.0121883	
-0.00719132	0.00729961	-0.0142747	
-0.00597079	0.00370778	-0.0111998	
0.00154612	-0.00639401	0.00489488	
-4.69904e-05	-0.00375883	0.00322764	
-0.000493169	0.00264987	-0.00047054	
-0.000679021	-0.00154694	0.00303565	
0.000326031	-0.00425749	-0.00695253	
-0.0205314	0.0223742	-0.0282305	
-0.0140963	0.0212273	-0.0151105	
0.00210179	-0.00685734	-0.00627511	
0.00106347	-0.00288364	0.00301856	
0.000543719	-0.00263526	0.00281979	
0.000374437	-0.00227544	0.00233259	
-0.00132577	0.00768554	-0.00314959	
0.00034176	0.000807895	0.000607455	
0.000397694	0.000634878	0.000741675	
-0.00031204	-0.000220666	0.000707213	
-6.45455e-05	0.0002596	0.000377899	
-0.000389554	-0.00369978	-0.00380126	
0.0423071	-0.0524238	0.0223593	
0.00393395	-0.00845357	-0.00547551	
-0.000740068	-0.00469047	-0.00787853	
-0.0058048	0.0140866	-0.00973444	
-0.000455772	-0.00192994	-0.00208911	
0.000984973	-0.00614481	-0.00728589	
0.000323268	-0.000889069	-0.00122	
0.0105605	-0.01224	-0.000210086	
0.000792048	-0.00455602	-0.00533282	
-7.92848e-05	-0.00292089	-0.00297632	
8.96187e-05	0.000789736	0.000970081	
3.02227e-05	-9.43482e-05	-0.000142306	
-0.00274885	0.00261097	0.00626106	
0.00177134	-0.0065986	-0.0271507	
-0.000904236	0.00325201	0.0340938	
0.00549503	0.000325963	-0.0101278	
0.00719538	0.000782428	-0.0121649	
0.0122259	0.00160377	-0.0203336	
0.00201984	0.00273345	-0.00693272	
0.00697574	0.00133679	-0.0111731	
0.00602652	0.00255033	-0.0140707	
0.00802108	0.00157087	-0.0128997	
0.0122697	-0.000190066	0.0454379	
0.00174172	-0.00228979	0.00505444	
0.00192718	0.00228471	0.0284028	
0.000515342	0.000169086	0.00287589	
0.00502558	0.00248077	-0.010501	
0.0013121	0.00265057	-0.00612644	
0.000165155	0.00272839	-0.00303178	
-0.000237388	0.00269744	-0.000758623	
0.00749722	0.00235132	0.0326556	
0.00385308	-0.00336776	0.0122181	
0.0031144	0.00210583	0.033207	
-2.9243e-05	0.000140222	-8.22599e-05	
0.0031756	-0.00222345	0.0121315	
-5.99855e-05	0.000127802	7.44777e-05	
-0.00168041	0.00176802	0.0243655	
2.26545e-06	7.06618e-05	-1.19937e-05	
-0.000605075	0.00292076	0.000451436	
0.00020121	0.00167822	-0.000265245	
-0.000877482	0.00278677	0.0103815	
-0.000119692	0.00208075	-0.000542451	
-0.00097504	0.00191838	0.0123007	
0.000540557	0.00252894	-0.00565276	
0.00036027	0.000426421	-9.43226e-05	
-0.000281933	0.00270723	-0.000603611	
0.00011464	0.00239106	-0.000429719	
0.000297919	0.00115016	-0.000274211	
0.000179208	0.0020621	-0.000349148	
-0.00508206	-0.0120597	-0.00360492	
-0.0329094	-0.108925	-0.119456	
-0.00308348	-0.00768302	-0.00181782	
0.00299363	0.00546632	0.0027784	
-0.00134317	-0.00297467	0.000318403	
0.0059396	0.0132867	0.0101017	
-0.010643	-0.0228737	-0.0098915	
0.00488347	0.00808054	0.0048767	
-0.00167907	-0.00712733	-0.00319934	
0.000820289	0.00402395	0.00460915	
0.00108389	0.00284888	0.00382643	
-0.00482909	-0.00633989	-0.0118789	
0.00588358	0.00823557	0.00529899	
-0.000633107	-0.00228699	0.000622051	
0.00464841	0.00927269	0.00715108	
0.00572654	0.00746428	0.00471248	
9.16136e-05	-0.000533621	0.0016609	
-0.00369337	-0.0156205	-0.00935824	
-0.00164897	-0.00500528	-0.00270749	
-9.88513e-05	-0.000555844	0.00197277	
9.2563e-05	0.000452015	-0.00046434	
0.00025016	-0.000369739	0.000750483	
0.000660395	2.70843e-06	-0.000289836	
7.79643e-06	-0.000467557	0.00180629	
-5.21947e-05	0.000171876	-0.000400816	
0.0108873	0.0206543	0.0140297	
0.00565484	0.00742902	0.00433064	
0.0103611	0.0149866	0.00827494	
0.0101433	0.0248029	0.0155012	
-0.000173765	-0.000391526	0.00187532	
-1.80013e-06	4.78373e-05	-0.000170898	
-0.000164642	-0.000436355	0.00223654	
0.0031086	0.00520193	0.00257798	
9.18394e-06	0.000172293	-0.000520919	
8.03906e-05	-0.000499766	0.0019914	
1.45894e-05	-0.000490103	0.00162271	
-2.73927e-05	-0.000564295	0.00235839	
0.0237715	-0.0169411	0.0161418	
0.00235444	0.0169524	-0.0220128	
-0.00565623	0.0196115	-0.010833	
0.00149324	-0.00268449	-0.000532595	
-0.00555219	0.0180532	-0.009461	
-0.007756	0.0241651	-0.0121122	
-0.00541107	0.011496	-0.0112133	
-0.00499941	0.00818384	-0.00817469	
0.00162333	-0.00744119	0.00392113	
0.000168139	-0.00473466	0.00251556	
-0.000561804	0.00203667	-0.0014429	
0.00108664	-0.00247151	0.00267006	
-0.000362782	-0.000809819	-0.00228472	
-0.0153866	0.0306754	-0.0257909	
-0.00931507	0.0238969	-0.0157554	
0.000991448	-0.00289643	-0.0011428	
0.000904607	-0.00388255	0.00179129	
0.000450332	-0.00375866	0.00184797	
0.000123358	-0.00322091	0.00143334	
-0.00166765	0.00666989	-0.00388832	
-6.2505e-05	-0.000276357	-0.000120994	
-9.36789e-05	-0.000165845	-0.000198054	
0.000161018	0.000109905	-7.23628e-05	
4.72681e-05	-0.00019724	-0.000303235	
-0.000205263	-0.00117646	-0.00112649	
0.0320177	-0.0555335	0.0289625	
0.00260724	-0.00478557	-0.000253705	
-0.000806705	-0.00106962	-0.0028177	
-0.00432101	0.0150606	-0.00938909	
-0.000187992	-0.000592884	-0.000616537	
0.000145661	-0.00205141	-0.00225833	
0.000112301	-0.000398217	-0.000510414	
0.00895042	-0.00955979	0.0040219	
0.00015537	-0.00149183	-0.00163019	
-7.96531e-05	-0.000773136	-0.000783437	
-2.31056e-05	-0.000239165	-0.000298423	
7.15075e-05	-0.000242958	-0.000383106	
-0.00274377	0.00276738	0.00601435	
0.00235086	-0.00671176	-0.025608	
-0.00404784	0.00299492	0.0346524	
0.0057424	0.000486944	-0.0101833	
0.00732246	0.000824558	-0.01247	
0.0102188	0.00127251	-0.0224638	
0.0016187	0.00309651	-0.00747325	
0.00682621	0.0011853	-0.0117422	
0.00470616	0.00262806	-0.0150674	
0.0074423	0.00132732	-0.013782	
0.0127193	-8.0936e-05	0.046276	
0.00181092	-0.00242865	0.00568529	
0.00194463	0.00220229	0.028878	
-0.000149265	-3.5876e-05	0.00385903	
0.00389562	0.00254103	-0.0114725	
0.00127395	0.00318592	-0.00634816	
0.000602937	0.00334736	-0.00269556	
-0.000333284	0.00288555	-0.000823728	
0.00765099	0.00238727	0.0332477	
0.00384117	-0.00322643	0.0124884	
0.00304844	0.00207602	0.033741	
8.72206e-05	9.93238e-05	-5.21123e-05	
0.00315374	-0.00219324	0.0126783	
-3.27338e-05	0.000139783	8.79956e-05	
-0.00163835	0.00167573	0.025036	
8.03122e-06	0.00026301	-4.25518e-05	
-0.000517197	0.00355341	0.000384169	
0.000196121	0.00164976	-0.000257971	
-0.00220766	0.00323721	0.0104962	
-0.000180606	0.00205495	-0.000559443	
-0.00150382	0.00188606	0.0127806	
0.00136751	0.00333792	-0.00561727	
0.00035563	0.000432931	-9.05191e-05	
-6.06881e-05	0.00340311	-0.000647901	
0.000309787	0.002769	-0.000412065	
0.00029846	0.00120618	-0.000281205	
0.000283881	0.00226651	-0.00031275	
-0.00538381	-0.0121437	-0.00352193	
-0.0267146	-0.112722	-0.126196	
-0.00289827	-0.00624255	-0.00130529	
0.00315102	0.00522078	0.00280053	
-0.0012979	-0.00287589	0.000373127	
0.00559316	0.0125923	0.00977277	
-0.00952349	-0.0226085	-0.00990352	
0.00452485	0.00845677	0.00540912	
-0.00184481	-0.00734749	-0.0033997	
0.000786758	0.00407601	0.00452608	
0.00133058	0.00332988	0.00426665	
-0.00372092	-0.00732562	-0.0115337	
0.00542321	0.00874992	0.0057867	
-0.000487386	-0.00191556	0.000538065	
0.00554455	0.00959593	0.00740021	
0.00532115	0.00798171	0.00510186	
0.000245762	-0.000162137	0.00197813	
-0.00400687	-0.0157953	-0.00959107	
-0.00165921	-0.00510573	-0.00269488	
-0.000279448	-0.0012087	0.00159896	
9.68124e-05	0.000477344	-0.000486298	
0.000265464	-0.000388858	0.000815857	
0.00068381	-2.47613e-05	-0.000278587	
3.02959e-05	-0.000480488	0.00180036	
-4.12054e-05	0.00013139	-0.000294011	
0.011616	0.0201662	0.0142367	
0.00533752	0.00785664	0.00459263	
0.010294	0.0153381	0.00845382	
0.0119424	0.0233821	0.0151547	
-6.51888e-05	-0.000401422	0.00161732	
-6.82099e-07	3.31121e-05	-0.000119716	
-2.4557e-05	-0.000457759	0.00197553	
0.00326181	0.00513858	0.00262845	
8.44612e-06	0.00016603	-0.000506098	
8.0961e-05	-0.000448238	0.0015735	
3.82621e-05	-0.000526302	0.00169892	
6.893e-05	-0.000578743	0.00223519	
0.023342	-0.0181672	0.01722	
0.00226313	0.0174021	-0.0202378	
-0.00675982	0.0199477	-0.0106013	
0.00146563	-0.00283764	-8.49459e-05	
-0.00555942	0.0184962	-0.00940895	
-0.00831851	0.0245528	-0.0119965	
-0.004611	0.0121377	-0.0111872	
-0.00424573	0.00874037	-0.00843931	
0.00156694	-0.00701952	0.00414145	
7.30619e-05	-0.00440926	0.00267112	
-0.000579808	0.00230212	-0.00121849	
-3.17371e-06	-0.00242331	0.00268139	
-0.000348564	-0.000857294	-0.00230868	
-0.0147124	0.0329071	-0.0254264	
-0.0114339	0.0238425	-0.0154257	
0.000582786	-0.00273578	-0.0012296	
0.000922053	-0.00349452	0.00208524	
0.000456033	-0.00339638	0.0021047	
0.000183442	-0.00290143	0.0016915	
-0.00163164	0.00703977	-0.00375815	
8.59444e-05	8.04759e-05	4.25117e-05	
3.8071e-05	6.70165e-05	7.9336e-05	
-5.4361e-05	-3.06758e-05	6.09513e-05	
1.71899e-05	-7.72126e-05	-0.000117276	
-0.00026394	-0.00113405	-0.00103338	
0.0343452	-0.0552902	0.0265612	
0.00207894	-0.00500709	-0.000104683	
-0.000342494	-0.00148211	-0.00233357	
-0.00534656	0.0152447	-0.00916123	
-0.000156988	-0.000692822	-0.000760078	
3.04291e-05	-0.00204998	-0.00218631	
0.000141593	-0.000410594	-0.000570934	
0.00775926	-0.00999482	0.0046836	
4.84225e-05	-0.00146577	-0.00153471	
-5.52009e-05	-0.000747533	-0.000832715	
4.84665e-06	4.74348e-05	5.87425e-05	
5.28079e-05	-0.000167372	-0.000271706	
-0.00285033	0.00252398	0.00596883	
0.00359378	-0.00691086	-0.024043	
-0.00415028	0.00304156	0.035424	
0.00602451	0.000636439	-0.0105098	
0.00741268	0.00108951	-0.0129153	
0.00986	0.00174009	-0.0234447	
0.00243507	0.00307419	-0.00716523	
0.00669654	0.0014923	-0.0124095	
0.00599264	0.00296405	-0.0146599	
0.00710559	0.00167516	-0.0145926	
0.0131233	0.000178645	0.0471227	
0.00184576	-0.00255152	0.00627995	
0.00202849	0.00239642	0.029334	
-0.000583657	0.000345811	0.00464455	
0.00431325	0.00271516	-0.0113779	
0.00185581	0.00303926	-0.00609409	
0.000763866	0.00325884	-0.00299966	
-0.000264703	0.00308696	-0.000794237	
0.00795632	0.00252111	0.0338728	
0.00372582	-0.00312515	0.0127666	
0.00318204	0.00236727	0.0346405	
0.000113623	2.52029e-05	-9.84326e-06	
0.00312446	-0.00217217	0.0132201	
-2.5417e-06	0.000125743	7.52217e-05	
-0.00164002	0.00189597	0.0257356	
3.51997e-06	0.000130157	-2.03825e-05	
-0.000474161	0.00319752	0.000531842	
0.000208966	0.00177804	-0.000283989	
-0.00228684	0.00331817	0.0107386	
-0.00021003	0.00248413	-0.000652923	
-0.00155681	0.00206804	0.0133235	
0.00148093	0.00313629	-0.00564318	
0.000316071	0.000396689	-8.25736e-05	
-2.97666e-05	0.00310862	-0.000557737	
0.000340995	0.00298081	-0.000424631	
0.000278095	0.00116874	-0.000279176	
0.000309336	0.00246	-0.000335714	
-0.00569032	-0.0121842	-0.00349126	
-0.0231651	-0.114709	-0.133442	
-0.00246319	-0.00531106	-0.00109425	
0.00328664	0.00507872	0.00290323	
-0.00123153	-0.00275524	0.000197446	
0.0054048	0.0123317	0.00940035	
-0.0103849	-0.0214359	-0.010338	
0.00501137	0.00840052	0.0053104	
-0.00188126	-0.00762747	-0.00373756	
0.000912682	0.00388773	0.00402697	
0.0013971	0.00363047	0.00426944	
-0.00126995	-0.00784141	-0.0112282	
0.00574086	0.00878132	0.00575021	
-0.000422744	-0.00150952	0.000384581	
0.0059388	0.0101951	0.00759668	
0.00543323	0.00811358	0.0051524	
0.000244728	-2.46536e-05	0.00179899	
-0.00388039	-0.0156602	-0.00973953	
-0.00160427	-0.00513448	-0.00274131	
-0.000317512	-0.00129175	0.00118303	
0.000436939	5.41942e-05	-6.08031e-05	
0.00023677	-0.000346921	0.000758892	
0.000527792	-0.000266395	9.43592e-05	
2.95666e-05	-0.000437767	0.00162773	
-3.63951e-05	0.000113603	-0.00024866	
0.0117672	0.0202906	0.0141307	
0.00533883	0.00799558	0.00473551	
0.0102024	0.0155582	0.00874275	
0.0117666	0.0229628	0.014872	
-3.95475e-05	-0.000345136	0.0013486	
-1.82524e-07	2.11622e-06	-8.21284e-06	
-8.50935e-06	-0.000411008	0.00171046	
0.00335879	0.00505067	0.00284871	
2.94679e-06	9.01815e-05	-0.000274607	
7.65045e-05	-0.000387151	0.00126752	
3.79802e-05	-0.000491579	0.00159964	
6.5206e-05	-0.000487195	0.00186367	
0.0228311	-0.0188651	0.0183378	
0.00231424	0.0177089	-0.0200466	
-0.0068069	0.0202284	-0.0106449	
0.00156452	-0.00297324	0.000369831	
-0.00561236	0.0185614	-0.00956386	
-0.00835244	0.0247212	-0.012177	
-0.0055097	0.0125118	-0.0106578	
-0.00498175	0.00893512	-0.00802367	
0.00157694	-0.00705569	0.00402145	
5.65705e-05	-0.00448044	0.00258035	
-0.000593116	0.00230965	-0.00130924	
-0.000191774	-0.00255567	0.00256579	
-0.000332511	-0.00063039	-0.00209317	
-0.0164559	0.0341035	-0.0246321	
-0.0115426	0.0244405	-0.015266	
0.000568993	-0.0024305	-0.00114154	
0.000905854	-0.00352671	0.00195231	
0.000450276	-0.00347859	0.00200362	
0.000157961	-0.00296787	0.00160849	
-0.001665	0.00701197	-0.003844	
-8.07281e-06	-3.3066e-06	-1.8036e-06	
-3.8524e-06	-6.95719e-06	-8.24413e-06	
5.21202e-06	3.52341e-06	-2.71413e-06	
1.74676e-05	-8.23861e-05	-0.000123665	
-0.000225846	-0.000842463	-0.000757264	
0.0345321	-0.0546505	0.0262292	
0.00202767	-0.00474521	0.000219855	
-5.46881e-05	-0.00156719	-0.00176311	
-0.00537282	0.0155006	-0.00909724	
-0.000100025	-0.000473353	-0.000527366	
1.97349e-05	-0.00167731	-0.00182092	
9.04539e-05	-0.000273152	-0.000379722	
0.00702835	-0.0101201	0.00511677	
9.48646e-06	-0.00130006	-0.00136314	
-4.21675e-05	-0.000675723	-0.000792562	
-3.22951e-06	-3.35053e-05	-4.14507e-05	
3.9036e-05	-0.000132967	-0.000212504	
-0.00264106	0.00284579	0.00550985	
0.00429349	-0.00620708	-0.0234722	
-0.00367409	0.00182327	0.036319	
0.00611608	0.00106553	-0.0107813	
0.00738085	0.00129634	-0.0132676	
0.0108604	0.00130813	-0.0233116	
0.00262678	0.00259287	-0.00743564	
0.00662211	0.00155234	-0.0125668	
0.0061468	0.00243441	-0.0147296	
0.00711715	0.0013389	-0.0146531	
0.0137871	2.76889e-05	0.0474268	
0.00188117	-0.00265983	0.00656857	
0.00236219	0.00171642	0.0300262	
-0.000897889	0.000885379	0.00486639	
0.00484238	0.00226223	-0.0113302	
0.00199503	0.00270587	-0.00642544	
0.000498419	0.00256316	-0.00177905	
-0.000130826	0.00216151	-0.000485583	
0.00838657	0.00216059	0.0342386	
0.00371581	-0.00314524	0.0129008	
0.00361032	0.00170074	0.0352973	
5.1376e-05	-1.92973e-05	3.23782e-06	
0.00317225	-0.00227345	0.0135357	
2.50423e-06	5.75625e-05	3.1636e-05	
-0.00126106	0.00105953	0.0263322	
1.6767e-05	0.000604713	-9.29522e-05	
-0.000504331	0.00312009	0.000685542	
0.000101219	0.000924579	-0.000153625	
-0.00220218	0.00208933	0.0113701	
-0.00011721	0.00167724	-0.000410105	
-0.00144848	0.00107729	0.0139212	
0.00139162	0.0027731	-0.00539642	
0.000138055	0.000184182	-3.88306e-05	
-3.43298e-05	0.00294164	-0.000521268	
0.000183222	0.00173052	-0.000249816	
0.000112396	0.000510423	-0.000124607	
0.000156195	0.00134428	-0.000189617	
-0.00575919	-0.0122042	-0.00314503	
-0.0240873	-0.115579	-0.137635	
-0.00233515	-0.00505936	-0.00127395	
0.00342973	0.00499368	0.00328562	
-0.00122104	-0.00278827	-0.000183899	
0.00530035	0.0122748	0.00915302	
-0.0102421	-0.0214754	-0.0099916	
0.00510619	0.00831928	0.00589056	
-0.00190879	-0.00778135	-0.00425353	
0.000870673	0.00370109	0.00366563	
0.00134595	0.00363996	0.00391279	
-0.00123567	-0.00758393	-0.0115457	
0.00591075	0.00858178	0.00641625	
-0.000318653	-0.00137684	0.000604477	
0.0060108	0.0103968	0.00783102	
0.00561626	0.00782802	0.0059192	
0.000128045	-0.000144686	0.001194	
-0.00374259	-0.0155483	-0.0100431	
-0.00160452	-0.00508178	-0.00298251	
-0.000262792	-0.00105137	0.000790378	
0.000298938	2.50209e-05	-3.92249e-05	
0.000161135	-0.000234936	0.000533989	
0.000248195	-0.000171022	0.000229831	
2.86953e-05	-0.000376672	0.00138385	
2.4818e-06	-7.52314e-06	1.65512e-05	
0.0118202	0.0204781	0.0141967	
0.00554201	0.00778445	0.00568426	
0.0103476	0.0155599	0.00970361	
0.0116632	0.0229661	0.0150076	
-3.43964e-05	-0.000356373	0.0013795	
1.49978e-05	-0.000233382	0.000782077	
-2.98005e-06	-0.000358874	0.00147783	
0.00343094	0.00497354	0.00339036	
-1.23207e-06	-0.000130315	0.000389599	
7.81991e-05	-0.000392862	0.00128372	
3.23431e-05	-0.000389207	0.00126851	
5.26871e-05	-0.000395799	0.00150122	
0.0225643	-0.0201494	0.0189423	
0.00217283	0.0177284	-0.0196303	
-0.00684738	0.0204236	-0.0107539	
0.00155002	-0.00313564	0.000386745	
-0.00565914	0.0186781	-0.00967924	
-0.00844426	0.0248487	-0.0123359	
-0.005695	0.0130509	-0.0102264	
-0.00514942	0.00944648	-0.00758003	
0.00156998	-0.00694356	0.00400948	
3.0381e-06	-0.00441955	0.00257461	
-0.0006068	0.00237434	-0.0013165	
-0.000506939	-0.00247485	0.00253316	
-0.000414596	-0.00013239	-0.00167251	
-0.0168362	0.0351759	-0.0243751	
-0.0115502	0.024803	-0.0152703	
0.000645275	-0.00201834	-0.000837274	
0.000900952	-0.00343382	0.00195087	
0.000452234	-0.00341672	0.00201753	
0.000164244	-0.00291098	0.00163071	
-0.00168146	0.0070893	-0.00387159	
3.42487e-05	-3.00001e-07	-1.7134e-06	
9.35905e-06	1.7243e-05	2.03224e-05	
-1.53346e-05	-9.52103e-06	1.56142e-05	
1.34926e-05	-6.76986e-05	-0.000100204	
-0.000291383	-0.00104885	-0.000963586	
0.034609	-0.0541958	0.0264268	
0.00222553	-0.00422053	0.000440687	
7.71186e-06	-0.0013348	-0.00145634	
-0.00534873	0.0156139	-0.0090892	
-7.08223e-05	-0.000358568	-0.000402872	
3.87374e-05	-0.00125995	-0.00143599	
6.65975e-05	-0.000214751	-0.000296328	
0.00680523	-0.0102743	0.00511263	
1.11319e-05	-0.00129657	-0.00139974	
-2.27501e-05	-0.0004401	-0.000522707	
-6.03777e-07	-6.44582e-06	-7.9342e-06	
3.13065e-05	-0.000112848	-0.000177528	
-0.00270751	0.00247935	0.00551785	
0.00361157	-0.00546101	-0.023185	
-0.00326074	0.00101019	0.0367806	
0.00627789	0.000559991	-0.0108601	
0.00740218	0.000827266	-0.0131098	
0.0109977	0.000809368	-0.0235511	
0.00250414	0.00175308	-0.00698984	
0.00684522	0.000675146	-0.0125323	
0.00623262	0.00179996	-0.014959	
0.00740842	0.000803134	-0.0145876	
0.0139721	0.000213592	0.0476917	
0.00178834	-0.00258859	0.00679682	
0.00254348	0.00140375	0.0303705	
-0.00107759	0.00175376	0.00480311	
0.00495909	0.00152493	-0.0114296	
0.00182772	0.00151145	-0.005847	
0.000551317	0.000994233	-0.00132327	
-8.3004e-05	0.00142814	-0.000310077	
0.00857536	0.00217727	0.0344418	
0.00357678	-0.00297626	0.0130485	
0.00379474	0.00152999	0.0355973	
2.86112e-05	-4.10509e-05	4.77437e-06	
0.00308411	-0.00219682	0.0137497	
4.70565e-06	5.18863e-05	2.58394e-05	
-0.00105335	0.00065123	0.0264937	
4.44842e-06	0.000152228	-2.2856e-05	
-0.000518717	0.00135222	0.0013018	
5.21027e-05	0.000513316	-8.77148e-05	
-0.00204289	0.000943988	0.0116868	
-5.93904e-05	0.00104276	-0.000233064	
-0.00136916	0.000539332	0.0141466	
0.00137295	0.00101724	-0.0049943	
9.37529e-05	0.00013314	-2.71034e-05	
-1.69981e-05	0.00110662	-0.000194867	
7.58169e-05	0.000787719	-0.000115832	
6.69451e-05	0.000327104	-7.99807e-05	
6.59322e-05	0.000620129	-8.9643e-05	
-0.00612747	-0.0122745	-0.00368357	
-0.0261177	-0.116444	-0.140355	
-0.00158932	-0.00342504	-0.00092173	
0.00334676	0.00515924	0.00253355	
-0.00107709	-0.00248333	-0.000666753	
0.00479552	0.0113943	0.00793692	
-0.0100416	-0.0202745	-0.0111751	
0.00497902	0.00888783	0.00449779	
-0.00194651	-0.00777496	-0.00466247	
0.000935023	0.00402438	0.00371059	
0.0015939	0.00467439	0.0039292	
-0.00121852	-0.00759772	-0.0119631	
0.00595868	0.00915798	0.00495771	
-0.000268482	-0.000725171	-5.72246e-05	
0.00637886	0.0113095	0.0072622	
0.00573584	0.00841684	0.00439283	
0.000413777	0.000836131	0.00168935	
-0.00373409	-0.0159976	-0.0104549	
-0.00165071	-0.00513396	-0.00322737	
-0.000619984	-0.00218611	-0.000123988	
0.000226337	2.27405e-05	-2.95993e-05	
0.000110814	-0.000164655	0.000381075	
0.000198116	-0.000147103	0.000201793	
1.3442e-05	-0.00018466	0.000674113	
-6.99102e-05	0.000213961	-0.000470351	
0.0117798	0.020609	0.0135889	
0.00555306	0.00829946	0.00398754	
0.0103349	0.0159853	0.00830527	
0.0111197	0.0223416	0.0135709	
-1.06509e-05	-0.000145789	0.000556642	
-2.28989e-05	0.000251212	-0.000811183	
1.17961e-06	-0.000242596	0.000985038	
0.00341659	0.00529682	0.00238828	
-3.49105e-06	0.000286411	-0.000847939	
3.67868e-05	-0.000183439	0.000595712	
1.38552e-05	-0.000181105	0.000593903	
4.43931e-05	-0.000337087	0.00126082	
0.0224481	-0.0195471	0.0196801	
0.00221888	0.0177384	-0.0194411	
-0.00685954	0.0205387	-0.0107325	
0.00189899	-0.00279504	0.00118699	
-0.00566273	0.018671	-0.00972355	
-0.0084791	0.0249149	-0.012424	
-0.00572897	0.0133794	-0.00999334	
-0.00527774	0.00992036	-0.00736646	
0.00156665	-0.00690034	0.00396818	
6.12196e-06	-0.00440205	0.00256125	
-0.000615452	0.00240655	-0.00133658	
-0.000653638	-0.00243321	0.00251644	
-0.000331741	-9.92292e-05	-0.0013383	
-0.0169756	0.0360068	-0.0242363	
-0.0116105	0.0251754	-0.0151919	
0.000389755	-0.00124693	-0.00056299	
0.000894017	-0.00339535	0.00191558	
0.000452495	-0.00341132	0.00199418	
0.000161642	-0.002903	0.00161802	
-0.0016964	0.00711874	-0.0039096	
1.2138e-05	-4.28304e-06	-4.62127e-06	
3.27161e-06	6.17179e-06	7.24952e-06	
-5.92006e-06	-3.75652e-06	6.23282e-06	
6.20049e-06	-3.33029e-05	-4.84903e-05	
-3.87132e-05	-0.00014316	-0.000137785	
0.0347381	-0.0537001	0.0265842	
0.00219953	-0.00406738	0.000530878	
0.000574215	-0.0016452	-0.000620897	
-0.00534068	0.0157934	-0.00900306	
-3.98752e-05	-0.000221028	-0.00025047	
5.81994e-05	-0.00110551	-0.00134013	
3.15551e-05	-0.000108723	-0.00014874	
0.00671816	-0.00955597	0.00542095	
7.49896e-06	-0.000362503	-0.000407831	
-1.22039e-05	-0.000309519	-0.000371001	
-1.20373e-06	-1.33112e-05	-1.63629e-05	
1.44379e-05	-5.54262e-05	-8.56257e-05	
-0.00272733	0.00233458	0.0055309	
0.00239758	-0.00550558	-0.0229057	
-0.00319508	0.000997659	0.0370203	
0.00633992	0.000415885	-0.0110214	
0.00755673	0.000723014	-0.0133121	
0.0110483	0.00122217	-0.0241004	
0.00234088	0.00141724	-0.00658299	
0.00694867	0.00107105	-0.012782	
0.0060354	0.00151972	-0.0146376	
0.00747052	0.00116138	-0.0148749	
0.0140227	0.000601095	0.0477785	
0.00169208	-0.00250052	0.0071463	
0.00266554	0.00149036	0.0305231	
-0.00117385	0.0024361	0.00501221	
0.00496479	0.00184128	-0.0117182	
0.00171047	0.00117988	-0.00557073	
0.000526548	0.000925765	-0.00119653	
-0.000100062	0.00177866	-0.000378125	
0.00871369	0.00233738	0.0345674	
0.00335496	-0.00272364	0.0132531	
0.00389105	0.00165974	0.0358469	
5.56253e-07	-3.80339e-05	2.82971e-06	
0.00295248	-0.00197166	0.0139454	
9.04119e-06	5.62307e-05	2.50768e-05	
-0.00102194	0.000744886	0.0266599	
1.2951e-06	4.66985e-05	-6.90511e-06	
-0.000534404	0.00111464	0.00148346	
4.58791e-05	0.000488031	-8.50947e-05	
-0.00202395	0.00088884	0.0117949	
-7.2296e-05	0.00134058	-0.000289892	
-0.00137554	0.000592926	0.0142047	
0.00133946	0.0009392	-0.00494666	
0.000109282	0.000165546	-3.27859e-05	
-1.53672e-05	0.000973228	-0.00016895	
6.74857e-05	0.000750507	-0.000110797	
6.20936e-05	0.000330798	-8.06859e-05	
5.98439e-05	0.000611557	-8.95303e-05	
-0.00593122	-0.0123827	-0.00298698	
-0.0278672	-0.119745	-0.142384	
-0.00162821	-0.0035744	-0.000531878	
0.00344372	0.00499027	0.00339201	
-0.00112671	-0.00257749	-6.29755e-05	
0.00482771	0.0112983	0.00864141	
-0.00977459	-0.0209449	-0.00951409	
0.00520572	0.00842176	0.00649775	
-0.00202993	-0.00823023	-0.00444445	
0.00085498	0.00365888	0.00361907	
0.00168384	0.00462387	0.00466041	
-0.0013495	-0.00750605	-0.0117903	
0.00607048	0.0087519	0.00696754	
-5.7743e-05	-0.000958974	0.00108959	
0.00632937	0.0110408	0.00827549	
0.00580367	0.00804414	0.00636248	
0.000433417	0.000708358	0.00194725	
-0.00378013	-0.0158987	-0.010172	
-0.00167319	-0.00527291	-0.00308353	
-0.00068373	-0.00241573	7.45047e-05	
0.000298178	-7.51532e-05	0.000109315	
0.000174265	-0.000261185	0.000614194	
0.000235869	-0.000199712	0.000274757	
3.55441e-05	-0.000384745	0.00138339	
2.06918e-05	-6.41256e-05	0.000142988	
0.011768	0.0204575	0.0142673	
0.00559516	0.00784742	0.00587152	
0.0104808	0.0156478	0.0101419	
0.0112389	0.0222167	0.0148237	