<VTKFile type="UnstructuredGrid" version="0.1" byte_order="LittleEndian">
	<UnstructuredGrid>
		<Piece NumberOfPoints="15984" NumberOfCells="15984">
			<CellData Scalars="scalars">
				<DataArray type="Float64" Name="Strength" NumberOfComponents="3" Format="ascii">
-0.00887613	-0.0142712	0.0143489	
-0.0216906	-0.0129291	-0.0194604	
0.0234303	0.0692124	0.0115135	
0.00584705	-0.00735705	-0.00593916	
0.0064931	-0.000488189	-0.0110854	
0.00710801	0.0526074	-0.0392544	
0.00651552	0.0847714	-0.0386727	
-0.000792269	0.0129222	-0.0213514	
0.00403941	0.0827122	-0.0413247	
-3.75217e-05	0.0253462	-0.0311649	
0.00135452	0.0237786	0.0395538	
0.00533589	-0.00198777	-0.00123669	
0.00106301	0.0437219	0.00806436	
0.000677708	-0.00120959	0.00237036	
0.00144766	0.06787	-0.0443048	
0.00296314	0.086811	-0.029426	
0.0149759	0.0953811	0.0147004	
-0.00704659	0.0517237	-0.0484695	
0.00427285	0.0188874	0.0255857	
0.0048844	-0.00980988	0.00975866	
-0.00244588	0.0387451	0.01395	
0.0030362	-0.00300702	0.000491359	
0.00207935	-0.0048452	0.0104729	
0.000902289	0.00205028	-0.00133021	
0.00918883	0.0506875	0.00558162	
-0.000746719	-0.0124924	0.00467007	
0.00479444	0.0884129	-0.0259076	
0.00427011	0.0361077	0.0249604	
0.019761	0.0858354	0.0142149	
-0.0119149	0.0346275	-0.0364468	
0.00739632	0.0515412	0.0196586	
0.010901	0.0925668	-0.00122363	
0.000580649	0.000315846	9.68367e-05	
0.00639226	0.0887626	-0.0138574	
-0.00183961	0.0802715	0.0146875	
0.0121365	-0.0020125	0.0187224	
-0.00287538	0.0554924	0.0282358	
-0.013794	-0.00677121	-0.0245143	
-0.0969614	-0.0848666	-0.074569	
0.0155839	0.0126442	0.0490324	
0.000845471	0.011524	-0.0142795	
0.00994181	-0.0221943	0.0509551	
-0.0114988	-0.0210527	0.0652115	
-0.0170472	-0.0125696	0.0581419	
0.0163446	-0.0172434	0.052078	
0.019781	-0.0125601	0.0352134	
0.0124262	-5.45975e-05	0.0163958	
0.00765445	-0.0215153	0.054385	
0.00892947	-0.0151881	-0.0468075	
0.0103479	-0.00285931	0.0493384	
0.00139502	-0.00967676	0.0272119	
0.00308026	0.0135264	0.0545009	
0.00538793	0.00659186	0.0406909	
0.0315803	-0.0205347	0.0358953	
0.0166673	-0.0179691	0.024606	
-0.000267848	-0.0202196	-0.00346538	
0.00832357	-0.0293693	0.0504866	
0.00197681	-0.0332441	0.0378812	
0.00731221	-0.0244105	0.00706129	
0.00140058	0.00279856	0.0198859	
0.00732658	-0.0139711	0.0586094	
-0.0071083	0.00770758	-0.0203863	
0.0202095	0.00493114	0.0403281	
0.00333526	0.00854873	0.0314235	
0.00896758	0.0148271	0.0157453	
-0.00176211	-0.0198916	0.0770586	
-0.00670502	0.0153217	0.0382749	
-0.00387008	0.00289102	0.0189365	
0.00326908	0.0118297	0.044017	
0.00442771	0.00812071	-0.0109586	
0.00126105	0.000274632	-0.00483533	
0.000497427	-0.00235292	0.0255731	
0.0207057	-0.0205281	0.0496254	
0.00286729	-0.00299595	0.0532354	
0.0131693	-0.0601442	0.00214122	
-0.00269541	0.00839947	-0.0366221	
-0.00479039	0.00241927	-0.0330434	
-0.00936349	-0.0437838	-0.00523289	
-0.0103324	0.014612	-0.00979807	
-0.0140297	0.0101611	-0.0240228	
0.00873512	-0.000938544	-0.0540618	
0.0122757	-0.00612247	-0.05806	
0.00285821	-0.00966703	0.00119413	
0.00202146	-0.00714285	0.00145005	
0.000435577	0.00107113	-0.00345771	
0.00248374	0.00322076	0.00701615	
0.0136313	-0.019722	-0.0667139	
-0.0138449	-0.0149112	-0.0482164	
-0.0163771	-0.0436075	-0.026206	
0.013936	-0.0392865	-0.0605759	
0.00111374	-0.004962	0.000780795	
0.000227496	-0.00611095	-0.000589197	
-9.52284e-05	-0.00536848	-0.00180275	
-0.00207101	0.00532694	-0.00459452	
0.0018189	-0.00218365	0.00291428	
-0.00200291	-0.0023802	0.000383076	
-0.00131739	0.00169355	-0.00194141	
0.00709191	0.00173476	-0.00838703	
-0.0176594	-0.0474382	0.009222	
0.051938	-0.0501507	-0.053123	
0.0127157	-0.0467832	-0.0546327	
-0.00208465	-0.0564521	-0.0434505	
-0.00343671	0.0010122	-0.0355234	
-0.00231829	-0.0581787	-0.0170238	
0.00393616	-0.049909	-0.0492348	
-0.000253343	0.00346747	-0.0429857	
0.00517312	-0.0520706	-0.031171	
-0.00194728	-0.0661885	-0.0456395	
0.00251694	-0.0112996	-0.0140581	
1.41169e-06	6.71885e-06	9.26973e-06	
0.0108	0.0105992	-0.0170641	
-0.00161992	0.00356641	0.00652643	
0.00600706	-0.0225343	-0.0193178	
-0.0224969	-0.00314237	0.0259443	
0.00460527	-0.00155852	-0.0107094	
0.00704285	-6.23563e-05	-0.0129567	
0.0190895	0.0164539	-0.00770008	
0.00406158	0.0138841	-0.00136038	
0.00718575	0.00299982	-0.0123365	
0.00821588	0.0188241	0.000888812	
0.0104719	0.00606988	-0.0124275	
0.0226967	0.00271431	0.0413679	
-0.00221343	-0.00301283	0.00359677	
-0.00202205	-0.000989993	0.0283151	
-0.000818214	0.00200266	0.000897401	
0.00732333	0.0150653	-0.00367957	
0.00328819	0.0134438	0.000569952	
0.00195145	0.00983859	0.00573161	
-0.000293997	0.00638095	-0.00858541	
0.0145238	0.0050086	0.0299365	
0.00339454	-0.00680654	0.0109347	
0.003397	0.0034232	0.0328148	
-0.000295681	1.74869e-06	-8.92964e-05	
0.00432675	-0.00415557	0.0107413	
-0.000332478	-0.000252008	-6.34878e-05	
-0.00807312	-0.00278882	0.0231667	
-3.19294e-06	0.000184719	-8.27556e-05	
-0.0011244	0.0109296	-0.00223733	
0.00524981	0.00156221	0.00148818	
-0.00962646	0.00518654	0.00715515	
-0.00179427	0.00425499	-0.00699997	
-0.00349503	-0.000467664	0.0126947	
0.00310228	0.0103512	0.00495712	
-0.00114299	0.000485142	0.000617257	
-0.000576533	0.0103241	0.000429365	
0.00398452	0.00392943	0.0068529	
0.00215523	-0.00170956	-0.000545335	
0.00497118	0.00279521	0.00448798	
-0.00151595	-0.0126702	-0.00557229	
0.0246962	-0.0993727	-0.124538	
-0.0107862	-0.000343505	0.00325732	
0.000874533	0.00685995	0.00150141	
-0.00387748	-0.00373027	0.00402583	
0.0142325	0.00252419	0.015682	
-0.0274846	-0.00600859	0.00553044	
0.0113011	0.000204716	0.0040282	
0.00118604	-0.00817921	-0.000545123	
-0.0019313	0.000669955	0.00677683	
0.00124032	-0.00143953	0.00769762	
-0.00214553	-0.00452009	-0.0123928	
0.0108673	0.00120511	0.00616001	
-0.00151869	-0.00211976	0.00479318	
0.00931695	0.00436555	0.00959329	
0.00933042	0.00313512	0.00569921	
0.000276533	-0.00300597	0.00487135	
-0.00401095	-0.0155969	-0.00787004	
0.00201525	-0.00518763	-0.0022388	
-0.000237176	-0.00276732	0.0064688	
-0.00188531	0.00141309	-0.000742527	
0.00201865	-0.00188856	0.00125005	
0.000171193	0.00227396	0.000746415	
-0.00129442	-0.00236947	0.00577944	
-0.000487099	0.000491488	-0.00132366	
0.0219262	0.012626	0.0156059	
0.00857251	0.0049554	0.00451738	
0.0124722	0.0153006	0.00534185	
0.0293553	0.00494674	0.0166903	
-0.00182878	0.00296825	0.00490618	
-0.000217629	0.000250647	0.000742861	
-0.000665471	0.00314532	0.00624169	
0.00220657	0.00625296	0.00106741	
0.000333017	-4.82823e-05	-0.00091161	
-0.000141382	0.000245589	0.00621006	
-7.82947e-05	-0.00307571	0.00533169	
-0.00110537	-0.000907902	0.00745023	
0.0273774	-0.0193591	-0.0069669	
0.0069399	-0.0129312	-0.0216293	
-0.0131809	0.0194707	-0.000591976	
0.000449635	-0.00667182	-0.000888599	
-0.00507468	0.021206	-0.000861345	
-0.0107944	0.0265718	0.00215954	
-0.00936454	-0.000489877	-0.0154655	
-0.00735492	-0.000815246	-0.0114307	
0.00119774	-0.00597363	0.00576407	
0.000256891	-0.00315648	0.00394922	
-0.000816483	0.00266183	0.000309367	
0.00086328	0.00302812	0.00208919	
0.000760902	-0.00047076	-0.0083473	
-0.0321344	-0.00794297	-0.0269494	
-0.0240894	0.0167678	-0.00803167	
0.00284785	-0.00348251	-0.00871883	
0.00109786	-0.00294682	0.00309083	
0.000809469	-0.00226647	0.00317858	
0.000500584	-0.00238524	0.00230349	
-0.00115007	0.00841632	-0.0013986	
-0.000514492	0.00139847	0.000358375	
0.00107619	8.56236e-05	2.5087e-05	
-6.2328e-05	-0.000162875	0.000808151	
-0.000377146	-3.86241e-05	0.000285748	
-0.0014137	-0.00482417	0.00220305	
0.0547297	-0.0388331	-0.0285766	
0.00497109	-0.00487407	-0.00869351	
-0.00162861	-0.00798737	-0.00483257	
-0.0105054	0.0149431	-0.00332964	
-0.00129275	-0.00236567	-0.00121509	
0.000700632	-0.00723078	-0.00667795	
0.00109677	0.000407405	-0.00106695	
0.0119118	-0.00748954	-0.00897578	
0.000279319	-0.00626347	-0.00368156	
0.000692889	-0.0031742	-0.00279663	
0.000111826	0.000704107	0.00106801	
0.000143919	6.3363e-05	-8.31044e-05	
-0.00195682	0.00392207	0.00616465	
0.0120703	-0.0253622	-0.00527538	
-0.00122782	-0.0097569	0.0336635	
0.0057873	-0.00213522	-0.0101648	
0.00851337	-0.00158863	-0.0117413	
0.0205453	-0.000254282	-0.0132476	
0.00387277	0.00186401	-0.00665062	
0.00885136	-0.000197558	-0.0103696	
0.0112019	0.00107406	-0.0112656	
0.0117154	8.89179e-05	-0.0104799	
0.010384	0.0134502	0.0449699	
0.000966044	-0.00208122	0.00547408	
0.000607925	-8.58093e-05	0.0291939	
-0.000613945	0.00302933	-2.29881e-05	
0.00906993	0.000777695	-0.00814973	
0.00276366	0.00208422	-0.00605708	
0.000584168	0.00341822	-0.00233942	
-0.000689195	0.00136894	-0.00245277	
0.00824407	0.00858721	0.0321805	
0.00599076	-0.00624542	0.0103919	
0.00216177	0.00334976	0.0339237	
-7.61338e-05	8.3243e-05	0.000209755	
0.00654279	-0.0050426	0.0100412	
7.60755e-05	8.61229e-06	-0.000149374	
-0.00237366	-0.00370115	0.0246563	
-5.98601e-06	6.56165e-05	-3.37115e-05	
-0.000938921	0.00294267	0.000251448	
0.00168224	0.000488498	-2.3958e-05	
-0.000953835	-0.00030495	0.0109952	
-0.000673171	0.00084744	-0.00193532	
-0.000314839	-0.00238029	0.0125474	
0.000873312	0.00353104	-0.00522886	
-0.00048496	-0.000287119	0.000128897	
-0.000303665	0.00280745	-0.000469051	
0.00157456	0.00189746	0.000363555	
0.00101089	-0.000714364	-0.000151465	
0.00172643	0.00126102	0.000237614	
-0.00177365	-0.0132208	-0.00428525	
-0.0201339	-0.0952369	-0.137335	
-0.0042857	-0.00754278	0.000598051	
0.00160635	0.00639383	0.00247647	
-0.00188622	-0.00270902	0.000641896	
0.00781899	0.0146448	0.00733935	
-0.016531	-0.0222616	-0.00279232	
0.00716716	0.00795389	0.00224245	
-0.00191824	-0.00654703	-0.0044926	
0.0024901	-0.000104723	0.00578317	
0.00147777	0.00308427	0.00364861	
-0.00369473	-0.0101244	-0.00985536	
0.00778231	0.00815803	0.00338671	
-0.000857333	-0.00206199	0.00116638	
0.00445091	0.0116642	0.00331091	
0.00742136	0.00745953	0.00264243	
0.00031274	-0.000733576	0.00159335	
-0.00607817	-0.0147465	-0.0102751	
-0.0013598	-0.0044988	-0.00381138	
-0.000148849	-0.00040946	0.00204845	
-0.000407518	0.000487813	-0.000207552	
0.000631837	-0.000536484	0.000324491	
-0.000630122	0.000328216	0.000200121	
-0.000313481	-1.79665e-05	0.00188073	
-0.000153293	0.000151406	-0.000397289	
0.0120454	0.0236579	0.00871316	
0.00732161	0.00745181	0.00186811	
0.0119629	0.0164098	0.00376603	
0.0108918	0.0295149	0.00415939	
-0.000959846	0.000655184	0.00158798	
5.56205e-05	-7.54577e-05	-0.000157123	
-0.000928953	0.000911326	0.0019398	
0.0024675	0.0060459	0.0018992	
0.000221979	-7.51098e-05	-0.000514638	
-0.000171839	6.61814e-05	0.00209489	
6.84395e-05	-0.000518134	0.00164879	
-0.00056277	0.000337173	0.00239111	
0.0299273	-0.0167633	-0.00371016	
0.00953226	-0.0070276	-0.0259909	
-0.00526901	0.0229476	0.00290322	
0.00161637	-0.00278267	4.26124e-05	
-0.0057689	0.020826	-0.00149187	
-0.00657529	0.0278207	0.00394813	
-0.00816781	0.0109595	-0.0108272	
-0.00731682	0.00862967	-0.00635093	
0.00216741	-0.00755353	0.00387635	
0.000523108	-0.00477808	0.00263357	
-0.000471766	0.00246639	-0.000754108	
0.000323494	0.00172262	0.00371888	
-3.26264e-05	0.000452041	-0.00248217	
-0.0278705	0.0217439	-0.0264802	
-0.00955984	0.0258096	-0.0140443	
0.00161894	-0.00209618	-0.00207783	
0.00105031	-0.0040165	0.00165899	
0.000877064	-0.00373315	0.00196045	
0.00038685	-0.0034912	0.00080841	
-0.00195438	0.00747073	-0.0024097	
0.000223608	-0.000133914	0.000334348	
-0.000264026	-9.62751e-05	1.69121e-05	
-0.000115182	-4.402e-05	0.00017473	
0.000294473	2.71676e-05	-0.00022929	
-0.000539378	-0.00128087	0.000970838	
0.0413396	-0.0551011	0.0218059	
0.00418866	-0.00348624	-0.00139187	
-0.00134362	-0.00227753	-0.00183289	
-0.00376	0.0183401	-0.00112419	
-0.000524585	-0.000654066	-0.000325593	
0.000171644	-0.00242333	-0.00200148	
0.000570341	-3.9568e-05	-0.000356766	
0.0132207	-0.00500584	-0.000631008	
0.000111326	-0.0020679	-0.000961277	
8.09488e-06	-0.000882927	-0.000712307	
-3.80001e-05	-0.000208426	-0.000330288	
0.000402057	8.75572e-05	-0.00022938	
-0.00238473	0.00422257	0.00560114	
0.0116767	-0.0235888	-0.00686126	
-0.00647	-0.00155859	0.035206	
0.00625849	-0.00212265	-0.0101005	
0.00842835	-0.00250438	-0.0120661	
0.0142419	-0.00853734	-0.019225	
0.00137584	0.000228222	-0.00834535	
0.00813844	-0.00240821	-0.0111871	
0.00541344	-0.00348775	-0.0151061	
0.00987834	-0.00362781	-0.0122887	
0.0148333	0.0103312	0.0455456	
-0.00089244	-0.00312581	0.00574615	
0.000929274	0.000902283	0.0296397	
-0.00184942	0.00279792	0.00269925	
0.00436219	-0.0028709	-0.0115864	
0.00140178	0.00139595	-0.0071296	
0.00112509	0.00350706	-0.0024913	
-0.00129424	0.00138015	-0.00246455	
0.00930135	0.00959336	0.0322687	
0.00499122	-0.0044145	0.0120098	
0.00338671	0.00423348	0.0342532	
-1.63161e-05	-9.7773e-05	-0.000136077	
0.00608174	-0.00578368	0.0105998	
6.63305e-05	0.000153698	-4.94232e-05	
-0.00249706	-0.00234696	0.0254827	
-3.01654e-05	0.000236905	-0.000136673	
-0.00111603	0.00349585	-0.000548176	
0.00159118	0.000651938	-8.21458e-05	
-0.0030311	0.00274537	0.0107139	
-0.000970676	0.000776255	-0.00181707	
-0.00122109	-0.000838859	0.0132206	
0.00194888	0.00330144	-0.00566304	
-0.00051128	-0.000185222	0.000200298	
-0.000303107	0.00332085	-0.00123887	
0.00190572	0.00215224	0.000263725	
0.00111572	-0.000647592	-0.000181797	
0.00193178	0.00133862	0.000243699	
-0.00308655	-0.0134309	-0.0033695	
-0.0250513	-0.0269835	-0.170749	
-0.00435496	-0.00572129	0.000208436	
0.00240074	0.00603188	0.00241251	
-0.00186585	-0.00258872	0.000660029	
0.00735106	0.0137771	0.00746065	
-0.0112048	-0.024536	-0.00357169	
0.00532598	0.00959223	0.00284421	
-0.00289362	-0.00644974	-0.00469892	
0.0048376	0.00255664	0.00426476	
0.00186814	0.0034476	0.00413348	
-0.00644359	-0.00592501	-0.0114728	
0.00548171	0.0102725	0.00353637	
-0.00038514	-0.00183767	0.00094903	
0.00581325	0.0116351	0.00419539	
0.00549074	0.00948312	0.00233799	
0.000676282	-0.000508619	0.00185449	
-0.00581489	-0.0155738	-0.00983085	
0.00033829	-0.00414913	-0.00451081	
-0.000473219	-0.00113692	0.00166168	
-0.000700776	3.29379e-05	-7.24949e-05	
0.000861995	-0.000221934	0.000361638	
0.000425635	0.000595672	-0.000186719	
-0.000310698	-0.000104062	0.00187565	
-0.000117747	0.000117208	-0.000290118	
0.0131253	0.0222028	0.010878	
0.0059067	0.00905339	0.00125765	
0.0112061	0.0175031	0.00280412	
0.0143128	0.0267367	0.00684173	
-0.000802255	0.000511123	0.00141589	
4.39064e-05	-5.42628e-05	-0.000107313	
-0.000864471	0.000801936	0.00170527	
0.0029356	0.00589116	0.00188805	
0.000227959	-9.79355e-05	-0.00048974	
-0.000157785	-4.15871e-05	0.00166839	
9.4032e-05	-0.00059824	0.00171072	
-0.000506311	0.000247683	0.00229325	
0.0315953	-0.0152786	0.00462631	
0.00973568	-0.0088506	-0.0240485	
-0.00769854	0.0229386	0.00101672	
0.00150002	-0.00263601	0.00129931	
-0.00608424	0.0211162	-0.00162373	
-0.0088908	0.0277953	0.0028684	
-0.00486586	0.0145864	-0.00863826	
-0.00448248	0.0112645	-0.0053478	
0.00179019	-0.00704515	0.00439242	
0.000831977	-0.0042264	0.00303582	
-0.000634981	0.00261828	-0.000469121	
-0.00171231	0.000510824	0.00332823	
0.000289057	0.000431305	-0.0025083	
-0.0176125	0.0329875	-0.0257287	
-0.0136142	0.0237398	-0.0154932	
0.000793616	-0.00240427	-0.00187059	
0.000994991	-0.00362746	0.00202404	
0.000839703	-0.00331878	0.0022816	
0.000537288	-0.00312423	0.00133272	
-0.00183077	0.00783576	-0.00220471	
-0.000142468	-4.12453e-05	-7.95367e-05	
0.000107962	3.42769e-05	-4.60209e-06	
8.24198e-05	3.63373e-05	5.51118e-06	
0.000112391	1.2323e-05	-9.09617e-05	
-0.00079587	-0.000928804	0.00104603	
0.0369427	-0.0586719	0.0202668	
0.00273215	-0.00486949	-0.000257075	
-0.000551054	-0.00217281	-0.00179857	
-0.00559141	0.0179796	-0.00305817	
-0.000542895	-0.000844031	-0.000367378	
5.83288e-06	-0.00246	-0.00187142	
0.000616965	-5.24875e-06	-0.000400663	
0.0111729	-0.00647333	0.00524456	
-5.31058e-05	-0.002053	-0.000759307	
-8.63075e-05	-0.000831709	-0.00079244	
7.13747e-06	4.11425e-05	6.53008e-05	
0.000280635	7.5512e-05	-0.000160049	
-0.00298077	0.0040743	0.00530052	
0.0237246	-0.00983717	0.00233381	
-0.00772148	-0.00177487	0.0357541	
0.00663726	-0.00220888	-0.0103763	
0.00808162	-0.00316226	-0.0127089	
0.0122327	-0.00922849	-0.021254	
0.00237941	0.000767273	-0.00799363	
0.00738569	-0.00365023	-0.0120565	
0.00688668	-0.00188277	-0.0149103	
0.00857917	-0.00503476	-0.0135277	
0.0132624	0.0126735	0.0464312	
0.00474125	-0.00226556	0.00490813	
0.000861654	0.00242497	0.0300308	
-0.0032241	0.00342024	-0.00135517	
0.00504075	-0.00217181	-0.0115626	
0.00222497	0.00150819	-0.00671706	
0.00137039	0.00346548	-0.00270309	
-0.00155361	0.00146074	-0.00250884	
0.00900058	0.0106039	0.0327839	
0.00659712	-0.00556227	0.0109377	
0.00414478	0.00514607	0.0349917	
-1.09456e-05	5.79155e-05	-0.000162361	
0.00569329	-0.00450065	0.012008	
0.000134578	3.94806e-05	-5.41358e-05	
-0.00265479	-0.00136266	0.0262631	
-1.85111e-05	0.000114088	-7.14234e-05	
-0.00105755	0.00318253	-0.000289295	
0.00171774	0.000696764	-9.22721e-05	
-0.00321334	0.00251809	0.0110066	
-0.0013196	0.000893179	-0.00212272	
-0.00123922	-0.000386687	0.0138182	
0.00212301	0.00321121	-0.00558495	
-0.000468605	-0.00017205	0.000161488	
-0.000238167	0.00306271	-0.00103824	
0.00205211	0.00230023	0.000381105	
0.00106925	-0.000659601	-0.000109404	
0.00208358	0.00145813	0.000326142	
-0.00443098	-0.0133928	-0.00259949	
0.00867675	-0.106408	-0.146378	
-0.00363758	-0.00491243	0.000239237	
0.00302161	0.00573694	0.00243598	
-0.00173477	-0.00252856	0.000468954	
0.00698307	0.0135616	0.00709648	
-0.0129492	-0.0230532	-0.00375988	
0.00600667	0.00931278	0.00291763	
-0.00302	-0.00665275	-0.00507505	
4.2809e-06	-0.000170745	0.0057857	
0.00192367	0.00378275	0.00410546	
-0.00853987	-0.00353085	-0.0105465	
0.00606651	0.00997938	0.00395695	
-0.000367997	-0.00144264	0.00072901	
0.00641183	0.0121968	0.00416928	
0.00550972	0.00961385	0.0026239	
0.000688908	-0.000370287	0.00167759	
-0.00589843	-0.0151482	-0.0103127	
-0.0051173	-0.002414	-0.00245724	
-0.0005155	-0.00122762	0.00124171	
0.000442668	7.08243e-05	-8.02934e-05	
0.000659305	-0.0005274	0.000263695	
-0.000280294	0.000545592	-6.84441e-06	
-0.000275919	-9.90846e-05	0.00169653	
-0.000102722	0.000103806	-0.000243744	
0.0130394	0.0226071	0.0104249	
0.00563735	0.00940234	0.00145564	
0.0108477	0.0180227	0.00282837	
0.0138995	0.0264507	0.00642876	
-0.000671413	0.000457481	0.00116968	
2.06266e-06	-4.82511e-06	-7.42962e-06	
-0.000763452	0.00070137	0.00146984	
0.00316458	0.00579775	0.00207273	
0.000125368	-5.7242e-05	-0.000264066	
-0.000130494	-6.77039e-05	0.00135033	
7.33894e-05	-0.000608052	0.00159385	
-0.000424195	0.000216267	0.00191145	
0.0310999	-0.0131466	0.0125682	
0.00956364	-0.00814433	-0.0244593	
-0.00772089	0.0232301	0.00116227	
0.00132896	-0.00241619	0.00214138	
-0.00615802	0.0212409	-0.0017342	
-0.00889281	0.0280953	0.00238533	
-0.00542207	0.014373	-0.00908402	
-0.00524629	0.0108916	-0.00576024	
0.00185661	-0.00713762	0.00416136	
0.000810517	-0.0043599	0.00287593	
-0.000627166	0.00266448	-0.000535132	
-0.00173153	0.000207769	0.00339324	
0.000201568	0.000495638	-0.00221415	
-0.0200467	0.033404	-0.0253993	
-0.0141385	0.0244358	-0.0148595	
0.000690148	-0.00214645	-0.00170729	
0.00096609	-0.00366913	0.0018711	
0.00086864	-0.00343199	0.00213242	
0.000465968	-0.00321518	0.0011768	
-0.00188077	0.00783808	-0.00225508	
-1.82386e-08	1.19641e-05	2.18238e-06	
-1.1071e-05	-3.86514e-06	4.33385e-07	
-2.39898e-06	-3.22415e-06	5.82288e-06	
0.000119493	1.38975e-05	-9.52564e-05	
-0.000785354	-0.000487475	0.000757158	
0.0393206	-0.0572843	0.0177354	
0.00233093	-0.00478236	0.000218693	
-0.000198522	-0.00203603	-0.00132116	
-0.00586369	0.0181317	-0.00287208	
-0.000365352	-0.000572034	-0.000282871	
-6.5756e-05	-0.00203021	-0.00154813	
0.000403918	-4.39195e-06	-0.000274991	
0.00898878	-0.00696317	0.0077868	
-0.000161807	-0.00182121	-0.000661229	
-9.7663e-05	-0.000749473	-0.00076009	
-4.775e-06	-2.88887e-05	-4.61963e-05	
0.000218859	5.69885e-05	-0.000128627	
-0.00299261	0.0043155	0.00458608	
0.0224648	-0.00141838	0.0111731	
-0.0066138	-0.00407995	0.0365685	
0.0065961	-0.00201633	-0.0108221	
0.0078076	-0.00363238	-0.013132	
0.0135667	-0.00825777	-0.0211746	
0.00271698	0.000263571	-0.00806024	
0.00690347	-0.00393209	-0.0123869	
0.00710143	-0.00228722	-0.0147876	
0.00835838	-0.00527786	-0.0136116	
0.0132325	0.013684	0.0466401	
0.00295334	-0.00318756	0.00607666	
0.00179154	0.00151217	0.0307183	
-0.00445511	-8.94677e-05	-0.00259284	
0.00540645	-0.00214332	-0.0114705	
0.00242213	0.00108325	-0.00694249	
0.000855044	0.00269418	-0.00157696	
-0.00111158	0.00103637	-0.00170603	
0.0082174	0.0107489	0.0334002	
0.00747523	-0.00396323	0.0112174	
0.00476078	0.00459275	0.0356538	
-2.36785e-05	1.12164e-05	-7.53206e-05	
0.00698757	-0.00500022	0.0115012	
3.56061e-05	5.56916e-05	-1.27139e-05	
-0.00192379	-0.00236475	0.0267857	
-9.339e-05	0.000522557	-0.000342926	
-0.00103901	0.00315508	-0.000112867	
0.000895144	0.000349233	-9.04894e-05	
-0.00295057	0.00108386	0.0116247	
-0.000937546	0.000602784	-0.00139102	
-0.00128701	-0.00129764	0.0142322	
0.00191426	0.00280733	-0.00539171	
-0.000193942	-0.000117178	7.38009e-05	
-0.000199614	0.0029048	-0.000964725	
0.00120745	0.00132577	0.00018174	
0.00046314	-0.00028796	-6.63109e-05	
0.00115459	0.000782114	0.000128408	
-0.00521261	-0.0131997	-0.00182846	
0.00970738	-0.0364547	-0.181011	
-0.00331053	-0.00484934	0.000102405	
0.00340868	0.0055899	0.00278663	
-0.00166599	-0.00264571	8.56243e-05	
0.00671225	0.0135951	0.00676947	
-0.0126417	-0.0231072	-0.00327771	
0.00615685	0.00935296	0.00351959	
-0.00301156	-0.00681455	-0.00552657	
0.00268476	-0.00265955	0.00384203	
0.001812	0.00380541	0.00374067	
-0.00864524	-0.00295318	-0.0107823	
0.0059038	0.010053	0.00480774	
-0.000210651	-0.00127127	0.000910054	
0.00637883	0.0126658	0.00391046	
0.00535108	0.00968067	0.00370185	
0.000435168	-0.000355279	0.001098	
-0.0051252	-0.0152704	-0.0106268	
-0.000928429	-0.00502898	-0.00357928	
-0.000400642	-0.00101142	0.000837081	
0.000229758	0.000166886	-0.000123824	
0.000551903	-0.000275047	-2.58907e-05	
0.000292286	-0.000221743	-0.000124407	
-0.000215203	-8.55778e-05	0.00144642	
6.84054e-06	-6.75987e-06	1.63185e-05	
0.0128393	0.0231494	0.0100416	
0.00551593	0.00968443	0.002738	
0.0106815	0.0185466	0.00383742	
0.0131817	0.0269551	0.00605085	
-0.000695531	0.000488934	0.00118366	
-0.000319114	0.000317977	0.000709465	
-0.000671526	0.000618726	0.00125837	
0.00318143	0.005874	0.00256793	
-0.000181915	7.98865e-05	0.00037402	
-0.00015179	-4.36396e-05	0.00136647	
7.81901e-05	-0.000486443	0.00126123	
-0.000340426	0.000188159	0.00153908	
0.0290097	-0.0126019	0.0190521	
0.0102082	-0.0086099	-0.0236764	
-0.00771065	0.0234656	0.00146564	
0.00105159	-0.00248379	0.00243686	
-0.00623597	0.0213956	-0.00176697	
-0.00898795	0.0283047	0.00228687	
-0.00605835	0.0144298	-0.00899864	
-0.00583679	0.0110303	-0.00530482	
0.00177751	-0.00702977	0.00417071	
0.000730765	-0.0042624	0.00294178	
-0.000649661	0.00273092	-0.000508585	
-0.00166851	0.00110466	0.00320508	
-7.45742e-05	0.00069327	-0.0016394	
-0.0210911	0.0342827	-0.0249596	
-0.014062	0.0250962	-0.0144971	
0.00073686	-0.00178799	-0.00133069	
0.000937106	-0.00357953	0.0018772	
0.000851385	-0.00336683	0.00215469	
0.000494997	-0.00315661	0.00121022	
-0.00187398	0.00793628	-0.00224521	
-3.03869e-05	-3.13332e-05	-1.69074e-05	
2.73091e-05	9.61885e-06	-5.3815e-07	
2.27168e-05	9.64788e-06	1.24269e-06	
9.71867e-05	1.09466e-05	-7.75637e-05	
-0.00110776	-0.000462598	0.000907138	
0.0385742	-0.0576246	0.0173983	
0.00255684	-0.00421506	0.000343411	
-0.00013959	-0.00171839	-0.00109023	
-0.00585622	0.0182664	-0.00265034	
-0.000279832	-0.000425708	-0.000230078	
-5.75431e-05	-0.00151856	-0.00125598	
0.000314503	-2.71791e-06	-0.000216085	
0.00806516	-0.00738485	0.00839067	
-0.000255617	-0.00181497	-0.000724866	
-7.57742e-05	-0.000479427	-0.000508599	
-8.74508e-07	-5.58065e-06	-8.82816e-06	
0.000182892	4.78191e-05	-0.000108871	
-0.00331989	0.00396029	0.00450669	
0.0203287	-0.00913793	0.0102795	
-0.00555797	-0.00543079	0.0369666	
0.00710463	-0.00239464	-0.0105648	
0.00802658	-0.0036981	-0.0127859	
0.0138171	-0.00867955	-0.0211793	
0.00267872	-0.000454586	-0.00733336	
0.00763741	-0.00396344	-0.0119527	
0.00726587	-0.00303407	-0.0147569	
0.0088937	-0.00507103	-0.0133977	
0.0130785	0.0132348	0.0471105	
0.00271201	-0.00315406	0.00638543	
0.00204578	0.00110465	0.0310574	
-0.00487488	0.00118785	-0.00198181	
0.00573271	-0.00284362	-0.0111836	
0.00224466	-2.56898e-05	-0.00606333	
0.00072835	0.00104247	-0.0012529	
-0.000737146	0.000689829	-0.00111865	
0.0085278	0.0105594	0.0336246	
0.00824529	-0.00534763	0.0101087	
0.00495519	0.00431922	0.0359658	
6.56169e-05	-2.60277e-05	-1.84913e-05	
0.00622123	-0.0063428	0.0114807	
9.60913e-06	5.10788e-05	2.88909e-05	
-0.0014124	-0.00276885	0.0269149	
-2.62338e-05	0.000130764	-8.62165e-05	
-0.000832905	0.00156378	0.000928145	
0.000497133	0.000190275	-6.18499e-05	
-0.00254465	-0.000104207	0.0119068	
-0.000593411	0.000382234	-0.000846517	
-0.00116617	-0.00176595	0.0143799	
0.00176699	0.000948294	-0.00501629	
-0.000140783	-7.21814e-05	5.82587e-05	
-6.72804e-05	0.00109304	-0.000362985	
0.000551398	0.000604111	6.01259e-05	
0.000294478	-0.000185171	-4.72993e-05	
0.000536217	0.00035744	4.0655e-05	
-0.0063891	-0.0130755	-0.00186339	
0.000959991	-0.0592354	-0.178394	
-0.00219834	-0.0033352	8.36535e-05	
0.00359745	0.00551956	0.00194303	
-0.00136912	-0.0024744	-0.000421601	
0.00592644	0.0126536	0.00562455	
-0.0127363	-0.0221625	-0.00451545	
0.00600486	0.00957408	0.00195188	
-0.0029773	-0.00683679	-0.00585662	
-0.000854039	-0.00329138	0.00453444	
0.0020283	0.00490645	0.00367675	
-0.00154286	-0.00364162	-0.0139684	
0.00646206	0.0100207	0.00329133	
-0.000292753	-0.00072798	0.000137872	
0.00708219	0.0131749	0.00310008	
0.00622154	0.00931853	0.00235144	
0.000837757	0.000579511	0.00168569	
-0.00576058	-0.0147108	-0.0121002	
-0.000223291	-0.00443442	-0.00463821	
-0.000854696	-0.00217004	-3.88507e-05	
0.00018603	0.000113199	-8.8538e-05	
0.000338957	-0.000267529	7.38146e-05	
0.000202975	-0.00021124	0.000144069	
-9.61207e-05	-4.22504e-05	0.000706134	
-0.000198739	0.000207742	-0.000454169	
0.012913	0.0231472	0.00929397	
0.00630599	0.00904822	0.0013018	
0.0113867	0.0179643	0.00285854	
0.0126242	0.0258645	0.00483406	
-0.000283435	0.0001956	0.000476963	
0.000331837	-0.000321879	-0.000743208	
-0.000455756	0.000409471	0.000837154	
0.00359344	0.00575622	0.00156571	
0.000390949	-0.000177801	-0.000816318	
-7.68279e-05	-1.47195e-05	0.000633648	
3.77343e-05	-0.000233081	0.000587973	
-0.000278148	0.000151052	0.00129664	
0.0276958	-0.0127804	0.0207972	
0.0102382	-0.00817617	-0.0236738	
-0.00777501	0.0235416	0.00161321	
0.00189432	-0.0020819	0.00240352	
-0.00625068	0.0214194	-0.00174746	
-0.00897856	0.0284447	0.00210858	
-0.00639815	0.0146578	-0.00865782	
-0.00626606	0.0113234	-0.00492629	
0.00176068	-0.00700715	0.00410335	
0.000751243	-0.00427733	0.00287642	
-0.000663921	0.00277065	-0.000507411	
-0.0014582	0.00157827	0.00308885	
-4.38773e-05	0.000584011	-0.00129979	
-0.0213124	0.0354215	-0.0244334	
-0.0140523	0.0255812	-0.0143255	
0.000435209	-0.00108959	-0.000878549	
0.000918607	-0.00354586	0.00183857	
0.000804394	-0.00337742	0.0021268	
0.000489222	-0.00315599	0.00117782	
-0.00188539	0.00798181	-0.0022696	
-6.1924e-06	-1.68926e-05	-5.48465e-06	
9.70813e-06	3.51277e-06	-1.32217e-07	
8.98875e-06	3.30816e-06	1.60997e-06	
4.69209e-05	4.57715e-06	-3.82582e-05	
-0.000162144	-5.56609e-05	0.000120867	
0.0376383	-0.057976	0.0173073	
0.00248613	-0.00408558	0.000421586	
0.000538159	-0.00181074	-0.000280102	
-0.00596236	0.0183701	-0.00257133	
-0.00017192	-0.000261279	-0.000147445	
-5.36775e-05	-0.00135177	-0.00117809	
0.000157794	-1.81863e-06	-0.000109044	
0.00811504	-0.00689709	0.00798234	
-7.71169e-05	-0.000512483	-0.000222192	
-5.16124e-05	-0.000333698	-0.000364667	
-1.70569e-06	-1.14614e-05	-1.82778e-05	
8.83606e-05	2.21687e-05	-5.3553e-05	
-0.00348496	0.00378592	0.00448053	
0.0176882	-0.013216	0.00964953	
-0.00564558	-0.00542831	0.0371923	
0.00727482	-0.00250682	-0.0106355	
0.00821474	-0.00363616	-0.0129972	
0.0135613	-0.00900955	-0.0219041	
0.00250061	-0.000718442	-0.00682868	
0.00743311	-0.00379699	-0.0124992	
0.00692401	-0.00338375	-0.0143821	
0.00870854	-0.00509472	-0.0139007	
0.0127922	0.0134905	0.0471793	
0.00305145	-0.00290255	0.00666246	
0.00214174	0.00127885	0.0312023	
-0.00128675	0.00387793	-0.00419578	
0.00552717	-0.00297654	-0.0116118	
0.00206841	-0.000337021	-0.00572119	
0.000680571	0.00096629	-0.00113606	
-0.000921279	0.000854137	-0.00139165	
0.00926306	0.010334	0.0336558	
0.00824886	-0.00558756	0.0100715	
0.00512057	0.00473235	0.0361469	
1.92398e-05	1.90047e-05	4.09217e-05	
0.00580437	-0.00628715	0.0118665	
-5.75218e-06	6.15765e-05	1.49861e-05	
-0.00130309	-0.00252748	0.0271043	
-8.9659e-06	3.96744e-05	-2.64689e-05	
-0.000798322	0.00138142	0.00117722	
0.000471478	0.000182759	-6.15049e-05	
-0.00248172	-0.000180654	0.0120255	
-0.000764983	0.000491747	-0.00108424	
-0.00117852	-0.0016449	0.0144528	
0.0016547	0.000865512	-0.00499538	
-0.000179999	-6.74008e-05	7.24576e-05	
-5.21334e-05	0.000963928	-0.000311505	
0.00052572	0.00057497	5.58532e-05	
0.00029825	-0.000184428	-4.78795e-05	
0.000525779	0.000356701	3.75003e-05	
-0.00617935	-0.0130732	-0.00125215	
0.00620659	-0.0233581	-0.190618	
-0.00243261	-0.003244	0.00041411	
0.00364587	0.0054974	0.00282544	
-0.00155856	-0.00242392	0.000191422	
0.00612681	0.0125862	0.00642601	
-0.0118774	-0.0226442	-0.00270302	
0.00615779	0.00972641	0.0040253	
-0.00310111	-0.00731374	-0.00572217	
-0.000115075	-0.000197975	0.00532449	
0.00230029	0.00480474	0.00443814	
-0.000230925	-0.0030644	-0.0139998	
0.00578741	0.0105727	0.00518651	
0.000169257	-0.000759272	0.0012684	
0.00660574	0.0135261	0.00405549	
0.00534648	0.010174	0.00399239	
0.000932014	0.000350116	0.00191642	
-0.00507411	-0.0148184	-0.0119085	
-0.00108642	-0.00324313	-0.00549834	
-0.00102671	-0.00235555	0.000170037	
0.000323274	-8.91327e-05	-3.05717e-06	
0.00060194	-0.000356561	7.5583e-05	
0.000371517	2.90441e-05	-0.000200422	
-0.000195312	-9.51727e-05	0.00145077	
5.95342e-05	-6.28232e-05	0.000138084	
0.0125173	0.0233727	0.00997041	
0.00546623	0.00988057	0.00290595	
0.0107628	0.0187752	0.00456011	
0.0126044	0.0262509	0.00621274	