<VTKFile type="UnstructuredGrid" version="0.1" byte_order="LittleEndian">
	<UnstructuredGrid>
		<Piece NumberOfPoints="15207" NumberOfCells="15207">
			<CellData Scalars="scalars">
				<DataArray type="Float64" Name="Strength" NumberOfComponents="3" Format="ascii">
-0.00898041	-0.0142304	0.0142379	
-0.0175119	-0.0122144	-0.0235406	
0.0125952	0.0723198	0.00787833	
0.00564326	-0.00737252	-0.00606337	
0.00654058	-0.00033216	-0.0110266	
0.00874604	0.0533193	-0.0376834	
0.0019698	0.0848165	-0.0385448	
-6.94455e-05	0.0137892	-0.0207453	
0.00205148	0.0828261	-0.0407729	
0.00129656	0.0265076	-0.0300319	
0.00243446	0.0228458	0.0399577	
0.00522407	-0.00240398	-0.000875532	
-0.00291236	0.0435628	0.00804339	
0.00245835	0.000380109	0.00120016	
0.00111305	0.0682883	-0.0433392	
-0.00317375	0.0866658	-0.0291401	
0.00375397	0.0965336	0.0128349	
-0.0064962	0.0528662	-0.0470622	
0.00359825	0.0188447	0.0256518	
0.00535497	-0.00993332	0.00933896	
-0.00536401	0.0382378	0.0143194	
-0.00173551	0.00125903	0.00362319	
0.00333442	-0.00496442	0.0100594	
0.000792327	0.00210557	-0.00130455	
0.00188552	0.0514826	0.0046212	
-0.000973869	-0.0124844	0.00454984	
-0.00388047	0.0881401	-0.0261981	
0.00325699	0.0365724	0.0242904	
0.00872823	0.0878835	0.0113129	
-0.0103771	0.0362933	-0.0351063	
0.0020737	0.052138	0.0190805	
-0.000936371	0.092973	-0.00218561	
0.000515435	0.000422134	3.33861e-05	
-0.00379932	0.0886162	-0.0143589	
-0.0120187	0.0787353	0.0170882	
0.0134527	-0.000377188	0.0178594	
-0.00633054	0.0542511	0.029786	
-0.0137838	-0.00675488	-0.0244412	
-0.0830291	-0.0886637	-0.0859395	
0.0135175	0.0141814	0.0491085	
0.000550662	0.0114575	-0.0142892	
0.00765596	-0.0187197	0.0525951	
-0.0128628	-0.0205847	0.0649609	
-0.0180131	-0.0138607	0.0574134	
0.0162162	-0.0171747	0.0520052	
0.0145325	-0.0135721	0.0372354	
0.012914	0.000878225	0.0159455	
0.00349774	-0.0172828	0.0561612	
0.0305038	0.0119109	-0.0377637	
0.00994291	-0.00352072	0.0492652	
0.000964273	-0.00987183	0.0270967	
0.00412202	0.0124565	0.054575	
0.00528563	0.00554386	0.0407652	
0.0210731	-0.024095	0.0408782	
0.0159694	-0.019158	0.0240869	
0.00232112	-0.0201156	-0.00307545	
0.00379869	-0.0265979	0.0524004	
0.00715522	-0.0471537	0.0161962	
0.00425498	-0.0241454	0.00977627	
0.00237282	0.00369968	0.0196025	
0.00432244	-0.0111554	0.0593778	
-0.0071488	0.00757665	-0.0203588	
0.0201548	0.00441691	0.0403128	
0.00375346	0.00758864	0.0315445	
0.0092861	0.0143556	0.0159116	
0.000460657	-0.0202067	0.0768439	
-0.0062237	0.0140513	0.0387512	
-0.00340756	0.00225278	0.0190638	
0.00362879	0.0112949	0.0440377	
0.00412826	0.00822768	-0.0109488	
0.00114386	0.000387709	-0.00484367	
0.000163507	-0.00277297	0.0254818	
0.0151804	-0.0246941	0.0495984	
0.00114467	-0.00182792	0.0532468	
0.0156499	-0.0594302	0.000226458	
-0.00507963	0.00886157	-0.0361471	
-0.0066515	0.00240647	-0.0326494	
-0.00851043	-0.0434532	-0.00786837	
-0.0100047	0.0147658	-0.0098247	
-0.0142405	0.0108868	-0.023501	
0.00608192	-0.00277924	-0.0542396	
0.00844514	-0.00811266	-0.0583614	
0.00278723	-0.00965869	0.00127942	
0.00191573	-0.0072394	0.000978029	
0.000392625	0.000994637	-0.00347851	
0.00457334	-0.00529508	0.00405461	
0.00941211	-0.0214122	-0.0667514	
-0.0154886	-0.0147568	-0.0476389	
-0.0195465	-0.0418188	-0.0267053	
0.00904039	-0.0400204	-0.060816	
0.00109822	-0.00495117	0.000812581	
0.00035429	-0.00609262	-0.000608329	
0.000412714	-0.00535191	-0.00177927	
-0.00206439	0.00528203	-0.00462812	
-0.000149907	-3.80925e-05	0.00405278	
-0.0019507	-0.00243391	0.000250587	
-0.00121838	0.00195802	-0.00175993	
0.00686551	0.00101195	-0.00865985	
-0.0167774	-0.0481887	0.00557524	
0.0511479	-0.0526565	-0.0511125	
0.00866674	-0.0469621	-0.0550468	
-0.00309818	-0.055269	-0.0446221	
-0.00490889	0.000645869	-0.0352818	
-0.00668655	-0.0572208	-0.0185805	
0.00161474	-0.0492587	-0.0497879	
-0.000273585	0.00271014	-0.0429465	
0.00671766	-0.0508784	-0.0325373	
-0.00147297	-0.0648183	-0.047267	
0.00245934	-0.011502	-0.0138526	
1.30321e-06	6.75168e-06	9.23375e-06	
0.0107859	0.00887595	-0.0179692	
-0.00170999	0.00355126	0.00648869	
0.00672922	-0.0213972	-0.0202804	
-0.0230892	-0.00143948	0.0254808	
0.00458833	-0.00132232	-0.0107153	
0.00708018	0.000311542	-0.0128911	
0.0192478	0.016256	-0.00752029	
0.00416481	0.0137738	-0.00176475	
0.00732258	0.00337876	-0.0121144	
0.00866001	0.0185907	0.000366	
0.0106566	0.00637401	-0.0120555	
0.0212371	0.00297783	0.042025	
-0.00197579	-0.003559	0.00320265	
-0.00182022	-6.5264e-05	0.0282945	
0.000584964	0.00159934	0.00157999	
0.00731064	0.0149951	-0.00381227	
0.00354908	0.0133585	-2.59286e-05	
0.0022402	0.0102282	0.00482265	
-0.000627137	0.00672774	-0.00826715	
0.0129611	0.0052574	0.0305361	
0.00407612	-0.00758669	0.0101296	
0.00310657	0.00412591	0.0327011	
0.000273455	4.93954e-05	-5.48909e-05	
0.00497788	-0.00413813	0.0104369	
-0.000340836	-0.000237233	-7.08778e-05	
-0.0081967	-0.00158665	0.0231878	
8.37013e-07	0.000185546	-7.94079e-05	
-0.00131044	0.0108372	-0.00245591	
0.00512293	0.00195983	0.00141786	
-0.00960692	0.00582738	0.00661831	
-0.00174782	0.00467638	-0.0067142	
-0.003742	0.000351308	0.0126015	
0.00349168	0.010616	0.00397987	
-0.00122832	0.000160925	0.000617579	
-0.00055469	0.0103122	-2.38173e-05	
0.00371919	0.00462798	0.00653444	
0.00227917	-0.00153774	-0.000525795	
0.00466485	0.00345635	0.00432972	
-0.00184574	-0.012678	-0.00536654	
0.0229265	-0.100414	-0.123676	
-0.010729	-0.00136364	0.0030971	
0.000893978	0.00683839	0.00150586	
-0.00344069	-0.00389303	0.00424084	
0.014076	0.00411004	0.015427	
-0.0272259	-0.0069347	0.00540449	
0.0112564	0.000600414	0.00403497	
0.000675546	-0.00822206	-0.000555219	
-0.00153995	0.000335407	0.00688777	
0.00151279	-0.00111547	0.00768667	
-0.00163553	-0.00451579	-0.0124469	
0.0107479	0.00153038	0.00623822	
-0.0015158	-0.00217981	0.00475393	
0.0090222	0.00430338	0.00985774	
0.00915746	0.00324902	0.00586078	
0.000402835	-0.00300427	0.00485115	
-0.00370678	-0.0157755	-0.00759276	
0.00167521	-0.00553254	-0.00155451	
8.99526e-05	-0.00260258	0.00652602	
-0.00186079	0.00142627	-0.000765307	
0.00202217	-0.00188778	0.00123395	
0.000121828	0.00228522	0.000706145	
-0.000942397	-0.00232163	0.00585231	
-0.00049099	0.000485994	-0.00132031	
0.021732	0.0122246	0.0160742	
0.00847839	0.00491158	0.00467876	
0.0124752	0.0151207	0.00564522	
0.0285682	0.00673162	0.0172823	
-0.00188908	0.00270423	0.00501976	
-0.000205525	0.000214204	0.00075553	
-0.000927111	0.00282784	0.00634369	
0.00217497	0.00623427	0.00113355	
0.000312132	-1.69471e-05	-0.000917541	
-0.000210659	0.000133546	0.00619857	
0.000173856	-0.00304277	0.00533523	
-0.000963642	-0.00100579	0.0074421	
0.0284877	-0.0177274	-0.00643192	
0.00750027	-0.0100274	-0.0228942	
-0.0135542	0.0191094	-0.00139983	
0.000456129	-0.00659932	-0.00123738	
-0.00513788	0.021117	-0.00142086	
-0.0106828	0.0266132	0.00122171	
-0.010468	-0.000294303	-0.0146947	
-0.00793337	-0.000907863	-0.0109904	
0.00100354	-0.00605551	0.00569422	
0.000107813	-0.00339371	0.00374301	
-0.000812069	0.00266273	0.000262631	
0.000407175	-0.000303638	0.0036813	
0.000672146	-0.000879336	-0.008302	
-0.0338973	-0.00590284	-0.0250953	
-0.0239638	0.0162972	-0.00906325	
0.00274256	-0.00384824	-0.00857159	
0.000982758	-0.00297158	0.00309491	
0.000706425	-0.0023118	0.00316189	
0.000414643	-0.00242086	0.00227514	
-0.0011932	0.00837547	-0.00150665	
0.00111294	0.000567764	0.000915989	
0.00106499	0.000124831	0.000110756	
-0.000304538	-0.000291692	0.000709487	
-0.000357104	-2.23409e-05	0.000310539	
-0.00149114	-0.00496561	0.00176086	
0.0533672	-0.0423733	-0.025554	
0.00485563	-0.00524185	-0.00850909	
-0.00177189	-0.00778254	-0.00506723	
-0.011114	0.0142412	-0.00411519	
-0.00128171	-0.00229858	-0.00133415	
0.000511093	-0.00718579	-0.00670943	
0.00106888	0.000373406	-0.00110197	
0.0123033	-0.00737346	-0.00845438	
0.000282406	-0.00613781	-0.00385522	
0.00051994	-0.00322422	-0.00276241	
0.000102071	0.000707355	0.0010641	
0.000136197	5.69059e-05	-9.85338e-05	
-0.00201909	0.00388083	0.00614653	
0.0138121	-0.0238719	-0.00731703	
-0.00286732	-0.0080231	0.0339453	
0.00571196	-0.00184133	-0.0102283	
0.0084302	-0.00115364	-0.0118061	
0.0200301	0.000104856	-0.0139151	
0.00361983	0.00179172	-0.00679067	
0.00879423	0.00018589	-0.0103742	
0.0104844	0.00105962	-0.0118891	
0.0115767	0.0004083	-0.0105689	
0.0085654	0.0124796	0.0455396	
0.00127834	-0.00166679	0.00554045	
0.00120777	0.000171253	0.0291203	
-0.00124378	0.00267464	0.00091124	
0.00857221	0.000911307	-0.00861886	
0.00263249	0.00194011	-0.00614549	
0.000730383	0.00328939	-0.00246368	
-0.000761996	0.00152662	-0.00232708	
0.00757735	0.00840595	0.0323262	
0.00581578	-0.00691919	0.0100287	
0.00262127	0.00339616	0.0338236	
-0.000213961	-9.20681e-05	-5.93938e-05	
0.00678376	-0.00479893	0.00997194	
0.000128698	-3.25425e-05	-0.000101452	
-0.00233939	-0.00293688	0.0247148	
-4.54029e-06	6.64084e-05	-3.19149e-05	
-0.000736859	0.00299417	0.000233202	
0.00164177	0.000600852	-3.68363e-05	
-0.0010701	0.000136118	0.0109648	
-0.00068346	0.000999868	-0.00185116	
-0.000514679	-0.00183547	0.0126076	
0.00100746	0.00328987	-0.00534421	
-0.000440926	-0.000359731	9.58553e-05	
-0.000126052	0.00280232	-0.000538057	
0.0015711	0.00190101	0.000322698	
0.00106752	-0.000611868	-0.000188656	
0.0016809	0.00131222	0.000247948	
-0.00209663	-0.0131929	-0.00410924	
-0.0254341	-0.0937448	-0.137129	
-0.00406824	-0.00765348	0.000442772	
0.00159139	0.00636256	0.00251619	
-0.00183619	-0.00273315	0.000650203	
0.00768561	0.0146103	0.00745974	
-0.016195	-0.022474	-0.00243294	
0.00700714	0.00806568	0.00222876	
-0.00203688	-0.00654551	-0.00441609	
0.00260072	0.000183465	0.00571913	
0.00145481	0.0031036	0.00362818	
-0.00373445	-0.00981015	-0.0101175	
0.00751263	0.00829157	0.00357198	
-0.000797963	-0.00206774	0.00118654	
0.00404387	0.0116453	0.00376593	
0.00715628	0.00756279	0.00295702	
0.000298195	-0.0007251	0.00159638	
-0.00583949	-0.0149042	-0.0101257	
-0.00114435	-0.00456575	-0.00378755	
-0.000128474	-0.000402538	0.00204711	
-0.000399423	0.000503936	-0.000179141	
0.000605264	-0.000537035	0.000367399	
-0.000629428	0.000329795	0.000194509	
-0.000282293	-4.37839e-05	0.0018814	
-0.000153079	0.000151287	-0.000396208	
0.0117666	0.0235994	0.00905957	
0.00713148	0.00750279	0.00222305	
0.0118626	0.0162854	0.00430827	
0.0100512	0.0295838	0.00518376	
-0.000949207	0.000563464	0.00162408	
5.3953e-05	-6.51486e-05	-0.000161716	
-0.000909534	0.000786354	0.00199715	
0.00241828	0.0060104	0.00200991	
0.000211946	-5.22648e-05	-0.000520103	
-0.000129778	4.73395e-05	0.00209392	
7.27915e-05	-0.00050347	0.00164973	
-0.000516673	0.000262475	0.00240587	
0.0305857	-0.0153861	-0.0035341	
0.00995729	-0.00719888	-0.0257289	
-0.0060385	0.0228402	0.00151265	
0.00155929	-0.00280611	-5.1709e-05	
-0.00593406	0.0206831	-0.0020987	
-0.0070646	0.0277939	0.00265658	
-0.00873954	0.0103591	-0.0109081	
-0.00763126	0.00810073	-0.00661013	
0.00198369	-0.00760058	0.00384817	
0.000741263	-0.00477793	0.00256052	
-0.000491943	0.00244038	-0.000806929	
-0.0018025	-0.000442093	0.00363441	
-1.46193e-05	0.000310561	-0.00249795	
-0.0282461	0.0218649	-0.0258082	
-0.00962162	0.0255317	-0.0143621	
0.00164589	-0.00218785	-0.00194462	
0.000968179	-0.00402784	0.00166027	
0.000836939	-0.00374369	0.00194157	
0.000343796	-0.00349749	0.000773587	
-0.00193555	0.00743061	-0.00249815	
-0.000258304	-0.000270971	0.000189612	
-0.000260882	-0.000104593	-2.10265e-07	
-0.000158326	-9.45156e-05	0.000110527	
0.000281197	1.9258e-05	-0.000244973	
-0.000594459	-0.0013569	0.000815864	
0.0364164	-0.0572121	0.0244542	
0.00414731	-0.00359911	-0.00115212	
-0.00130517	-0.00219765	-0.00194127	
-0.00454797	0.0180401	-0.00203278	
-0.000518628	-0.000632458	-0.000369565	
0.000193404	-0.0024176	-0.0019944	
0.000558194	-3.82101e-05	-0.000373026	
0.0130756	-0.00531904	-5.53741e-05	
0.000121112	-0.00202973	-0.00102616	
-3.22113e-05	-0.000889844	-0.000698872	
-3.67935e-05	-0.000209498	-0.000328912	
0.000383172	8.32599e-05	-0.000259293	
-0.0024133	0.00416209	0.00560846	
0.0158979	-0.0214145	-0.00488796	
-0.00710444	-0.000935646	0.0350314	
0.00614581	-0.00173789	-0.0102046	
0.00827844	-0.00190918	-0.0122305	
0.0134887	-0.00769172	-0.0200286	
0.00127822	0.000415471	-0.00833469	
0.00797861	-0.00183161	-0.0113658	
0.00491568	-0.00310223	-0.015318	
0.00959042	-0.00299459	-0.0126307	
0.0135358	0.0103112	0.0458627	
-0.00168897	-0.00197097	0.00605211	
0.00113836	0.000978154	0.0295751	
-0.00282359	0.00272275	-0.00163322	
0.00396524	-0.00245169	-0.0117907	
0.00142806	0.00148054	-0.00709085	
0.00109335	0.0034835	-0.00252182	
-0.00128312	0.001584	-0.00233495	
0.0085676	0.00925371	0.032503	
0.00491411	-0.00509037	0.0117428	
0.00360397	0.0041329	0.0341798	
-1.59415e-05	-8.92859e-05	-0.000141518	
0.00651102	-0.00536375	0.010536	
-2.71852e-05	0.000172303	2.32886e-06	
-0.00242335	-0.0019552	0.0254744	
-2.55462e-05	0.000241375	-0.000128063	
-0.00100595	0.0035265	-0.000510522	
0.00153772	0.000762505	-8.14442e-05	
-0.00299472	0.00283379	0.0106752	
-0.000960291	0.000950001	-0.00173164	
-0.00126356	-0.000603077	0.0132038	
0.00189475	0.0032852	-0.00567362	
-0.000468387	-0.000286504	0.000182373	
-0.000246	0.00332653	-0.00121452	
0.0018349	0.00220848	0.000233888	
0.00116156	-0.000541057	-0.000221723	
0.00185902	0.00143054	0.000241938	
-0.00336496	-0.0133507	-0.00327306	
-0.0292914	-0.0234584	-0.17031	
-0.00429842	-0.00574825	0.000121664	
0.00233998	0.00600182	0.00249618	
-0.00183314	-0.00260377	0.000661173	
0.00730225	0.013687	0.00759516	
-0.011191	-0.0244945	-0.00343105	
0.00526469	0.00957877	0.002901	
-0.00286725	-0.00654046	-0.00456093	
0.00498063	0.00218154	0.00428651	
0.00185756	0.00344999	0.00412134	
-0.00640469	-0.00572691	-0.0115669	
0.00530056	0.0102532	0.00376315	
-0.000350252	-0.00183574	0.000956225	
0.00574737	0.0115044	0.00453986	
0.00526136	0.00949438	0.00266983	
0.000641896	-0.000494481	0.0018666	
-0.00580202	-0.0156045	-0.00972181	
-0.000101937	-0.00489081	-0.00369093	
-0.000457894	-0.00114036	0.00165883	
-0.000695389	4.0085e-05	-0.000104463	
0.000800458	-0.000386665	0.000360176	
0.000514577	0.000435581	-0.000341008	
-0.000280762	-0.000126631	0.00187525	
-0.000115795	0.000118362	-0.000289511	
0.0129762	0.0221764	0.010958	
0.00568387	0.00910216	0.00164799	
0.0110212	0.0174333	0.00349842	
0.0142491	0.026508	0.00754549	
-0.000775708	0.000437918	0.0014505	
4.24175e-05	-4.65579e-05	-0.000111087	
-0.000818575	0.000709937	0.00176259	
0.00285673	0.00586098	0.00203348	
0.000219451	-7.25648e-05	-0.000496442	
-0.000109128	-5.82754e-05	0.00166814	
9.59557e-05	-0.000595598	0.0017081	
-0.000461314	0.000183451	0.00230396	
0.0317012	-0.014948	0.00430821	
0.00973677	-0.00840681	-0.0241504	
-0.00767928	0.0229141	0.000210551	
0.00138421	-0.0027511	0.00116154	
-0.00602055	0.0210423	-0.00215274	
-0.00869501	0.0278811	0.00185254	
-0.00572329	0.0137885	-0.00931268	
-0.00491241	0.010773	-0.00587737	
0.0016019	-0.00710022	0.00434753	
0.000734209	-0.00427276	0.00298032	
-0.000631274	0.0026035	-0.000523388	
-0.000696644	0.00227619	0.00291099	
0.000301399	0.000305533	-0.00251901	
-0.0187548	0.0315943	-0.0264772	
-0.0135648	0.02368	-0.0154924	
0.000828317	-0.00245456	-0.00177465	
0.000905964	-0.00364293	0.00202223	
0.00077966	-0.00333845	0.00226135	
0.000438647	-0.00314237	0.00131107	
-0.001795	0.00780029	-0.00230001	
-0.000116323	0.000116928	2.16326e-05	
0.00010705	3.64686e-05	4.13821e-06	
7.58352e-05	-4.0309e-06	4.87187e-05	
0.000107762	7.44389e-06	-9.6465e-05	
-0.000844053	-0.00102935	0.000897483	
0.0323624	-0.0604508	0.0222144	
0.0027009	-0.00487678	-9.92299e-05	
-0.000485366	-0.00212869	-0.00185778	
-0.00600436	0.0177326	-0.0034482	
-0.000549592	-0.000817218	-0.000408993	
6.77117e-05	-0.00244774	-0.00187341	
0.000596719	-1.19541e-05	-0.000427426	
0.010699	-0.006972	0.00549665	
-4.14896e-05	-0.00201575	-0.000840048	
-8.67379e-05	-0.000839378	-0.000780453	
6.70802e-06	4.13771e-05	6.50336e-05	
0.000270385	6.49616e-05	-0.000179721	
-0.00297036	0.00400425	0.00533293	
0.0236238	-0.0101373	0.00118454	
-0.00823748	-0.00122275	0.0355863	
0.00649346	-0.00175379	-0.0105132	
0.00788538	-0.00244617	-0.0129396	
0.0116725	-0.0084142	-0.0218216	
0.00240892	0.000971626	-0.00794333	
0.00714055	-0.00300846	-0.0123331	
0.0068416	-0.00147074	-0.0149357	
0.0082047	-0.0043868	-0.0139283	
0.0125992	0.0121495	0.0466642	
0.00414356	-0.00385368	0.00441896	
0.000931381	0.00252094	0.0299649	
-0.00433151	0.0017314	0.001331	
0.00500159	-0.00179225	-0.0116108	
0.00226323	0.00162314	-0.00666088	
0.00130676	0.00345218	-0.00273497	
-0.00146447	0.00168696	-0.00240809	
0.0084465	0.0102367	0.0329794	
0.00691547	-0.00520702	0.0108868	
0.00380282	0.00507122	0.0349755	
2.1198e-06	6.82249e-05	-0.000158354	
0.00596339	-0.00443473	0.0118732	
0.000122549	8.05747e-05	-3.22709e-05	
-0.00250728	-0.00110564	0.0262395	
-1.64976e-05	0.000116792	-6.67276e-05	
-0.00100759	0.00319576	-0.000233221	
0.00166029	0.000815282	-0.000101602	
-0.00317611	0.0025876	0.0109747	
-0.0012746	0.00111621	-0.00203472	
-0.00124596	-0.000192931	0.0137945	
0.00202966	0.00321738	-0.00559862	
-0.000426555	-0.000264685	0.000149576	
-0.000211722	0.00306872	-0.00100461	
0.00197204	0.00236659	0.000343578	
0.00111692	-0.000559904	-0.00015386	
0.00199713	0.00156851	0.000314972	
-0.0046492	-0.0132829	-0.00258735	
0.0121954	-0.0974713	-0.151921	
-0.00358619	-0.0049373	0.000171651	
0.00293757	0.00570803	0.00255529	
-0.00170673	-0.00254056	0.000467386	
0.00694661	0.0134667	0.00723519	
-0.0130275	-0.0229362	-0.0037732	
0.00600765	0.00925585	0.00299342	
-0.00296773	-0.00675233	-0.00494415	
-3.26342e-05	-0.000209637	0.00577608	
0.00190936	0.00377894	0.00409957	
-0.00686269	-0.00464267	-0.011284	
0.00600155	0.00990524	0.00414798	
-0.000361181	-0.00144459	0.000720256	
0.00635745	0.0120503	0.00455819	
0.00535942	0.00957933	0.00292718	
0.000654058	-0.000353119	0.00169153	
-0.00593071	-0.0152078	-0.01014	
-0.00510933	-0.00249155	-0.00237068	
-0.000503112	-0.00123066	0.00123892	
0.000440757	7.82619e-05	-7.9983e-05	
0.000631986	-0.000543524	0.000291167	
-0.000202512	0.000549454	-0.00017684	
-0.000248651	-0.000121495	0.00169598	
-9.96427e-05	0.000105529	-0.000243473	
0.0128001	0.0224649	0.0108608	
0.00545561	0.00941894	0.00180194	
0.0106344	0.0179729	0.00348488	
0.0138413	0.0262195	0.00716338	
-0.000653853	0.000393146	0.00119903	
1.97272e-06	-4.2514e-06	-7.73676e-06	
-0.000724838	0.000620113	0.00152056	
0.00307729	0.00575925	0.00224482	
0.000120254	-4.30449e-05	-0.00026826	
-0.000115079	-9.27859e-05	0.00134732	
7.62869e-05	-0.00060285	0.00159238	
-0.000381335	0.000160964	0.00192188	
0.0308001	-0.0140001	0.0121178	
0.0100174	-0.00796587	-0.024276	
-0.0078281	0.023167	0.000425704	
0.00119985	-0.0025939	0.00199051	
-0.00611731	0.0211561	-0.00228401	
-0.00867209	0.0281681	0.00143443	
-0.00630778	0.0136555	-0.00952438	
-0.00555251	0.0105336	-0.0060565	
0.00167202	-0.0071878	0.0041228	
0.000712541	-0.0043945	0.00283253	
-0.000624708	0.00264734	-0.000593	
-0.000858849	0.00230182	0.00289728	
0.000180076	0.000408553	-0.00222801	
-0.0215213	0.0317196	-0.0261451	
-0.0140669	0.0243477	-0.0149277	
0.000671834	-0.00218281	-0.00165592	
0.000882132	-0.00368336	0.00186772	
0.000811517	-0.00344847	0.00211446	
0.000366024	-0.00323011	0.00115399	
-0.00184365	0.00780175	-0.00235281	
1.14581e-05	3.05585e-06	-1.39125e-06	
-1.0981e-05	-4.05069e-06	-4.68457e-07	
-5.59708e-06	-4.00341e-06	1.64066e-06	
0.000114551	8.7382e-06	-0.000101262	
-0.000811838	-0.000574336	0.000656933	
0.0352329	-0.0593165	0.0189741	
0.00229468	-0.0047808	0.000296742	
-0.000151464	-0.00200638	-0.00136055	
-0.00629106	0.0178845	-0.00323521	
-0.000372588	-0.000552859	-0.000306452	
-1.6976e-05	-0.00201415	-0.0015596	
0.000391574	-8.31804e-06	-0.000290505	
0.00848607	-0.00746392	0.00782572	
-0.000130898	-0.00178963	-0.000735705	
-9.52559e-05	-0.000746632	-0.000759826	
-4.5844e-06	-2.90473e-05	-4.5997e-05	
0.000210292	4.86346e-05	-0.000144342	
-0.00294521	0.00425146	0.00464793	
0.0216499	-0.00543333	0.0114756	
-0.00713949	-0.0033358	0.0364673	
0.00643531	-0.00152999	-0.0109574	
0.00758342	-0.00293865	-0.0133857	
0.0133071	-0.00752751	-0.0215275	
0.00270813	0.000495646	-0.00803273	
0.00666617	-0.00327397	-0.0126605	
0.00702844	-0.00181256	-0.0148466	
0.0080227	-0.00469622	-0.01397	
0.0128167	0.0128785	0.046892	
0.00347528	-0.00323716	0.00575024	
0.00190222	0.00167434	0.0306467	
-0.00418137	0.00103397	-0.00281502	
0.0053632	-0.00171041	-0.0115292	
0.00243839	0.00121771	-0.00689746	
0.000819252	0.00268394	-0.00159916	
-0.00104209	0.00118816	-0.00164226	
0.00788218	0.0104235	0.033516	
0.00723013	-0.00370569	0.0114364	
0.00440141	0.00459351	0.035634	
-4.26788e-05	6.54098e-05	-1.52865e-05	
0.00733966	-0.0047548	0.0113554	
2.4673e-05	6.24395e-05	-2.88118e-06	
-0.00178701	-0.00201865	0.0267721	
-8.47082e-05	0.000536712	-0.000319426	
-0.000991081	0.00316482	-5.16507e-05	
0.000867155	0.000408514	-9.55276e-05	
-0.00292366	0.00118787	0.011595	
-0.000889112	0.00075293	-0.00134311	
-0.00129809	-0.00107303	0.0142221	
0.00183033	0.00281644	-0.00540014	
-0.00016888	-0.000156094	6.09527e-05	
-0.000173077	0.00291067	-0.000931429	
0.00116479	0.00136111	0.000160592	
0.00048306	-0.000244516	-8.72406e-05	
0.00110796	0.000843086	0.000122782	
-0.00537927	-0.0130911	-0.00184666	
0.007979	-0.0414928	-0.179697	
-0.00326717	-0.00486522	1.47356e-05	
0.00331782	0.00555164	0.00292482	
-0.00164099	-0.00265441	8.18524e-05	
0.00667413	0.013494	0.00692827	
-0.0126686	-0.0230159	-0.00333434	
0.00613874	0.00930403	0.00359147	
-0.0029723	-0.00695157	-0.00534507	
0.00248796	-0.00265609	0.00396311	
0.00178081	0.00380156	0.00374344	
-0.00836014	-0.00247194	-0.0110927	
0.0058459	0.00995323	0.00500542	
-0.000198996	-0.00127591	0.000900209	
0.00630692	0.0125206	0.00435629	
0.00527705	0.00956863	0.00399971	
0.00040753	-0.000343646	0.00110965	
-0.00521388	-0.0153378	-0.0104194	
-0.00179852	-0.00448462	-0.00393291	
-0.000391404	-0.00101337	0.000834775	
0.00024481	0.000154039	-0.000109454	
0.000540344	-0.000295988	-3.34407e-06	
0.000284848	-0.000245533	-9.02037e-05	
-0.000191572	-0.000106237	0.00144552	
6.59254e-06	-6.90235e-06	1.63062e-05	
0.0126303	0.022972	0.0105345	
0.00544366	0.00959061	0.00307647	
0.0105034	0.0184486	0.00444579	
0.0131755	0.026684	0.00688676	
-0.000676889	0.000421957	0.00121602	
-0.000295368	0.00027043	0.000736499	
-0.000637146	0.000547221	0.00130465	
0.00310565	0.0058144	0.00273984	
-0.000173571	6.00517e-05	0.000380375	
-0.000134553	-7.13597e-05	0.00136413	
7.70649e-05	-0.000481407	0.00126048	
-0.000309024	0.000140205	0.00154753	
0.028493	-0.0142838	0.0184508	
0.00956199	-0.00780335	-0.0241683	
-0.00785547	0.0234038	0.000630881	
0.000935909	-0.00266466	0.00227394	
-0.00619846	0.0213074	-0.0023401	
-0.00881606	0.0283619	0.00127609	
-0.00678897	0.0138663	-0.00927276	
-0.00610619	0.0107111	-0.00556543	
0.00160194	-0.00708076	0.00412543	
0.000636144	-0.00431445	0.0028713	
-0.000644372	0.00271473	-0.000568627	
-0.000301139	0.00200667	0.00316653	
-8.65895e-05	0.000631799	-0.00165871	
-0.0220572	0.0333379	-0.0251954	
-0.0139352	0.0250229	-0.014595	
0.000705269	-0.00181835	-0.00129563	
0.000856786	-0.00359432	0.00187072	
0.000790718	-0.00338571	0.0021346	
0.00038575	-0.00317168	0.0011939	
-0.00183302	0.00790075	-0.00234388	
-4.46882e-05	1.25091e-05	-2.23683e-07	
2.70861e-05	9.96078e-06	1.66474e-06	
2.11603e-05	-3.62957e-06	1.22969e-05	
9.31158e-05	6.75206e-06	-8.249e-05	
-0.00113588	-0.000582302	0.000789275	
0.0345597	-0.0596321	0.0183982	
0.00250761	-0.00422796	0.000363725	
-0.000102519	-0.00169306	-0.00112328	
-0.00629309	0.0180089	-0.00309528	
-0.00028572	-0.000411146	-0.000245889	
-3.97139e-05	-0.00149966	-0.00127129	
0.000305601	-6.58791e-06	-0.000227099	
0.00763627	-0.00779871	0.00835944	
-0.00021764	-0.00178413	-0.000796367	
-7.78328e-05	-0.000475854	-0.000509472	
-8.57808e-07	-5.61088e-06	-8.78813e-06	
0.000175626	4.09387e-05	-0.000121991	
-0.00323949	0.00390592	0.004584	
0.0185734	-0.0117449	0.0108494	
-0.00608304	-0.0045812	0.0369202	
0.0069139	-0.00197662	-0.0107337	
0.00780486	-0.0030943	-0.0130309	
0.0135239	-0.00789624	-0.0215876	
0.00265162	-0.00023794	-0.00733514	
0.00743495	-0.00341229	-0.0122001	
0.00717013	-0.00253707	-0.0148546	
0.00863456	-0.00455315	-0.0136954	
0.0129649	0.0124352	0.047267	
0.00264162	-0.00363035	0.00614231	
0.00219692	0.0013427	0.0309795	
-0.0029906	0.00266663	-0.00363825	
0.00564922	-0.00241097	-0.0112927	
0.00223724	9.4661e-05	-0.00605068	
0.000708439	0.00103655	-0.00126386	
-0.000694803	0.00078946	-0.00107409	
0.00846249	0.0102848	0.0336589	
0.007901	-0.00475638	0.010635	
0.00455517	0.00443419	0.0359374	
5.62408e-05	4.36631e-05	-2.31764e-06	
0.00654893	-0.00625765	0.0113136	
7.86537e-07	5.38458e-05	2.49667e-05	
-0.00129271	-0.00234815	0.0269087	
-2.38785e-05	0.000134528	-8.01417e-05	
-0.000802652	0.00155596	0.000958517	
0.000481623	0.000223524	-6.43608e-05	
-0.00253148	1.81317e-05	0.011884	
-0.000562608	0.000474008	-0.000816979	
-0.00119278	-0.00151326	0.0143782	
0.00169938	0.000960562	-0.00502507	
-0.000124897	-0.00010385	4.39607e-05	
-5.56612e-05	0.00109521	-0.00035058	
0.000533252	0.000618745	5.12276e-05	
0.000307499	-0.00015677	-6.06669e-05	
0.000514947	0.000385451	3.92357e-05	
-0.00649056	-0.0129797	-0.00188924	
0.00823221	-0.0619795	-0.176941	
-0.0021667	-0.00334694	3.75058e-06	
0.00351232	0.00550321	0.00207962	
-0.00135092	-0.00247642	-0.000430821	
0.00587325	0.0125644	0.00579629	
-0.0127022	-0.0221064	-0.00456404	
0.00593806	0.00956631	0.00204136	
-0.00291025	-0.00694756	-0.00572919	
-0.000411199	-0.00338039	0.00451949	
0.00198158	0.00489791	0.00369164	
-0.00142759	-0.00375078	-0.0139267	
0.00637584	0.00997219	0.00349143	
-0.000288046	-0.000728655	0.00013425	
0.00700023	0.0130673	0.00355336	
0.00612392	0.00927625	0.00262351	
0.000794612	0.000592842	0.00169751	
-0.00584308	-0.0148654	-0.0118066	
-0.00153733	-0.00442632	-0.00437435	
-0.000832474	-0.00217371	-4.397e-05	
0.000183454	0.000120181	-8.34653e-05	
0.000324891	-0.000275484	9.88742e-05	
0.00015386	-0.000251685	0.000137061	
-8.55822e-05	-5.45277e-05	0.000705208	
-0.000191278	0.000209958	-0.000454757	
0.0127004	0.0229732	0.00982454	
0.00620017	0.00903906	0.00160513	
0.0112193	0.0179131	0.00338293	
0.0126246	0.0256277	0.00565353	
-0.000275069	0.000168859	0.000490372	
0.000306832	-0.000272909	-0.000770432	
-0.00043156	0.000361494	0.000868801	
0.00352862	0.00573258	0.00171389	
0.000370249	-0.000135124	-0.000831338	
-6.86524e-05	-2.8112e-05	0.000632769	
3.18463e-05	-0.000229952	0.000588239	
-0.000250941	0.000108979	0.00130361	
0.0270614	-0.0143761	0.0204166	
0.00964569	-0.00718652	-0.0241854	
-0.00793422	0.0234817	0.00073206	
0.00179332	-0.0022211	0.00234102	
-0.00619517	0.0213361	-0.00233502	
-0.0087553	0.0285108	0.00109372	
-0.00706243	0.0141007	-0.00897027	
-0.00651585	0.0110064	-0.00521807	
0.00159744	-0.00705692	0.00405445	
0.000662632	-0.0043417	0.00278428	
-0.000656887	0.00275471	-0.00056944	
-0.000151997	0.00156949	0.00340657	
-5.5922e-05	0.000533688	-0.0013169	
-0.0221468	0.0345432	-0.0247293	
-0.0139073	0.0255099	-0.014435	
0.000412202	-0.00110899	-0.000858767	
0.000843945	-0.0035602	0.00183009	
0.000743382	-0.00339698	0.00210382	
0.000374443	-0.00317001	0.00116537	
-0.00184247	0.00794682	-0.00236777	
-1.85154e-05	-2.47682e-06	-3.57991e-07	
9.63535e-06	3.6006e-06	6.47823e-07	
7.82308e-06	-2.83755e-06	5.03724e-06	
4.49062e-05	2.52643e-06	-4.06079e-05	
-0.000165816	-7.31472e-05	0.000104459	
0.0338298	-0.0598903	0.0179936	
0.00243486	-0.00410032	0.000433525	
0.000551463	-0.00179697	-0.000306587	
-0.00639571	0.0181077	-0.00305232	
-0.000176972	-0.000251572	-0.000156336	
-4.04557e-05	-0.00133341	-0.00119227	
0.000153645	-4.14139e-06	-0.000114083	
0.00777515	-0.00719502	0.00800012	
-6.51096e-05	-0.000504026	-0.000240787	
-5.4984e-05	-0.000331228	-0.000364927	
-1.70712e-06	-1.15273e-05	-1.81902e-05	
8.47441e-05	1.88223e-05	-5.99088e-05	
-0.00337117	0.00374797	0.00457042	
0.015385	-0.0161235	0.00902858	
-0.00607134	-0.00454297	0.0371635	
0.00707908	-0.0021428	-0.0108027	
0.00802774	-0.00306114	-0.0132092	
0.013225	-0.00813787	-0.0223623	
0.00247144	-0.00051868	-0.00684015	
0.00727193	-0.00320937	-0.012709	
0.00682532	-0.00289986	-0.0144927	
0.00845019	-0.00450321	-0.0142064	
0.0126477	0.012612	0.0473673	
0.00259932	-0.00346092	0.00657209	
0.00233754	0.00152592	0.0311179	
-0.000822415	0.00456104	-0.00355326	
0.00543381	-0.00251748	-0.0117293	
0.00204942	-0.000219585	-0.00571977	
0.000662386	0.000961414	-0.0011459	
-0.000870709	0.000979392	-0.00133454	
0.00927342	0.0100684	0.0336642	
0.00779047	-0.00514862	0.010624	
0.00462164	0.0048652	0.0361275	
1.21959e-05	2.09761e-05	4.25644e-05	
0.00583053	-0.00652068	0.0116966	
-1.17989e-05	6.16859e-05	9.58351e-06	
-0.00119053	-0.00207449	0.027095	
-8.12538e-06	4.08585e-05	-2.46653e-05	
-0.000767461	0.00136963	0.00120405	
0.000456476	0.000214396	-6.42823e-05	
-0.0024693	-5.03302e-05	0.0120029	
-0.000727486	0.000608844	-0.00104513	
-0.00120718	-0.00138507	0.0144486	
0.00159555	0.000879559	-0.00500004	
-0.000160773	-0.000114884	5.46417e-05	
-4.27779e-05	0.000965742	-0.000300045	
0.000508509	0.000588924	4.62812e-05	
0.00031171	-0.000154617	-6.12026e-05	
0.000504817	0.000383882	3.51326e-05	
-0.00624522	-0.013001	-0.00124444	
0.0122833	-0.0087403	-0.191125	
-0.00238804	-0.00327408	0.000344401	
0.00356978	0.00546248	0.00294148	
-0.00152961	-0.00243583	0.000185971	
0.0060857	0.0124849	0.00658417	
-0.0117474	-0.0226393	-0.00278709	
0.00610005	0.0096906	0.00411637	
-0.0030843	-0.00742034	-0.00555962	
-0.000625718	-0.000205002	0.00527981	
0.00225984	0.00479435	0.00444895	
-0.000281367	-0.00224854	-0.0141295	
0.00573722	0.0104406	0.00542594	
0.000188131	-0.000769327	0.00125593	
0.00656027	0.0133637	0.00451521	
0.00529048	0.0100264	0.0043348	
0.000900456	0.000361365	0.00192473	
-0.00500879	-0.0151579	-0.0114368	
-0.00107873	-0.00329932	-0.00545203	
-0.000999381	-0.00236236	0.000162742	
0.000322641	-8.93774e-05	-2.31192e-08	
0.000592807	-0.00035617	0.000122217	
0.000376615	5.67789e-05	-0.000183212	
-0.000171708	-0.000120641	0.00144881	
5.74184e-05	-6.30816e-05	0.000138376	
0.0123674	0.0231457	0.0104996	
0.00540849	0.00976081	0.00327764	
0.0106406	0.0186235	0.00515037	
0.0126025	0.0259834	0.00698353	