<VTKFile type="UnstructuredGrid" version="0.1" byte_order="LittleEndian">
	<UnstructuredGrid>
		<Piece NumberOfPoints="1665" NumberOfCells="1665">
			<CellData Scalars="scalars">
				<DataArray type="Float64" Name="Strength" NumberOfComponents="3" Format="ascii">
-0.00602743	-0.0165519	0.0122511	
0.00119904	-0.00883884	-0.0293896	
0.00148773	0.0699253	0.0174345	
0.0043247	-0.00612817	-0.00768264	
0.00567292	0.00134639	-0.0110209	
0.0124381	0.056844	-0.0272179	
0.0122989	0.0876829	-0.0206947	
0.00540655	0.0197144	-0.0130764	
0.0139073	0.0850101	-0.0265178	
0.00698886	0.0343104	-0.017285	
0.00797193	0.00663163	0.044378	
0.0017616	-0.00357501	0.00414772	
-0.0023089	0.0402719	0.0160932	
-0.00188021	0.00028576	-0.00166873	
0.0102208	0.0752764	-0.0214061	
0.0141265	0.0859696	-0.0194872	
0.0139172	0.0917923	-0.0210054	
0.00462871	0.0681576	-0.0115783	
0.00415475	0.0125305	0.0286827	
0.0047721	-0.00449989	0.0129998	
-0.0001899	0.0332083	0.0229178	
-0.00060439	-0.00185325	0.00104554	
0.00256716	-0.00280791	0.0109717	
0.00245455	0.00060312	-0.000234485	
-0.0030243	0.0490012	0.0119725	
-0.000371911	-0.0128004	0.00186615	
0.0120739	0.0877139	-0.0150498	
0.00762982	0.0418994	-0.00643965	
0.0105312	0.0861944	-0.00412853	
0.00240936	0.0494475	-0.00821955	
0.00469114	0.0540944	0.00078295	
0.0159805	0.0872329	-0.0195591	
-0.000224126	-0.0006046	0.000108767	
0.0140019	0.085519	-0.0135044	
0.0189657	0.0765791	-0.0104205	
0.00488643	0.0210107	-0.00382282	
0.0137522	0.0586681	-0.00817244	
-0.00939013	-0.00494107	-0.0258796	
0.0244631	-0.132005	-0.0193006	
-0.00172423	-0.023711	0.0459846	
0.00230723	0.0116961	-0.0132299	
0.00368277	-0.0136632	0.0533675	
0.0183164	0.0016332	0.0652444	
-0.00613051	-0.0419049	0.0430375	
0.0125385	-0.0103211	0.0531937	
0.00780147	-0.0142453	0.0380668	
0.00774897	0.00169555	0.0183994	
0.0113845	-0.0129909	0.0550213	
0.0168798	0.0152911	0.00565555	
0.0109431	-0.00777574	0.0471557	
0.00230109	-0.0124527	0.0251993	
0.00866963	-0.00666237	0.053813	
0.0084964	-0.00546911	0.0390554	
0.0118451	-0.0147171	0.0472138	
0.0019105	-0.0216444	0.0261731	
0.00384886	-0.00932342	0.0170081	
0.0106939	-0.012125	0.0554061	
0.0295286	-0.00814622	0.00345365	
0.0145714	-0.00741609	0.0198173	
0.0112326	-0.00325035	0.0156697	
0.0113452	-0.0153346	0.0561516	
-0.00147997	0.00856359	-0.0204285	
0.0150263	0.0122945	0.0396247	
0.00714364	-0.00257343	0.0308105	
0.00959188	0.0103453	0.0176531	
0.0272229	0.00907839	0.0720521	
0.00439017	-0.0116049	0.0388673	
0.00136662	-0.00636679	0.0178077	
0.00618566	-0.0121638	0.0425053	
0.00251842	0.00944153	-0.00989294	
-0.000203507	0.00170046	-0.00453494	
0.00326802	-0.00764535	0.0236473	
0.0133287	-0.015608	0.0524257	
0.00984914	-0.0138589	0.0492905	
0.0230204	-0.0526211	-0.0159383	
0.00622153	0.02063	-0.0280325	
-0.00626049	-0.00124801	-0.031835	
0.00323965	-0.0274151	-0.0337396	
-0.00656742	0.0137209	-0.0127005	
-0.00986019	0.010711	-0.0247309	
-0.000792421	-0.0181897	-0.0499557	
0.00407863	-0.0283636	-0.0503593	
0.00137582	-0.00930146	0.00313589	
7.10306e-05	-0.00728235	0.0007437	
-0.000535041	-0.000175944	-0.00349959	
-0.00361741	-0.00388802	0.00243696	
0.0102055	-0.0416031	-0.0539024	
-0.0116558	-0.000299947	-0.0492802	
-0.0103028	-0.0120465	-0.0493599	
0.0100467	-0.0454704	-0.0540912	
0.000832796	-0.0047901	0.00126505	
0.000139861	-0.0059986	0.000273495	
-0.000468315	-0.00550073	-0.000474865	
-0.00173813	0.00448521	-0.00526537	
-0.00180374	-0.0022162	-0.00208247	
-0.000775181	-0.00185544	-0.00230397	
0.00254433	0.00107246	-0.000337494	
0.00106834	-0.00658612	-0.00854277	
0.000965023	-0.0309875	-0.038823	
0.0400574	-0.0773717	0.00204827	
0.0105976	-0.0466693	-0.0523087	
0.00471252	-0.0401911	-0.0559591	
-0.00170069	-0.00744502	-0.0338448	
0.00437502	-0.0377858	-0.0451581	
0.0080763	-0.0422955	-0.052775	
0.00843946	-0.0250817	-0.0326706	
0.012952	-0.0441838	-0.0369247	
0.00849143	-0.0483866	-0.0604747	
0.00102078	-0.0113479	-0.0135537	
6.14563e-07	7.17232e-06	8.57895e-06	
0.00335466	-0.0131098	-0.0176344	
-0.00295913	0.00223599	0.00635088	
-0.00267252	-0.0041869	-0.0298533	
-0.00641246	0.00727197	0.0323087	
0.00513564	0.00127779	-0.0100936	
0.00652753	0.00282947	-0.0124071	
0.0118006	0.00894952	-0.0209052	
0.00362499	0.0113236	-0.00769001	
0.00622676	0.00501294	-0.0116914	
0.00790608	0.0114793	-0.0143761	
0.00724747	0.00669673	-0.0136623	
0.0141918	0.00483158	0.0444484	
0.00125356	-0.000273835	0.00505035	
0.00163035	0.00495158	0.0274525	
0.000507985	0.000890212	0.00198845	
0.0060259	0.010933	-0.0111061	
0.00302542	0.0111855	-0.00692793	
0.000547781	0.0104278	-0.00424138	
0.000341352	0.010244	-0.00182343	
0.00920894	0.00476629	0.031649	
0.00285311	-0.000212024	0.0130253	
0.00413282	0.00564271	0.0319267	
-0.000157374	-2.7359e-05	2.18341e-05	
0.00256572	0.000516351	0.0119946	
-0.000102089	0.000375443	0.000116599	
-0.00271304	0.00679409	0.0230752	
5.80301e-06	0.000192799	-2.74853e-05	
-0.000291893	0.0108667	-0.00101897	
-0.000164169	0.00545256	-0.00098709	
-0.00367917	0.00831204	0.0089261	
0.000233119	0.00802492	-0.00137856	
-0.00229924	0.00609765	0.0111205	
0.00207145	0.00953129	-0.00627876	
0.000425473	0.00125788	-0.000277139	
0.000201855	0.00994607	-0.00164371	
0.000149041	0.00854212	-0.00121618	
4.56648e-05	0.00267239	-0.000617914	
1.2081e-05	0.00699604	-0.00108419	
-0.00569359	-0.0113148	-0.00459865	
-0.0311017	-0.116171	-0.100833	
-0.00477861	-0.00967673	0.00195434	
0.00306957	0.00586023	0.0017604	
-0.00233705	-0.00396375	0.00467281	
0.00652402	0.0124088	0.0153206	
-0.0125627	-0.0234772	-0.00801612	
0.00564286	0.00631515	0.00792111	
-0.00162238	-0.00791681	0.000424819	
0.00100013	0.00383503	0.00566049	
0.000348857	0.000977995	0.00768388	
-0.00380395	-0.00755496	-0.00987682	
0.00638012	0.00683667	0.00771053	
-0.000692092	-0.00391044	0.00355104	
0.00565252	0.00677508	0.0104451	
0.00585794	0.00645996	0.00667651	
-0.000608277	-0.00217119	0.0051382	
-0.00262347	-0.0159941	-0.00663913	
-0.00140239	-0.00562659	-0.000768347	
-0.000709099	-0.00106858	0.00676871	
-0.00118006	0.0016239	-0.0013323	
0.000612236	-0.00108721	0.00269572	
0.0021828	-0.000912553	-0.000297094	
-0.000301705	-0.00172986	0.00598362	
-0.000104005	0.000563333	-0.00132874	
0.0129233	0.0184217	0.018056	
0.00556311	0.00674411	0.00583344	
0.00987627	0.0146429	0.00881102	
0.0144284	0.0223581	0.0198	
0.000243798	-0.00165107	0.00563701	
4.76409e-05	-0.000263488	0.000742998	
0.000242031	-0.00185051	0.00660234	
0.00305068	0.00548645	0.00165301	
-3.65104e-05	0.000330906	-0.000879607	
0.000548436	-0.00181828	0.00575796	
-0.000471586	-0.00174714	0.00574732	
8.50377e-05	-0.00203549	0.00712645	
0.0206296	-0.0210484	0.01495	
0.00135456	0.019502	-0.0161404	
-0.00680003	0.0186438	-0.0112863	
0.00137267	-0.00498782	-0.00398722	
-0.00490564	0.0183029	-0.00956465	
-0.00762503	0.0236297	-0.0128264	
-0.00641485	0.00869637	-0.0137337	
-0.00519344	0.00460619	-0.0111638	
0.00176785	-0.00633236	0.00486191	
0.000254257	-0.00371331	0.00325273	
-0.00046754	0.00263624	-0.000538868	
0.000720981	-0.00297467	0.00164365	
0.000319613	-0.00440892	-0.00684511	
-0.017314	0.0259075	-0.0270154	
-0.0129088	0.0217663	-0.0151842	
0.00205683	-0.00703852	-0.00608367	
0.00111949	-0.00283057	0.00302887	
0.00067771	-0.00261737	0.00279162	
0.000541366	-0.00218625	0.00237251	
-0.00145304	0.00758397	-0.00328113	
-0.000643221	0.000421759	0.000596819	
0.000314691	0.000668911	0.000749711	
-0.000156831	-0.000104745	0.000782186	
-1.70353e-05	0.000283866	0.000365095	
-1.62987e-05	-0.00335066	-0.00410525	
0.0388057	-0.0527358	0.0267583	
0.0034504	-0.00875557	-0.00532719	
-0.000527597	-0.00428306	-0.00809294	
-0.00561466	0.0142447	-0.00948961	
-0.000101761	-0.00187139	-0.00218329	
0.000937655	-0.00599351	-0.00740308	
0.00011995	-0.000955065	-0.00120608	
0.00865444	-0.013633	9.24852e-05	
0.000626704	-0.00442083	-0.00545194	
9.81272e-05	-0.00273108	-0.00314687	
7.23462e-05	0.000802327	0.000959647	
1.0453e-05	-0.000104618	-0.000137773	
-0.0029409	0.0023743	0.00624818	
-0.00283686	-0.00460147	-0.0283687	
-0.00315696	0.00293741	0.0341297	
0.00543158	0.000523832	-0.0101342	
0.00685622	0.000933532	-0.0123217	
0.0109306	0.00247323	-0.0209345	
0.0022541	0.00308065	-0.00671351	
0.00646149	0.00145722	-0.0114376	
0.00611247	0.00316982	-0.0138959	
0.00720934	0.00190133	-0.013298	
0.0129697	0.00318429	0.0461637	
0.00150895	-0.000679417	0.00581015	
0.00185588	0.00268556	0.028663	
0.000758312	0.00131462	0.00257834	
0.0048628	0.00298477	-0.0104355	
0.00157162	0.00298558	-0.00591339	
0.000398152	0.00279487	-0.00295808	
-8.84869e-05	0.00276003	-0.000531474	
0.00790785	0.00343602	0.0330686	
0.00312516	-0.000598984	0.0133107	
0.00371724	0.00296151	0.0334899	
-0.000134137	6.64096e-05	1.4162e-05	
0.00267178	-3.62663e-05	0.0128223	
-2.54004e-05	0.000154976	2.87631e-05	
-0.00142902	0.00234593	0.0244929	
2.35109e-06	7.10476e-05	-9.677e-06	
-0.00066261	0.00288895	0.000546054	
3.09535e-05	0.00168196	-0.000309444	
-0.00202456	0.00255131	0.0103029	
-1.70828e-05	0.00211881	-0.000384636	
-0.00145725	0.00208099	0.0122891	
0.00110081	0.00269444	-0.00550518	
0.000174428	0.000527551	-0.000105699	
-0.000274293	0.00272678	-0.00051171	
-0.00011479	0.00239238	-0.000416905	
6.87428e-05	0.00118876	-0.000261851	
-3.19302e-05	0.00206729	-0.000357414	
-0.00563739	-0.0117752	-0.00365369	
-0.0310753	-0.114886	-0.11291	
-0.00327273	-0.00750057	-0.00213357	
0.00318396	0.00535671	0.00272554	
-0.00130384	-0.00299239	0.000253691	
0.00573418	0.0130341	0.0104228	
-0.0107494	-0.0219584	-0.0114823	
0.00479804	0.00779296	0.00530804	
-0.00173633	-0.00709565	-0.0031861	
0.00105818	0.00441795	0.00411762	
0.00105374	0.00276961	0.00386594	
-0.004613	-0.00646366	-0.0117449	
0.00575131	0.00815213	0.00545545	
-0.000770201	-0.00228418	0.000473143	
0.0051188	0.00871937	0.00742005	
0.00553687	0.0074762	0.00480916	
2.53961e-05	-0.000508148	0.00166528	
-0.00351264	-0.0155986	-0.00934875	
-0.00142192	-0.00506356	-0.00267606	
-9.10989e-05	-0.000586403	0.00195834	
3.82961e-05	0.000409346	-0.000505923	
0.000163684	-0.000302704	0.000798677	
0.000240834	-0.000288524	0.000482584	
2.89132e-05	-0.000524057	0.00178576	
-3.48299e-05	0.000172902	-0.000399739	
0.0113861	0.0198148	0.0145977	
0.00540872	0.00745245	0.00449242	
0.00996963	0.0149706	0.00856621	
0.0114806	0.0234374	0.0164381	
-6.23034e-06	-0.000537618	0.00184307	
-8.24697e-06	5.84136e-05	-0.000166613	
-2.49068e-05	-0.000615359	0.00219531	
0.00317121	0.00515778	0.00252985	
-2.10021e-05	0.000193381	-0.000510567	
8.93454e-05	-0.000612898	0.00195314	
3.94789e-05	-0.000490406	0.00161671	
2.24408e-05	-0.00067559	0.00232343	
0.020739	-0.0189224	0.0178329	
0.000778977	0.020321	-0.0189652	
-0.00654173	0.0190449	-0.0111838	
0.00135953	-0.0027405	-0.000594539	
-0.00561098	0.0175636	-0.0101853	
-0.00825381	0.0233249	-0.0131822	
-0.0058618	0.0121546	-0.0101239	
-0.00520769	0.00845637	-0.00765597	
0.00159568	-0.00738894	0.00398953	
8.69438e-05	-0.00470151	0.00255943	
-0.000575704	0.0019745	-0.00150862	
0.000168574	-0.00210224	0.00312508	
-0.000390902	-0.000830951	-0.0022647	
-0.0158314	0.0323951	-0.0229485	
-0.010806	0.0237825	-0.0147506	
0.00102739	-0.00288117	-0.00114745	
0.000928236	-0.00384701	0.00183203	
0.000471893	-0.00373695	0.00186671	
0.000150045	-0.00315927	0.0015472	
-0.00167242	0.00653918	-0.00406114	
0.000196842	-0.000132908	-0.000155538	
-7.48135e-05	-0.000173241	-0.000199376	
9.0624e-05	2.32614e-05	-0.00018513	
1.88885e-05	-0.000220704	-0.000289635	
-4.97106e-05	-0.00104826	-0.00125363	
0.0345424	-0.0537226	0.0288624	
0.00246201	-0.0048482	-0.000342795	
-0.000707698	-0.000874499	-0.00289417	
-0.00509362	0.0148412	-0.00923615	
-7.04783e-05	-0.000575444	-0.00065536	
0.000153468	-0.00194838	-0.00234218	
2.19849e-05	-0.000413483	-0.000509653	
0.00778845	-0.0105201	0.00390894	
0.0001108	-0.00141336	-0.0016971	
-2.42829e-05	-0.00072519	-0.000830493	
-1.77122e-05	-0.00024448	-0.000294106	
2.61588e-05	-0.000274679	-0.000366824	
-0.00288008	0.00256042	0.00601962	
-0.00319695	-0.00466514	-0.0272281	
-0.00372643	0.00311782	0.0349197	
0.00559847	0.000620317	-0.0102304	
0.00701579	0.000970788	-0.0126003	
0.0101996	0.00264965	-0.0223228	
0.00201405	0.00355273	-0.00717837	
0.00651018	0.00141899	-0.0118648	
0.00532594	0.00354543	-0.0146724	
0.0071046	0.00186488	-0.0138671	
0.0132558	0.00335711	0.0474815	
0.00162989	-0.000576229	0.00655767	
0.00207855	0.00267504	0.0292866	
0.00160947	0.001333	0.00343457	
0.00434166	0.00329664	-0.0111125	
0.00143322	0.0035304	-0.00614136	
0.000570123	0.00335583	-0.00270149	
-0.000184912	0.00295747	-0.000577947	
0.00810918	0.00350532	0.0339243	
0.00321093	-0.00036553	0.0136992	
0.00400867	0.00294424	0.034204	
-5.03325e-05	0.000120734	-2.50566e-05	
0.00285024	0.000133904	0.0134763	
-1.17691e-05	0.000166746	2.26623e-05	
-0.00111742	0.00231572	0.0252928	
9.7216e-06	0.000264204	-3.45251e-05	
-0.000577668	0.00352397	0.000519563	
2.94107e-05	0.00165271	-0.00030261	
-0.00216028	0.00315892	0.0105755	
-7.69841e-05	0.00209941	-0.000392451	
-0.00147265	0.00218055	0.0128527	
0.00131361	0.00337674	-0.00562552	
0.000166187	0.000531603	-0.000106781	
-7.53838e-05	0.0034154	-0.000573124	
6.9158e-05	0.00277835	-0.000447237	
6.35607e-05	0.00124303	-0.000269854	
6.58249e-05	0.00227343	-0.000368309	
-0.00578282	-0.0119256	-0.00355825	
-0.0343836	-0.118949	-0.116408	
-0.00271488	-0.00625758	-0.00152537	
0.00320459	0.0051933	0.00272424	
-0.00124408	-0.00290233	0.00032119	
0.00532869	0.0123974	0.0100113	
-0.0101911	-0.0215794	-0.0111679	
0.00469728	0.00802478	0.00577808	
-0.00185417	-0.00734283	-0.00333639	
0.00103902	0.00435247	0.00411439	
0.00124311	0.00327767	0.00428468	
-0.0033742	-0.00757524	-0.0112778	
0.00561488	0.00844336	0.00591256	
-0.000621386	-0.00190447	0.000445187	
0.00542082	0.00940297	0.00758918	
0.00542518	0.0077626	0.00519134	
0.000166338	-0.000121449	0.00197451	
-0.00369964	-0.0158088	-0.00953364	
-0.00144299	-0.00515639	-0.0026576	
-0.000264169	-0.00122778	0.00158027	
7.85771e-05	0.000402495	-0.000545994	
0.000168093	-0.000310225	0.000866156	
0.000258409	-0.000301094	0.000481415	
4.3121e-05	-0.000528854	0.00177695	
-2.78777e-05	0.000129383	-0.000293853	
0.0113648	0.0199915	0.0143705	
0.00531264	0.007693	0.00476007	
0.0100332	0.0152099	0.00873483	
0.0114247	0.0229426	0.015897	
4.41305e-05	-0.000490385	0.001585	
-4.80337e-06	4.08713e-05	-0.000116403	
6.64854e-05	-0.000578313	0.00193236	
0.00323368	0.00515291	0.00256134	
-2.08643e-05	0.000187847	-0.000494424	
8.80452e-05	-0.000509561	0.0015448	
6.06931e-05	-0.00051724	0.0016903	
9.0088e-05	-0.000661337	0.00219972	
0.0208983	-0.0197577	0.0183561	
0.000581624	0.0201003	-0.0176212	
-0.00707863	0.0193714	-0.0112872	
0.00144034	-0.0028398	-0.000242569	
-0.0056898	0.0179957	-0.0101442	
-0.00857319	0.0237231	-0.0132324	
-0.00570003	0.0124598	-0.01017	
-0.00503916	0.00877117	-0.00785669	
0.00159422	-0.00696677	0.00418401	
0.000176704	-0.00435742	0.00273227	
-0.000590191	0.00225019	-0.00129357	
0.000681136	-0.00258265	0.00243012	
-0.000405477	-0.000888729	-0.00228	
-0.0158486	0.0338992	-0.0229967	
-0.0113894	0.0239418	-0.0150972	
0.000719787	-0.00267967	-0.00127878	
0.000945635	-0.00345686	0.00211829	
0.000526383	-0.00336966	0.00211527	
0.000281326	-0.00283509	0.00177583	
-0.0016822	0.00691011	-0.00393019	
-1.00059e-05	8.20931e-05	8.00177e-05	
2.94132e-05	7.03124e-05	8.00396e-05	
-2.89284e-05	-3.6146e-07	8.24716e-05	
6.43687e-06	-8.60722e-05	-0.000111966	
-8.61127e-05	-0.00100258	-0.00117844	
0.0338667	-0.0539421	0.0291743	
0.00219177	-0.00494107	-0.00032695	
-0.000306873	-0.00134081	-0.00241236	
-0.00549615	0.0150232	-0.00932098	
-3.1029e-05	-0.000672632	-0.000792106	
5.08086e-05	-0.00192951	-0.00228767	
5.09482e-05	-0.000443923	-0.000560823	
0.00730622	-0.0105246	0.00410101	
3.67967e-05	-0.00136681	-0.00161846	
4.16681e-07	-0.000719423	-0.000858136	
3.71365e-06	4.83746e-05	5.79885e-05	
2.41283e-05	-0.000192557	-0.000258553	
-0.00292622	0.00233366	0.0059857	
-0.00355246	-0.0039997	-0.0263241	
-0.00366591	0.00328387	0.0358596	
0.00582139	0.00073542	-0.0105864	
0.00713803	0.00124841	-0.0130185	
0.00996325	0.00311704	-0.0232461	
0.00232521	0.00328654	-0.00712413	
0.00652611	0.00180928	-0.0124281	
0.00566218	0.00338232	-0.0147203	
0.00701307	0.00232198	-0.0145234	
0.0134666	0.00353836	0.048851	
0.00174906	-0.000480652	0.00726879	
0.00218313	0.00280943	0.0299511	
0.00256589	0.000979876	0.00406223	
0.00432049	0.00325818	-0.0112414	
0.00168978	0.00322111	-0.00606825	
0.000681857	0.00324814	-0.00304718	
-0.000152193	0.00314134	-0.00057823	
0.00820734	0.00351421	0.0349234	
0.00326851	-0.000176953	0.0140868	
0.004287	0.00313063	0.0353625	
4.29605e-05	9.4025e-05	-3.50211e-05	
0.00300699	0.000261044	0.014149	
2.14532e-07	0.000146509	1.19549e-05	
-0.000971808	0.00250508	0.0261521	
4.81776e-06	0.000130684	-1.66404e-05	
-0.000463611	0.00318148	0.000617675	
2.21315e-05	0.00178152	-0.000326901	
-0.00214274	0.00329778	0.0108621	
-0.00010113	0.00253225	-0.00046511	
-0.001436	0.00237146	0.0134779	
0.00135121	0.00313615	-0.00570736	
0.000139901	0.000484565	-9.85353e-05	
-5.0746e-05	0.00311514	-0.000509739	
7.43211e-05	0.00298946	-0.000475146	
4.97797e-05	0.00120419	-0.000259411	
6.52751e-05	0.00246679	-0.000399132	
-0.00594731	-0.0120228	-0.00353708	
-0.0373037	-0.124881	-0.117132	
-0.00230817	-0.00532644	-0.00126446	
0.00324023	0.00510832	0.00282179	
-0.00118928	-0.00277424	0.000157104	
0.00518133	0.0121348	0.00956959	
-0.0103436	-0.0208135	-0.0112401	
0.00486384	0.00820116	0.00558166	
-0.00191742	-0.00761565	-0.00365054	
0.000955736	0.00401287	0.00375782	
0.00131835	0.00357712	0.00426326	
-0.00103946	-0.0082612	-0.0107065	
0.00567112	0.00866509	0.00580861	
-0.000496838	-0.00150303	0.000331742	
0.00571252	0.0100601	0.00773727	
0.00540308	0.00798532	0.00520784	
0.000171252	6.56203e-06	0.00178453	
-0.00362913	-0.0156663	-0.00961004	
-0.00144842	-0.00515968	-0.00269518	
-0.000304617	-0.0013088	0.00116082	
0.000437834	-5.22483e-07	-4.4198e-05	
0.000149102	-0.000272534	0.000798918	
0.000236817	-0.000265712	0.000399325	
3.94317e-05	-0.000481296	0.00159986	
-2.41696e-05	0.000110389	-0.00024861	
0.0113623	0.0202231	0.0141399	
0.00528716	0.00784427	0.00487255	
0.00998056	0.0153689	0.00901134	
0.011191	0.0225808	0.0154724	
4.47782e-05	-0.000415167	0.00131594	
-3.51497e-07	2.71906e-06	-7.91299e-06	
6.62724e-05	-0.00050951	0.0016664	
0.00326978	0.00509943	0.00277445	
-1.09957e-05	0.000101808	-0.00026748	
8.16349e-05	-0.00042205	0.00124273	
5.72726e-05	-0.000485775	0.00158338	
7.82692e-05	-0.000556682	0.00182616	
0.0208129	-0.0202001	0.0190624	
0.000466463	0.0203323	-0.0174632	
-0.00721486	0.0196272	-0.0113302	
0.00161602	-0.00296129	0.00015721	
-0.0057395	0.0180655	-0.010291	
-0.00864708	0.023889	-0.0133937	
-0.00614868	0.0127231	-0.00990375	
-0.00528044	0.00896681	-0.00768637	
0.00155387	-0.00700759	0.00408037	
0.000184672	-0.00442096	0.00265814	
-0.000605456	0.00225514	-0.0013833	
0.000856486	-0.00264183	0.00233093	
-0.000374945	-0.000678375	-0.00206432	
-0.0168321	0.0347574	-0.0230585	
-0.0115486	0.0244741	-0.0150016	
0.000671265	-0.00239955	-0.00115199	
0.000909794	-0.00349309	0.00199251	
0.000514799	-0.00345062	0.00202094	
0.000263174	-0.00290545	0.00169417	
-0.0016998	0.00688405	-0.00401733	
-3.37435e-06	-5.52674e-06	-4.90992e-06	
-2.9015e-06	-7.30357e-06	-8.32298e-06	
2.23052e-06	-5.5604e-07	-6.42826e-06	
6.00479e-06	-9.15738e-05	-0.000118033	
-7.8348e-05	-0.000744119	-0.000872359	
0.0332567	-0.0535455	0.0293506	
0.00214623	-0.00468763	2.75285e-05	
-3.03798e-05	-0.00146865	-0.00184132	
-0.00563372	0.0152523	-0.00924503	
-1.44443e-05	-0.00046064	-0.00054704	
2.89497e-05	-0.00158867	-0.00189501	
3.0638e-05	-0.00029516	-0.000372509	
0.00702577	-0.0104412	0.00429738	
2.80358e-06	-0.00121114	-0.00143808	
1.43174e-05	-0.000661169	-0.000805277	
-2.51787e-06	-3.41705e-05	-4.09055e-05	
1.74752e-05	-0.00015209	-0.000202108	
-0.00272791	0.00267884	0.00552764	
-0.00405557	-0.00354864	-0.0260211	
-0.00352743	0.00207603	0.0369393	
0.005894	0.00115126	-0.0108643	
0.00712729	0.0014873	-0.0133527	
0.0102648	0.00215601	-0.0235376	
0.00248765	0.00276805	-0.00745471	
0.00645153	0.0018643	-0.0125897	
0.00574491	0.0027568	-0.0148883	
0.00696212	0.00192	-0.0146496	
0.0134076	0.00331299	0.0498254	
0.00179226	-0.000438785	0.00768344	
0.00229585	0.00205725	0.0309238	
0.00299261	0.000662616	0.00423511	
0.00456965	0.00257567	-0.0114062	
0.00182278	0.00286956	-0.00644292	
0.000457684	0.00255351	-0.00181557	
-5.47467e-05	0.00218613	-0.000371607	
0.00810978	0.00302301	0.0357508	
0.00330965	-0.000123716	0.0143719	
0.00452916	0.00236015	0.036361	
4.38303e-05	1.88406e-05	-1.92207e-05	
0.00311454	0.000223363	0.0146374	
1.95664e-07	6.5908e-05	2.94049e-06	
-0.000694913	0.00162059	0.0269528	
2.37441e-05	0.000606849	-7.56367e-05	
-0.000491505	0.00310181	0.000768327	
3.03829e-06	0.00092621	-0.000170982	
-0.00209636	0.00208745	0.0115413	
-5.12624e-05	0.00170335	-0.000298708	
-0.00134104	0.00136588	0.014199	
0.00127646	0.00276391	-0.00547831	
5.64696e-05	0.000222131	-4.57097e-05	
-5.16632e-05	0.0029461	-0.000480339	
3.09249e-05	0.00173404	-0.000276222	
1.4766e-05	0.00052499	-0.00011219	
2.49619e-05	0.00134705	-0.000219554	
-0.00597593	-0.0120591	-0.00320988	
-0.0367702	-0.131468	-0.113923	
-0.00220463	-0.0050588	-0.00141088	
0.00332211	0.00505104	0.00320492	
-0.00118851	-0.00279679	-0.000211665	
0.00511718	0.0120698	0.00923668	
-0.0103354	-0.0208231	-0.0107696	
0.00493965	0.00809705	0.00610796	
-0.00195702	-0.00776719	-0.00411921	
0.00093378	0.00382503	0.00332681	
0.00128485	0.00359011	0.00387379	
-0.00115077	-0.00812658	-0.0108337	
0.00573051	0.0085389	0.00638989	
-0.000409381	-0.00137672	0.000556228	
0.00577745	0.0102456	0.00791396	
0.00545034	0.00780515	0.00587304	
7.63455e-05	-0.000125621	0.00117743	
-0.00358157	-0.0155434	-0.00979637	
-0.00141264	-0.00512138	-0.00288857	
-0.000254619	-0.00106327	0.000770807	
0.000299191	-7.29026e-06	-9.379e-06	
9.63117e-05	-0.000188276	0.000555129	
0.000165965	-0.000185046	0.000277067	
3.3485e-05	-0.000413114	0.00135191	
1.59586e-06	-7.31296e-06	1.64983e-05	
0.0113628	0.0204072	0.0141087	
0.00536427	0.00771525	0.00571962	
0.0100783	0.0153678	0.00988837	
0.0111254	0.0225571	0.01546	
4.74969e-05	-0.000428797	0.00133746	
3.04959e-05	-0.000275278	0.000756938	
5.85256e-05	-0.000445479	0.00143018	
0.00331773	0.00501822	0.00331966	
1.55962e-05	-0.000145563	0.000378303	
8.09302e-05	-0.000429915	0.00125062	
4.45421e-05	-0.000386116	0.00124663	
6.2591e-05	-0.000452772	0.00146154	
0.0208365	-0.0212639	0.0194272	
0.000242716	0.0205251	-0.0167633	
-0.00735378	0.0198006	-0.0114188	
0.00164781	-0.00310249	0.000157318	
-0.00579351	0.0181922	-0.010388	
-0.00872944	0.0240321	-0.0135321	
-0.00638548	0.0132073	-0.00945721	
-0.00544384	0.00945816	-0.00724268	
0.00152769	-0.00690078	0.00406814	
0.000199911	-0.00434896	0.00266897	
-0.000619239	0.00232119	-0.0013906	
0.00102644	-0.00280943	0.00196356	
-0.00042794	-0.000192933	-0.00165635	
-0.0172963	0.035723	-0.0228478	
-0.0116573	0.024776	-0.0150295	
0.000694964	-0.00201971	-0.00079316	
0.000890683	-0.00340264	0.00199346	
0.000526029	-0.00338849	0.00203297	
0.00029354	-0.00284924	0.0017085	
-0.00171534	0.00696376	-0.00404394	
2.64763e-05	1.16952e-05	1.01641e-05	
6.81095e-06	1.80969e-05	2.05631e-05	
-7.03279e-06	4.23071e-06	2.24494e-05	
4.19067e-06	-7.49353e-05	-9.56655e-05	
-9.62962e-05	-0.000929515	-0.00110349	
0.032613	-0.0534204	0.0297445	
0.00220351	-0.00421975	0.000430586	
1.84096e-05	-0.00126757	-0.00151188	
-0.0057612	0.0153306	-0.0092094	
-7.21005e-06	-0.000349229	-0.000416689	
4.31185e-05	-0.00121099	-0.00147538	
2.12001e-05	-0.000230933	-0.000290651	
0.00695241	-0.0104708	0.00433179	
4.69376e-06	-0.0012193	-0.00146319	
1.44365e-05	-0.000432258	-0.000529369	
-4.76305e-07	-6.56411e-06	-7.83681e-06	
1.34203e-05	-0.000128424	-0.000168832	
-0.0027742	0.00231523	0.0055343	
-0.00438026	-0.00335501	-0.0256216	
-0.00347801	0.00127496	0.037642	
0.00595415	0.00062293	-0.01101	
0.00702396	0.000974898	-0.0132847	
0.0103667	0.00154233	-0.0238808	
0.00238598	0.00190106	-0.00705221	
0.0065107	0.000905797	-0.0126874	
0.00583575	0.00208813	-0.0151898	
0.00702099	0.00119984	-0.0147617	
0.0128592	0.00331641	0.0506824	
0.00165812	-0.000265474	0.0079582	
0.00225207	0.00167597	0.0315646	
0.00313906	0.000258767	0.00435025	
0.00466208	0.00179937	-0.0115823	
0.00171348	0.00164846	-0.00590437	
0.000525733	0.000987863	-0.00135628	
-3.10238e-05	0.00144251	-0.000240117	
0.00772113	0.00287397	0.036401	
0.00317037	6.69826e-05	0.0145933	
0.0044908	0.00209461	0.0370147	
4.12602e-05	-1.45522e-05	-1.87729e-05	
0.00309198	0.000353025	0.0149582	
-3.14311e-07	5.84236e-05	7.26984e-07	
-0.00058661	0.00115815	0.027346	
6.18466e-06	0.000152723	-1.86779e-05	
-0.000495335	0.00132578	0.00135561	
-2.33819e-06	0.000514097	-9.52243e-05	
-0.00200977	0.000955901	0.0119197	
-1.90169e-05	0.00105498	-0.000175441	
-0.00128295	0.000809035	0.0145552	
0.00126621	0.00100798	-0.00510013	
3.4707e-05	0.000158516	-3.2779e-05	
-2.1262e-05	0.00110774	-0.000180618	
9.00583e-06	0.000788659	-0.000126352	
5.90935e-06	0.000335776	-7.08227e-05	
7.48954e-06	0.000620902	-0.000101905	
-0.00628026	-0.0121345	-0.00378866	
-0.0338711	-0.135969	-0.1112	
-0.0015129	-0.00341829	-0.000993584	
0.00319179	0.00523258	0.00247553	
-0.00106012	-0.00247594	-0.000669687	
0.00468808	0.0111881	0.00792901	
-0.0101154	-0.0195471	-0.0117604	
0.00491418	0.00868266	0.00469487	
-0.00198697	-0.00775099	-0.00447206	
0.00104135	0.00411559	0.00327677	
0.00155269	0.00461387	0.00385177	
-0.00126675	-0.00822523	-0.011006	
0.00570839	0.00917472	0.00493284	
-0.000293089	-0.00071283	-7.85229e-05	
0.00606226	0.0112011	0.00730347	
0.00544559	0.00848592	0.00436145	
0.000350354	0.00085723	0.00163273	
-0.00364885	-0.0159671	-0.0100571	
-0.00140335	-0.00518606	-0.0030772	
-0.000604342	-0.00218973	-0.000127278	
0.000226827	-1.14585e-05	1.3649e-06	
6.18721e-05	-0.000132711	0.000391079	
0.000141449	-0.000151833	0.000229934	
1.48214e-05	-0.000203248	0.000652636	
-4.27667e-05	0.000207356	-0.000466993	
0.0112386	0.0205578	0.0133805	
0.00528015	0.00832853	0.00404076	
0.00993846	0.0159142	0.00845566	
0.0106093	0.0219684	0.0138599	
1.90259e-05	-0.000174938	0.000535046	
-3.34527e-05	0.000289779	-0.000781673	
3.82033e-05	-0.000301036	0.000944785	
0.00323361	0.0053728	0.00235063	
-3.36059e-05	0.000317652	-0.000819383	
3.53967e-05	-0.00020082	0.000575691	
1.92015e-05	-0.000181351	0.000577355	
4.92111e-05	-0.000385437	0.00121719	
0.0204954	-0.0205999	0.0203994	
-2.52434e-05	0.0207589	-0.0162673	
-0.00744976	0.0199062	-0.0113705	
0.00193319	-0.00281601	0.00103951	
-0.00580366	0.018199	-0.0104068	
-0.00876668	0.024115	-0.013589	
-0.0065707	0.0134588	-0.00920399	
-0.00563498	0.00989415	-0.00701368	
0.00149749	-0.00686163	0.00403213	
0.000213111	-0.00433448	0.00265054	
-0.0006289	0.00235434	-0.00140899	
0.00116735	-0.00288933	0.00171456	
-0.000344121	-0.000150384	-0.00132518	
-0.0176867	0.0364015	-0.0227294	
-0.0117658	0.0251246	-0.0149607	
0.000417845	-0.00125182	-0.000531868	
0.000868512	-0.00336801	0.00195983	
0.00052915	-0.00338272	0.00201033	
0.000306509	-0.00284344	0.00169018	
-0.00172591	0.00699656	-0.0040792	
1.19201e-05	2.07689e-07	-1.21068e-06	
2.29596e-06	6.47208e-06	7.35034e-06	
-2.57213e-06	2.48371e-06	8.68449e-06	
1.68731e-06	-3.66705e-05	-4.63265e-05	
-1.17473e-05	-0.000127935	-0.000155	
0.0319403	-0.0533129	0.0300765	
0.00216762	-0.00406909	0.000537353	
0.000563986	-0.0016354	-0.000657418	
-0.0058819	0.0154847	-0.0090962	
-2.11804e-06	-0.000215494	-0.000258208	
6.58121e-05	-0.00108484	-0.00135549	
9.49303e-06	-0.000116357	-0.000145887	
0.00681265	-0.00973016	0.00482005	
5.6195e-06	-0.000345168	-0.000421606	
1.2491e-05	-0.000304955	-0.000374748	
-9.71256e-07	-1.35536e-05	-1.61602e-05	
5.88303e-06	-6.2679e-05	-8.14575e-05	
-0.00280107	0.00217534	0.00554057	
-0.0041319	-0.00340232	-0.0252833	
-0.00369905	0.00127322	0.038184	
0.00597185	0.000488591	-0.0112068	
0.00706923	0.000808662	-0.0135732	
0.010464	0.00189953	-0.0244982	
0.00224426	0.00154213	-0.00668333	
0.00655172	0.00122979	-0.0129968	
0.00566206	0.00176577	-0.0149466	
0.00706831	0.00150108	-0.0150928	
0.0118633	0.0033853	0.0513134	
0.00155948	-8.20169e-05	0.00829583	
0.00202802	0.00169298	0.0320359	
0.00322028	2.98084e-05	0.00471665	
0.00469504	0.00208983	-0.0119153	
0.00163318	0.00129598	-0.00566034	
0.000505339	0.000918487	-0.00123637	
-3.43329e-05	0.00179465	-0.000295392	
0.00704684	0.00281859	0.0369756	
0.00291737	0.000303571	0.0147883	
0.00417127	0.00211048	0.0376453	
1.79495e-05	-2.98558e-05	-1.00626e-05	
0.00291651	0.000548386	0.0152062	
-2.64543e-06	6.24293e-05	6.03874e-08	
-0.000700027	0.00120437	0.0277724	
1.9195e-06	4.68574e-05	-5.63431e-06	
-0.00051781	0.00108903	0.0015408	
-5.74878e-06	0.000488679	-9.06591e-05	
-0.00203505	0.000919657	0.0121164	
-1.87933e-05	0.00135448	-0.000220539	
-0.00132996	0.000843902	0.0147505	
0.0012446	0.00092043	-0.00508628	
3.56759e-05	0.000194759	-4.02897e-05	
-1.82351e-05	0.000973467	-0.000158733	
6.24637e-06	0.0007509	-0.000120706	
2.46537e-06	0.000338885	-7.03112e-05	
4.66925e-06	0.000611914	-0.00010097	
-0.00617094	-0.0122141	-0.00311305	
-0.0305122	-0.13875	-0.110763	
-0.00154039	-0.0035885	-0.000603806	
0.00328311	0.00503561	0.00333966	
-0.00110565	-0.00258661	-8.04028e-05	
0.00465056	0.0110689	0.00849508	
-0.0100945	-0.0202192	-0.00997449	
0.00505552	0.00814638	0.00656567	
-0.0020816	-0.0081817	-0.00420015	
0.000953293	0.00371468	0.00309826	
0.00158478	0.00454972	0.00449465	
-0.00145206	-0.00821716	-0.0104612	
0.00582097	0.00870246	0.00682239	
-0.000177462	-0.000978224	0.00103473	
0.00596182	0.0108847	0.00818308	
0.00554442	0.00803511	0.00621855	
0.000332262	0.000728622	0.00185986	
-0.00361001	-0.0158341	-0.0096465	
-0.00141227	-0.00531656	-0.00288174	
-0.000659267	-0.00242582	6.43433e-05	
0.000253844	-9.93032e-05	0.000165674	
8.68453e-05	-0.000213317	0.000619756	
0.000189496	-0.000193977	0.000287342	
2.67201e-05	-0.000423422	0.00132318	
1.18939e-05	-6.23423e-05	0.000141091	
0.0111048	0.0203804	0.0138827	
0.00534393	0.00779504	0.00581332	
0.0100615	0.0155242	0.0101508	
0.0106156	0.0218021	0.0148628	
4.57881e-05	-0.000457975	0.00136633	