<VTKFile type="UnstructuredGrid" version="0.1" byte_order="LittleEndian">
	<UnstructuredGrid>
		<Piece NumberOfPoints="3959" NumberOfCells="7450">
			<CellData Scalars="scalars">
				<DataArray type="Float64" Name="Doublet Strengths" NumberOfComponents="1" Format="ascii">
-0.0699593	
-0.0544	
0.0018599	
0.0319645	
-0.0299129	
-0.0394443	
-0.015711	
0.0271261	
0.019346	
-0.00271686	
-0.0619044	
0.0040042	
-0.0265243	
-0.0690632	
-0.0519931	
0.0320627	
0.0194185	
-0.000168919	
-0.0591159	
-0.035474	
-0.0122038	
0.0271184	
0.135293	
0.172856	
0.171247	
0.113999	
0.134722	
-0.103546	
0.0363208	
0.123009	
0.0346261	
0.0855193	
0.109443	
0.0139038	
-0.00122028	
0.0924021	
0.0972763	
0.0660116	
0.0646574	
0.0623513	
0.0840648	
0.108736	
0.16504	
0.172019	
-0.0911285	
-0.102361	
-0.098808	
-0.141354	
-0.0525765	
-0.0279717	
-0.0166446	
0.154646	
0.136027	
0.140667	
0.00401941	
0.152539	
0.148379	
0.161424	
0.164409	
0.158184	
0.16169	
0.160131	
0.163085	
-0.121552	
-0.164739	
0.126119	
0.132709	
0.114349	
0.146109	
0.145349	
0.158553	
0.150855	
0.134206	
0.135381	
0.167291	
0.153127	
0.172047	
0.17233	
0.0894704	
0.102345	
0.122934	
0.173213	
0.172834	
-0.0834303	
-0.0838526	
-0.0357227	
-0.0387762	
-0.0595066	
-0.0485978	
-0.0781651	
0.0339636	
0.00790444	
0.0551374	
0.0463525	
0.100525	
0.123532	
0.0976475	
0.120037	
0.105665	
0.164248	
0.167926	
0.129937	
0.100717	
-0.0812715	
0.00507135	
0.0540274	
0.085492	
-0.0069515	
0.0478857	
0.0650257	
-0.00211	
0.0813736	
0.0593121	
0.0271238	
0.0217823	
0.0234866	
0.0534556	
0.0629869	
0.144548	
0.161297	
-0.106899	
-0.0873012	
-0.0992002	
-0.0973926	
-0.0678541	
-0.0437916	
-0.0574286	
0.100053	
0.124955	
0.107473	
-0.0264852	
-0.0406629	
0.136057	
0.126547	
0.148589	
0.139475	
0.140225	
0.143166	
0.141352	
0.135618	
-0.0977682	
-0.0480966	
0.0912192	
0.105378	
0.118134	
0.121274	
0.097099	
0.0996406	
0.122026	
0.125009	
0.155668	
0.156256	
0.164226	
0.166998	
0.0571308	
0.108294	
0.080476	
0.167344	
0.163838	
-0.0866585	
-0.0951148	
-0.0676791	
-0.0851414	
-0.0773921	
-0.102911	
-0.082387	
0.0042097	
-0.0331947	
-0.0144619	
-0.0399306	
0.0526742	
0.0822412	
0.035295	
0.0835483	
-0.00249575	
-0.17251	
0.0325571	
0.168879	
0.21732	
0.209324	
0.209366	
0.192228	
0.204726	
0.194658	
0.185375	
0.207016	
0.200832	
0.202057	
0.18524	
0.196189	
0.192348	
0.17144	
0.163795	
0.172786	
0.181608	
0.177195	
0.210311	
0.176496	
0.200075	
0.200484	
0.186322	
0.205788	
0.194977	
0.206129	
0.115558	
0.108128	
-0.0321819	
0.0114794	
0.198176	
0.17673	
0.211976	
0.165843	
0.189308	
0.0617671	
0.178818	
0.185707	
0.209503	
-0.247258	
0.179338	
0.204265	
0.190901	
0.196195	
0.133566	
0.126201	
0.158454	
0.124215	
0.14589	
-0.0692496	
-0.273403	
-0.0376811	
0.0912906	
0.0994927	
-0.225669	
-0.105459	
-0.0337234	
0.00271671	
-0.359509	
-0.17562	
-0.21892	
-0.37028	
-0.215072	
-0.0255709	
-0.0798179	
-0.295486	
-0.337604	
-0.197776	
-0.0662194	
-0.309077	
-0.346242	
-0.3789	
-0.385766	
-0.29975	
-0.0482526	
-0.138143	
-0.379301	
-0.368509	
-0.0941793	
0.165477	
0.103036	
0.155568	
-0.223386	
0.0103221	
0.119833	
0.026079	
0.0212249	
0.132621	
-0.0848244	
0.0399381	
-0.103058	
-0.14863	
-0.292511	
-0.0321501	
0.138388	
-0.0524576	
0.0648649	
-0.0137946	
0.0890736	
0.0468161	
0.028767	
0.0716099	
-0.27764	
-0.254936	
0.0584868	
0.0368818	
-0.0183039	
0.0276185	
-0.077725	
-0.0246732	
-0.281954	
-0.123351	
-0.12192	
-0.0792801	
0.144575	
-0.0636613	
-0.150603	
0.10483	
-0.167573	
-0.17557	
0.0498331	
0.0830932	
-0.222626	
-0.136585	
-0.191928	
-0.0409997	
0.188871	
0.0887242	
0.0920308	
0.0913508	
0.012303	
0.0122894	
-0.0188749	
0.0333407	
-0.295528	
-0.199765	
0.156155	
0.132972	
0.128456	
0.139922	
-0.0955044	
-0.0743402	
-0.075882	
-0.0279526	
-0.0199059	
0.00882955	
0.165782	
0.054903	
0.0856919	
0.174552	
0.169995	
0.0802034	
-0.242144	
0.191156	
0.112408	
-0.0533599	
-0.121247	
0.180369	
0.200749	
0.0583372	
0.154743	
-0.272821	
-0.187284	
0.114966	
0.111624	
0.127553	
0.0273366	
0.195314	
0.172197	
0.153654	
0.15659	
0.140871	
0.162955	
0.186684	
0.182541	
0.161817	
-0.0284127	
0.0398263	
0.147348	
0.163056	
0.150025	
0.181534	
0.191645	
0.0598391	
0.171769	
0.0820977	
0.0624674	
0.053702	
0.064757	
0.123152	
0.189425	
0.106909	
0.0808214	
0.0556324	
0.06291	
0.11711	
0.119521	
0.137669	
0.137211	
0.0624084	
0.00894277	
0.0224928	
-0.0271806	
0.190189	
0.208662	
0.19053	
0.183967	
0.195548	
0.0990137	
0.101812	
0.185248	
0.107878	
-0.199944	
0.0869188	
0.0196684	
0.0739723	
0.0871538	
0.176859	
0.0262013	
-0.0957566	
-0.0655201	
0.0582211	
0.0598135	
0.0225222	
0.149468	
0.181634	
0.104688	
0.0986772	
0.187193	
0.146476	
0.0971585	
0.0402509	
0.0322994	
0.0647222	
0.0677808	
0.016787	
0.144316	
0.149787	
-0.332521	
-0.290734	
-0.187868	
-0.148413	
-0.0860239	
0.121059	
0.11261	
0.132342	
0.164674	
0.152255	
0.128826	
0.184216	
-0.17857	
-0.188214	
-0.353692	
-0.323266	
0.0504397	
-0.0846188	
0.0361099	
-0.320266	
-0.346133	
0.00259759	
-0.0121427	
0.0100573	
0.000623667	
-0.105507	
-0.0659188	
-0.0581713	
-0.0133945	
0.0184915	
0.00122172	
0.0683041	
0.0884479	
0.10893	
-0.010821	
-0.0416444	
-0.0107207	
-0.0288979	
-0.00960432	
0.0343509	
0.1106	
0.113819	
0.0956989	
0.0273129	
0.00535321	
-0.0710986	
0.137543	
0.0990949	
0.0187888	
0.00545419	
0.193768	
-0.20963	
0.0650158	
-0.0204212	
-0.0321503	
0.212429	
0.192947	
0.204861	
-0.208978	
-0.162023	
-0.107332	
2.00624e-05	
-0.119443	
-0.0694794	
0.20039	
0.185898	
0.142687	
0.118544	
0.0698561	
-0.0629346	
-0.131098	
-0.0841553	
0.179571	
0.0330757	
-0.38055	
-0.383542	
-0.381904	
-0.210473	
0.0620519	
0.00204309	
-0.00155123	
0.0157045	
0.015317	
0.0263707	
-0.0105174	
0.124794	
0.120146	
-0.137804	
-0.0695122	
-0.191807	
-0.125866	
-0.045178	
-0.160006	
-0.0709602	
0.0437767	
-0.257737	
-0.240371	
0.139612	
0.0653761	
0.110575	
-0.0354696	
-0.00232344	
0.157673	
0.158789	
0.1408	
0.157574	
0.145624	
0.0792139	
0.0566276	
0.140734	
0.0490666	
0.198328	
0.188249	
-0.110744	
-0.242403	
0.182718	
0.179645	
0.189964	
0.0209136	
0.191893	
0.203094	
0.189756	
0.199373	
0.207925	
0.193005	
-0.22203	
-0.250578	
0.208029	
0.190052	
0.195627	
0.183055	
-0.350033	
0.0409937	
0.0129574	
0.0265369	
0.190971	
0.174155	
0.158946	
0.180778	
0.0664402	
0.0685593	
0.0187938	
0.0220138	
0.133666	
-0.13792	
0.0317632	
0.0750788	
-0.05612	
0.145784	
0.15497	
0.12848	
0.095372	
0.204345	
0.0386099	
0.0841957	
-0.0202816	
-0.00683193	
0.107671	
0.131837	
0.139183	
0.0522123	
-0.0613193	
-0.0369555	
-0.0182748	
0.0224677	
0.0576597	
0.0871241	
-0.0231087	
0.0387192	
-0.0163064	
0.198175	
0.183475	
0.0665641	
-0.00416236	
0.0894033	
0.147992	
-0.000963791	
-0.113563	
-0.00402853	
-0.115832	
0.106133	
-0.035201	
-0.0389948	
-0.0236788	
0.122961	
0.0978822	
0.0942665	
0.0331231	
0.0943022	
0.0556327	
0.00461117	
0.00823168	
0.0283168	
0.024122	
0.0089956	
-0.037327	
-0.084086	
0.115594	
0.0376689	
0.0360574	
0.023058	
0.129766	
0.0278251	
-0.00940497	
0.0701176	
0.0813277	
0.108146	
-0.338208	
-0.00856077	
-0.0325069	
0.059029	
0.0669344	
0.153591	
0.0958129	
0.0843611	
0.0760005	
-0.108449	
-0.0681825	
0.0401052	
0.0140693	
-0.0169191	
-0.062109	
0.099876	
0.0650389	
0.0580383	
0.0605704	
-0.0428191	
0.028961	
-0.243632	
-0.227343	
-0.144056	
-0.130953	
0.146603	
-0.0414879	
-0.163633	
0.132093	
-0.0888545	
0.0271565	
-0.141674	
-0.213571	
-0.0674408	
-0.0353277	
0.0178251	
-0.0155009	
-0.0961323	
-0.155989	
-0.0859545	
-0.0378046	
-0.022941	
-0.000664739	
-0.143779	
0.133512	
0.0110764	
0.0378924	
0.0756415	
-0.102583	
-0.0683703	
-0.0818085	
-0.136156	
-0.209782	
0.124455	
0.112559	
-0.0193495	
0.032933	
-0.109851	
-0.132533	
0.11269	
0.0388549	
0.0701303	
-0.0278631	
-0.010567	
-0.116999	
-0.0781676	
-0.305345	
-0.342472	
0.0520543	
-0.242078	
0.0454217	
0.00853578	
-0.136784	
0.136892	
-0.098363	
-0.0861058	
-0.00913952	
-0.0546013	
0.184736	
0.100438	
0.148476	
0.0853832	
0.105606	
0.205019	
0.192975	
-0.0481694	
-0.0407603	
0.0499067	
0.0670748	
-0.337238	
-0.132848	
-0.162418	
-0.378308	
-0.0153314	
0.0524742	
-0.0284376	
-0.0382394	
-0.134126	
-0.109175	
0.0373708	
-0.0106007	
0.0033116	
0.19559	
0.180415	
0.0654016	
0.0039287	
-0.0354209	
0.0891336	
0.120124	
0.0399473	
0.0712308	
0.0260238	
-0.0538516	
0.191678	
0.209272	
0.20662	
0.19492	
-0.193338	
0.186566	
0.165583	
-0.000657287	
-0.0908707	
0.020438	
0.157135	
0.176097	
0.155881	
0.175763	
0.163335	
0.14082	
0.0648197	
0.0502261	
-0.000931389	
0.00455013	
0.117841	
0.12453	
-0.128811	
-0.359672	
-0.33723	
0.0394588	
0.0273798	
0.199007	
0.180892	
0.21395	
0.198094	
0.150923	
0.118966	
-0.0700419	
0.111417	
0.142482	
0.126077	
0.142474	
0.144343	
0.162522	
0.156917	
0.136795	
-0.203738	
-0.226075	
0.177628	
0.162962	
0.0985101	
0.0582156	
0.144632	
0.143443	
0.205238	
0.192201	
-0.0305585	
-0.0894569	
-0.154319	
-0.0713459	
0.0188489	
0.104576	
0.0475901	
0.113083	
-0.0816424	
-0.069931	
-0.248186	
0.114687	
0.111136	
0.168648	
0.192705	
-0.0689703	
0.0393854	
-0.0369392	
0.0193441	
-0.0484155	
-0.0110867	
0.0603866	
0.0621648	
0.111198	
-0.0261264	
-0.0268076	
-0.0347795	
-0.0395252	
0.204649	
0.177851	
0.180879	
-0.100025	
-0.147162	
0.0666532	
-0.00650041	
0.0608765	
-0.0378145	
0.0634033	
0.0543781	
-0.0825683	
-0.0911816	
0.079395	
-0.00391799	
0.00409409	
-0.292395	
-0.00728906	
0.0382132	
0.0790986	
0.0822702	
-0.153488	
-0.165216	
-0.234127	
-0.0154141	
0.0200441	
0.165703	
0.153143	
0.0101044	
0.0671304	
0.0890554	
0.094554	
-6.85012e-05	
-0.0408652	
-0.0948746	
-0.0964854	
0.194512	
0.183611	
0.187711	
0.0601809	
0.0628077	
0.113833	
0.0575891	
-0.137392	
-0.134671	
-0.191486	
-0.0928424	
-0.0856536	
-0.0140923	
0.112172	
0.113601	
0.0780368	
0.0394372	
-0.173143	
-0.174328	
-0.00704962	
-0.0263143	
-0.220577	
-0.194038	
-0.265655	
-0.116983	
0.173	
0.158137	
0.133057	
0.192145	
0.211054	
-0.0710376	
-0.0106523	
-0.0654447	
0.0666203	
0.111084	
0.0264437	
0.0717664	
0.102656	
0.129717	
0.10641	
0.132197	
-0.0370609	
-0.0226288	
0.145271	
0.144169	
-0.156471	
-0.130732	
-0.199291	
0.186392	
0.193798	
0.185774	
0.142413	
0.107225	
0.159168	
0.111397	
0.156468	
0.0776672	
0.134944	
0.131816	
0.165693	
-0.0555884	
-0.0453887	
-0.0476564	
0.139232	
-0.0562149	
-0.0757245	
-0.169601	
0.0559906	
0.0306399	
-0.236634	
-0.243542	
-0.052306	
-0.0593714	
0.121233	
0.069257	
-0.129839	
-0.293351	
-0.258007	
0.177889	
0.176794	
0.16142	
0.17594	
0.174139	
0.0503968	
0.0918194	
0.0341841	
0.041245	
0.188077	
-0.03625	
-0.198303	
-0.0410318	
0.0201216	
-0.0170316	
-0.0244496	
0.016282	
-0.338749	
0.053245	
0.0624503	
0.142357	
0.111134	
0.157196	
0.125155	
0.145714	
0.136015	
0.130846	
0.0256973	
0.0573002	
0.0499828	
0.0767104	
0.130294	
0.109172	
0.0305556	
0.14282	
0.15689	
0.109394	
0.126539	
0.116383	
0.140592	
0.117605	
0.114875	
0.052557	
0.054964	
0.128818	
0.110264	
0.118372	
0.0729705	
-0.0637996	
-0.0658716	
-0.0450725	
-0.0123727	
-0.0928537	
-0.0278916	
0.0762669	
0.0580547	
0.105058	
0.158084	
0.124592	
0.138	
0.0860294	
0.0127203	
-0.00840394	
0.0572814	
-0.015208	
0.0174347	
-0.0283959	
0.0575749	
0.180626	
0.180528	
-0.315929	
-0.276565	
0.125278	
0.115881	
-0.00457678	
-0.0192938	
0.133231	
-0.0720336	
-0.0556587	
0.175625	
0.162129	
0.190521	
0.208812	
0.0624779	
0.0393748	
0.14171	
0.125811	
0.17895	
0.0213377	
0.0613183	
0.126161	
0.0807261	
0.113264	
0.0853	
0.111755	
0.208202	
0.0314843	
0.031694	
0.182747	
0.0498648	
0.103705	
0.102253	
0.0324471	
0.00769319	
0.109365	
0.115666	
0.149643	
0.187293	
0.192555	
0.20197	
-0.202921	
0.125177	
0.0744994	
-0.0596599	
0.0327138	
0.0698289	
0.146913	
0.144732	
0.197967	
0.189704	
0.157406	
0.148764	
-0.201661	
-0.121662	
-0.0875197	
-0.104198	
0.0832309	
0.0642328	
0.0711954	
-0.0891291	
-0.0605849	
-0.262401	
-0.0819479	
-0.0728535	
-0.130417	
-0.273718	
-0.213171	
-0.146725	
-0.135404	
-0.119464	
-0.101148	
0.146946	
0.135125	
0.0708966	
-0.0626997	
-0.0517594	
-0.139414	
-0.139321	
-0.20536	
-0.202166	
-0.0533735	
-0.0715338	
-0.333874	
-0.0441292	
-0.192849	
0.0879032	
0.0920355	
0.0649436	
0.0669046	
0.172421	
0.171737	
-0.0487696	
-0.0913428	
-0.000166467	
-0.00344396	
0.0470552	
0.0275727	
0.0434187	
0.0265282	
-0.195476	
-0.22115	
-0.161484	
-0.0224913	
0.137483	
0.124796	
0.0617106	
0.0414241	
-0.241395	
-0.222759	
-0.0838845	
-0.186889	
-0.229773	
-0.208975	
-0.261715	
0.202019	
0.185587	
-0.0259658	
-0.0816853	
-0.0598025	
-0.0541146	
-0.0801996	
-0.186153	
-0.169919	
0.0583082	
0.0143156	
-0.156905	
-0.0474836	
-0.253826	
-0.244793	
-0.149211	
-0.129903	
-0.137383	
-0.124424	
-0.148717	
-0.147164	
-0.10255	
-0.101802	
0.148181	
0.0757863	
0.132909	
0.114519	
0.111681	
0.115395	
0.0816966	
-0.2305	
-0.185783	
-0.193618	
-0.204505	
-0.196949	
-0.259707	
-0.268768	
-0.314761	
-0.174159	
-0.113716	
-0.212457	
-0.186749	
-0.285385	
-0.329426	
-0.32894	
-0.364391	
-0.0352183	
-0.0377948	
-0.0399287	
-0.0476051	
-0.209524	
-0.216383	
-0.16852	
-0.158653	
-0.125423	
-0.134458	
-0.0893271	
-0.304508	
-0.0315067	
-0.0165135	
-0.304307	
-0.262363	
-0.0135369	
-0.023424	
-0.0284461	
-0.144087	
-0.140008	
-0.0209534	
-0.0297726	
-0.0734462	
-0.0807342	
-0.171793	
-0.163415	
0.0909971	
0.0251032	
0.0051342	
-0.00566099	
0.0998568	
0.0520838	
-0.11648	
-0.0924004	
-0.119507	
-0.0182436	
-0.279996	
-0.32603	
-0.0976706	
-0.113562	
0.197948	
0.124897	
0.210849	
0.182475	
-0.373482	
-0.366868	
0.049254	
0.00612438	
-0.308922	
-0.27476	
-0.32837	
-0.294886	
-0.280524	
-0.291244	
-0.219189	
-0.18939	
-0.314891	
-0.355075	
-0.35429	
-0.348638	
-0.346424	
-0.179775	
-0.125967	
-0.100754	
-0.296564	
-0.323221	
-0.350118	
-0.239958	
0.190548	
0.159282	
0.210826	
0.194053	
-0.324412	
-0.296112	
-0.214885	
-0.203078	
-0.189639	
-0.00714569	
-0.00776666	
-0.2961	
-0.295644	
-0.330414	
-0.299996	
-0.322565	
-0.058839	
-0.0695851	
-0.0819831	
-0.104041	
-0.212804	
-0.254172	
-0.213629	
-0.239565	
-0.268284	
-0.300049	
0.209996	
0.185965	
0.184137	
0.145255	
-0.248562	
-0.130895	
-0.119191	
-0.132005	
0.181867	
0.139421	
0.161978	
0.0824814	
-0.347606	
0.081634	
0.125688	
0.114629	
0.135633	
-0.332542	
-0.351414	
-0.335617	
-0.339529	
-0.331	
-0.337203	
-0.2967	
-0.110085	
-0.100318	
-0.0987164	
-0.0988079	
0.139754	
0.197248	
0.136355	
0.194922	
0.128991	
0.119951	
0.122933	
0.073529	
-0.252037	
-0.272891	
-0.251992	
-0.237614	
-0.340226	
-0.354991	
-0.341697	
-0.348233	
0.0779292	
0.136919	
0.0821118	
0.138447	
0.163944	
0.130764	
0.151427	
0.0940326	
0.112318	
0.0884076	
0.111558	
0.0876658	
0.174252	
0.202547	
0.205892	
0.210676	
0.22154	
0.138926	
0.231979	
0.234776	
0.237055	
0.245091	
0.249423	
0.254791	
0.229242	
0.191457	
0.169543	
0.0445343	
0.256423	
-0.0113632	
-0.00754092	
-0.0378636	
0.183447	
0.249364	
0.234699	
0.265572	
0.26159	
0.268274	
0.256163	
0.26294	
0.253497	
0.24595	
0.168556	
0.217982	
0.197108	
0.218109	
0.188916	
0.149278	
0.216725	
0.158522	
0.101584	
0.25705	
0.235488	
0.234427	
0.0942761	
-0.0442514	
0.248921	
-0.0269448	
-0.0467627	
0.0109834	
0.0681777	
0.0398873	
-0.0403097	
0.0380079	
-0.00127562	
0.0670124	
-0.0595152	
0.0125128	
0.062983	
0.0796925	
0.036005	
-0.00728456	
-0.0490761	
0.206384	
-0.030142	
0.174992	
0.100153	
0.104829	
0.081572	
0.0431867	
0.0495354	
0.0667913	
0.0767755	
0.014533	
0.0555515	
0.0087297	
0.0349689	
0.0158505	
0.0291951	
0.0291841	
0.0422347	
0.0807998	
0.0471883	
0.0521973	
0.0624042	
0.0844203	
0.040961	
-0.0279894	
-0.0309618	
0.0174545	
-0.00655192	
-0.0134346	
0.0302957	
0.058597	
0.0535238	
-0.000655105	
-0.0253323	
-0.0333153	
-0.0128657	
0.0293015	
-0.0666757	
-0.0458825	
-0.0639599	
0.166633	
0.187026	
0.184035	
0.222048	
0.0102951	
0.0989341	
0.152578	
0.159922	
0.189003	
0.000222488	
0.150154	
0.127104	
-0.0579263	
-0.0385005	
-0.0301064	
0.129177	
-0.0313342	
0.143416	
-0.00362897	
0.203884	
0.20792	
-0.0690226	
0.0759551	
0.039821	
0.00253725	
0.0736931	
0.0156972	
0.244927	
0.228616	
0.221838	
-0.0498319	
0.0822091	
0.21549	
-0.0135599	
-0.0167126	
0.206383	
0.229088	
0.00716249	
0.0486003	
0.195471	
0.138558	
-0.0617358	
-0.0497077	
0.108597	
-0.0225193	
-0.0174544	
-0.00767049	
-0.00134805	
0.251466	
0.206948	
0.210785	
0.127287	
0.162907	
0.242711	
0.273517	
0.254362	
0.0575848	
0.168424	
0.242652	
0.192723	
0.107607	
0.129389	
0.141249	
0.160004	
0.00567388	
0.118289	
0.0821325	
0.0963481	
0.0640526	
0.11864	
0.116609	
0.18727	
0.146244	
0.191182	
0.115253	
0.156051	
0.128345	
0.16443	
0.113729	
0.121143	
0.153671	
0.205601	
0.140036	
0.150556	
0.159304	
0.158873	
0.141298	
0.264475	
0.266886	
0.277578	
0.265073	
0.280826	
0.247824	
0.111716	
-0.0243659	
0.0226126	
0.0278865	
0.121724	
0.230311	
0.176792	
0.110109	
0.183036	
0.168506	
0.121677	
0.235064	
0.269342	
0.27463	
0.228566	
0.248058	
0.2582	
0.277171	
0.26257	
0.252242	
0.276889	
0.260572	
0.261186	
0.270214	
0.24481	
0.241933	
0.267416	
0.267159	
0.274295	
0.103645	
0.278346	
0.226597	
0.244469	
0.199447	
0.225963	
0.268559	
0.270578	
0.273784	
0.204941	
0.19649	
0.225156	
0.208553	
0.218624	
0.217932	
0.196153	
-0.0464326	
-0.0515822	
0.238247	
0.225149	
0.25119	
0.227927	
0.202338	
0.182407	
0.2003	
0.257079	
0.231565	
0.231382	
0.241032	
0.16684	
0.210219	
0.0828228	
0.262071	
0.248303	
0.0931754	
0.186385	
0.162758	
0.232557	
0.124439	
0.129781	
0.20338	
0.146986	
0.273005	
0.133204	
0.131083	
0.159729	
0.221935	
0.193119	
0.180126	
0.26674	
0.0479563	
0.107352	
0.0415048	
0.0770049	
0.191389	
0.182742	
0.153097	
0.183551	
-0.0218456	
0.257225	
0.239513	
-0.0044287	
0.00545604	
-0.0193318	
0.000918755	
0.11402	
0.0861444	
0.158859	
0.162092	
0.186021	
0.148586	
0.186847	
0.0067517	
0.156486	
0.128557	
0.17152	
-0.0381209	
-0.0515606	
-0.0428074	
-0.051044	
0.115183	
0.111812	
0.14261	
0.132491	
0.150019	
0.0861689	
0.0942461	
0.197939	
0.176296	
0.20046	
0.212414	
0.154952	
0.102114	
0.0899835	
0.0968173	
0.0699592	
0.279732	
0.169619	
0.197805	
0.150507	
0.168018	
0.115609	
0.14591	
0.114518	
0.155396	
0.1406	
0.0160523	
0.205409	
0.213847	
0.176642	
0.237227	
0.235869	
0.148377	
0.175157	
0.122938	
0.126742	
-0.0539232	
-0.0386148	
-0.0629898	
-0.0616317	
0.101147	
0.205324	
0.237997	
0.208018	
0.19644	
0.208095	
0.168095	
0.218411	
0.215412	
0.214191	
0.204054	
0.0460509	
0.104274	
0.264055	
0.240042	
0.266961	
0.201864	
0.192008	
0.265147	
0.265962	
0.22959	
0.242883	
0.258371	
0.201063	
0.228492	
0.170761	
0.176881	
0.186723	
0.247542	
0.234151	
0.248512	
0.220845	
0.263338	
0.229329	
0.249861	
0.00014382	
0.184478	
0.196003	
0.16352	
0.23758	
0.239218	
0.231343	
0.225869	
0.243354	
0.254256	
0.106001	
0.135148	
0.123507	
0.140371	
-0.0539125	
0.215095	
0.180322	
0.184213	
0.112845	
0.145819	
0.14973	
0.171005	
0.156591	
0.16572	
-0.0442123	
-0.032995	
-0.0480861	
-0.0304963	
0.2434	
0.204907	
0.243506	
0.208572	
0.0803259	
0.215711	
0.223588	
0.221203	
0.247832	
0.230072	
0.259321	
0.147668	
0.133235	
0.218229	
0.213706	
0.22199	
0.18307	
0.18689	
0.0241598	
0.0689397	
0.264626	
0.224536	
-0.0210027	
0.18998	
0.217743	
0.225161	
0.22644	
0.208299	
0.201525	
0.199211	
0.25622	
0.258915	
0.251293	
0.150294	
0.261325	
0.265819	
0.0571166	
0.0816886	
0.0806788	
0.220931	
0.222113	
0.222668	
0.264807	
-0.0675692	
-0.0616809	
0.257021	
0.252641	
0.243804	
0.220696	
-0.0623713	
-0.056759	
0.163022	
0.150232	
0.11296	
0.114993	
0.220914	
0.0729525	
0.0875541	
0.152384	
0.153157	
0.17094	
0.169256	
0.266158	
0.259565	
0.00172872	
0.0167607	
0.0767724	
0.0428176	
0.101902	
0.106973	
0.135741	
0.180442	
0.178005	
0.166394	
0.159917	
0.274378	
0.26168	
0.235325	
0.251315	
0.266069	
0.083779	
0.0773954	
0.204555	
0.203163	
0.189763	
0.189294	
0.0244903	
0.0452469	
0.265871	
0.266322	
0.20641	
0.20367	
0.145256	
0.107018	
0.154618	
0.0999775	
0.224046	
0.230504	
0.206186	
0.207447	
0.212844	
0.211291	
0.205539	
0.189489	
0.266261	
0.267535	
0.250801	
0.171174	
0.172234	
0.198514	
0.194742	
0.161471	
0.16789	
0.237519	
0.243061	
0.158021	
0.175163	
0.261992	
0.265919	
0.183795	
0.227097	
0.235255	
0.215479	
0.185242	
0.223984	
0.270595	
0.263869	
0.241671	
0.242155	
0.233566	
0.242568	
0.129293	
0.186958	
0.125552	
0.264264	
0.274672	
0.261672	
0.25619	
0.0982157	
0.0697558	
0.0728712	
0.0547534	
0.262275	
0.256834	
0.266474	
0.273045	
0.00518432	
0.25755	
0.266873	
0.263034	
0.255841	
0.124889	
0.163633	
0.26679	
0.275112	
0.265933	
0.118883	
0.131516	
0.137142	
0.145878	
0.196112	
0.192404	
0.18625	
0.189635	
0.26889	
0.166867	
0.163938	
0.214558	
0.214583	
-0.00774433	
-0.017022	
0.24763	
0.262016	
0.262	
0.192352	
-0.00887592	
0.232734	
0.228918	
0.239812	
0.241421	
0.177662	
0.269437	
0.267947	
0.0400736	
0.0107896	
0.184638	
-0.065719	
-0.0589273	
-0.065049	
0.177215	
0.0652279	
0.0261998	
0.0501886	
0.025153	
0.239458	
0.121884	
0.162525	
0.262498	
0.247165	
0.263117	
0.263201	
0.266625	
-0.0040623	
-0.0250875	
0.236567	
0.220722	
0.267224	
0.258288	
0.0213038	
0.182392	
0.167048	
0.135249	
0.204078	
0.174845	
0.225069	
0.216969	
0.129306	
0.122001	
0.264	
0.273535	
0.0653407	
0.0540969	
0.245679	
0.253872	
0.266826	
0.265993	
0.272647	
0.26578	
-0.0589528	
-0.0614902	
0.0985918	
0.0983341	
0.0243134	
0.0162932	
0.00942125	
0.2443	
0.245494	
0.218013	
0.228959	
0.21148	
0.218369	
0.272648	
0.195304	
0.258841	
0.24443	
0.239321	
0.124869	
0.0687257	
0.270389	
0.262131	
-0.0368113	
-0.0059979	
0.0111013	
0.0636679	
0.213018	
0.142907	
0.246948	
0.240506	
0.0589088	
0.0817402	
0.0353908	
0.243662	
0.158355	
0.162127	
0.253958	
0.252334	
0.0915516	
0.07205	
-0.0140236	
-0.0158255	
0.196971	
0.200755	
0.183487	
0.192385	
0.240631	
0.204454	
0.179702	
0.225723	
0.21873	
0.198703	
0.00944746	
0.0567942	
0.0504394	
0.129125	
0.0726797	
0.180881	
0.211178	
0.260595	
0.0992172	
0.0994934	
0.209523	
0.197934	
0.251156	
0.124642	
0.126245	
0.0940492	
0.0319758	
0.016965	
0.0442857	
0.0161728	
0.0426311	
0.163691	
0.194624	
0.191527	
0.217016	
0.0707608	
0.0549509	
0.0939117	
0.0778306	
0.164593	
0.16355	
0.176728	
0.174027	
0.164221	
0.179768	
0.179932	
-0.0690951	
-0.0241627	
-0.063429	
-0.0490573	
-0.0280198	
0.131386	
0.13453	
-0.0646216	
0.110563	
0.12203	
0.0923849	
0.125087	
0.112512	
0.0327015	
-0.0394387	
0.0742461	
0.134898	
-0.0690601	
0.110974	
-0.0628757	
-0.0692894	
-0.0682621	
0.0348613	
0.0708311	
0.261544	
0.237953	
0.26592	
0.24005	
0.267712	
0.267684	
0.134273	
0.0866555	
0.274933	
0.26293	
0.148244	
0.192741	
0.143151	
0.189462	
0.0444593	
0.0602186	
0.210339	
0.092132	
0.0859627	
-0.0652378	
0.169586	
0.0889853	
0.0890188	
0.054172	
0.17724	
0.258233	
0.267926	
0.190792	
0.0175798	
0.011303	
0.164476	
0.193679	
0.226856	
0.217607	
-0.0522324	
-0.0381691	
0.268097	
0.262972	
0.248533	
-0.035824	
0.264857	
0.18409	
0.186393	
0.203294	
0.192672	
0.129233	
0.0819204	
0.26825	
0.254749	
0.166374	
0.169186	
0.233426	
0.244477	
0.213361	
0.0552431	
0.0670294	
0.232369	
0.257898	
0.230921	
0.0799795	
0.204101	
0.20819	
0.12139	
0.215585	
0.247251	
-0.0694756	
0.219114	
0.216625	
0.209509	
0.262934	
0.246461	
0.13768	
0.2673	
0.136536	
0.166285	
0.14146	
0.143712	
0.116651	
0.274975	
0.248856	
0.263896	
0.275358	
0.264272	
0.264737	
0.247586	
0.249793	
0.243388	
0.240164	
0.199857	
0.217392	
0.255942	
0.250774	
0.0714948	
0.0479011	
0.240331	
0.253325	
0.270982	
0.251596	
0.269727	
0.0613131	
0.0720955	
0.0695452	
0.0895519	
0.268114	
0.262423	
0.199813	
0.222089	
0.219511	
0.139239	
0.139679	
-0.066177	
-0.0632497	
0.128569	
0.113845	
0.110505	
0.112927	
0.109664	
0.109358	
0.0845713	
0.259019	
-0.0534365	
-0.0541543	
-0.0687043	
-0.0703802	
0.20974	
0.158811	
0.157989	
0.249205	
-0.0711025	
-0.0663455	
-0.0492202	
-0.052949	
-0.0680484	
-0.068635	
0.214538	
0.216185	
0.206034	
0.202599	
-0.0298556	
-0.0124055	
-0.0368138	
-0.0211328	
0.119682	
0.122902	
0.0940403	
0.192466	
0.218166	
0.252971	
0.241029	
0.247448	
0.249856	
0.249831	
0.238545	
0.226605	
0.234636	
0.204704	
0.199153	
0.222391	
0.217867	
0.100992	
0.0903173	
0.10087	
0.039237	
-0.00524003	
0.0989595	
0.0667584	
-0.0584831	
-0.0405085	
-0.065616	
0.0707352	
0.170168	
0.117895	
0.114729	
0.0581997	
0.0441211	
-0.0243065	
-0.0445431	
0.224852	
0.224158	
0.0593347	
0.105166	
0.0871128	
0.249526	
0.25561	
0.238314	
0.244028	
0.259522	
0.226575	
0.224256	
0.0835935	
0.0708863	
0.120999	
0.101872	
0.127178	
0.11757	
-0.00367401	
0.0217883	
0.102073	
0.106477	
0.170717	
0.17337	
0.119588	
0.109283	
0.0840869	
0.0808322	
0.175851	
0.17311	
0.160828	
0.125101	
0.159921	
0.166329	
0.231923	
0.245218	
0.157989	
0.148055	
0.121139	
0.163657	
0.188062	
-0.0214289	
0.02738	
-0.0288568	
0.248122	
0.247436	
0.229848	
0.214678	
0.181066	
0.159639	
0.178514	
0.177114	
-0.0368236	
-0.0423959	
-0.0562159	
-0.0587419	
0.0458041	
0.0720388	
0.0846258	
0.167336	
0.143821	
0.180444	
0.186038	
0.204888	
0.182452	
0.25368	
0.248993	
0.224364	
0.233585	
0.232927	
0.233966	
-0.0478344	
-0.0536102	
-0.0349228	
-0.040069	
0.174883	
0.153607	
0.166902	
0.165945	
0.0323927	
0.090251	
0.0883663	
0.0794569	
0.0843445	
0.24346	
0.257001	
0.0537063	
0.0238193	
0.261197	
0.259815	
0.246605	
0.262737	
0.258677	
0.26126	
0.0127281	
0.236589	
0.235008	
0.194931	
0.089115	
0.0783788	
0.0647216	
0.0684091	
0.14011	
0.144675	
0.226543	
0.246439	
0.256209	
0.258066	
0.173373	
0.1684	
0.0839333	
0.0929057	
0.231173	
0.222233	
0.0563019	
0.0737724	
0.122654	
0.102876	
0.127972	
0.148775	
0.105349	
0.116162	
0.115967	
0.0778024	
0.0144876	
0.0417135	
0.0938881	
0.0756712	
0.250105	
0.267155	
-0.0171942	
0.138197	
0.110912	
0.260818	
0.258932	
0.0578882	
0.065909	
0.09805	
0.0736622	
0.0794945	
0.0825531	
0.0235747	
0.0531691	
0.0853073	
0.0737604	
0.1329	
0.12298	
0.0711987	
0.0473043	
0.0857086	
0.0574954	
0.221242	
0.223019	
0.164197	
0.179183	
0.143981	
0.134556	
0.0403819	
0.00968778	
-0.048475	
0.000144614	
0.0160335	
0.0182057	
-0.0084081	
0.161414	
-0.0213761	
0.135571	
0.137277	
-0.0174901	
-0.0442988	
-0.0352038	
-0.0436609	
0.110148	
0.117778	
0.0401622	
0.0381245	
0.0342925	
0.185782	
0.157846	
0.264268	
0.259282	
0.100869	
0.0813179	
0.071593	
0.0696464	
0.0819365	
0.122051	
0.118859	
0.144783	
0.144188	
0.0580092	
0.0607707	
0.0165566	
0.0072864	
0.0817858	
0.0582559	
0.0612267	
0.0381245	
0.0950412	
0.0970776	
0.0852156	
0.0786963	
0.0874597	
0.0855835	
0.0529006	
0.270756	
0.268065	
0.26445	
0.26899	
0.0955546	
0.09989	
0.0876444	
0.0931254	
0.0914325	
0.09403	
0.0910791	
-0.015791	
0.00140258	
-0.00698039	
0.0095994	
0.0269034	
0.0382175	
0.0182217	
0.00821056	
-0.0119957	
-0.00348479	
0.00439075	
0.0338778	
0.0199839	
0.0243635	
0.0125824	
0.00434284	
0.0204361	
0.00290884	
0.0123455	
-0.0102708	
-0.017594	
-0.0135153	
-0.00458148	
0.0272282	
0.0251297	
0.0187968	
0.0108309	
-0.0145024	
-0.00986688	
-0.00404594	
0.00264857	
0.0333736	
-0.0642955	
-0.0499983	
0.00396597	
0.0325858	
-0.0265974	
-0.0316327	
-0.0093381	
0.0296426	
0.023314	
0.00266909	
-0.0523839	
0.00121979	
-0.0303161	
-0.0739497	
-0.0564855	
0.0307359	
0.0148646	
-0.00601192	
-0.0681815	
-0.0433759	
-0.0189032	
0.02394	
0.13665	
0.175179	
0.173605	
0.116723	
0.142861	
-0.0268474	
0.0750657	
0.143014	
0.0550017	
0.0962713	
0.129839	
0.0486012	
0.0398381	
0.120017	
0.120997	
0.0956011	
0.0968098	
0.0789001	
0.104856	
0.128172	
0.174228	
0.176221	
-0.0602762	
-0.0660809	
-0.0503732	
-0.0498518	
0.00361314	
0.0251225	
0.0123227	
0.165987	
0.151704	
0.155969	
0.0478679	
0.163607	
0.154913	
0.172192	
0.173195	
0.169851	
0.163431	
0.170852	
0.171545	
-0.0543775	
-0.0401066	
0.145974	
0.151773	
0.137102	
0.161445	
0.160458	
0.166077	
0.15931	
0.148227	
0.147699	
0.171034	
0.156127	
0.174948	
0.176861	
0.104347	
0.11013	
0.129547	
0.175542	
0.176943	
-0.0381608	
-0.019966	
0.010877	
-0.0029579	
-0.0272137	
-0.00436615	
-0.0245625	
0.0579664	
0.0372983	
0.0801998	
0.0766803	
0.120043	
0.137602	
0.113541	
0.132562	
0.102579	
0.161973	
0.165887	
0.12834	
0.0939439	
-0.155071	
-0.0321971	
0.0312371	
0.0662295	
-0.0263301	
0.0334424	
0.0453645	
-0.031057	
0.0594792	
0.0327478	
-0.00367948	
-0.00651872	
0.00756033	
0.0346467	
0.0442453	
0.135709	
0.15725	
-0.152975	
-0.175359	
-0.127862	
-0.13128	
-0.112449	
-0.094929	
-0.0848348	
0.0848653	
0.113866	
0.0926734	
-0.068629	
-0.0800461	
0.128586	
0.11993	
0.140278	
0.128387	
0.1299	
0.140002	
0.133095	
0.125232	
-0.162336	
-0.16988	
0.0720862	
0.0870504	
0.103598	
0.106569	
0.0834218	
0.0875601	
0.111192	
0.116595	
0.153862	
0.152507	
0.160098	
0.164561	
0.0464778	
0.100098	
0.0725777	
0.165205	
0.159985	
-0.147898	
-0.146367	
-0.121596	
-0.115678	
-0.111461	
-0.145972	
-0.124607	
-0.0197177	
-0.0663302	
-0.0372427	
-0.0677962	
0.037237	
0.0699404	
0.0153215	
0.0698021	
0.0462496	
-0.0488288	
0.0731983	
0.166175	
0.218681	
0.213032	
0.21212	
0.191723	
0.207591	
0.196622	
0.186297	
0.20811	
0.201512	
0.205852	
0.193484	
0.201128	
0.196501	
0.174566	
0.155534	
0.175961	
0.185411	
0.181141	
0.214186	
0.175483	
0.206337	
0.205007	
0.191334	
0.211001	
0.198044	
0.206159	
0.0917451	
0.098035	
-0.0944655	
-0.0175285	
0.203292	
0.17089	
0.213395	
0.156803	
0.193235	
0.0968411	
0.172962	
0.183863	
0.213493	
-0.204767	
0.175768	
0.208839	
0.188434	
0.194987	
0.11053	
0.102894	
0.14758	
0.100602	
0.131502	
-0.00243932	
-0.357029	
0.0206687	
0.119802	
0.127448	
-0.0684591	
-0.0259766	
0.0219621	
0.0519616	
-0.243968	
-0.324783	
-0.334672	
-0.340157	
-0.19391	
-0.000853489	
-0.00943089	
-0.229524	
-0.264052	
-0.147418	
-0.000886607	
-0.25668	
-0.289794	
-0.327312	
-0.328507	
-0.16241	
0.0117549	
-0.0836439	
-0.341699	
-0.339886	
-0.0799832	
0.177333	
0.0899026	
0.172005	
-0.343847	
-0.0473055	
0.142813	
-0.0339851	
-0.00537001	
0.154861	
-0.243576	
-0.0262538	
-0.0874917	
-0.130724	
-0.203492	
-0.0629894	
0.159316	
-0.0946526	
0.0978231	
-0.0980543	
0.119895	
0.086674	
0.0298332	
0.0716861	
-0.238357	
-0.221157	
0.0830083	
-0.00517088	
-0.10185	
-0.0379914	
-0.135161	
-0.100946	
-0.249	
-0.072839	
-0.0748123	
-0.157625	
0.153113	
-0.15202	
-0.322755	
0.126393	
-0.319013	
-0.316684	
-0.0021279	
0.0556067	
-0.31439	
-0.121522	
-0.177691	
-0.137179	
0.198713	
0.112622	
0.12242	
0.122126	
0.0530735	
0.0538165	
-0.0076507	
0.0431307	
-0.211833	
-0.135108	
0.172345	
0.15511	
0.0981902	
0.121581	