<VTKFile type="UnstructuredGrid" version="0.1" byte_order="LittleEndian">
	<UnstructuredGrid>
		<Piece NumberOfPoints="3959" NumberOfCells="7450">
			<CellData Scalars="scalars">
				<DataArray type="Float64" Name="Doublet Strengths" NumberOfComponents="1" Format="ascii">
-0.0704898	
-0.0549274	
0.0014853	
0.0316576	
-0.0303268	
-0.0401376	
-0.0163277	
0.0266785	
0.018806	
-0.00330105	
-0.0627064	
0.00395904	
-0.0265884	
-0.0689456	
-0.0520971	
0.0319078	
0.0195263	
7.08926e-06	
-0.0588603	
-0.0353318	
-0.0120074	
0.0271123	
0.134735	
0.172152	
0.170542	
0.113343	
0.133466	
-0.107614	
0.0329393	
0.120673	
0.0325658	
0.0841435	
0.107077	
0.0107973	
-0.00459585	
0.0895893	
0.0946976	
0.063093	
0.0616003	
0.0605169	
0.08173	
0.106442	
0.163646	
0.171125	
-0.0928285	
-0.103954	
-0.101487	
-0.145172	
-0.0563227	
-0.0317415	
-0.0191978	
0.153042	
0.134045	
0.138724	
0.000495411	
0.15096	
0.14724	
0.159891	
0.163071	
0.156584	
0.161053	
0.158601	
0.161765	
-0.124559	
-0.16892	
0.123792	
0.130481	
0.111847	
0.144182	
0.143434	
0.157301	
0.149533	
0.132361	
0.133692	
0.166439	
0.152372	
0.17128	
0.171402	
0.0876534	
0.101233	
0.121863	
0.172513	
0.17195	
-0.0862441	
-0.0876339	
-0.0392294	
-0.0416597	
-0.0617934	
-0.0518933	
-0.0815006	
0.0315641	
0.00519134	
0.0525512	
0.0434277	
0.0982458	
0.121688	
0.0956845	
0.118348	
0.105647	
0.164095	
0.167721	
0.129736	
0.101167	
-0.076806	
0.00801642	
0.0560769	
0.0871886	
-0.005184	
0.0492379	
0.0668303	
0.000457801	
0.0832446	
0.0615678	
0.0297303	
0.0242685	
0.0249318	
0.0552175	
0.0647292	
0.145118	
0.161337	
-0.103871	
-0.083013	
-0.0973707	
-0.0955123	
-0.0643841	
-0.0401062	
-0.0551042	
0.101367	
0.125824	
0.108723	
-0.0232468	
-0.037538	
0.136533	
0.12695	
0.149067	
0.140241	
0.140936	
0.14313	
0.141887	
0.136367	
-0.0943579	
-0.0434755	
0.0928732	
0.106891	
0.119298	
0.122432	
0.0982936	
0.100691	
0.122892	
0.125609	
0.155469	
0.156269	
0.164235	
0.166824	
0.0580169	
0.108899	
0.0810359	
0.167167	
0.163841	
-0.0825033	
-0.0914907	
-0.0637869	
-0.0828228	
-0.074613	
-0.0998171	
-0.079085	
0.00643793	
-0.0304046	
-0.0123509	
-0.0374403	
0.054133	
0.0833469	
0.037174	
0.08479	
-0.00617668	
-0.176989	
0.0290913	
0.168023	
0.216381	
0.208166	
0.208261	
0.191285	
0.203531	
0.193503	
0.184205	
0.206111	
0.199902	
0.200807	
0.183865	
0.195057	
0.191306	
0.170651	
0.163276	
0.171989	
0.180718	
0.176324	
0.20915	
0.175457	
0.198678	
0.199303	
0.185221	
0.204454	
0.193731	
0.205383	
0.115619	
0.108209	
-0.0322643	
0.0113606	
0.196989	
0.176353	
0.211082	
0.165522	
0.188292	
0.0585572	
0.178556	
0.185038	
0.208368	
-0.251681	
0.178792	
0.203017	
0.190428	
0.195529	
0.13358	
0.126264	
0.158202	
0.124288	
0.145825	
-0.0732335	
-0.275904	
-0.0415547	
0.0884259	
0.0967247	
-0.230276	
-0.109711	
-0.0375723	
-0.000924201	
-0.364969	
-0.17675	
-0.220678	
-0.37508	
-0.219479	
-0.028885	
-0.0837973	
-0.30017	
-0.342499	
-0.202014	
-0.0701832	
-0.313746	
-0.351001	
-0.383437	
-0.390426	
-0.304172	
-0.0521305	
-0.142509	
-0.384105	
-0.373453	
-0.0978454	
0.163874	
0.103119	
0.153591	
-0.225199	
0.0100526	
0.117371	
0.0258605	
0.0198171	
0.13025	
-0.0852065	
0.0396703	
-0.106816	
-0.152673	
-0.29739	
-0.0338838	
0.136093	
-0.0526648	
0.0617719	
-0.0141753	
0.0861373	
0.043495	
0.0261812	
0.0694782	
-0.282233	
-0.259449	
0.0556894	
0.0367435	
-0.0187049	
0.0273367	
-0.0791796	
-0.0249672	
-0.2866	
-0.127583	
-0.125922	
-0.0804066	
0.142637	
-0.0642283	
-0.151533	
0.102062	
-0.168649	
-0.17674	
0.0496795	
0.0830492	
-0.224804	
-0.140506	
-0.196116	
-0.0411218	
0.187169	
0.0858169	
0.0891972	
0.0884934	
0.00878642	
0.00880644	
-0.0220447	
0.0305322	
-0.300561	
-0.204379	
0.154187	
0.130606	
0.128256	
0.139863	
-0.0992098	
-0.0752059	
-0.0769151	
-0.0317233	
-0.0202504	
0.008544	
0.1647	
0.0528208	
0.0834644	
0.1731	
0.168356	
0.0778276	
-0.246611	
0.189673	
0.110123	
-0.0548085	
-0.122984	
0.179077	
0.199827	
0.0566697	
0.153787	
-0.277466	
-0.191463	
0.115012	
0.111625	
0.125586	
0.0244686	
0.194554	
0.17097	
0.151714	
0.154761	
0.13868	
0.161962	
0.18608	
0.182087	
0.161032	
-0.0318095	
0.0385716	
0.146817	
0.162758	
0.14795	
0.180163	
0.189968	
0.0574697	
0.170411	
0.0820889	
0.0623871	
0.0536059	
0.0615334	
0.120702	
0.187719	
0.106981	
0.0807973	
0.0555121	
0.0628012	
0.117117	
0.119574	
0.137497	
0.136445	
0.061244	
0.00739795	
0.0221195	
-0.0275256	
0.188666	
0.207637	
0.189353	
0.182611	
0.194172	
0.0990784	
0.101866	
0.183725	
0.105552	
-0.204537	
0.0857998	
0.0184624	
0.0715689	
0.0848964	
0.175431	
0.0260547	
-0.0998241	
-0.0694612	
0.0579777	
0.0595852	
0.0221506	
0.1493	
0.179898	
0.102257	
0.0961356	
0.185497	
0.144247	
0.0947274	
0.0373846	
0.0293647	
0.0620484	
0.0651319	
0.0137521	
0.142227	
0.147865	
-0.337382	
-0.295498	
-0.192104	
-0.152492	
-0.0897615	
0.118617	
0.110043	
0.130091	
0.163021	
0.150233	
0.126413	
0.182708	
-0.182755	
-0.192529	
-0.358549	
-0.328104	
0.0470302	
-0.0881411	
0.0334026	
-0.325124	
-0.351168	
0.00237767	
-0.0123804	
0.00986764	
0.000430196	
-0.109298	
-0.069506	
-0.0616905	
-0.0146318	
0.0179995	
-0.00232242	
0.0652631	
0.0856418	
0.108913	
-0.0111299	
-0.0419956	
-0.0110123	
-0.029342	
-0.0100498	
0.0340012	
0.110495	
0.111544	
0.0932506	
0.0243561	
0.0022342	
-0.0733322	
0.135674	
0.0968091	
0.0186811	
0.00532471	
0.192124	
-0.213355	
0.0624065	
-0.0206301	
-0.0323668	
0.211361	
0.191422	
0.203555	
-0.213337	
-0.166107	
-0.11115	
-0.00171895	
-0.121849	
-0.0716477	
0.19935	
0.18461	
0.140304	
0.115831	
0.0668247	
-0.0635145	
-0.134688	
-0.087364	
0.179245	
0.0297854	
-0.38543	
-0.388313	
-0.386618	
-0.214715	
0.0606593	
0.000238628	
-0.00340542	
0.0155769	
0.0151681	
0.0235286	
-0.0137818	
0.124847	
0.120137	
-0.139663	
-0.0711299	
-0.193911	
-0.129681	
-0.0485546	
-0.164004	
-0.0744968	
0.0427612	
-0.262344	
-0.244876	
0.137207	
0.0622264	
0.107838	
-0.0392046	
-0.00285101	
0.156035	
0.157217	
0.138539	
0.155647	
0.143259	
0.0760775	
0.0536768	
0.138592	
0.04613	
0.197032	
0.186719	
-0.114243	
-0.246723	
0.181877	
0.178564	
0.188566	
0.0194126	
0.190263	
0.201729	
0.188196	
0.198014	
0.206743	
0.191565	
-0.2264	
-0.255188	
0.20691	
0.188608	
0.194374	
0.181633	
-0.354761	
0.037624	
0.00937051	
0.0230612	
0.190287	
0.173135	
0.157963	
0.18017	
0.0633338	
0.0654515	
0.0153334	
0.0185384	
0.132607	
-0.140751	
0.0290929	
0.0727972	
-0.0594248	
0.145069	
0.154374	
0.126378	
0.0929223	
0.202921	
0.0363499	
0.0823305	
-0.0230157	
-0.00951556	
0.104954	
0.129488	
0.136717	
0.0487937	
-0.0651681	
-0.0405701	
-0.0219206	
0.0192404	
0.0551568	
0.0849065	
-0.0262198	
0.0360539	
-0.0199091	
0.197272	
0.182313	
0.0666059	
-0.00738094	
0.086996	
0.147921	
-0.00405371	
-0.117428	
-0.00711911	
-0.119693	
0.103911	
-0.035446	
-0.0393098	
-0.0239405	
0.122944	
0.0950662	
0.0914086	
0.0330452	
0.0943479	
0.0555736	
0.00435776	
0.00800645	
0.0281392	
0.023019	
0.00775407	
-0.0387328	
-0.0857428	
0.115625	
0.0375726	
0.0358778	
0.0228337	
0.129086	
0.0265011	
-0.0126492	
0.0674849	
0.0787495	
0.10587	
-0.342985	
-0.0099664	
-0.0340105	
0.0580122	
0.0659928	
0.151788	
0.0929737	
0.081376	
0.0729305	
-0.111816	
-0.0712079	
0.0372505	
0.0110517	
-0.0201683	
-0.0655987	
0.0971646	
0.0647303	
0.0576803	
0.0599534	
-0.0461072	
0.0287213	
-0.248056	
-0.231647	
-0.148005	
-0.134808	
0.144639	
-0.0449262	
-0.167799	
0.129754	
-0.0919816	
0.0267284	
-0.144048	
-0.216249	
-0.0679041	
-0.0357471	
0.0162401	
-0.0172611	
-0.0983211	
-0.158855	
-0.0883713	
-0.0400309	
-0.0236233	
-0.00129091	
-0.148162	
0.131444	
0.00899731	
0.0359894	
0.0743823	
-0.106118	
-0.0716426	
-0.0851583	
-0.139864	
-0.213932	
0.121909	
0.109884	
-0.0205541	
0.03205	
-0.111971	
-0.134702	
0.110744	
0.0372214	
0.0686925	
-0.0299359	
-0.0125685	
-0.119529	
-0.0805029	
-0.310008	
-0.347278	
0.0487982	
-0.246861	
0.0451968	
0.00480389	
-0.141102	
0.134445	
-0.0989563	
-0.0878417	
-0.0124392	
-0.0582335	
0.183735	
0.0976611	
0.146385	
0.0824206	
0.102857	
0.203688	
0.191316	
-0.0515696	
-0.0441046	
0.0472314	
0.0645693	
-0.341336	
-0.135773	
-0.165462	
-0.383298	
-0.0181668	
0.0501655	
-0.0316067	
-0.0415049	
-0.137966	
-0.112887	
0.0341002	
-0.0108187	
0.00313927	
0.194388	
0.178992	
0.0648343	
0.00302311	
-0.0364996	
0.0866089	
0.117946	
0.0392764	
0.0710551	
0.0256813	
-0.0544015	
0.190208	
0.208113	
0.205314	
0.193389	
-0.19511	
0.185873	
0.164585	
-0.00263768	
-0.0912921	
0.0173888	
0.156436	
0.175639	
0.154978	
0.175129	
0.163121	
0.140333	
0.064646	
0.0499888	
-0.00132135	
0.00416365	
0.117825	
0.124551	
-0.130508	
-0.364465	
-0.342008	
0.0393608	
0.0272532	
0.197995	
0.179594	
0.212902	
0.196765	
0.14907	
0.11675	
-0.0726765	
0.108883	
0.140328	
0.126018	
0.142557	
0.143724	
0.162107	
0.156702	
0.136328	
-0.207278	
-0.229589	
0.177293	
0.162404	
0.0974588	
0.0568346	
0.143843	
0.142612	
0.203862	
0.190514	
-0.0337302	
-0.0930274	
-0.158324	
-0.0727097	
0.0158568	
0.102229	
0.0448159	
0.112956	
-0.0856184	
-0.0738381	
-0.252608	
0.114728	
0.111146	
0.167282	
0.191712	
-0.0724607	
0.037331	
-0.0396042	
0.0172459	
-0.0510539	
-0.0141171	
0.0579359	
0.0596963	
0.10926	
-0.0266401	
-0.0273189	
-0.0381126	
-0.0429039	
0.203382	
0.176658	
0.1799	
-0.103763	
-0.151105	
0.0645191	
-0.00923481	
0.0587432	
-0.0407745	
0.0619957	
0.0529208	
-0.0830708	
-0.0916446	
0.0764967	
-0.00440625	
0.00364417	
-0.297372	
-0.00834003	
0.0374027	
0.0774847	
0.0806369	
-0.157545	
-0.169332	
-0.238534	
-0.01902	
0.0196179	
0.165016	
0.152293	
0.00821035	
0.0656399	
0.0871815	
0.0926936	
-0.0037291	
-0.0448445	
-0.0990187	
-0.100671	
0.193322	
0.182314	
0.186608	
0.0601324	
0.0626756	
0.113883	
0.0574076	
-0.139431	
-0.136639	
-0.193653	
-0.0947094	
-0.0875481	
-0.0156353	
0.11219	
0.113666	
0.077945	
0.0392019	
-0.177487	
-0.178585	
-0.0108261	
-0.0300765	
-0.222932	
-0.196323	
-0.268244	
-0.118369	
0.17193	
0.156507	
0.130969	
0.19067	
0.209969	
-0.0744873	
-0.0136817	
-0.0688751	
0.0641815	
0.10911	
0.0236734	
0.069379	
0.0999189	
0.127377	
0.103748	
0.129937	
-0.0371601	
-0.0227695	
0.142886	
0.141763	
-0.160824	
-0.134718	
-0.203384	
0.185045	
0.192656	
0.184329	
0.140216	
0.104622	
0.157252	
0.108833	
0.154509	
0.0767193	
0.134343	
0.13121	
0.165493	
-0.0557937	
-0.0456419	
-0.0479493	
0.137207	
-0.0565798	
-0.0760596	
-0.173877	
0.0558028	
0.0303707	
-0.240983	
-0.248198	
-0.0525252	
-0.0596446	
0.118511	
0.0660111	
-0.130422	
-0.298016	
-0.262478	
0.177087	
0.175663	
0.159805	
0.175027	
0.173007	
0.0470792	
0.0888852	
0.030898	
0.038016	
0.186301	
-0.040242	
-0.200711	
-0.041127	
0.0194442	
-0.0177979	
-0.025993	
0.0149596	
-0.342922	
0.0523694	
0.0615956	
0.141998	
0.111115	
0.157051	
0.124698	
0.143577	
0.133719	
0.130566	
0.0254337	
0.0571424	
0.049788	
0.0766	
0.130319	
0.109046	
0.0270935	
0.140537	
0.154867	
0.10674	
0.124068	
0.11377	
0.138307	
0.117656	
0.11488	
0.0523489	
0.0547626	
0.128878	
0.110189	
0.118296	
0.0727372	
-0.0641029	
-0.0661495	
-0.0489677	
-0.0160838	
-0.0968702	
-0.0316968	
0.0736418	
0.0552847	
0.102693	
0.158019	
0.12419	
0.137675	
0.0854372	
0.00925614	
-0.0120366	
0.0567513	
-0.0161307	
0.0167349	
-0.029313	
0.054471	
0.179477	
0.1792	
-0.320164	
-0.28045	
0.12313	
0.113633	
-0.00824983	
-0.0230684	
0.130857	
-0.0745588	
-0.0581328	
0.174568	
0.160573	
0.189057	
0.207639	
0.0592936	
0.0360006	
0.141504	
0.125429	
0.177209	
0.0189724	
0.0594008	
0.123495	
0.0775838	
0.113314	
0.0852573	
0.111838	
0.206957	
0.0310883	
0.031302	
0.181108	
0.0498286	
0.103737	
0.10231	
0.0296749	
0.00474965	
0.107273	
0.11366	
0.147578	
0.185869	
0.190957	
0.200633	
-0.206959	
0.122523	
0.0713403	
-0.0598195	
0.0308537	
0.0682887	
0.14499	
0.142756	
0.196865	
0.188341	
0.155438	
0.146649	
-0.20315	
-0.125725	
-0.0914473	
-0.108228	
0.0832759	
0.0642276	
0.0711829	
-0.0899889	
-0.0613091	
-0.266681	
-0.0823402	
-0.0731986	
-0.131283	
-0.27728	
-0.216314	
-0.147691	
-0.136417	
-0.120171	
-0.101769	
0.147021	
0.135109	
0.0705906	
-0.0630798	
-0.0521635	
-0.143664	
-0.143757	
-0.209956	
-0.206701	
-0.053804	
-0.0719766	
-0.338401	
-0.0478776	
-0.195782	
0.0879696	
0.0920885	
0.0648893	
0.0668651	
0.171293	
0.17061	
-0.0522495	
-0.0950832	
-0.000503935	
-0.00377797	
0.0469904	
0.0274705	
0.0433617	
0.0264361	
-0.199433	
-0.225244	
-0.165716	
-0.0228855	
0.135001	
0.122127	
0.0586547	
0.0381825	
-0.246196	
-0.227461	
-0.0881031	
-0.191096	
-0.232628	
-0.213199	
-0.266125	
0.200784	
0.184113	
-0.0263337	
-0.0824297	
-0.0604532	
-0.0546857	
-0.0808573	
-0.189901	
-0.173589	
0.0555927	
0.0112585	
-0.158092	
-0.0509386	
-0.256637	
-0.247438	
-0.150013	
-0.130502	
-0.138191	
-0.125085	
-0.150008	
-0.148393	
-0.103641	
-0.102825	
0.148248	
0.0754182	
0.13281	
0.114592	
0.111708	
0.115436	
0.0816111	
-0.234796	
-0.18978	
-0.195302	
-0.206079	
-0.198403	
-0.263967	
-0.272984	
-0.319199	
-0.178344	
-0.117831	
-0.216617	
-0.190931	
-0.289849	
-0.334739	
-0.334272	
-0.370025	
-0.0353883	
-0.0379892	
-0.0400624	
-0.0477755	
-0.211552	
-0.218288	
-0.170361	
-0.160328	
-0.128663	
-0.137623	
-0.0932948	
-0.309142	
-0.0351968	
-0.0201111	
-0.308941	
-0.266811	
-0.0136814	
-0.0235723	
-0.0286069	
-0.14798	
-0.143909	
-0.0248732	
-0.033729	
-0.0776194	
-0.0848883	
-0.173237	
-0.16493	
0.0885194	
0.0220973	
0.00200118	
-0.00580334	
0.0974811	
0.0493137	
-0.120499	
-0.096344	
-0.120041	
-0.0184291	
-0.283289	
-0.33068	
-0.0990527	
-0.115064	
0.19661	
0.122716	
0.209762	
0.180859	
-0.378796	
-0.372377	
0.0458656	
0.00239822	
-0.313579	
-0.279081	
-0.333011	
-0.299261	
-0.283635	
-0.294162	
-0.22218	
-0.192143	
-0.319603	
-0.359812	
-0.359155	
-0.353759	
-0.351682	
-0.183966	
-0.130004	
-0.104695	
-0.301189	
-0.327977	
-0.354914	
-0.24443	
0.188821	
0.157187	
0.209707	
0.192459	
-0.329209	
-0.300697	
-0.219229	
-0.207449	
-0.19394	
-0.00728839	
-0.0079369	
-0.299059	
-0.298549	
-0.334214	
-0.30353	
-0.326238	
-0.0593543	
-0.0701474	
-0.0825191	
-0.104512	
-0.217172	
-0.258618	
-0.217984	
-0.244011	
-0.272774	
-0.304548	
0.20892	
0.184332	
0.182512	
0.143239	
-0.250762	
-0.13499	
-0.123251	
-0.136148	
0.181507	
0.138498	
0.161311	
0.0811782	
-0.352455	
0.0814228	
0.125649	
0.114561	
0.135727	
-0.337336	
-0.356149	
-0.340312	
-0.344218	
-0.335275	
-0.341746	
-0.300469	
-0.110656	
-0.10075	
-0.0993153	
-0.0993667	
0.137767	
0.195902	
0.134333	
0.193512	
0.129112	
0.119984	
0.12297	
0.0733773	
-0.25447	
-0.275387	
-0.25424	
-0.239674	
-0.345008	
-0.359741	
-0.346366	
-0.352724	
0.0776063	
0.136877	
0.0817977	
0.138415	
0.163754	
0.130182	
0.151035	
0.0932439	
0.112379	
0.0883857	
0.111623	
0.0876447	
0.173956	
0.202237	
0.205504	
0.210271	
0.221204	
0.141942	
0.231662	
0.236014	
0.236741	
0.244866	
0.249224	
0.254714	
0.229057	
0.191218	
0.169466	
0.0472736	
0.256408	
-0.00792766	
-0.00242757	
-0.0340793	
0.183266	
0.249195	
0.234597	
0.265891	
0.261906	
0.268828	
0.256525	
0.263581	
0.254159	
0.246618	
0.170934	
0.217663	
0.196805	
0.218763	
0.189444	
0.149687	
0.217335	
0.15903	
0.101836	
0.257513	
0.236247	
0.235015	
0.0944733	
-0.0443527	
0.248709	
-0.0270676	
-0.0417409	
0.0139754	
0.0708235	
0.0428892	
-0.0354244	
0.0407187	
0.00217587	
0.0705759	
-0.0544906	
0.0163518	
0.0652917	
0.0839524	
0.0410879	
-0.00351171	
-0.0447848	
0.209209	
-0.0294012	
0.177553	
0.106318	
0.109131	
0.0863084	
0.0478949	
0.0544614	
0.0725831	
0.0814179	
0.019883	
0.0595698	
0.0135463	
0.0396596	
0.0208487	
0.0322148	
0.0314269	
0.0450053	
0.0872886	
0.0525379	
0.0572588	
0.0684965	
0.0890724	
0.0462293	
-0.023001	
-0.0264784	
0.0215465	
-0.00212944	
-0.00820974	
0.0345983	
0.064288	
0.0593258	
0.00467498	
-0.0200378	
-0.0290892	
-0.00857295	
0.0330234	
-0.0619812	
-0.0407299	
-0.063939	
0.168311	
0.189121	
0.186072	
0.224222	
0.0107169	
0.100528	
0.153957	
0.161379	
0.190253	
0.000263841	
0.15221	
0.129647	
-0.0580132	
-0.0386281	
-0.0293227	
0.13436	
-0.0312196	
0.144112	
-0.00334535	
0.205055	
0.208654	
-0.0689535	
0.0764774	
0.0402807	
0.00274745	
0.0746836	
0.0160589	
0.246337	
0.230492	
0.223793	
-0.0499515	
0.0845237	
0.218012	
-0.0134027	
-0.0165406	
0.209012	
0.230902	
0.00747595	
0.0489649	
0.199117	
0.140575	
-0.0616802	
-0.0496105	
0.111425	
-0.0224814	
-0.0173883	
-0.0076225	
-0.00127282	
0.251636	
0.208649	
0.214184	
0.132551	
0.167583	
0.245026	
0.27403	
0.255455	
0.0585027	
0.170153	
0.243713	
0.194427	
0.109137	
0.130506	
0.143165	
0.161358	
0.00597424	
0.120845	
0.0854381	
0.0991576	
0.0675563	
0.120763	
0.118547	
0.189642	
0.150477	
0.194685	
0.116178	
0.157077	
0.129973	
0.16765	
0.117649	
0.125112	
0.158101	
0.20637	
0.141049	
0.151471	
0.159767	
0.159502	
0.14231	
0.266727	
0.268728	
0.278469	
0.266033	
0.282089	
0.250365	
0.116703	
-0.0244423	
0.0226428	
0.0279005	
0.124992	
0.232766	
0.179139	
0.11082	
0.183723	
0.170737	
0.123987	
0.23703	
0.270553	
0.275874	
0.230963	
0.2501	
0.260001	
0.278424	
0.262866	
0.253319	
0.278032	
0.262662	
0.262513	
0.270607	
0.244991	
0.243092	
0.269258	
0.26898	
0.274956	
0.104098	
0.279297	
0.226605	
0.247223	
0.200591	
0.226762	
0.269874	
0.270991	
0.27476	
0.204935	
0.197172	
0.225175	
0.20956	
0.218591	
0.221417	
0.196214	
-0.0463834	
-0.0515864	
0.239947	
0.227431	
0.252283	
0.230143	
0.202363	
0.183261	
0.200983	
0.259025	
0.234389	
0.234284	
0.241406	
0.167	
0.210154	
0.0853291	
0.262237	
0.249307	
0.0934055	
0.18653	
0.163624	
0.232675	
0.124852	
0.130175	
0.206933	
0.147427	
0.273857	
0.13496	
0.1328	
0.160917	
0.222738	
0.194222	
0.18132	
0.267767	
0.0484025	
0.107829	
0.0419264	
0.0774373	
0.195535	
0.187085	
0.15495	
0.185306	
-0.0214923	
0.259288	
0.24174	
-0.00441449	
0.00545907	
-0.0193474	
0.000882047	
0.116629	
0.0891359	
0.159641	
0.165972	
0.189354	
0.15289	
0.190233	
0.00688093	
0.160463	
0.133055	
0.175126	
-0.0382411	
-0.0516726	
-0.042909	
-0.0511384	
0.116879	
0.113505	
0.143662	
0.133756	
0.152243	
0.0881357	
0.0961378	
0.200813	
0.177876	
0.201896	
0.213603	
0.155497	
0.10263	
0.0904763	
0.0991557	
0.0718389	
0.2811	
0.172934	
0.200633	
0.154114	
0.171247	
0.121061	
0.147975	
0.117061	
0.157143	
0.14263	
0.0161498	
0.206727	
0.214772	
0.181004	
0.239337	
0.237945	
0.150179	
0.176651	
0.124793	
0.128459	
-0.0540181	
-0.0387101	
-0.063064	
-0.0616937	
0.102416	
0.208674	
0.240806	
0.211379	
0.199477	
0.210791	
0.171653	
0.21913	
0.216665	
0.215259	
0.205613	
0.0481893	
0.106456	
0.266207	
0.242996	
0.26864	
0.205108	
0.195387	
0.266054	
0.267426	
0.23243	
0.245386	
0.260381	
0.20506	
0.231785	
0.174238	
0.178073	
0.187596	
0.249163	
0.2362	
0.250155	
0.223168	
0.265313	
0.232598	
0.252485	
0.00124551	
0.187071	
0.198413	
0.166631	
0.238595	
0.240621	
0.232999	
0.227854	
0.246138	
0.256588	
0.107937	
0.136452	
0.12518	
0.141603	
-0.0537237	
0.218333	
0.184351	
0.188079	
0.117859	
0.150315	
0.154083	
0.17489	
0.157725	
0.166601	
-0.0441901	
-0.0329775	
-0.0481225	
-0.0305118	
0.245982	
0.208574	
0.24602	
0.212085	
0.0855819	
0.217533	
0.224823	
0.222805	
0.250033	
0.232747	
0.261105	
0.150745	
0.136508	
0.219428	
0.215306	
0.223181	
0.183181	
0.186748	
0.0242363	
0.0690537	
0.266773	
0.228013	
-0.0206708	
0.192237	
0.219602	
0.228337	
0.229651	
0.212011	
0.2013	
0.199239	
0.2586	
0.260966	
0.253787	
0.151506	
0.262215	
0.266909	
0.0612976	
0.0851807	
0.0845257	
0.22454	
0.221844	
0.222697	
0.266973	
-0.0675746	
-0.0616849	
0.257201	
0.252547	
0.244923	
0.223012	
-0.0623358	
-0.0567242	
0.166884	
0.154108	
0.117467	
0.119302	
0.223549	
0.077101	
0.0914793	
0.152877	
0.153625	
0.171886	
0.170184	
0.266464	
0.259565	
0.00198442	
0.0170562	
0.0773909	
0.0433204	
0.107505	
0.107652	
0.13642	
0.181151	
0.178988	
0.167603	
0.16136	
0.275027	
0.261929	
0.238442	
0.25388	
0.2679	
0.0857701	
0.0795227	
0.207467	
0.2061	
0.189612	
0.189381	
0.0266875	
0.0475567	
0.266817	
0.267806	
0.209515	
0.206663	
0.146747	
0.108648	
0.156186	
0.101716	
0.223757	
0.230617	
0.205911	
0.207383	
0.212768	
0.210995	
0.20698	
0.191155	
0.267612	
0.269179	
0.253243	
0.171179	
0.172106	
0.202178	
0.198569	
0.165931	
0.172283	
0.237266	
0.2431	
0.162695	
0.179516	
0.262023	
0.266167	
0.186396	
0.226803	
0.23544	
0.21915	
0.189575	
0.227362	
0.271679	
0.264752	
0.242973	
0.242901	
0.235286	
0.243761	
0.130743	
0.188043	
0.12695	
0.26499	
0.275708	
0.261895	
0.256139	
0.100854	
0.0730154	
0.0758395	
0.0580992	
0.262454	
0.25677	
0.267017	
0.273877	
0.00695835	
0.257544	
0.267185	
0.264064	
0.25669	
0.127285	
0.165824	
0.267598	
0.275816	
0.266282	
0.120298	
0.13263	
0.138224	
0.146617	
0.195943	
0.192514	
0.187326	
0.190473	
0.269872	
0.166702	
0.164067	
0.214211	
0.214473	
-0.00273491	
-0.0122144	
0.248515	
0.263115	
0.262985	
0.195082	
-0.00859829	
0.233603	
0.229671	
0.239673	
0.241559	
0.179628	
0.270985	
0.26913	
0.0405786	
0.0111933	
0.185278	
-0.0657418	
-0.0589429	
-0.0651038	
0.176943	
0.0654714	
0.0264098	
0.0504434	
0.0253783	
0.240366	
0.126795	
0.166536	
0.264295	
0.249731	
0.265028	
0.263301	
0.266933	
-0.00384009	
-0.0248654	
0.238321	
0.223114	
0.267552	
0.258331	
0.0214206	
0.184055	
0.169306	
0.138041	
0.204758	
0.175402	
0.225884	
0.21763	
0.131303	
0.124239	
0.264401	
0.27425	
0.065417	
0.054149	
0.248441	
0.256227	
0.268516	
0.268069	
0.273536	
0.266358	
-0.0590008	
-0.0615576	
0.0988172	
0.0985934	
0.0278391	
0.0198062	
0.00987539	
0.245865	
0.247073	
0.220631	
0.231243	
0.214503	
0.221115	
0.273596	
0.198552	
0.259663	
0.244437	
0.239033	
0.125235	
0.0690936	
0.271254	
0.262718	
-0.0365623	
-0.00568582	
0.0114775	
0.066104	
0.213672	
0.14331	
0.247976	
0.241369	
0.0615345	
0.0845242	
0.0379444	
0.246579	
0.160417	
0.16409	
0.254944	
0.253188	
0.093573	
0.0744233	
-0.0140622	
-0.0158899	
0.197752	
0.201276	
0.184788	
0.193466	
0.241439	
0.208345	
0.184198	
0.226491	
0.219374	
0.199326	
0.00962432	
0.057007	
0.0506642	
0.132721	
0.0742781	
0.185242	
0.2149	
0.262243	
0.103166	
0.103598	
0.210654	
0.199201	
0.252544	
0.129589	
0.13118	
0.0998925	
0.036027	
0.0171312	
0.0444766	
0.0163223	
0.04279	
0.164447	
0.195264	
0.192129	
0.22038	
0.0736804	
0.0580257	
0.0964029	
0.0804827	
0.165073	
0.163934	
0.176685	
0.173926	
0.164886	
0.179803	
0.1797	
-0.0690321	
-0.0238367	
-0.0632972	
-0.0488692	
-0.0277858	
0.132037	
0.135311	
-0.064572	
0.110854	
0.12719	
0.0983028	
0.130107	
0.11782	
0.0328014	
-0.0392254	
0.0779228	
0.138161	
-0.069031	
0.111583	
-0.0628986	
-0.0692621	
-0.0682692	
0.0349304	
0.0709229	
0.263982	
0.241116	
0.267876	
0.243126	
0.269459	
0.269448	
0.137773	
0.0906567	
0.275575	
0.26317	
0.148977	
0.193419	
0.14387	
0.192323	
0.0447776	
0.0605333	
0.214075	
0.0929308	
0.0868146	
-0.0651594	
0.174024	
0.0891649	
0.089221	
0.0543491	
0.181792	
0.258983	
0.268932	
0.193109	
0.0178616	
0.0115539	
0.165438	
0.195772	
0.228408	
0.219422	
-0.0521257	
-0.0380244	
0.269566	
0.265011	
0.251155	
-0.0359165	
0.266837	
0.184681	
0.187074	
0.204023	
0.19387	
0.129661	
0.0823399	
0.269851	
0.257119	
0.166924	
0.169819	
0.234217	
0.245546	
0.214864	
0.0556313	
0.0674105	
0.233989	
0.258946	
0.232516	
0.0807324	
0.204739	
0.20895	
0.126646	
0.217084	
0.248303	
-0.0694147	
0.219898	
0.217451	
0.210163	
0.265278	
0.249363	
0.142484	
0.267533	
0.14012	
0.167063	
0.142258	
0.144613	
0.117517	
0.276128	
0.249459	
0.265673	
0.276644	
0.266215	
0.265768	
0.248238	
0.251466	
0.245345	
0.242211	
0.202674	
0.219884	
0.256122	
0.250664	
0.0781434	
0.0482024	
0.241042	
0.254368	
0.271444	
0.251564	
0.271019	
0.0616488	
0.0722266	
0.069687	
0.0964415	
0.268483	
0.262486	
0.203851	
0.223641	
0.221064	
0.144132	
0.144486	
-0.0662356	
-0.063303	
0.132952	
0.118381	
0.115869	
0.113209	
0.109961	
0.109707	
0.0848867	
0.260445	
-0.0535105	
-0.054218	
-0.068727	
-0.0703923	
0.213037	
0.162657	
0.161663	
0.249104	
-0.0710678	
-0.0662701	
-0.0490258	
-0.052778	
-0.0679354	
-0.0685473	
0.215281	
0.217024	
0.206738	
0.203598	
-0.029748	
-0.0122912	
-0.0367367	
-0.021051	
0.120048	
0.123252	
0.0989331	
0.194503	
0.219879	
0.25313	
0.240723	
0.248485	
0.25166	
0.251814	
0.238752	
0.226198	
0.234564	
0.207229	
0.201761	
0.224205	
0.219777	
0.106839	
0.0964018	
0.106523	
0.0410393	
-0.00377793	
0.1001	
0.0678809	
-0.0583271	
-0.040261	
-0.0655195	
0.0756637	
0.174209	
0.122533	
0.119453	
0.0584687	
0.0443984	
-0.0239873	
-0.0443002	
0.227716	
0.226966	
0.0596303	
0.105479	
0.0919289	
0.251144	
0.256654	
0.240449	
0.246388	
0.261294	
0.229673	
0.227401	
0.0841312	
0.0714313	
0.121559	
0.102463	
0.131296	
0.121698	
-0.00272053	
0.0227069	
0.102364	
0.10675	
0.173345	
0.176243	
0.12476	
0.114754	
0.0901194	
0.0871939	
0.176475	
0.173696	
0.161362	
0.125676	
0.160402	
0.166915	
0.235259	
0.248143	
0.162144	
0.152401	
0.126543	
0.167701	
0.191487	
-0.0204288	
0.0286046	
-0.0286673	
0.249722	
0.24923	
0.232148	
0.217502	
0.185013	
0.163849	
0.181676	
0.18016	
-0.0366358	
-0.0422442	
-0.056076	
-0.0586274	
0.0459382	
0.0721729	
0.0847687	
0.168348	
0.144991	
0.181517	
0.187096	
0.208186	
0.186448	
0.253809	
0.250012	
0.225898	
0.234432	
0.234244	
0.234646	
-0.0479175	
-0.0536648	
-0.0349895	
-0.0401081	
0.178729	
0.157961	
0.168865	
0.16804	
0.0337691	
0.0962497	
0.0944858	
0.0862276	
0.0909089	
0.245388	
0.258205	
0.0591846	
0.0292207	
0.263514	
0.26224	
0.249467	
0.26466	
0.261015	
0.263537	
0.0180932	
0.239588	
0.238021	
0.199111	
0.0945649	
0.0844	
0.0704698	
0.0746821	
0.142644	
0.147276	
0.229921	
0.246188	
0.256269	
0.258933	
0.177375	
0.172608	
0.0845372	
0.0935071	
0.23439	
0.225658	
0.0615287	
0.0786302	
0.127451	
0.107683	
0.130595	
0.151141	
0.108481	
0.119181	
0.119188	
0.0819933	
0.0152165	
0.0424119	
0.0986317	
0.0803971	
0.251807	
0.26821	
-0.0160862	
0.141023	
0.114161	
0.2622	
0.260621	
0.0631601	
0.071238	
0.103687	
0.0793064	
0.0848673	
0.0877226	
0.0277844	
0.0580685	
0.0867782	
0.075167	
0.135827	
0.125861	
0.0743333	
0.0503687	
0.0890629	
0.0610231	
0.224801	
0.226594	
0.168541	
0.18341	
0.14884	
0.139627	
0.040984	
0.0101855	
-0.0481926	
0.00551618	
0.0215859	
0.0197325	
-0.00701913	
0.166195	
-0.020899	
0.135972	
0.137708	
-0.0168851	
-0.0439256	
-0.0345202	
-0.0431715	
0.110489	
0.118099	
0.0418311	
0.043608	
0.0397365	
0.190125	
0.162786	
0.264524	
0.260288	
0.106236	
0.0854523	
0.0760506	
0.0736853	
0.086341	
0.127575	
0.124483	
0.149898	
0.149362	
0.0627573	
0.0656776	
0.0184673	
0.0090196	
0.0821374	
0.0585945	
0.0615872	
0.0384619	
0.100855	
0.102766	
0.0909432	
0.084449	
0.0929875	
0.0857582	
0.0530517	
0.271254	
0.269396	
0.264803	
0.270189	
0.101261	
0.105407	
0.0933304	
0.09885	
0.0971239	
0.0997683	
0.0968938	
-0.0159357	
0.00119928	
-0.00717091	
0.00939414	
0.0267317	
0.0380713	
0.0180286	
0.00799594	
-0.012169	
-0.00368523	
0.00418114	
0.0337879	
0.0198005	
0.0242201	
0.0123795	
0.00413468	
0.0202815	
0.00272132	
0.0121696	
-0.0104488	
-0.0177221	
-0.0136634	
-0.00478031	
0.027108	
0.0249755	
0.0186139	
0.0106316	
-0.0146533	
-0.0100423	
-0.00423326	
0.00244204	
0.0332819	
-0.063803	
-0.0495066	
0.00422505	
0.0325881	
-0.0261896	
-0.0313648	
-0.00918562	
0.0295674	
0.0232579	
0.00276353	
-0.052034	
0.00177245	
-0.0295701	
-0.0731053	
-0.055651	
0.0308308	
0.0152427	
-0.00534847	
-0.0672153	
-0.042511	
-0.0181225	
0.0241703	
0.135176	
0.173566	
0.171921	
0.115586	
0.141572	
-0.0280123	
0.073381	
0.141378	
0.054044	
0.0953159	
0.12828	
0.0472527	
0.0384808	
0.118349	
0.119405	
0.0939868	
0.0951185	
0.0778762	
0.103478	
0.126648	
0.172536	
0.174515	
-0.0602166	
-0.0659969	
-0.0507015	
-0.0506506	
0.00231659	
0.0236251	
0.0114956	
0.164381	
0.150106	
0.154346	
0.0463482	
0.162024	
0.153493	
0.170556	
0.171542	
0.168243	
0.161798	
0.169192	
0.169858	
-0.0548187	
-0.0411432	
0.144338	
0.150137	
0.135458	
0.159826	
0.158837	
0.164455	
0.157823	
0.146709	
0.146242	
0.169351	
0.154564	
0.173364	
0.175219	
0.103173	
0.109138	
0.128398	
0.17389	
0.175275	
-0.0386291	
-0.0210754	
0.00972251	
-0.00370445	
-0.0275896	
-0.00526449	
-0.0253574	
0.0568489	
0.0362074	
0.0788793	
0.0752	
0.118581	
0.136181	
0.112263	
0.131241	
0.101529	
0.160454	
0.16442	
0.126919	
0.0929889	
-0.152474	
-0.0309738	
0.0314304	
0.0660239	
-0.0256185	
0.033287	
0.0453272	
-0.0301285	
0.0594378	
0.0330705	
-0.00293937	
-0.00584342	
0.00778799	
0.0346606	
0.044171	
0.134621	
0.155831	
-0.15085	
-0.172945	
-0.126253	
-0.129817	
-0.110418	
-0.0928997	
-0.0833721	
0.0843365	
0.112936	
0.09211	
-0.0669932	
-0.0783416	
0.127381	
0.118719	
0.13919	
0.127483	
0.128924	
0.138526	
0.131995	
0.124276	
-0.16025	
-0.16736	
0.0718481	
0.0866852	
0.102976	
0.105934	
0.0828054	
0.0868263	
0.110235	
0.115479	
0.152258	
0.151084	
0.158744	
0.163157	
0.0461441	
0.0991	
0.0718981	
0.163706	
0.158583	
-0.145408	
-0.144065	
-0.119352	
-0.11391	
-0.10959	
-0.143812	
-0.122534	
-0.0189874	
-0.0649221	
-0.036358	
-0.0665128	
0.0371076	
0.0693529	
0.0155703	
0.0692808	
0.0446396	
-0.0501447	
0.0715306	
0.165609	
0.218262	
0.212489	
0.21164	
0.191254	
0.207079	
0.196098	
0.185701	
0.207766	
0.201074	
0.205248	
0.192398	
0.200237	
0.195563	
0.173006	
0.155076	
0.174431	
0.184186	
0.179628	
0.213588	
0.174852	
0.205497	
0.204207	
0.190214	
0.210254	
0.197482	
0.205809	
0.0912979	
0.0978827	
-0.0959967	
-0.0183416	
0.202426	
0.17066	
0.213029	
0.156488	
0.192239	
0.0951212	
0.172764	
0.183465	
0.21294	
-0.207753	
0.175417	
0.208084	
0.188173	
0.194602	
0.110054	
0.102457	
0.147275	
0.100154	
0.131205	
-0.00395188	
-0.361693	
0.0186554	
0.118135	
0.125801	
-0.0705957	
-0.0273565	
0.0204281	
0.0499557	
-0.247435	
-0.328814	
-0.33901	
-0.34406	
-0.196452	
-0.00283594	
-0.011259	
-0.232868	
-0.267503	
-0.150377	
-0.0030218	
-0.260122	
-0.293504	
-0.331371	
-0.332558	
-0.165295	
0.00961635	
-0.0861287	
-0.345443	
-0.343667	
-0.0820156	
0.175976	
0.0896485	
0.170701	
-0.348181	
-0.0487443	
0.141175	
-0.0354192	
-0.00704089	
0.153408	
-0.246984	
-0.0277943	
-0.0895632	
-0.132973	
-0.206611	
-0.0651155	
0.157849	
-0.09592	
0.0961922	
-0.0999929	
0.11826	
0.0849294	
0.028184	
0.0703435	
-0.241436	
-0.224058	
0.0813924	
-0.00625833	
-0.103753	
-0.0394937	
-0.137483	
-0.102852	
-0.252008	
-0.0752481	
-0.0773518	
-0.160156	
0.152114	
-0.154222	
-0.326761	
0.124976	
-0.322878	
-0.320487	
-0.00334439	
0.0550014	
-0.31846	
-0.123801	
-0.180285	
-0.139633	
0.197756	
0.111106	
0.120752	
0.120448	
0.0512586	
0.0519714	
-0.00934191	
0.0416783	
-0.215028	
-0.137869	
0.17103	
0.153657	