<VTKFile type="UnstructuredGrid" version="0.1" byte_order="LittleEndian">
	<UnstructuredGrid>
		<Piece NumberOfPoints="3959" NumberOfCells="7450">
			<CellData Scalars="scalars">
				<DataArray type="Float64" Name="Doublet Strengths" NumberOfComponents="1" Format="ascii">
-0.0703533	
-0.0551816	
0.00108991	
0.0312617	
-0.0306782	
-0.0404165	
-0.0166764	
0.0262863	
0.0184185	
-0.00367588	
-0.0627358	
0.00356023	
-0.0269506	
-0.0688228	
-0.0522047	
0.0315194	
0.0191609	
-0.000333052	
-0.0588047	
-0.0354933	
-0.0123484	
0.0267291	
0.134154	
0.171462	
0.169847	
0.112815	
0.132813	
-0.107593	
0.0326119	
0.120059	
0.0322957	
0.0836856	
0.106521	
0.0105979	
-0.00470158	
0.0890605	
0.0941881	
0.0626938	
0.0611773	
0.0601524	
0.0812834	
0.1059	
0.1629	
0.170412	
-0.0925627	
-0.103697	
-0.101274	
-0.14491	
-0.0563702	
-0.0318158	
-0.0193157	
0.152312	
0.133377	
0.138035	
0.000347489	
0.150248	
0.146578	
0.159145	
0.162342	
0.155858	
0.160399	
0.157861	
0.161032	
-0.124274	
-0.168734	
0.123153	
0.129797	
0.111241	
0.143467	
0.142726	
0.156611	
0.148845	
0.131711	
0.133044	
0.16575	
0.151724	
0.170602	
0.1707	
0.0871939	
0.100702	
0.121258	
0.171814	
0.171239	
-0.086186	
-0.0876249	
-0.0392336	
-0.0416349	
-0.0618036	
-0.0518717	
-0.0814885	
0.0312815	
0.00499269	
0.0521971	
0.0431109	
0.0977402	
0.121092	
0.095176	
0.117765	
0.105166	
0.163458	
0.167082	
0.129189	
0.100697	
-0.0759174	
0.00838475	
0.0560156	
0.087024	
-0.0050681	
0.0490763	
0.0667095	
0.000708415	
0.0831282	
0.0615534	
0.0298876	
0.0244029	
0.0248903	
0.0551154	
0.0645976	
0.144635	
0.160728	
-0.10316	
-0.0822211	
-0.0967077	
-0.0948576	
-0.0636332	
-0.0394443	
-0.0545747	
0.101094	
0.125409	
0.108427	
-0.0226911	
-0.0369185	
0.136033	
0.126451	
0.148574	
0.139817	
0.140488	
0.142554	
0.141395	
0.135928	
-0.0936287	
-0.0427317	
0.0926932	
0.106661	
0.118981	
0.122108	
0.0979908	
0.100348	
0.122481	
0.125147	
0.15485	
0.15567	
0.163639	
0.166208	
0.0577552	
0.108427	
0.0806462	
0.166522	
0.16323	
-0.0816423	
-0.0906718	
-0.0630131	
-0.0822741	
-0.0739489	
-0.0991321	
-0.0783177	
0.00656586	
-0.0298908	
-0.0121649	
-0.0370119	
0.0539607	
0.0830362	
0.0371203	
0.0845014	
-0.00637126	
-0.176968	
0.0287506	
0.167821	
0.215975	
0.207755	
0.207885	
0.191011	
0.203199	
0.193173	
0.183967	
0.205726	
0.199587	
0.200433	
0.1832	
0.194364	
0.190621	
0.169984	
0.163164	
0.171322	
0.180031	
0.175621	
0.208635	
0.175162	
0.198082	
0.198633	
0.184542	
0.203894	
0.19342	
0.205074	
0.115603	
0.108196	
-0.0322468	
0.0115067	
0.196305	
0.176181	
0.210718	
0.16538	
0.187616	
0.0581172	
0.178387	
0.184764	
0.207909	
-0.250972	
0.178601	
0.202443	
0.190177	
0.19518	
0.133565	
0.126239	
0.15808	
0.124261	
0.145812	
-0.0733237	
-0.27502	
-0.0414796	
0.0878906	
0.0961751	
-0.230169	
-0.109738	
-0.0376654	
-0.000940875	
-0.363843	
-0.176014	
-0.219857	
-0.373825	
-0.218693	
-0.0287888	
-0.0838099	
-0.299477	
-0.341679	
-0.201542	
-0.0700719	
-0.312894	
-0.350044	
-0.382334	
-0.389379	
-0.303257	
-0.0520181	
-0.142108	
-0.382881	
-0.372192	
-0.0973862	
0.163237	
0.103104	
0.153023	
-0.224333	
0.0103181	
0.116757	
0.0260913	
0.0200703	
0.129756	
-0.0849194	
0.0399048	
-0.106328	
-0.152056	
-0.296382	
-0.0335408	
0.135549	
-0.052492	
0.0616166	
-0.0138721	
0.0856661	
0.0432217	
0.0262778	
0.0694558	
-0.281351	
-0.258647	
0.0554499	
0.0369529	
-0.018369	
0.027578	
-0.0785904	
-0.0246813	
-0.285702	
-0.127264	
-0.125642	
-0.0798124	
0.142417	
-0.0637063	
-0.150899	
0.101757	
-0.16796	
-0.176004	
0.0498642	
0.0831607	
-0.223939	
-0.139939	
-0.195399	
-0.0410569	
0.186646	
0.085548	
0.0888459	
0.088154	
0.00885236	
0.00883214	
-0.0217748	
0.0306671	
-0.299618	
-0.203792	
0.153611	
0.13011	
0.128329	
0.139865	
-0.0990562	
-0.0746225	
-0.0763035	
-0.0316138	
-0.0199514	
0.00880867	
0.164482	
0.0529361	
0.0834411	
0.172832	
0.168124	
0.0778363	
-0.245774	
0.189284	
0.109882	
-0.0542796	
-0.12229	
0.178849	
0.199535	
0.0567669	
0.153649	
-0.276516	
-0.190771	
0.115004	
0.111652	
0.125473	
0.0246256	
0.194216	
0.170736	
0.151101	
0.154134	
0.138083	
0.161749	
0.185829	
0.18189	
0.160899	
-0.0315223	
0.0387894	
0.146745	
0.162625	
0.147382	
0.179501	
0.189466	
0.0575321	
0.170228	
0.0821817	
0.0625405	
0.0537812	
0.0613854	
0.120349	
0.187226	
0.106992	
0.0809001	
0.0556977	
0.0629683	
0.117143	
0.119566	
0.137522	
0.136413	
0.0613871	
0.00764604	
0.022426	
-0.0272164	
0.188024	
0.207287	
0.188673	
0.181952	
0.193836	
0.0990867	
0.101885	
0.183454	
0.105482	
-0.203826	
0.085874	
0.0187801	
0.071582	
0.0848677	
0.175158	
0.0262702	
-0.0998415	
-0.0695553	
0.0581817	
0.0597832	
0.0224657	
0.149229	
0.179453	
0.101932	
0.0958498	
0.184929	
0.143785	
0.0945334	
0.0373565	
0.0293414	
0.0618293	
0.0648906	
0.0136107	
0.141612	
0.147176	
-0.336317	
-0.294497	
-0.191471	
-0.151909	
-0.0893424	
0.117998	
0.109445	
0.129409	
0.16239	
0.149644	
0.125882	
0.182446	
-0.182314	
-0.192036	
-0.357382	
-0.327027	
0.0471286	
-0.0877002	
0.0335181	
-0.32405	
-0.349972	
0.00263037	
-0.0121243	
0.0101074	
0.000668143	
-0.109062	
-0.0694126	
-0.0616293	
-0.0142062	
0.0183362	
-0.00238042	
0.0649932	
0.0852626	
0.108954	
-0.010838	
-0.0416881	
-0.0107217	
-0.0289555	
-0.00966477	
0.0342779	
0.110603	
0.111341	
0.0929525	
0.0242007	
0.00213103	
-0.0729101	
0.135531	
0.0967728	
0.0188009	
0.00545691	
0.191604	
-0.212597	
0.0624643	
-0.0204101	
-0.0321526	
0.210945	
0.190943	
0.203055	
-0.212531	
-0.165416	
-0.11079	
-0.00145005	
-0.121332	
-0.0712335	
0.198996	
0.184303	
0.139917	
0.115518	
0.0666261	
-0.0630084	
-0.134087	
-0.0868953	
0.179077	
0.0296919	
-0.384494	
-0.387345	
-0.385635	
-0.214129	
0.0607933	
0.000503983	
-0.0031333	
0.0157519	
0.015376	
0.0236846	
-0.0138633	
0.124833	
0.120167	
-0.13894	
-0.0705797	
-0.193094	
-0.129411	
-0.0485166	
-0.16363	
-0.0744104	
0.0430119	
-0.261451	
-0.244042	
0.136896	
0.0621519	
0.107568	
-0.0391731	
-0.00245306	
0.155317	
0.156493	
0.138005	
0.155065	
0.142896	
0.0759687	
0.0534918	
0.138224	
0.0459272	
0.196355	
0.186073	
-0.113699	
-0.245846	
0.181196	
0.177882	
0.187905	
0.0196317	
0.18976	
0.201175	
0.187591	
0.197378	
0.206317	
0.191151	
-0.225619	
-0.254308	
0.20655	
0.188298	
0.194065	
0.181371	
-0.35368	
0.0374222	
0.00929709	
0.0229613	
0.189948	
0.172856	
0.157819	
0.179959	
0.0631005	
0.0651831	
0.0152558	
0.0184671	
0.132558	
-0.140176	
0.0292464	
0.0728679	
-0.0590619	
0.145018	
0.154296	
0.126096	
0.0927068	
0.20239	
0.0365191	
0.082357	
-0.0227087	
-0.00923199	
0.104454	
0.12894	
0.136421	
0.0488536	
-0.0650253	
-0.0405206	
-0.0218704	
0.0191244	
0.0552058	
0.0848755	
-0.0259506	
0.0361568	
-0.0199429	
0.197001	
0.182093	
0.0665811	
-0.00714457	
0.0869927	
0.147857	
-0.00381642	
-0.116903	
-0.00688348	
-0.11916	
0.103857	
-0.0352099	
-0.0390216	
-0.0236746	
0.122969	
0.0946806	
0.0910393	
0.0331433	
0.0943746	
0.055713	
0.00462805	
0.00826013	
0.0283716	
0.0233293	
0.00810623	
-0.0382509	
-0.0851481	
0.115629	
0.037737	
0.0361099	
0.0230858	
0.129087	
0.026759	
-0.0123945	
0.0675357	
0.0787596	
0.10581	
-0.34189	
-0.00958673	
-0.0335644	
0.0582101	
0.066171	
0.15108	
0.0925719	
0.0810012	
0.0726173	
-0.11129	
-0.0708081	
0.0371396	
0.0109408	
-0.0201233	
-0.0654926	
0.0967561	
0.0649331	
0.0578998	
0.0601765	
-0.0457263	
0.0289504	
-0.247467	
-0.231076	
-0.147693	
-0.134559	
0.143942	
-0.0445845	
-0.167157	
0.129232	
-0.0915458	
0.0270393	
-0.143486	
-0.215555	
-0.0675327	
-0.0354054	
0.0164684	
-0.0169651	
-0.0978613	
-0.158261	
-0.0879214	
-0.0396758	
-0.0231689	
-0.000895147	
-0.147543	
0.131204	
0.00916843	
0.0360898	
0.074482	
-0.105658	
-0.0712899	
-0.0847451	
-0.139279	
-0.213167	
0.121563	
0.109561	
-0.020125	
0.032308	
-0.11147	
-0.134139	
0.110723	
0.0374	
0.0687856	
-0.0296114	
-0.0122808	
-0.119014	
-0.08007	
-0.309192	
-0.346424	
0.0484097	
-0.246206	
0.0453868	
0.00501857	
-0.140482	
0.134068	
-0.0983772	
-0.0872637	
-0.0125151	
-0.0581548	
0.183048	
0.0972191	
0.145804	
0.0820099	
0.102372	
0.20312	
0.190798	
-0.0512197	
-0.0437772	
0.0473282	
0.064626	
-0.340243	
-0.135198	
-0.164824	
-0.382362	
-0.0179479	
0.0501888	
-0.0313162	
-0.041187	
-0.137403	
-0.112391	
0.0339646	
-0.0105703	
0.00336047	
0.19405	
0.178693	
0.0650824	
0.00339494	
-0.0360005	
0.0865838	
0.117809	
0.0396048	
0.0712181	
0.0259805	
-0.0539217	
0.189829	
0.207695	
0.204792	
0.192895	
-0.194281	
0.185596	
0.164372	
-0.00237974	
-0.0909272	
0.017534	
0.156329	
0.175472	
0.154853	
0.17494	
0.162985	
0.140305	
0.0648121	
0.0502051	
-0.000979208	
0.00450147	
0.117862	
0.124556	
-0.129801	
-0.363362	
-0.340979	
0.039534	
0.0274502	
0.197657	
0.179316	
0.212493	
0.196386	
0.148817	
0.116554	
-0.072372	
0.108555	
0.139936	
0.126056	
0.142496	
0.143658	
0.161979	
0.156601	
0.136305	
-0.206536	
-0.228871	
0.177133	
0.162294	
0.0975076	
0.0569764	
0.14378	
0.142559	
0.20331	
0.189999	
-0.0334351	
-0.0925676	
-0.157663	
-0.0721411	
0.0157328	
0.101965	
0.0446495	
0.113039	
-0.0854778	
-0.0737185	
-0.251943	
0.114727	
0.111172	
0.167093	
0.191458	
-0.0720177	
0.0373779	
-0.0393304	
0.0173361	
-0.0508148	
-0.0138152	
0.0580576	
0.0598118	
0.109243	
-0.0262069	
-0.0268837	
-0.038135	
-0.0429057	
0.202889	
0.175965	
0.179197	
-0.103471	
-0.150745	
0.0645339	
-0.0090001	
0.0588328	
-0.0404285	
0.0621127	
0.0530607	
-0.08264	
-0.0912515	
0.0761391	
-0.00401198	
0.00399568	
-0.296643	
-0.00793939	
0.0376608	
0.077475	
0.0805892	
-0.157025	
-0.168809	
-0.237838	
-0.019056	
0.0199466	
0.164874	
0.152193	
0.00843965	
0.0657336	
0.0871715	
0.0926106	
-0.00367457	
-0.0445582	
-0.098688	
-0.100217	
0.192634	
0.181648	
0.185931	
0.0602594	
0.0628441	
0.113902	
0.0575653	
-0.138804	
-0.13597	
-0.192887	
-0.0941634	
-0.0870586	
-0.0152774	
0.11222	
0.113649	
0.0780614	
0.0393977	
-0.177415	
-0.178469	
-0.0105436	
-0.0298758	
-0.222147	
-0.195618	
-0.267392	
-0.117645	
0.171229	
0.155787	
0.130604	
0.1902	
0.209484	
-0.0740789	
-0.0133766	
-0.0684363	
0.0642771	
0.109072	
0.0238651	
0.0694243	
0.0993869	
0.126787	
0.103188	
0.129314	
-0.0371208	
-0.0226511	
0.142594	
0.141459	
-0.160426	
-0.134428	
-0.202739	
0.184378	
0.19197	
0.183665	
0.139657	
0.104173	
0.156666	
0.108377	
0.153935	
0.0768534	
0.134334	
0.131187	
0.165344	
-0.0556352	
-0.045412	
-0.0476883	
0.136829	
-0.0562755	
-0.0758166	
-0.173574	
0.0559663	
0.0305944	
-0.240254	
-0.247303	
-0.0523609	
-0.0594282	
0.118293	
0.065999	
-0.129883	
-0.297091	
-0.261654	
0.1764	
0.174963	
0.15913	
0.17434	
0.17229	
0.0469499	
0.0886256	
0.0307104	
0.0378108	
0.185801	
-0.0399176	
-0.200013	
-0.0410937	
0.0198325	
-0.017331	
-0.0255772	
0.015258	
-0.34178	
0.0525962	
0.0617952	
0.141961	
0.111154	
0.156942	
0.124727	
0.14303	
0.13321	
0.130583	
0.0256639	
0.0573151	
0.049962	
0.0767135	
0.130301	
0.109135	
0.026884	
0.140079	
0.154347	
0.106385	
0.123638	
0.113366	
0.137814	
0.117649	
0.114911	
0.0525367	
0.0549442	
0.128842	
0.110255	
0.118353	
0.0729137	
-0.0638678	
-0.0659492	
-0.0489295	
-0.0161708	
-0.0968409	
-0.0317813	
0.0733644	
0.0550553	
0.102376	
0.157896	
0.124204	
0.137667	
0.0855575	
0.00917839	
-0.0120462	
0.0570181	
-0.0156635	
0.0171192	
-0.0288242	
0.0542529	
0.1788	
0.178537	
-0.319086	
-0.279542	
0.12282	
0.113331	
-0.0084155	
-0.0232049	
0.130377	
-0.074139	
-0.0577742	
0.17386	
0.15988	
0.188734	
0.207268	
0.0588475	
0.03563	
0.141472	
0.125467	
0.176752	
0.019144	
0.0594188	
0.123244	
0.0775045	
0.113341	
0.0853503	
0.111825	
0.206405	
0.0313858	
0.0316018	
0.180673	
0.0498914	
0.103771	
0.102333	
0.0298067	
0.00494595	
0.107194	
0.113553	
0.147001	
0.185191	
0.190445	
0.200062	
-0.206172	
0.122306	
0.0713116	
-0.059735	
0.0310243	
0.0683818	
0.144278	
0.142052	
0.196174	
0.187669	
0.154874	
0.146099	
-0.202275	
-0.125528	
-0.0913204	
-0.108047	
0.0832815	
0.0642837	
0.0712692	
-0.0893816	
-0.0607638	
-0.265973	
-0.0820432	
-0.0729429	
-0.13061	
-0.276557	
-0.215628	
-0.147042	
-0.135717	
-0.119556	
-0.101174	
0.14696	
0.135112	
0.0707865	
-0.0627795	
-0.0518411	
-0.143643	
-0.14373	
-0.209907	
-0.206717	
-0.0534732	
-0.0716298	
-0.337331	
-0.0478317	
-0.195123	
0.0879557	
0.0921141	
0.0650244	
0.0669924	
0.170594	
0.169918	
-0.0519939	
-0.0947025	
-0.000237535	
-0.00350436	
0.0471178	
0.027626	
0.0434611	
0.0265614	
-0.198667	
-0.224419	
-0.165386	
-0.0225779	
0.13464	
0.121824	
0.0583874	
0.0379924	
-0.245513	
-0.226837	
-0.0876006	
-0.190506	
-0.231936	
-0.212758	
-0.265361	
0.200462	
0.183839	
-0.026029	
-0.0818441	
-0.059916	
-0.0541845	
-0.0802853	
-0.189212	
-0.172935	
0.0555525	
0.0113098	
-0.157341	
-0.0507238	
-0.255835	
-0.246653	
-0.149414	
-0.129926	
-0.137524	
-0.124462	
-0.149259	
-0.147642	
-0.103011	
-0.102172	
0.148187	
0.0756234	
0.132846	
0.114566	
0.111722	
0.115438	
0.0817115	
-0.23401	
-0.189156	
-0.19445	
-0.205186	
-0.197514	
-0.263034	
-0.272032	
-0.318123	
-0.177751	
-0.11739	
-0.216075	
-0.190512	
-0.289062	
-0.333892	
-0.33327	
-0.368928	
-0.0352489	
-0.0378223	
-0.0399804	
-0.0476575	
-0.210684	
-0.217408	
-0.169553	
-0.159555	
-0.128173	
-0.137176	
-0.0929916	
-0.308133	
-0.0351134	
-0.020086	
-0.308064	
-0.266031	
-0.0135488	
-0.0234428	
-0.0284717	
-0.147412	
-0.143302	
-0.0245423	
-0.0333491	
-0.0771019	
-0.0843786	
-0.172397	
-0.16412	
0.0884474	
0.0222125	
0.00213615	
-0.00565618	
0.0973718	
0.0492997	
-0.120221	
-0.0961234	
-0.119493	
-0.0182355	
-0.28248	
-0.329761	
-0.0983738	
-0.114372	
0.196148	
0.122367	
0.209288	
0.180426	
-0.377879	
-0.371438	
0.045808	
0.00257628	
-0.3125	
-0.278342	
-0.332143	
-0.298468	
-0.282812	
-0.293374	
-0.221475	
-0.191495	
-0.318762	
-0.358612	
-0.357971	
-0.352882	
-0.350796	
-0.183617	
-0.1298	
-0.104564	
-0.300265	
-0.326961	
-0.353844	
-0.24412	
0.188308	
0.156755	
0.20916	
0.191953	
-0.328098	
-0.299651	
-0.218694	
-0.206972	
-0.193498	
-0.00715288	
-0.00774626	
-0.298198	
-0.297644	
-0.33311	
-0.302771	
-0.325257	
-0.0589078	
-0.0696557	
-0.0820546	
-0.104044	
-0.216913	
-0.258136	
-0.217626	
-0.243437	
-0.27204	
-0.303478	
0.208424	
0.183874	
0.182056	
0.142845	
-0.249862	
-0.134925	
-0.123142	
-0.135953	
0.181312	
0.138419	
0.161187	
0.0812397	
-0.351405	
0.0815756	
0.12567	
0.114613	
0.135653	
-0.336345	
-0.355111	
-0.339362	
-0.343257	
-0.334332	
-0.340747	
-0.299585	
-0.110086	
-0.100293	
-0.0987793	
-0.0988656	
0.1375	
0.195517	
0.134066	
0.193128	
0.129046	
0.119994	
0.122968	
0.0735258	
-0.253632	
-0.274506	
-0.253375	
-0.238828	
-0.343856	
-0.358557	
-0.345209	
-0.351575	
0.077806	
0.136891	
0.0819795	
0.138416	
0.163611	
0.13017	
0.150961	
0.0933357	
0.112389	
0.088466	
0.111629	
0.0877265	
0.173325	
0.20153	
0.20479	
0.209542	
0.220441	
0.141594	
0.23102	
0.235282	
0.236141	
0.244297	
0.248716	
0.25421	
0.228261	
0.19052	
0.168867	
0.0473834	
0.255895	
-0.00744391	
-0.00154137	
-0.0334542	
0.182602	
0.248695	
0.233847	
0.265303	
0.261354	
0.268261	
0.256017	
0.263088	
0.253722	
0.246218	
0.170392	
0.216905	
0.196101	
0.218348	
0.189103	
0.149388	
0.216932	
0.158663	
0.101628	
0.257018	
0.235807	
0.23465	
0.0942918	
-0.0443524	
0.248209	
-0.0269665	
-0.0408173	
0.0143263	
0.0707837	
0.0430519	
-0.0346358	
0.0408602	
0.00259497	
0.069819	
-0.0536223	
0.0166863	
0.0652491	
0.0839258	
0.0411611	
-0.00307021	
-0.0440948	
0.208639	
-0.0299052	
0.176919	
0.105968	
0.108403	
0.0855187	
0.0479767	
0.0544772	
0.072447	
0.0813529	
0.0202798	
0.0596196	
0.0138655	
0.0397903	
0.0210764	
0.0324695	
0.0308567	
0.044377	
0.0870255	
0.0524529	
0.0572229	
0.0683403	
0.0888842	
0.0461847	
-0.0222505	
-0.0258444	
0.0218714	
-0.00162558	
-0.00750082	
0.0348042	
0.0641478	
0.0592341	
0.00545474	
-0.0191554	
-0.0284808	
-0.00806309	
0.0332512	
-0.0611764	
-0.0398585	
-0.0639911	
0.16771	
0.18843	
0.185419	
0.223645	
0.0103137	
0.099924	
0.153386	
0.1608	
0.189709	
0.000101681	
0.151687	
0.129309	
-0.0580118	
-0.0385288	
-0.0298315	
0.133787	
-0.0314185	
0.14367	
-0.00359008	
0.204319	
0.207898	
-0.0690892	
0.076057	
0.0398782	
0.00251281	
0.0741028	
0.0157154	
0.245841	
0.229948	
0.223241	
-0.0498698	
0.0844164	
0.217391	
-0.0136228	
-0.0167614	
0.208304	
0.230187	
0.00718646	
0.0486657	
0.198453	
0.139986	
-0.061833	
-0.0497946	
0.111171	
-0.0226526	
-0.0175771	
-0.00779712	
-0.00146198	
0.251033	
0.208079	
0.213535	
0.131905	
0.166949	
0.244492	
0.273438	
0.254955	
0.0579222	
0.169577	
0.243172	
0.193825	
0.108891	
0.130154	
0.142663	
0.16076	
0.00571432	
0.120516	
0.0853496	
0.098954	
0.0675513	
0.120392	
0.118223	
0.188906	
0.149783	
0.194064	
0.115612	
0.156594	
0.12961	
0.167002	
0.116934	
0.124422	
0.157732	
0.205888	
0.140479	
0.150926	
0.159259	
0.159011	
0.141908	
0.266015	
0.268051	
0.277859	
0.265475	
0.281564	
0.24975	
0.116216	
-0.0244949	
0.0225171	
0.0278033	
0.124763	
0.232208	
0.17857	
0.110295	
0.183259	
0.170194	
0.123482	
0.236479	
0.270065	
0.275335	
0.230388	
0.249551	
0.259466	
0.2779	
0.262325	
0.252768	
0.27748	
0.262089	
0.261959	
0.27006	
0.244337	
0.242429	
0.268573	
0.268298	
0.274332	
0.10374	
0.27868	
0.225776	
0.246548	
0.200078	
0.2263	
0.269253	
0.270414	
0.274229	
0.204222	
0.196469	
0.224368	
0.208795	
0.21781	
0.220744	
0.195507	
-0.0465505	
-0.0517229	
0.239307	
0.226837	
0.251682	
0.229548	
0.201653	
0.182572	
0.200554	
0.258449	
0.233847	
0.233724	
0.24059	
0.166432	
0.20943	
0.0851984	
0.261699	
0.248812	
0.0931865	
0.185867	
0.163103	
0.231821	
0.124573	
0.129911	
0.206299	
0.147093	
0.273287	
0.134508	
0.132378	
0.160338	
0.222264	
0.193722	
0.180794	
0.267176	
0.0480179	
0.107455	
0.0415558	
0.077078	
0.194877	
0.18642	
0.154337	
0.184681	
-0.0219149	
0.258678	
0.241253	
-0.00455394	
0.00534089	
-0.0194704	
0.000801248	
0.116091	
0.0885474	
0.159156	
0.165523	
0.188854	
0.152496	
0.189746	
0.00666283	
0.159989	
0.132507	
0.174523	
-0.0381634	
-0.0516122	
-0.0428826	
-0.0511325	
0.116587	
0.113226	
0.14326	
0.1334	
0.151778	
0.0879695	
0.0959336	
0.200018	
0.177271	
0.201307	
0.213062	
0.155099	
0.102228	
0.0900828	
0.0986252	
0.0712298	
0.280608	
0.172401	
0.200025	
0.153464	
0.170674	
0.120462	
0.147468	
0.116752	
0.156576	
0.142137	
0.0159562	
0.205975	
0.213984	
0.180383	
0.238743	
0.237367	
0.14956	
0.176061	
0.124174	
0.127851	
-0.0539763	
-0.0386355	
-0.0630731	
-0.0617093	
0.101822	
0.208052	
0.240195	
0.210739	
0.198852	
0.210185	
0.170913	
0.218313	
0.215827	
0.214457	
0.20484	
0.0476494	
0.105892	
0.26551	
0.242295	
0.267968	
0.204623	
0.194908	
0.265484	
0.266834	
0.231858	
0.244863	
0.259873	
0.204357	
0.231091	
0.173652	
0.177408	
0.186901	
0.248643	
0.235641	
0.249622	
0.222577	
0.26465	
0.231903	
0.251802	
0.000657931	
0.186334	
0.197542	
0.166034	
0.237921	
0.239951	
0.232305	
0.227195	
0.245498	
0.256007	
0.1077	
0.136091	
0.124855	
0.141215	
-0.0540204	
0.217808	
0.183853	
0.187607	
0.117318	
0.149971	
0.153742	
0.174472	
0.157225	
0.166029	
-0.0443479	
-0.0331345	
-0.0482257	
-0.030639	
0.245393	
0.207998	
0.245448	
0.211525	
0.0852763	
0.216605	
0.223892	
0.221911	
0.249485	
0.232228	
0.260574	
0.150323	
0.136191	
0.218525	
0.214395	
0.222253	
0.182533	
0.186075	
0.0240641	
0.0689008	
0.266082	
0.227347	
-0.0210842	
0.19167	
0.219062	
0.227749	
0.229011	
0.211358	
0.200594	
0.198537	
0.258024	
0.260408	
0.253209	
0.150964	
0.261751	
0.266415	
0.0613459	
0.0851107	
0.0844803	
0.223858	
0.221075	
0.221902	
0.266274	
-0.0676746	
-0.0618031	
0.256625	
0.251994	
0.244295	
0.222417	
-0.0624785	
-0.0568743	
0.166238	
0.153469	
0.116751	
0.118591	
0.223029	
0.0770993	
0.0914283	
0.152515	
0.153286	
0.17124	
0.169574	
0.265934	
0.259051	
0.00175024	
0.0168073	
0.0768955	
0.0428641	
0.107096	
0.107143	
0.135942	
0.180495	
0.178318	
0.166973	
0.160763	
0.274397	
0.261355	
0.237744	
0.253188	
0.267225	
0.085186	
0.0789523	
0.206924	
0.205573	
0.188925	
0.188687	
0.0261496	
0.0470214	
0.266235	
0.267202	
0.208947	
0.206149	
0.146162	
0.108047	
0.15559	
0.101103	
0.222971	
0.229766	
0.205197	
0.206663	
0.212029	
0.210265	
0.206395	
0.190545	
0.267001	
0.268544	
0.252585	
0.170584	
0.171497	
0.20163	
0.197994	
0.165429	
0.171702	
0.236649	
0.242473	
0.162088	
0.178892	
0.261503	
0.265623	
0.185795	
0.226064	
0.23463	
0.218449	
0.188879	
0.226669	
0.271185	
0.264282	
0.242317	
0.24229	
0.234659	
0.243132	
0.130152	
0.187515	
0.126358	
0.264474	
0.275171	
0.261369	
0.255613	
0.100644	
0.0729645	
0.0758057	
0.0581665	
0.26191	
0.256249	
0.266461	
0.273287	
0.00642685	
0.257018	
0.266623	
0.263605	
0.256264	
0.126783	
0.165285	
0.267105	
0.275194	
0.265698	
0.12	
0.132266	
0.137846	
0.146177	
0.195235	
0.191809	
0.186648	
0.189778	
0.269377	
0.166098	
0.163504	
0.213465	
0.213729	
-0.0022428	
-0.0115962	
0.248063	
0.262643	
0.262535	
0.194454	
-0.00886289	
0.233123	
0.229228	
0.239033	
0.240895	
0.179086	
0.270339	
0.268516	
0.0401385	
0.0107684	
0.184844	
-0.0658315	
-0.0590565	
-0.0651537	
0.176308	
0.065234	
0.0261707	
0.0502001	
0.0251384	
0.23987	
0.126439	
0.166107	
0.26368	
0.249092	
0.264396	
0.262757	
0.266377	
-0.00407492	
-0.0250797	
0.237702	
0.222504	
0.266997	
0.25781	
0.0212189	
0.183437	
0.16878	
0.137736	
0.204328	
0.175025	
0.225416	
0.217213	
0.130864	
0.123845	
0.263878	
0.273681	
0.0653122	
0.0540477	
0.247752	
0.255557	
0.267855	
0.267402	
0.272971	
0.265824	
-0.059075	
-0.0615955	
0.0986189	
0.0983657	
0.0280897	
0.0201048	
0.00942105	
0.245217	
0.246457	
0.220092	
0.230697	
0.214006	
0.2206	
0.273127	
0.198052	
0.259195	
0.243826	
0.238444	
0.124989	
0.0688165	
0.270729	
0.26223	
-0.0368458	
-0.0060007	
0.0111157	
0.0655776	
0.213251	
0.143009	
0.247471	
0.240894	
0.0609966	
0.0839714	
0.037401	
0.245882	
0.159864	
0.163495	
0.254504	
0.252765	
0.0933895	
0.0743689	
-0.0141567	
-0.0159558	
0.197047	
0.20057	
0.184153	
0.192803	
0.240993	
0.207648	
0.183494	
0.22604	
0.218962	
0.19893	
0.00939399	
0.0567741	
0.0504216	
0.132404	
0.0736765	
0.184566	
0.214213	
0.261677	
0.103045	
0.103443	
0.210128	
0.198651	
0.252046	
0.129325	
0.13093	
0.0996671	
0.0362164	
0.0169033	
0.044248	
0.0160988	
0.042579	
0.163958	
0.194837	
0.19172	
0.219783	
0.0736478	
0.0580885	
0.0962041	
0.0804142	
0.164548	
0.163405	
0.176066	
0.173317	
0.164356	
0.179169	
0.179045	
-0.0691265	
-0.0241974	
-0.0634474	
-0.0490548	
-0.0280028	
0.131574	
0.134778	
-0.0646495	
0.110642	
0.12685	
0.0979698	
0.129811	
0.11759	
0.0326184	
-0.0394538	
0.0772244	
0.137529	
-0.069148	
0.111133	
-0.0629169	
-0.0693366	
-0.0683233	
0.0347816	
0.070809	
0.263269	
0.24039	
0.267189	
0.242388	
0.268811	
0.268811	
0.137176	
0.0898972	
0.27495	
0.262601	
0.14847	
0.192958	
0.143362	
0.191677	
0.0445198	
0.0602839	
0.213429	
0.0923743	
0.0862461	
-0.0653096	
0.1734	
0.0889861	
0.0890195	
0.0541384	
0.181084	
0.258538	
0.268446	
0.192537	
0.0176176	
0.0113149	
0.164896	
0.19522	
0.227892	
0.218886	
-0.0523082	
-0.0382258	
0.268931	
0.264349	
0.250476	
-0.0359412	
0.26624	
0.184285	
0.186608	
0.203299	
0.193203	
0.129358	
0.0819967	
0.269208	
0.256441	
0.166542	
0.16938	
0.233757	
0.245011	
0.214281	
0.0552973	
0.0671063	
0.233474	
0.258482	
0.232003	
0.0801814	
0.204339	
0.208486	
0.126172	
0.216514	
0.247775	
-0.0696324	
0.219423	
0.216957	
0.209742	
0.264586	
0.248695	
0.141906	
0.26698	
0.139735	
0.166574	
0.141733	
0.144063	
0.11696	
0.27564	
0.249045	
0.265162	
0.276174	
0.265627	
0.265264	
0.247809	
0.25091	
0.244776	
0.241625	
0.202088	
0.219275	
0.255522	
0.250094	
0.0777272	
0.0479533	
0.240649	
0.253906	
0.270864	
0.251059	
0.27039	
0.061387	
0.0720664	
0.069508	
0.0960305	
0.267949	
0.261971	
0.203118	
0.223098	
0.22051	
0.143656	
0.144078	
-0.0662429	
-0.0633002	
0.132322	
0.11782	
0.115555	
0.113013	
0.109739	
0.109463	
0.0846501	
0.25991	
-0.0534936	
-0.0542136	
-0.0687981	
-0.0704678	
0.212541	
0.162008	
0.160949	
0.248514	
-0.071184	
-0.066404	
-0.0492616	
-0.0529617	
-0.0681056	
-0.0686659	
0.214818	
0.216518	
0.205992	
0.202868	
-0.0299516	
-0.0125069	
-0.0369234	
-0.0212505	
0.119791	
0.123013	
0.09823	
0.193954	
0.219342	
0.252532	
0.240164	
0.247889	
0.251169	
0.251304	
0.237985	
0.22554	
0.233889	
0.20639	
0.200874	
0.223375	
0.218888	
0.106402	
0.0960334	
0.106156	
0.0404365	
-0.00432745	
0.0995339	
0.0672937	
-0.0586323	
-0.0406242	
-0.0657528	
0.0749585	
0.173565	
0.121924	
0.118778	
0.058229	
0.0441527	
-0.0243292	
-0.0446017	
0.227232	
0.226458	
0.0593853	
0.10524	
0.0916282	
0.250655	
0.256161	
0.23993	
0.245844	
0.260734	
0.229096	
0.226798	
0.0837049	
0.0709927	
0.121141	
0.102018	
0.130826	
0.121364	
-0.00326501	
0.0221431	
0.102133	
0.106544	
0.17275	
0.175613	
0.124478	
0.114527	
0.0898431	
0.087017	
0.176041	
0.173294	
0.16097	
0.125252	
0.160063	
0.166504	
0.23451	
0.247408	
0.161448	
0.151708	
0.125857	
0.167279	
0.190982	
-0.0209896	
0.027994	
-0.0288824	
0.249204	
0.248732	
0.231615	
0.216986	
0.184449	
0.163278	
0.180834	
0.179357	
-0.0368356	
-0.0424423	
-0.0562453	
-0.0587896	
0.0457456	
0.0720006	
0.0846225	
0.167806	
0.144418	
0.180979	
0.186563	
0.207692	
0.185846	
0.253222	
0.249388	
0.225047	
0.233631	
0.233488	
0.233906	
-0.0479527	
-0.0537423	
-0.0350568	
-0.040211	
0.178304	
0.157613	
0.168333	
0.16752	
0.0331373	
0.0960887	
0.094312	
0.0859806	
0.0906517	
0.244902	
0.257716	
0.0589925	
0.0292881	
0.262883	
0.261617	
0.24882	
0.264086	
0.260425	
0.262937	
0.0182577	
0.238978	
0.237418	
0.198365	
0.0940706	
0.0840319	
0.070243	
0.0742859	
0.142107	
0.146704	
0.229279	
0.245693	
0.255759	
0.258442	
0.176948	
0.172165	
0.084071	
0.0930335	
0.233757	
0.22503	
0.0614142	
0.0784452	
0.126893	
0.107178	
0.130271	
0.150697	
0.108294	
0.118944	
0.118563	
0.0812077	
0.0146825	
0.0418743	
0.0978828	
0.0796344	
0.251245	
0.267712	
-0.0167089	
0.140705	
0.113968	
0.261651	
0.260064	
0.0626357	
0.0706579	
0.102997	
0.0786109	
0.0843193	
0.0872104	
0.0273535	
0.0575819	
0.086168	
0.074538	
0.135228	
0.12527	
0.0737391	
0.0498319	
0.0884305	
0.060331	
0.224091	
0.225843	
0.167935	
0.182785	
0.148235	
0.139002	
0.0404795	
0.00972052	
-0.04855	
0.00587695	
0.0217255	
0.0190951	
-0.00763056	
0.165467	
-0.021335	
0.135688	
0.137379	
-0.0173159	
-0.0442571	
-0.0349905	
-0.0435611	
0.110242	
0.117876	
0.0412106	
0.0435922	
0.039723	
0.189417	
0.162038	
0.264013	
0.259793	
0.105628	
0.0847066	
0.0753057	
0.0729067	
0.0855917	
0.126799	
0.123664	
0.149189	
0.148624	
0.0621673	
0.0651638	
0.0179253	
0.00849008	
0.0818769	
0.0583281	
0.0613144	
0.0381907	
0.100029	
0.102084	
0.0903103	
0.08365	
0.0923237	
0.0855751	
0.0528559	
0.270658	
0.268751	
0.264243	
0.269561	
0.100702	
0.104825	
0.0927445	
0.0983654	
0.0966338	
0.0993412	
0.0964592	
-0.0158872	
0.00128358	
-0.00708911	
0.00947799	
0.0268029	
0.0381521	
0.0181072	
0.00825754	
-0.0121064	
-0.00360958	
0.00425574	
0.0338037	
0.0198536	
0.0242399	
0.0124462	
0.00434064	
0.0203113	
0.00277027	
0.0122085	
-0.0103727	
-0.0176485	
-0.0135872	
-0.0047059	
0.0271273	
0.0250122	
0.0186614	
0.010688	
-0.0145888	
-0.00997776	
-0.00417428	
0.00251015	
0.0333006	
-0.0635912	
-0.0491139	
0.0046257	
0.03288	
-0.0256635	
-0.0310833	
-0.0089097	
0.0298291	
0.0234711	
0.00301254	
-0.051846	
0.0022781	
-0.0289081	
-0.0726539	
-0.0550376	
0.0312248	
0.0157813	
-0.00475145	
-0.0665921	
-0.0417801	
-0.017514	
0.0246511	
0.135297	
0.173395	
0.17179	
0.115525	
0.140932	
-0.0297987	
0.0716753	
0.140229	
0.0531149	
0.0947536	
0.127138	
0.0457426	
0.036812	
0.116936	
0.118137	
0.0925234	
0.0935746	
0.0770764	
0.102381	
0.125549	
0.171891	
0.174246	
-0.0607099	
-0.0665017	
-0.0516699	
-0.0520725	
0.000523873	
0.0217311	
0.0104107	
0.163554	
0.14915	
0.153409	
0.0445738	
0.161198	
0.152948	
0.169776	
0.170933	
0.167408	
0.161753	
0.168422	
0.169266	
-0.055887	
-0.0426289	
0.143195	
0.14902	
0.134214	
0.158815	
0.157835	
0.163918	
0.15716	
0.14584	
0.145447	
0.169127	
0.154429	
0.173141	
0.1749	
0.102366	
0.108698	
0.127884	
0.173735	
0.174994	
-0.0397906	
-0.0228148	
0.00808136	
-0.00494617	
-0.0285014	
-0.00674131	
-0.0268509	
0.0557384	
0.034968	
0.0776406	
0.0737619	
0.117501	
0.135339	
0.111382	
0.130465	
0.101965	
0.160664	
0.164548	
0.127326	
0.0936613	
-0.150717	
-0.0293433	
0.032664	
0.0671058	
-0.0246292	
0.0342744	
0.046482	
-0.0287261	
0.060607	
0.03441	
-0.00146699	
-0.00444107	
0.00874134	
0.0357869	
0.0452995	
0.13519	
0.156131	
-0.149634	
-0.171353	
-0.125373	
-0.129001	
-0.108829	
-0.0910738	
-0.0822164	
0.0853052	
0.113769	
0.0930187	
-0.0653029	
-0.0767699	
0.128062	
0.119383	
0.139683	
0.128122	
0.129554	
0.139013	
0.132582	
0.124946	
-0.158938	
-0.165709	
0.0729259	
0.0876929	
0.103818	
0.106772	
0.0837721	
0.0877432	
0.111078	
0.116244	
0.152591	
0.151438	
0.158983	
0.163285	
0.0469443	
0.0998586	
0.0725812	
0.163867	
0.158837	
-0.143724	
-0.142589	
-0.117594	
-0.112819	
-0.108316	
-0.142547	
-0.121088	
-0.0177639	
-0.0634727	
-0.0352341	
-0.0652307	
0.0381611	
0.070292	
0.0167153	
0.0702709	
0.0428055	
-0.0518234	
0.0698221	
0.165397	
0.218043	
0.212253	
0.211401	
0.191098	
0.206849	
0.195916	
0.185552	
0.207571	
0.200903	
0.205013	
0.192031	
0.19998	
0.195331	
0.172745	
0.15498	
0.17417	
0.183956	
0.179363	
0.213337	
0.174753	
0.205193	
0.203961	
0.18997	
0.210013	
0.197265	
0.205626	
0.0913286	
0.0978709	
-0.0956939	
-0.0181543	
0.202172	
0.170531	
0.212816	
0.156409	
0.192026	
0.093558	
0.172629	
0.183227	
0.212663	
-0.208109	
0.175231	
0.207844	
0.187924	
0.194455	
0.110095	
0.102474	
0.147208	
0.100184	
0.131188	
-0.00593484	
-0.361001	
0.0168767	
0.11672	
0.124486	
-0.0724438	
-0.0292887	
0.018507	
0.0484186	
-0.249134	
-0.328143	
-0.338266	
-0.344479	
-0.196577	
-0.0032019	
-0.0132657	
-0.23362	
-0.268354	
-0.150867	
-0.00484323	
-0.260454	
-0.293867	
-0.332004	
-0.333104	
-0.167178	
0.00791281	
-0.0871701	
-0.345883	
-0.343923	
-0.0821069	
0.175425	
0.0896544	
0.170064	
-0.347413	
-0.0484327	
0.14	
-0.0351044	
-0.00679154	
0.152596	
-0.246329	
-0.0274784	
-0.0896718	
-0.133089	
-0.208193	
-0.064755	
0.157011	
-0.0956291	
0.0952425	
-0.0995854	
0.116962	
0.0834581	
0.0282603	
0.0703837	
-0.241748	
-0.22433	
0.0809077	
-0.00599648	
-0.103329	
-0.0391845	
-0.13704	
-0.102422	
-0.252264	
-0.0761645	
-0.0780239	
-0.159727	
0.151848	
-0.153735	
-0.326072	
0.124483	
-0.322119	
-0.319828	
-0.00309226	
0.0551189	
-0.31767	
-0.123869	
-0.180302	
-0.139139	
0.197368	
0.110591	
0.119753	
0.119414	
0.0501533	
0.050849	
-0.00945428	
0.0415353	
-0.2164	
-0.139083	
0.170388	
0.152831	