<VTKFile type="UnstructuredGrid" version="0.1" byte_order="LittleEndian">
	<UnstructuredGrid>
		<Piece NumberOfPoints="3959" NumberOfCells="7450">
			<CellData Scalars="scalars">
				<DataArray type="Float64" Name="Doublet Strengths" NumberOfComponents="1" Format="ascii">
-0.0704979	
-0.0550624	
0.0014296	
0.0316106	
-0.0303947	
-0.0402194	
-0.0163988	
0.0266191	
0.01874	
-0.00337027	
-0.0627707	
0.00391613	
-0.026712	
-0.0689332	
-0.0520963	
0.0318736	
0.0195052	
-4.62275e-05	
-0.0588068	
-0.035328	
-0.0121106	
0.0270847	
0.134646	
0.172026	
0.170425	
0.113249	
0.133314	
-0.107893	
0.0326343	
0.120398	
0.0323449	
0.0839787	
0.106806	
0.0105483	
-0.00485299	
0.0892678	
0.0944139	
0.0628152	
0.0612864	
0.0603094	
0.0814761	
0.106182	
0.163433	
0.170983	
-0.0929656	
-0.104162	
-0.101699	
-0.145458	
-0.0565629	
-0.0319296	
-0.0194103	
0.152831	
0.1338	
0.138478	
0.000287366	
0.150756	
0.147102	
0.159677	
0.162871	
0.156369	
0.160963	
0.158387	
0.161566	
-0.124801	
-0.169244	
0.123522	
0.130199	
0.11155	
0.14394	
0.143197	
0.157144	
0.149372	
0.13214	
0.13349	
0.166318	
0.152268	
0.171148	
0.171253	
0.0874404	
0.101096	
0.121727	
0.172389	
0.171805	
-0.0864551	
-0.0878941	
-0.0393944	
-0.0417687	
-0.0619589	
-0.0520375	
-0.0817339	
0.0313129	
0.00493859	
0.0522856	
0.0431514	
0.0979915	
0.121473	
0.0954596	
0.118149	
0.105608	
0.164023	
0.167637	
0.129681	
0.10119	
-0.0764077	
0.00823888	
0.0561868	
0.0873098	
-0.00506473	
0.0493549	
0.0669653	
0.000628228	
0.0833674	
0.0616768	
0.0298756	
0.0244102	
0.0250591	
0.0553601	
0.0648729	
0.145141	
0.161292	
-0.103542	
-0.0826175	
-0.0970406	
-0.0952025	
-0.0640475	
-0.0397797	
-0.0548662	
0.101468	
0.125884	
0.108816	
-0.0229675	
-0.0372383	
0.136549	
0.126963	
0.149077	
0.140282	
0.140974	
0.143081	
0.1419	
0.13641	
-0.0940069	
-0.0430454	
0.0929942	
0.106993	
0.11938	
0.122511	
0.0983906	
0.100769	
0.122947	
0.125643	
0.155401	
0.15622	
0.164187	
0.166749	
0.0580922	
0.108938	
0.081072	
0.167088	
0.163778	
-0.0821219	
-0.0911372	
-0.0634261	
-0.0825696	
-0.0743224	
-0.0994977	
-0.078752	
0.0065805	
-0.0301267	
-0.0122074	
-0.0372087	
0.0542634	
0.0834351	
0.0372936	
0.0848954	
-0.00640444	
-0.177307	
0.0287764	
0.167896	
0.216262	
0.208007	
0.208119	
0.191152	
0.203387	
0.193352	
0.184057	
0.205983	
0.199764	
0.200662	
0.183677	
0.194884	
0.191144	
0.170515	
0.163253	
0.171849	
0.180574	
0.176174	
0.208983	
0.175309	
0.198489	
0.199129	
0.185058	
0.204273	
0.193611	
0.205264	
0.115643	
0.108229	
-0.0322729	
0.011359	
0.196813	
0.176323	
0.210992	
0.165486	
0.18814	
0.0582158	
0.178538	
0.184911	
0.208193	
-0.252044	
0.178718	
0.20284	
0.190326	
0.195413	
0.133635	
0.126293	
0.158211	
0.124311	
0.145847	
-0.0735169	
-0.275991	
-0.0417787	
0.0880932	
0.0963676	
-0.230513	
-0.110006	
-0.0377814	
-0.00111446	
-0.365268	
-0.176747	
-0.220691	
-0.375232	
-0.219821	
-0.0292104	
-0.0841156	
-0.300372	
-0.342705	
-0.202204	
-0.0704507	
-0.314006	
-0.351239	
-0.383612	
-0.390673	
-0.304332	
-0.0523339	
-0.142689	
-0.384278	
-0.373713	
-0.098149	
0.163666	
0.103117	
0.153352	
-0.225195	
0.0100696	
0.117036	
0.0258884	
0.0197895	
0.129988	
-0.0852136	
0.0397323	
-0.107131	
-0.153004	
-0.297678	
-0.0339238	
0.135831	
-0.0526681	
0.0615185	
-0.0141587	
0.0858131	
0.0432056	
0.0259649	
0.06928	
-0.282549	
-0.259785	
0.0554084	
0.0367691	
-0.0186792	
0.0273907	
-0.0791184	
-0.0249419	
-0.286936	
-0.127763	
-0.126106	
-0.080303	
0.14244	
-0.0641212	
-0.151506	
0.101803	
-0.168608	
-0.176702	
0.0497089	
0.0830757	
-0.224838	
-0.140821	
-0.196431	
-0.0411252	
0.186967	
0.0855476	
0.0889218	
0.0882263	
0.00857061	
0.0085898	
-0.0223042	
0.0302968	
-0.30081	
-0.204598	
0.153951	
0.130344	
0.128275	
0.139878	
-0.0995019	
-0.0750673	
-0.0767842	
-0.0319907	
-0.0202463	
0.00855506	
0.164556	
0.0526395	
0.0832544	
0.172929	
0.168205	
0.0776257	
-0.246939	
0.189475	
0.109863	
-0.0547648	
-0.122945	
0.178919	
0.199693	
0.0565165	
0.153661	
-0.277779	
-0.19176	
0.11504	
0.111665	
0.125408	
0.0242175	
0.194395	
0.170813	
0.151479	
0.154532	
0.138416	
0.161817	
0.185959	
0.182031	
0.16094	
-0.0321162	
0.0385528	
0.146794	
0.162745	
0.147703	
0.179981	
0.189768	
0.0572627	
0.170258	
0.0821021	
0.0624085	
0.0536273	
0.0612654	
0.120455	
0.187516	
0.106997	
0.0808129	
0.0555411	
0.0628304	
0.11715	
0.1196	
0.137529	
0.136403	
0.0612045	
0.00734888	
0.0222026	
-0.0275162	
0.188472	
0.207532	
0.189181	
0.182425	
0.19402	
0.0990809	
0.10187	
0.183553	
0.10532	
-0.204773	
0.0857561	
0.0184839	
0.0713539	
0.0846874	
0.175263	
0.0260777	
-0.100145	
-0.0697531	
0.0580451	
0.0596504	
0.0222339	
0.149324	
0.179685	
0.101996	
0.0958714	
0.185293	
0.144013	
0.0944621	
0.037108	
0.0290688	
0.0617234	
0.0648349	
0.013448	
0.141964	
0.147589	
-0.337694	
-0.295818	
-0.192448	
-0.152833	
-0.0900874	
0.118288	
0.109723	
0.129802	
0.16281	
0.149991	
0.126148	
0.182539	
-0.18294	
-0.192695	
-0.358842	
-0.328432	
0.0467645	
-0.088422	
0.0331701	
-0.325453	
-0.351472	
0.00241573	
-0.0123454	
0.00989871	
0.000452644	
-0.10957	
-0.0697735	
-0.0619737	
-0.0145859	
0.0181095	
-0.00251187	
0.0650063	
0.0853674	
0.108947	
-0.0111093	
-0.0419819	
-0.0109768	
-0.0293104	
-0.0099693	
0.0340816	
0.110552	
0.111304	
0.0929807	
0.0240602	
0.00194097	
-0.0734495	
0.135495	
0.0965921	
0.018679	
0.00532324	
0.191927	
-0.213579	
0.0621597	
-0.0206107	
-0.0323485	
0.211216	
0.191227	
0.203374	
-0.213644	
-0.166401	
-0.111478	
-0.00179094	
-0.121967	
-0.0717574	
0.19921	
0.184454	
0.140068	
0.11558	
0.0665673	
-0.0634268	
-0.134908	
-0.0875802	
0.179221	
0.0295061	
-0.385624	
-0.388512	
-0.386815	
-0.215067	
0.0605978	
0.000152916	
-0.00351018	
0.0155782	
0.015177	
0.0232947	
-0.0140658	
0.124875	
0.120176	
-0.139642	
-0.0711062	
-0.193931	
-0.130051	
-0.0489202	
-0.164306	
-0.0748271	
0.0427818	
-0.262689	
-0.245222	
0.136971	
0.0619746	
0.107588	
-0.0393957	
-0.00273459	
0.155789	
0.156996	
0.138282	
0.155412	
0.143024	
0.075812	
0.0534001	
0.138357	
0.0458509	
0.19685	
0.186522	
-0.114465	
-0.246997	
0.181738	
0.178404	
0.188376	
0.0193569	
0.190065	
0.201543	
0.187999	
0.197826	
0.206572	
0.19136	
-0.226734	
-0.255529	
0.206768	
0.18844	
0.194252	
0.181497	
-0.355028	
0.0373483	
0.00915115	
0.0228556	
0.190171	
0.172999	
0.157834	
0.180063	
0.0630785	
0.0651945	
0.0151402	
0.0183434	
0.132531	
-0.140922	
0.0288711	
0.0725941	
-0.0596697	
0.145034	
0.154338	
0.12612	
0.0926431	
0.202734	
0.0361604	
0.0821564	
-0.0232214	
-0.00972196	
0.104656	
0.129224	
0.136476	
0.0485259	
-0.065387	
-0.0408344	
-0.022192	
0.0189609	
0.0549343	
0.0846965	
-0.026466	
0.0358233	
-0.0200985	
0.197146	
0.18217	
0.0665991	
-0.00767191	
0.086762	
0.147944	
-0.00433296	
-0.117756	
-0.00739631	
-0.120018	
0.103696	
-0.0354274	
-0.0392922	
-0.0239081	
0.123	
0.0947946	
0.0911398	
0.0330423	
0.0943505	
0.0555853	
0.0043979	
0.0080458	
0.0281755	
0.0230444	
0.00778018	
-0.038697	
-0.0857139	
0.115652	
0.0375777	
0.0359156	
0.0228729	
0.129077	
0.0264926	
-0.0129395	
0.0672347	
0.0785005	
0.105644	
-0.343284	
-0.00995362	
-0.0339931	
0.0580198	
0.066005	
0.151521	
0.09269	
0.0810902	
0.0726612	
-0.112034	
-0.0714202	
0.0369363	
0.010697	
-0.0205038	
-0.0659712	
0.0968919	
0.064822	
0.0577754	
0.0600059	
-0.0463495	
0.0287377	
-0.248232	
-0.231847	
-0.148281	
-0.135113	
0.144353	
-0.0452306	
-0.168141	
0.129489	
-0.0921963	
0.0268353	
-0.144152	
-0.216377	
-0.067898	
-0.0357343	
0.0161803	
-0.0173322	
-0.0984263	
-0.159023	
-0.0885168	
-0.0401804	
-0.0234997	
-0.00117487	
-0.14835	
0.13123	
0.00881621	
0.0358178	
0.0743307	
-0.106372	
-0.0718738	
-0.0853693	
-0.140111	
-0.21422	
0.121662	
0.109632	
-0.0205006	
0.032093	
-0.11203	
-0.134762	
0.110558	
0.037117	
0.0685918	
-0.030068	
-0.0127008	
-0.119667	
-0.0806373	
-0.310181	
-0.347467	
0.0484551	
-0.247018	
0.0452497	
0.00453765	
-0.141297	
0.134205	
-0.0988895	
-0.0878273	
-0.0127207	
-0.0584914	
0.18358	
0.0973761	
0.146142	
0.0821256	
0.102564	
0.203506	
0.191118	
-0.0518705	
-0.0444066	
0.0469862	
0.0643429	
-0.341549	
-0.135966	
-0.165648	
-0.383475	
-0.0183846	
0.0499603	
-0.0318589	
-0.0417634	
-0.138268	
-0.113183	
0.0338593	
-0.010792	
0.00315032	
0.194246	
0.178833	
0.0648896	
0.00308916	
-0.0364035	
0.0863611	
0.117723	
0.0393455	
0.0711081	
0.0257607	
-0.0543235	
0.190019	
0.207948	
0.205136	
0.193197	
-0.195067	
0.185754	
0.164446	
-0.00278909	
-0.0912914	
0.0171052	
0.156391	
0.175602	
0.154864	
0.175026	
0.163127	
0.140341	
0.0646952	
0.0500448	
-0.00125872	
0.00423592	
0.117871	
0.12459	
-0.130458	
-0.36467	
-0.342221	
0.0393737	
0.027269	
0.197852	
0.179432	
0.212765	
0.196602	
0.148878	
0.116529	
-0.0728933	
0.108629	
0.140094	
0.126082	
0.142601	
0.143678	
0.162064	
0.156715	
0.136343	
-0.207488	
-0.229794	
0.177273	
0.162376	
0.0974212	
0.0567813	
0.143804	
0.142566	
0.203679	
0.190314	
-0.0339848	
-0.0933045	
-0.158613	
-0.0726396	
0.0155107	
0.101929	
0.0444802	
0.113032	
-0.0858747	
-0.0740819	
-0.25281	
0.114754	
0.111179	
0.167126	
0.191581	
-0.0727168	
0.0371527	
-0.0398036	
0.017064	
-0.0512577	
-0.014352	
0.0577231	
0.0594857	
0.109073	
-0.0265378	
-0.0272233	
-0.0384364	
-0.0432135	
0.203203	
0.176486	
0.179747	
-0.104098	
-0.151474	
0.0643274	
-0.0094502	
0.0585556	
-0.0409917	
0.0619144	
0.0528426	
-0.0830538	
-0.0916425	
0.076228	
-0.00431028	
0.00373675	
-0.297577	
-0.00827812	
0.0374511	
0.0773262	
0.0804765	
-0.157887	
-0.169676	
-0.238877	
-0.0192047	
0.0197074	
0.164957	
0.152219	
0.00807243	
0.0655109	
0.0870044	
0.0925088	
-0.00400097	
-0.0450657	
-0.0992122	
-0.100859	
0.193144	
0.182137	
0.18645	
0.0601421	
0.0627106	
0.113929	
0.0574585	
-0.139449	
-0.136641	
-0.193688	
-0.0947191	
-0.0875709	
-0.015644	
0.112239	
0.113705	
0.0779981	
0.039247	
-0.17783	
-0.178928	
-0.0110521	
-0.030299	
-0.223	
-0.196383	
-0.268338	
-0.118265	
0.171756	
0.15626	
0.130721	
0.190475	
0.209806	
-0.0747421	
-0.013912	
-0.0691241	
0.0639718	
0.108921	
0.0234516	
0.0691669	
0.0995828	
0.127084	
0.103402	
0.129631	
-0.0371653	
-0.0227604	
0.14265	
0.141525	
-0.160991	
-0.134908	
-0.203691	
0.184855	
0.19248	
0.184131	
0.139961	
0.10435	
0.157022	
0.108562	
0.15427	
0.0767168	
0.134342	
0.131206	
0.165489	
-0.0558014	
-0.0456368	
-0.0479375	
0.136961	
-0.0565697	
-0.0760573	
-0.174145	
0.0558541	
0.0304201	
-0.241269	
-0.248484	
-0.0525307	
-0.0596407	
0.118256	
0.0657456	
-0.130388	
-0.298327	
-0.262785	
0.176951	
0.175494	
0.159585	
0.174873	
0.172826	
0.0468038	
0.0886221	
0.0306753	
0.0378042	
0.186096	
-0.0404627	
-0.200788	
-0.0411331	
0.0195443	
-0.0176811	
-0.0259869	
0.0149609	
-0.343151	
0.0523979	
0.0616198	
0.142015	
0.111148	
0.157065	
0.124719	
0.143324	
0.133458	
0.130603	
0.0254518	
0.0571752	
0.0498312	
0.0766495	
0.13037	
0.109118	
0.02684	
0.140299	
0.154644	
0.106488	
0.123819	
0.113514	
0.138064	
0.117681	
0.114914	
0.0524062	
0.054821	
0.12892	
0.110261	
0.118356	
0.0728159	
-0.064096	
-0.0661419	
-0.0492251	
-0.0163369	
-0.0972256	
-0.0319585	
0.0733665	
0.0550025	
0.102431	
0.158035	
0.124215	
0.1377	
0.0854721	
0.00906539	
-0.0122252	
0.056801	
-0.0160441	
0.0168086	
-0.0292317	
0.0542031	
0.17931	
0.17902	
-0.32038	
-0.280668	
0.122844	
0.113339	
-0.00849402	
-0.0232964	
0.130604	
-0.0747409	
-0.0583224	
0.174403	
0.160352	
0.188889	
0.207501	
0.0589247	
0.0356332	
0.141534	
0.125464	
0.176993	
0.0187781	
0.0592343	
0.123247	
0.0773194	
0.113362	
0.0853032	
0.111869	
0.206782	
0.0311874	
0.0314041	
0.180877	
0.0498254	
0.103758	
0.102317	
0.0294483	
0.00451242	
0.107086	
0.113468	
0.147329	
0.185674	
0.190761	
0.20045	
-0.20719	
0.122276	
0.0710808	
-0.0598341	
0.0306954	
0.0681541	
0.144726	
0.142474	
0.196694	
0.188152	
0.155209	
0.146407	
-0.203141	
-0.125978	
-0.0916993	
-0.108496	
0.0832758	
0.0642292	
0.0711896	
-0.0898557	
-0.0611764	
-0.266852	
-0.0823378	
-0.073195	
-0.131198	
-0.277483	
-0.216489	
-0.147616	
-0.136324	
-0.120083	
-0.101693	
0.147065	
0.135167	
0.0706795	
-0.0630798	
-0.0521649	
-0.144006	
-0.144073	
-0.210225	
-0.20696	
-0.0538041	
-0.0719756	
-0.338711	
-0.0480726	
-0.195937	
0.0879676	
0.0920914	
0.0649044	
0.0668789	
0.171116	
0.170439	
-0.0525643	
-0.0954123	
-0.000490805	
-0.00377326	
0.0469952	
0.027471	
0.04336	
0.0264338	
-0.199647	
-0.225455	
-0.165984	
-0.0228783	
0.134761	
0.121877	
0.0583865	
0.0379435	
-0.246411	
-0.227619	
-0.0883071	
-0.191372	
-0.23277	
-0.213417	
-0.266304	
0.200642	
0.183956	
-0.0263354	
-0.0823151	
-0.0603409	
-0.054574	
-0.0807442	
-0.190125	
-0.173809	
0.0553348	
0.010976	
-0.158013	
-0.0512456	
-0.256763	
-0.247546	
-0.149964	
-0.130469	
-0.138113	
-0.125012	
-0.149899	
-0.148287	
-0.103506	
-0.102687	
0.148282	
0.075495	
0.132856	
0.114622	
0.111748	
0.11548	
0.0816658	
-0.235104	
-0.190078	
-0.195251	
-0.206063	
-0.198379	
-0.264173	
-0.273194	
-0.319445	
-0.178617	
-0.118065	
-0.216848	
-0.191161	
-0.290077	
-0.33497	
-0.334527	
-0.370322	
-0.0353798	
-0.0379786	
-0.0400624	
-0.0477747	
-0.211554	
-0.21828	
-0.17031	
-0.160261	
-0.128896	
-0.137924	
-0.0935475	
-0.309445	
-0.0354293	
-0.0203311	
-0.309265	
-0.267117	
-0.0136776	
-0.0235653	
-0.0285996	
-0.148272	
-0.144192	
-0.0251034	
-0.0339512	
-0.0778274	
-0.0851018	
-0.173157	
-0.164864	
0.0882733	
0.0218152	
0.00170902	
-0.00580384	
0.097243	
0.0490464	
-0.120778	
-0.0965583	
-0.120014	
-0.0184155	
-0.283461	
-0.330845	
-0.0989502	
-0.114978	
0.196423	
0.122455	
0.209593	
0.180631	
-0.379	
-0.372606	
0.0455917	
0.00213164	
-0.313775	
-0.279293	
-0.333194	
-0.299451	
-0.283794	
-0.294264	
-0.222334	
-0.192278	
-0.319846	
-0.360082	
-0.359452	
-0.353989	
-0.351902	
-0.184185	
-0.130248	
-0.10494	
-0.301516	
-0.328305	
-0.355256	
-0.244661	
0.188619	
0.156965	
0.209543	
0.192263	
-0.329502	
-0.300921	
-0.219432	
-0.20767	
-0.194158	
-0.00728699	
-0.00793248	
-0.299203	
-0.298675	
-0.334402	
-0.303717	
-0.326391	
-0.059326	
-0.0701026	
-0.0824991	
-0.104499	
-0.21744	
-0.258814	
-0.218268	
-0.244225	
-0.27296	
-0.304702	
0.208758	
0.184128	
0.182304	
0.143003	
-0.250792	
-0.135377	
-0.123607	
-0.136453	
0.181469	
0.138434	
0.161261	
0.081096	
-0.352758	
0.0815049	
0.125708	
0.114633	
0.135768	
-0.33764	
-0.356439	
-0.340614	
-0.344511	
-0.335542	
-0.342062	
-0.300697	
-0.110605	
-0.100735	
-0.0992699	
-0.0993369	
0.137545	
0.195731	
0.134104	
0.193333	
0.129129	
0.120017	
0.122998	
0.0734261	
-0.254547	
-0.275472	
-0.254292	
-0.239723	
-0.345264	
-0.360008	
-0.346622	
-0.352968	
0.0776929	
0.136939	
0.0818777	
0.138467	
0.163756	
0.130185	
0.15104	
0.0932484	
0.112414	
0.0884275	
0.111651	
0.0876737	
0.173871	
0.202136	
0.205386	
0.210146	
0.221072	
0.142106	
0.231536	
0.235905	
0.236626	
0.244767	
0.249153	
0.254654	
0.228934	
0.191135	
0.169407	
0.0474047	
0.256365	
-0.00763274	
-0.00207726	
-0.033739	
0.183187	
0.249136	
0.234484	
0.265856	
0.261859	
0.268787	
0.256476	
0.263565	
0.254128	
0.246619	
0.170969	
0.217541	
0.196718	
0.218757	
0.189416	
0.149658	
0.217334	
0.158977	
0.101789	
0.257487	
0.236232	
0.235014	
0.0944379	
-0.0443569	
0.248643	
-0.0270599	
-0.0413234	
0.0142057	
0.0709469	
0.043105	
-0.034988	
0.0408571	
0.00246737	
0.0707766	
-0.0540819	
0.0166885	
0.065381	
0.0842404	
0.0414129	
-0.00318688	
-0.0444103	
0.209215	
-0.0294023	
0.177577	
0.106646	
0.10939	
0.0866358	
0.0482283	
0.0547736	
0.0729314	
0.0817231	
0.0202356	
0.0598516	
0.013942	
0.0400035	
0.0212066	
0.0324363	
0.0315111	
0.0451047	
0.087686	
0.0528912	
0.05758	
0.0688891	
0.0893721	
0.0465719	
-0.0226023	
-0.0260865	
0.0219347	
-0.00173522	
-0.00784537	
0.0349464	
0.0646821	
0.0597105	
0.00502084	
-0.0196643	
-0.0287185	
-0.00819703	
0.0333708	
-0.061593	
-0.0402941	
-0.0639373	
0.168272	
0.189088	
0.186044	
0.224276	
0.0106234	
0.100472	
0.153912	
0.161348	
0.190232	
0.000240103	
0.15221	
0.129739	
-0.058023	
-0.0386215	
-0.0293619	
0.134683	
-0.0312558	
0.144144	
-0.00340819	
0.204963	
0.208542	
-0.0689523	
0.0763896	
0.0401969	
0.00271326	
0.0745721	
0.0159777	
0.24636	
0.23053	
0.223832	
-0.0499469	
0.0846045	
0.218099	
-0.0134402	
-0.0165655	
0.208989	
0.23082	
0.00739621	
0.048889	
0.199313	
0.140554	
-0.0617057	
-0.0496373	
0.111554	
-0.0225114	
-0.0174232	
-0.00764996	
-0.00130322	
0.251554	
0.208663	
0.214366	
0.132887	
0.16792	
0.245199	
0.274054	
0.255455	
0.0583576	
0.170112	
0.24371	
0.194423	
0.109232	
0.130575	
0.143174	
0.161339	
0.00589974	
0.120954	
0.0856452	
0.0993267	
0.0678076	
0.120815	
0.118606	
0.189627	
0.150715	
0.194874	
0.116058	
0.157106	
0.130014	
0.167805	
0.117871	
0.125342	
0.158308	
0.206295	
0.14095	
0.151379	
0.159782	
0.159533	
0.14238	
0.26682	
0.268792	
0.278453	
0.266071	
0.282132	
0.250469	
0.117	
-0.0244485	
0.0226261	
0.0278865	
0.125173	
0.232879	
0.179189	
0.110685	
0.183646	
0.170776	
0.124011	
0.237076	
0.270572	
0.2759	
0.231069	
0.250181	
0.260055	
0.278446	
0.262814	
0.253311	
0.278053	
0.262766	
0.262588	
0.270592	
0.244891	
0.243042	
0.269338	
0.269063	
0.274939	
0.104042	
0.279283	
0.226465	
0.24742	
0.200592	
0.226757	
0.269945	
0.270978	
0.274771	
0.204845	
0.197083	
0.225061	
0.209454	
0.218479	
0.221678	
0.196155	
-0.0464272	
-0.0516153	
0.239946	
0.227432	
0.252254	
0.230144	
0.202285	
0.183231	
0.200927	
0.259149	
0.234593	
0.234483	
0.24131	
0.166976	
0.210054	
0.0854576	
0.262205	
0.249297	
0.093355	
0.18647	
0.163644	
0.232562	
0.12481	
0.130139	
0.20714	
0.147388	
0.273849	
0.134978	
0.132823	
0.160906	
0.222716	
0.194197	
0.181281	
0.267807	
0.0483275	
0.107769	
0.0418538	
0.0773735	
0.195792	
0.187365	
0.154933	
0.185275	
-0.0215831	
0.259416	
0.241863	
-0.00443455	
0.00544243	
-0.0193656	
0.000871814	
0.116721	
0.0892967	
0.159676	
0.166139	
0.189427	
0.1531	
0.190311	
0.00684197	
0.160646	
0.133301	
0.175256	
-0.0382391	
-0.0516729	
-0.0429165	
-0.0511475	
0.116945	
0.113594	
0.143732	
0.133842	
0.152242	
0.0882096	
0.0962414	
0.200815	
0.177858	
0.201884	
0.213593	
0.155438	
0.102556	
0.0904069	
0.0991859	
0.0718067	
0.281107	
0.173108	
0.20076	
0.154276	
0.171403	
0.121403	
0.147983	
0.117179	
0.157125	
0.142647	
0.0161214	
0.206634	
0.214658	
0.181323	
0.239399	
0.238003	
0.150159	
0.176631	
0.124762	
0.128427	
-0.0540176	
-0.0386934	
-0.0630712	
-0.0616904	
0.102308	
0.208848	
0.240934	
0.211553	
0.199505	
0.21078	
0.171783	
0.219004	
0.21656	
0.215144	
0.20553	
0.0482336	
0.106423	
0.26632	
0.243179	
0.26872	
0.205207	
0.195472	
0.266086	
0.267504	
0.232564	
0.245494	
0.260446	
0.205348	
0.23202	
0.174431	
0.178024	
0.187517	
0.249199	
0.236251	
0.250194	
0.223235	
0.265448	
0.232835	
0.252663	
0.00119507	
0.187079	
0.198389	
0.166754	
0.238525	
0.240549	
0.232915	
0.227794	
0.24625	
0.256687	
0.108004	
0.136531	
0.125233	
0.141672	
-0.0537519	
0.218573	
0.184625	
0.188336	
0.118206	
0.150536	
0.154294	
0.175028	
0.157753	
0.166606	
-0.0442274	
-0.0330063	
-0.0481373	
-0.0305319	
0.246155	
0.208839	
0.246187	
0.212329	
0.0859766	
0.217457	
0.224713	
0.222715	
0.250122	
0.232875	
0.261154	
0.150908	
0.136709	
0.219315	
0.215213	
0.22307	
0.183134	
0.186667	
0.0242136	
0.0690386	
0.266851	
0.228192	
-0.0207823	
0.192285	
0.219629	
0.228568	
0.229886	
0.212287	
0.201213	
0.199171	
0.258726	
0.261063	
0.25391	
0.151436	
0.262224	
0.266928	
0.0615974	
0.0853992	
0.0847691	
0.224734	
0.221723	
0.222587	
0.267076	
-0.0676012	
-0.0617193	
0.257132	
0.252463	
0.244888	
0.222984	
-0.0623718	
-0.0567654	
0.167103	
0.154334	
0.117763	
0.11956	
0.2236	
0.0773856	
0.0917416	
0.152834	
0.153582	
0.171887	
0.170185	
0.266439	
0.259514	
0.00195132	
0.0169894	
0.0772486	
0.0432006	
0.107858	
0.10752	
0.13631	
0.181126	
0.17895	
0.167568	
0.161333	
0.275014	
0.261885	
0.238646	
0.254042	
0.267999	
0.0857491	
0.0795198	
0.207507	
0.206136	
0.189527	
0.189315	
0.0267631	
0.0476329	
0.26685	
0.267885	
0.209676	
0.206821	
0.146708	
0.108601	
0.156159	
0.101669	
0.223624	
0.230501	
0.205807	
0.207287	
0.212659	
0.210882	
0.206971	
0.191146	
0.267683	
0.269276	
0.25341	
0.171137	
0.172042	
0.202439	
0.198829	
0.166223	
0.172546	
0.237149	
0.243001	
0.162982	
0.179823	
0.261977	
0.26614	
0.186479	
0.226677	
0.235332	
0.219425	
0.189894	
0.227634	
0.271678	
0.26474	
0.242933	
0.242845	
0.235234	
0.243724	
0.130686	
0.188001	
0.126882	
0.26498	
0.275723	
0.261848	
0.256065	
0.101006	
0.0732578	
0.0760846	
0.058395	
0.262424	
0.25672	
0.266975	
0.273856	
0.00699666	
0.257497	
0.267166	
0.264077	
0.256697	
0.127336	
0.165857	
0.26759	
0.275799	
0.266241	
0.120385	
0.132698	
0.138292	
0.146653	
0.195868	
0.192449	
0.187252	
0.190388	
0.269875	
0.166628	
0.164034	
0.214087	
0.214358	
-0.00229863	
-0.0117717	
0.248511	
0.263133	
0.262997	
0.195174	
-0.00866904	
0.233599	
0.229669	
0.239557	
0.24145	
0.17965	
0.27108	
0.269205	
0.0404687	
0.0110789	
0.185211	
-0.0657659	
-0.058971	
-0.06512	
0.176861	
0.0654045	
0.0263562	
0.0503718	
0.025314	
0.240364	
0.127091	
0.166705	
0.264403	
0.249909	
0.265147	
0.26326	
0.26691	
-0.00386994	
-0.0248852	
0.238285	
0.2231	
0.267544	
0.258313	
0.0213905	
0.184019	
0.169336	
0.138157	
0.204697	
0.175347	
0.22587	
0.217616	
0.131331	
0.124294	
0.264356	
0.274229	
0.0654071	
0.0541372	
0.248664	
0.256393	
0.26858	
0.268159	
0.273539	
0.266335	
-0.0590199	
-0.0615721	
0.0987739	
0.0985395	
0.0281381	
0.0200987	
0.00974816	
0.245871	
0.247084	
0.220656	
0.231256	
0.214616	
0.221182	
0.273593	
0.198625	
0.259667	
0.244341	
0.238924	
0.125201	
0.0690333	
0.271258	
0.262701	
-0.0365946	
-0.00576058	
0.0113987	
0.066195	
0.213654	
0.143277	
0.247969	
0.241364	
0.0616827	
0.0846761	
0.0380888	
0.246741	
0.16042	
0.164083	
0.254951	
0.253192	
0.0936418	
0.0745096	
-0.0140729	
-0.0158978	
0.197665	
0.201206	
0.184727	
0.193394	
0.241426	
0.208622	
0.184512	
0.226487	
0.219372	
0.199276	
0.00957964	
0.0569436	
0.0505971	
0.132969	
0.0742008	
0.185566	
0.215182	
0.262344	
0.103429	
0.103873	
0.210644	
0.199189	
0.252573	
0.129863	
0.131454	
0.100239	
0.0363535	
0.0170866	
0.044418	
0.0162818	
0.0427568	
0.164354	
0.195208	
0.192078	
0.220586	
0.0739189	
0.0582857	
0.0965366	
0.0806731	
0.165085	
0.16394	
0.176631	
0.173863	
0.164895	
0.179754	
0.179619	
-0.0690343	
-0.0238856	
-0.0632995	
-0.0488808	
-0.0278119	
0.131928	
0.135189	
-0.0645643	
0.110813	
0.127494	
0.0986519	
0.130394	
0.118129	
0.0327775	
-0.0392535	
0.0781045	
0.138338	
-0.0690469	
0.111471	
-0.0628983	
-0.0692621	
-0.0682743	
0.0349124	
0.070913	
0.264084	
0.241275	
0.267945	
0.243283	
0.269507	
0.2695	
0.137967	
0.0908687	
0.275568	
0.26314	
0.148869	
0.193352	
0.143759	
0.192419	
0.0447088	
0.0604719	
0.214282	
0.0927844	
0.0866695	
-0.0651716	
0.174311	
0.0891346	
0.0891828	
0.0543021	
0.182122	
0.258949	
0.268915	
0.193165	
0.0178031	
0.0115012	
0.165361	
0.195804	
0.228423	
0.219447	
-0.0521397	
-0.0380387	
0.269668	
0.265156	
0.251349	
-0.0359211	
0.266927	
0.184629	
0.186995	
0.203918	
0.193796	
0.129616	
0.0822798	
0.269964	
0.257296	
0.166859	
0.169738	
0.234214	
0.245542	
0.214863	
0.0555635	
0.0673471	
0.234013	
0.258954	
0.232538	
0.0805779	
0.204704	
0.208894	
0.127009	
0.217086	
0.248302	
-0.0694199	
0.21987	
0.21741	
0.210139	
0.265369	
0.249494	
0.142809	
0.267537	
0.140364	
0.166973	
0.142144	
0.144513	
0.11739	
0.276133	
0.249419	
0.265724	
0.276651	
0.266305	
0.265785	
0.248235	
0.251513	
0.245413	
0.24228	
0.202799	
0.219977	
0.256049	
0.250572	
0.0785635	
0.0481409	
0.241039	
0.25437	
0.271467	
0.251542	
0.271099	
0.0615824	
0.0722098	
0.0696681	
0.0968983	
0.268466	
0.262443	
0.204107	
0.223654	
0.221076	
0.144451	
0.144762	
-0.0662308	
-0.0633002	
0.13319	
0.118654	
0.116182	
0.113185	
0.109925	
0.109669	
0.0848414	
0.260537	
-0.0534997	
-0.0542099	
-0.0687344	
-0.0704022	
0.213303	
0.162825	
0.161821	
0.249009	
-0.0710808	
-0.0662707	
-0.0490457	
-0.0527909	
-0.0679485	
-0.0685552	
0.215246	
0.216981	
0.206624	
0.2035	
-0.0297932	
-0.0123364	
-0.0367822	
-0.0210942	
0.120008	
0.123219	
0.099278	
0.194529	
0.219898	
0.253053	
0.240617	
0.248461	
0.251799	
0.251975	
0.238653	
0.22607	
0.23445	
0.207196	
0.201739	
0.224124	
0.219699	
0.10719	
0.0967398	
0.106851	
0.0410043	
-0.0037888	
0.0999909	
0.0677806	
-0.0583498	
-0.0403164	
-0.0655262	
0.0760375	
0.17445	
0.122866	
0.119743	
0.0583976	
0.0443337	
-0.0240287	
-0.0443326	
0.227957	
0.227185	
0.0595674	
0.105425	
0.0922859	
0.2512	
0.256676	
0.240536	
0.246557	
0.261408	
0.229852	
0.227563	
0.0840387	
0.071329	
0.121477	
0.102362	
0.13155	
0.121989	
-0.00285303	
0.0225472	
0.102309	
0.106707	
0.173433	
0.176351	
0.125046	
0.115065	
0.0905071	
0.0875893	
0.176394	
0.173627	
0.161299	
0.125584	
0.160351	
0.166845	
0.235443	
0.248295	
0.162369	
0.152648	
0.126888	
0.167874	
0.191578	
-0.0204258	
0.0284879	
-0.0286821	
0.24975	
0.249284	
0.232166	
0.217553	
0.185264	
0.16412	
0.181721	
0.180206	
-0.0366444	
-0.0422537	
-0.0560779	
-0.0586273	
0.0459151	
0.072155	
0.0847475	
0.168277	
0.14491	
0.181462	
0.187048	
0.208332	
0.186709	
0.253731	
0.249991	
0.225809	
0.234351	
0.234143	
0.234559	
-0.0479239	
-0.0536806	
-0.0349966	
-0.0401205	
0.178867	
0.158154	
0.168854	
0.168046	
0.0336544	
0.096606	
0.0948532	
0.0866364	
0.0912845	
0.245484	
0.258254	
0.0595258	
0.0295614	
0.263611	
0.262361	
0.249602	
0.26475	
0.261139	
0.263655	
0.0184497	
0.239764	
0.2382	
0.199385	
0.0949245	
0.0848547	
0.0708693	
0.0751528	
0.142709	
0.147351	
0.2301	
0.246118	
0.256228	
0.258975	
0.177563	
0.172832	
0.084412	
0.0933779	
0.23457	
0.225861	
0.0618806	
0.0789564	
0.1278	
0.108045	
0.130691	
0.151155	
0.108644	
0.119319	
0.119368	
0.0822543	
0.0150578	
0.0422394	
0.0989599	
0.0807223	
0.251852	
0.268225	
-0.0161124	
0.141161	
0.11432	
0.262284	
0.260732	
0.0634828	
0.0715745	
0.104044	
0.0796724	
0.0852026	
0.0880769	
0.0280419	
0.0584238	
0.0866945	
0.0750541	
0.135973	
0.126001	
0.0745031	
0.0504997	
0.0892512	
0.061185	
0.225029	
0.226809	
0.168845	
0.18368	
0.149165	
0.139965	
0.0408256	
0.0100574	
-0.0482381	
0.00593157	
0.0219492	
0.0196408	
-0.00705297	
0.166518	
-0.0209838	
0.135935	
0.137664	
-0.016976	
-0.0439736	
-0.0345601	
-0.0431994	
0.110447	
0.118068	
0.0417654	
0.0439732	
0.0400836	
0.190426	
0.163115	
0.264508	
0.260352	
0.10658	
0.0857082	
0.0763464	
0.0739353	
0.0866361	
0.127933	
0.124858	
0.150258	
0.149719	
0.0631208	
0.0660625	
0.0185068	
0.00903095	
0.0820845	
0.0585256	
0.0615253	
0.0383878	
0.101242	
0.103131	
0.0913047	
0.0848046	
0.0933277	
0.0857288	
0.0530256	
0.271248	
0.26946	
0.264803	
0.270257	
0.101633	
0.105725	
0.0936829	
0.099256	
0.0975151	
0.100134	
0.0972539	
-0.0159428	
0.00119429	
-0.00717564	
0.00938979	
0.0267289	
0.0380744	
0.0180245	
0.00803548	
-0.0121749	
-0.00369061	
0.0041758	
0.0337805	
0.0197933	
0.0242089	
0.0123733	
0.00416109	
0.0202748	
0.00271588	
0.0121633	
-0.0104512	
-0.0177209	
-0.0136635	
-0.00478419	
0.027101	
0.0249693	
0.018608	
0.0106261	
-0.014656	
-0.010046	
-0.004238	
0.00243748	
0.0332764	
-0.0637296	
-0.0494013	
0.00433784	
0.0327595	
-0.0260644	
-0.0313062	
-0.00910864	
0.0297147	
0.0233778	
0.0028768	
-0.0519871	
0.00195088	
-0.0293884	
-0.0729648	
-0.0554699	
0.03102	
0.0154282	
-0.00515404	
-0.0670295	
-0.0423054	
-0.0179253	
0.0243495	
0.135307	
0.173688	
0.172046	
0.11568	
0.141515	
-0.0285207	
0.0729547	
0.141102	
0.0537564	
0.0951886	
0.127977	
0.0468509	
0.0380481	
0.117987	
0.119065	
0.0935821	
0.0947077	
0.0776361	
0.10316	
0.126353	
0.172562	
0.174616	
-0.0604066	
-0.0661896	
-0.0510473	
-0.0511348	
0.00184895	
0.023152	
0.0111788	
0.164299	
0.149908	
0.154168	
0.0459058	
0.161935	
0.153489	
0.170498	
0.171524	
0.168159	
0.161929	
0.169144	
0.169908	
-0.055206	
-0.041678	
0.144077	
0.149905	
0.135159	
0.159663	
0.158675	
0.164518	
0.157787	
0.146533	
0.146096	
0.169453	
0.154666	
0.173477	
0.175305	
0.102943	
0.109084	
0.128369	
0.174015	
0.175368	
-0.0389943	
-0.0215497	
0.00928077	
-0.00406817	
-0.0278679	
-0.00568779	
-0.0257955	
0.0565258	
0.0358524	
0.0785134	
0.0748136	
0.118281	
0.135987	
0.112017	
0.131071	
0.101731	
0.160639	
0.164632	
0.127113	
0.0932241	
-0.151931	
-0.0305338	
0.0318165	
0.0663903	
-0.025335	
0.0335748	
0.0457025	
-0.0297201	
0.0598242	
0.0334793	
-0.00251768	
-0.0054286	
0.00806587	
0.0350203	
0.0445362	
0.134926	
0.156052	
-0.15046	
-0.172244	
-0.125977	
-0.129519	
-0.109982	
-0.0924357	
-0.0830627	
0.084666	
0.11323	
0.0924429	
-0.0665494	
-0.0779052	
0.127616	
0.118962	
0.13949	
0.127811	
0.129248	
0.138741	
0.132268	
0.124576	
-0.159637	
-0.166752	
0.0722197	
0.0870548	
0.103317	
0.106279	
0.0831169	
0.0871201	
0.110515	
0.115732	
0.152443	
0.151223	
0.158989	
0.163373	
0.0463902	
0.0993576	
0.0721251	
0.163908	
0.15882	
-0.144919	
-0.143626	
-0.118882	
-0.113614	
-0.109248	
-0.143441	
-0.122126	
-0.018614	
-0.0645128	
-0.0360266	
-0.066162	
0.037422	
0.0696419	
0.0159294	
0.0695898	
0.0441788	
-0.0506778	
0.0711003	
0.165642	
0.218361	
0.212578	
0.211722	
0.191316	
0.207151	
0.196169	
0.185774	
0.207846	
0.201154	
0.205329	
0.19243	
0.200305	
0.195644	
0.17311	
0.155113	
0.174551	
0.184289	
0.179775	
0.213679	
0.174933	
0.205558	
0.204282	
0.1903	
0.210345	
0.197549	
0.205886	
0.0912759	
0.0978863	
-0.0960661	
-0.0183634	
0.202494	
0.170712	
0.213111	
0.156519	
0.192327	
0.0947172	
0.172802	
0.183481	
0.213032	
-0.208032	
0.175463	
0.208178	
0.188214	
0.194691	
0.110034	
0.102438	
0.147293	
0.100136	
0.131198	
-0.0044599	
-0.361881	
0.0181577	
0.117782	
0.125493	
-0.0710539	
-0.0278806	
0.0199427	
0.0494999	
-0.247932	
-0.328972	
-0.339192	
-0.344387	
-0.196662	
-0.00296517	
-0.011767	
-0.233228	
-0.267887	
-0.150653	
-0.00353188	
-0.260439	
-0.293848	
-0.33173	
-0.332923	
-0.165738	
0.00912938	
-0.0864074	
-0.345779	
-0.343983	
-0.0821449	
0.17594	
0.0896508	
0.170624	
-0.348361	
-0.0487765	
0.140931	
-0.035451	
-0.00705969	
0.15326	
-0.247124	
-0.0278583	
-0.0897027	
-0.133143	
-0.207057	
-0.0651558	
0.157695	
-0.0959625	
0.096003	
-0.100073	
0.11794	
0.0845383	
0.0281766	
0.0703594	
-0.241719	
-0.224318	
0.0813166	
-0.00627152	
-0.103832	
-0.039556	
-0.137576	
-0.102888	
-0.252279	
-0.075496	
-0.0775554	
-0.160249	
0.152138	
-0.154313	
-0.326926	
0.124931	
-0.32303	
-0.320634	
-0.00337255	
0.0549945	
-0.318624	
-0.123953	
-0.18046	
-0.139738	
0.197789	
0.111047	
0.120512	
0.120201	
0.05102	
0.0517187	
-0.0094242	
0.0416286	
-0.215453	
-0.138205	
0.170952	