<VTKFile type="UnstructuredGrid" version="0.1" byte_order="LittleEndian">
	<UnstructuredGrid>
		<Piece NumberOfPoints="3959" NumberOfCells="7450">
			<CellData Scalars="scalars">
				<DataArray type="Float64" Name="Doublet Strengths" NumberOfComponents="1" Format="ascii">
-0.0701947	
-0.0546827	
0.00164504	
0.0317979	
-0.0301562	
-0.0397288	
-0.0159377	
0.0269542	
0.0191627	
-0.00293313	
-0.0621981	
0.00377021	
-0.0267797	
-0.0691952	
-0.0522183	
0.0318905	
0.0192199	
-0.000396347	
-0.059259	
-0.0356754	
-0.0124325	
0.0269288	
0.135328	
0.172871	
0.171301	
0.113995	
0.134706	
-0.104611	
0.0358289	
0.122809	
0.034359	
0.0854061	
0.109282	
0.013399	
-0.00181985	
0.0921013	
0.0970486	
0.0656782	
0.0642839	
0.0621661	
0.0838689	
0.108592	
0.165006	
0.172054	
-0.0917274	
-0.102963	
-0.0996388	
-0.142419	
-0.0534427	
-0.0286805	
-0.0171748	
0.154611	
0.135917	
0.140552	
0.00343129	
0.152511	
0.148394	
0.16135	
0.164343	
0.15808	
0.16175	
0.160091	
0.16308	
-0.122457	
-0.16582	
0.125908	
0.132499	
0.114097	
0.145961	
0.145213	
0.158565	
0.150854	
0.134123	
0.135324	
0.167339	
0.153173	
0.17203	
0.172309	
0.0893374	
0.102291	
0.122918	
0.173253	
0.17285	
-0.084263	
-0.0848327	
-0.0365087	
-0.0394583	
-0.060141	
-0.0494065	
-0.0790836	
0.0336494	
0.00744659	
0.0548501	
0.0459784	
0.10037	
0.123437	
0.0975212	
0.119952	
0.105676	
0.16432	
0.167966	
0.129981	
0.100751	
-0.0805746	
0.00524341	
0.0541122	
0.0855764	
-0.00691606	
0.0479284	
0.0650977	
-0.00200504	
0.0814617	
0.0594192	
0.027245	
0.0218879	
0.0235136	
0.0535239	
0.0630589	
0.14461	
0.161369	
-0.106488	
-0.0865645	
-0.0989578	
-0.0971112	
-0.0675077	
-0.0434894	
-0.0572601	
0.100128	
0.125024	
0.107544	
-0.0262907	
-0.04047	
0.136128	
0.126608	
0.148641	
0.139535	
0.140286	
0.143235	
0.141421	
0.135689	
-0.0972024	
-0.0472967	
0.0912962	
0.10546	
0.118204	
0.121343	
0.0971667	
0.0997036	
0.122102	
0.125077	
0.15574	
0.156334	
0.164267	
0.167019	
0.0571422	
0.108344	
0.0804939	
0.167403	
0.163895	
-0.0860731	
-0.0946701	
-0.067232	
-0.0849684	
-0.0771383	
-0.102531	
-0.0820643	
0.00428261	
-0.0330505	
-0.0143972	
-0.0397662	
0.0527139	
0.0822942	
0.035358	
0.0836073	
-0.00308976	
-0.173656	
0.0320354	
0.169082	
0.217584	
0.209577	
0.20959	
0.192477	
0.204928	
0.194842	
0.185617	
0.207203	
0.201107	
0.202282	
0.185092	
0.19629	
0.19232	
0.171414	
0.164052	
0.172745	
0.181505	
0.177127	
0.210532	
0.176713	
0.200187	
0.200636	
0.186121	
0.205916	
0.19516	
0.206419	
0.115622	
0.108157	
-0.0321525	
0.0114381	
0.19833	
0.177027	
0.212206	
0.166049	
0.189142	
0.0613276	
0.179084	
0.18596	
0.209761	
-0.247944	
0.179637	
0.204404	
0.191157	
0.196448	
0.133839	
0.126365	
0.15864	
0.124348	
0.146097	
-0.0700259	
-0.273483	
-0.0381886	
0.0909617	
0.0991585	
-0.226705	
-0.106483	
-0.0344201	
0.00226652	
-0.361228	
-0.175412	
-0.218915	
-0.371225	
-0.215725	
-0.02575	
-0.0804387	
-0.29645	
-0.338711	
-0.198378	
-0.0667064	
-0.309932	
-0.347165	
-0.37983	
-0.386728	
-0.300183	
-0.0487113	
-0.139168	
-0.380245	
-0.369424	
-0.0944867	
0.165261	
0.103062	
0.155359	
-0.223372	
0.0102433	
0.119549	
0.0260123	
0.0212957	
0.132349	
-0.0848428	
0.0400391	
-0.10341	
-0.149139	
-0.293824	
-0.0321279	
0.13807	
-0.0525226	
0.0647714	
-0.0138019	
0.0886783	
0.0463598	
0.02875	
0.071671	
-0.278394	
-0.255647	
0.0583696	
0.0368147	
-0.0182508	
0.0276825	
-0.0776609	
-0.0247773	
-0.282722	
-0.124274	
-0.122545	
-0.0789804	
0.144683	
-0.0633728	
-0.150453	
0.104562	
-0.167355	
-0.175326	
0.0497888	
0.0830745	
-0.222666	
-0.136956	
-0.192337	
-0.0410156	
0.188926	
0.0884212	
0.091767	
0.091044	
0.0120371	
0.0121119	
-0.0190376	
0.0332526	
-0.296941	
-0.200917	
0.155895	
0.132681	
0.128699	
0.140155	
-0.0958491	
-0.0739573	
-0.0755344	
-0.0286585	
-0.0199885	
0.00875883	
0.165974	
0.0548958	
0.0857899	
0.174722	
0.170142	
0.0802088	
-0.242676	
0.191379	
0.1125	
-0.0533043	
-0.121241	
0.180615	
0.201027	
0.0585385	
0.154979	
-0.273372	
-0.187668	
0.115011	
0.111676	
0.127648	
0.0272589	
0.195569	
0.172403	
0.153396	
0.156364	
0.140591	
0.163157	
0.186929	
0.182854	
0.162108	
-0.0287069	
0.0399035	
0.147533	
0.163253	
0.149733	
0.181314	
0.191696	
0.0598789	
0.172002	
0.0820787	
0.0624264	
0.0536499	
0.0642976	
0.123049	
0.189519	
0.106924	
0.0808009	
0.0555807	
0.0628688	
0.117244	
0.119643	
0.137878	
0.137423	
0.0625269	
0.00900029	
0.02269	
-0.0272741	
0.190313	
0.208869	
0.190381	
0.183784	
0.195771	
0.0990315	
0.101826	
0.185408	
0.10786	
-0.20114	
0.0871108	
0.0197799	
0.073981	
0.0871913	
0.177022	
0.0261284	
-0.0964545	
-0.0662176	
0.0584017	
0.0599772	
0.0226789	
0.149669	
0.181802	
0.104659	
0.0986258	
0.187269	
0.146518	
0.0972088	
0.0401895	
0.0322407	
0.0646967	
0.0677576	
0.0166465	
0.144069	
0.14959	
-0.33324	
-0.291344	
-0.188456	
-0.148939	
-0.0864325	
0.120786	
0.112322	
0.132117	
0.164446	
0.15197	
0.128499	
0.184382	
-0.179163	
-0.188909	
-0.354594	
-0.324088	
0.050012	
-0.0848141	
0.0360886	
-0.321056	
-0.346959	
0.00250099	
-0.012243	
0.00997032	
0.000534118	
-0.105899	
-0.0663159	
-0.0584886	
-0.0132808	
0.0188592	
0.00103108	
0.0680755	
0.0883717	
0.109008	
-0.0109109	
-0.0417367	
-0.0108226	
-0.0288204	
-0.00947852	
0.034564	
0.11083	
0.113895	
0.0957012	
0.0271884	
0.0051646	
-0.0710357	
0.137643	
0.0991151	
0.018766	
0.00541389	
0.193823	
-0.209893	
0.0649598	
-0.0205072	
-0.0322386	
0.212686	
0.193138	
0.205085	
-0.209411	
-0.162352	
-0.10773	
0.000131431	
-0.119473	
-0.0694499	
0.200573	
0.186059	
0.142525	
0.118274	
0.0698148	
-0.0627591	
-0.13143	
-0.0844115	
0.17985	
0.0326309	
-0.381633	
-0.38457	
-0.38289	
-0.211072	
0.0622461	
0.00217981	
-0.00140183	
0.0156518	
0.0152432	
0.0263049	
-0.0108229	
0.124948	
0.120317	
-0.137815	
-0.0694854	
-0.191853	
-0.126242	
-0.0453758	
-0.160464	
-0.0712192	
0.0439085	
-0.258484	
-0.241059	
0.139503	
0.0650945	
0.110407	
-0.0356138	
-0.00193998	
0.15754	
0.158678	
0.140491	
0.157309	
0.145468	
0.0787956	
0.0564043	
0.14077	
0.0488543	
0.198466	
0.188384	
-0.111044	
-0.24287	
0.182608	
0.179512	
0.19011	
0.0209991	
0.191964	
0.203214	
0.189887	
0.199499	
0.208181	
0.193232	
-0.222565	
-0.251264	
0.20824	
0.190215	
0.195833	
0.183266	
-0.3509	
0.0405353	
0.0124794	
0.0260861	
0.19121	
0.174364	
0.159169	
0.181035	
0.066093	
0.0681829	
0.018424	
0.0216007	
0.133955	
-0.137922	
0.0317675	
0.0751546	
-0.0562643	
0.146046	
0.155213	
0.128593	
0.0954418	
0.2045	
0.0385901	
0.0842439	
-0.0204263	
-0.00693908	
0.107311	
0.131525	
0.139014	
0.051709	
-0.0620264	
-0.0375131	
-0.0189196	
0.0220991	
0.0576947	
0.0871876	
-0.0232078	
0.0386974	
-0.0163722	
0.198464	
0.183749	
0.0665976	
-0.00441135	
0.0893835	
0.148187	
-0.00113496	
-0.114009	
-0.00419388	
-0.116276	
0.106167	
-0.0352954	
-0.0390893	
-0.0237825	
0.123172	
0.0975173	
0.0939066	
0.0331105	
0.094313	
0.0555952	
0.00451501	
0.00814078	
0.0282427	
0.0242403	
0.0091021	
-0.0372658	
-0.0840691	
0.115682	
0.0376248	
0.0359877	
0.022975	
0.129944	
0.0278847	
-0.0096686	
0.0700334	
0.0812455	
0.108127	
-0.339077	
-0.00850971	
-0.0324637	
0.0591453	
0.0670606	
0.153419	
0.0954296	
0.0839574	
0.0755968	
-0.108745	
-0.0684089	
0.0400673	
0.0139806	
-0.0170631	
-0.0623479	
0.0999041	
0.0653775	
0.0583743	
0.0607629	
-0.0429441	
0.0289088	
-0.244341	
-0.227986	
-0.144492	
-0.131345	
0.146412	
-0.0417997	
-0.164193	
0.132084	
-0.0890836	
0.0275241	
-0.141733	
-0.213685	
-0.0674251	
-0.0352996	
0.0179429	
-0.015442	
-0.0961514	
-0.156024	
-0.0858834	
-0.0376756	
-0.0225631	
-0.00030432	
-0.144836	
0.133617	
0.0112	
0.0379956	
0.0758388	
-0.102796	
-0.0685366	
-0.082023	
-0.136489	
-0.210199	
0.124404	
0.112529	
-0.0192352	
0.0330883	
-0.109889	
-0.132576	
0.112841	
0.0390568	
0.0703546	
-0.0277303	
-0.0104169	
-0.116983	
-0.0780998	
-0.306212	
-0.343488	
0.0515945	
-0.243149	
0.0454679	
0.00789409	
-0.137754	
0.136706	
-0.0981143	
-0.0860951	
-0.00947714	
-0.0551084	
0.184593	
0.100062	
0.148191	
0.0849794	
0.105236	
0.205147	
0.193028	
-0.0484224	
-0.0409968	
0.0498553	
0.0670703	
-0.337741	
-0.132864	
-0.162472	
-0.37948	
-0.0154303	
0.0524801	
-0.0285627	
-0.0383937	
-0.134431	
-0.109459	
0.0373413	
-0.0106996	
0.00322849	
0.195772	
0.180535	
0.0656119	
0.00409864	
-0.0352356	
0.0890895	
0.120166	
0.0401708	
0.0713736	
0.0261631	
-0.0537181	
0.191898	
0.209532	
0.206801	
0.195066	
-0.193329	
0.186818	
0.165809	
-0.000480291	
-0.0908444	
0.0202457	
0.157421	
0.176398	
0.156135	
0.176026	
0.163525	
0.141007	
0.0649367	
0.0503493	
-0.000836689	
0.00466228	
0.118025	
0.124717	
-0.128808	
-0.360588	
-0.338114	
0.039407	
0.0273152	
0.199261	
0.181127	
0.214206	
0.198317	
0.151057	
0.119033	
-0.0699896	
0.111324	
0.142508	
0.126397	
0.142744	
0.144535	
0.162748	
0.157112	
0.136983	
-0.203951	
-0.226343	
0.177899	
0.163229	
0.09872	
0.058385	
0.144881	
0.143729	
0.20536	
0.192251	
-0.0306676	
-0.0896664	
-0.154637	
-0.0712449	
0.0187631	
0.104639	
0.0475681	
0.113393	
-0.0820807	
-0.0703443	
-0.248888	
0.114759	
0.111197	
0.168859	
0.192964	
-0.0691406	
0.0393477	
-0.0370825	
0.0193938	
-0.0485374	
-0.0111486	
0.0604488	
0.0622251	
0.111344	
-0.0259196	
-0.0266342	
-0.0349746	
-0.0397416	
0.204878	
0.17772	
0.180781	
-0.10038	
-0.147619	
0.0666833	
-0.00659527	
0.0608849	
-0.0379726	
0.0636206	
0.0545763	
-0.0825399	
-0.0911687	
0.0793557	
-0.00357295	
0.00433346	
-0.293619	
-0.00713391	
0.0383729	
0.0792016	
0.0823564	
-0.154002	
-0.165738	
-0.234791	
-0.015495	
0.0203098	
0.166012	
0.153466	
0.0102789	
0.0673559	
0.0891184	
0.0946344	
-0.000705511	
-0.0416618	
-0.0958003	
-0.0974266	
0.19458	
0.183403	
0.187509	
0.0601519	
0.0627726	
0.11386	
0.0575914	
-0.137422	
-0.134696	
-0.191536	
-0.0928538	
-0.0856729	
-0.014064	
0.1122	
0.113641	
0.0780286	
0.0394183	
-0.173906	
-0.174965	
-0.00759133	
-0.0266916	
-0.220645	
-0.194104	
-0.265749	
-0.116799	
0.17293	
0.157998	
0.133151	
0.192333	
0.211303	
-0.0712	
-0.0106974	
-0.0656091	
0.0667011	
0.111226	
0.0264456	
0.071834	
0.102303	
0.129442	
0.106088	
0.131937	
-0.0370351	
-0.0226331	
0.14515	
0.144032	
-0.157361	
-0.131301	
-0.199696	
0.186376	
0.193829	
0.185808	
0.142473	
0.107254	
0.159266	
0.111442	
0.156301	
0.0777858	
0.135128	
0.131962	
0.165884	
-0.05565	
-0.0454778	
-0.0477436	
0.139339	
-0.0563017	
-0.0757739	
-0.170029	
0.0560117	
0.0306582	
-0.237568	
-0.244725	
-0.0523515	
-0.059435	
0.120999	
0.0688464	
-0.129611	
-0.29395	
-0.258527	
0.177817	
0.176687	
0.161251	
0.175881	
0.17405	
0.0499024	
0.0914853	
0.03412	
0.0411558	
0.188122	
-0.0370396	
-0.198376	
-0.0410089	
0.0204662	
-0.016667	
-0.0244166	
0.0163378	
-0.339208	
0.0533934	
0.0626	
0.142544	
0.111232	
0.157394	
0.125357	
0.145669	
0.135845	
0.13104	
0.0256496	
0.0572696	
0.0499603	
0.0767094	
0.130534	
0.109444	
0.0300705	
0.142878	
0.156972	
0.109403	
0.126581	
0.116445	
0.140671	
0.117713	
0.114994	
0.0526396	
0.0550603	
0.129021	
0.110503	
0.118606	
0.0732127	
-0.0638638	
-0.0659187	
-0.0456066	
-0.0128972	
-0.0934274	
-0.0284593	
0.0761996	
0.057952	
0.105078	
0.158279	
0.124764	
0.138213	
0.086202	
0.0124419	
-0.00876255	
0.0575309	
-0.0149858	
0.0177514	
-0.0281036	
0.057583	
0.180477	
0.180311	
-0.316364	
-0.276949	
0.125375	
0.115962	
-0.00513211	
-0.0198987	
0.133312	
-0.0719545	
-0.0555498	
0.175532	
0.161978	
0.190703	
0.209047	
0.0620401	
0.0388865	
0.14191	
0.126023	
0.179103	
0.021244	
0.0613048	
0.12592	
0.0803141	
0.113284	
0.0852984	
0.111789	
0.208353	
0.031801	
0.0320447	
0.182929	
0.049866	
0.103718	
0.102262	
0.0323719	
0.0075889	
0.109412	
0.11572	
0.149698	
0.187367	
0.192623	
0.202091	
-0.203323	
0.124995	
0.0741737	
-0.0596953	
0.0328973	
0.0700505	
0.146748	
0.144549	
0.198109	
0.189825	
0.157514	
0.14886	
-0.201571	
-0.121838	
-0.0877191	
-0.104549	
0.0832509	
0.0642329	
0.071183	
-0.0887412	
-0.0601959	
-0.262814	
-0.0819749	
-0.0729128	
-0.130035	
-0.274076	
-0.213321	
-0.146362	
-0.135028	
-0.119136	
-0.100855	
0.147215	
0.135428	
0.0712362	
-0.062778	
-0.0518346	
-0.140198	
-0.140386	
-0.206421	
-0.203293	
-0.0534294	
-0.0715627	
-0.334581	
-0.0442202	
-0.192948	
0.0879306	
0.0920447	
0.0649084	
0.0668702	
0.172353	
0.17168	
-0.0490697	
-0.0917354	
-0.000211193	
-0.00350491	
0.0470271	
0.0275312	
0.0434028	
0.0265012	
-0.195868	
-0.221568	
-0.161838	
-0.0225341	
0.137288	
0.124551	
0.0617001	
0.0414203	
-0.242622	
-0.223858	
-0.0847623	
-0.187723	
-0.229898	
-0.209319	
-0.262034	
0.20221	
0.185732	
-0.0260422	
-0.0812966	
-0.0594251	
-0.0538103	
-0.0798361	
-0.186483	
-0.170241	
0.0582624	
0.0141871	
-0.156556	
-0.0477568	
-0.253936	
-0.244894	
-0.148927	
-0.129673	
-0.137036	
-0.124122	
-0.148409	
-0.146813	
-0.102201	
-0.101429	
0.148434	
0.0761049	
0.133182	
0.114561	
0.111714	
0.115431	
0.0816952	
-0.230947	
-0.186149	
-0.193572	
-0.204419	
-0.196732	
-0.260116	
-0.269164	
-0.315225	
-0.174835	
-0.114334	
-0.213019	
-0.187179	
-0.286257	
-0.330964	
-0.330557	
-0.366176	
-0.0352642	
-0.0378625	
-0.0399283	
-0.047652	
-0.209565	
-0.216405	
-0.168535	
-0.158646	
-0.125609	
-0.134614	
-0.0897632	
-0.305084	
-0.0316497	
-0.0165918	
-0.304918	
-0.262934	
-0.0135524	
-0.023433	
-0.0284888	
-0.1444	
-0.140304	
-0.0216573	
-0.0304354	
-0.074266	
-0.0814804	
-0.171566	
-0.163294	
0.090981	
0.0249381	
0.00493903	
-0.00571032	
0.0998779	
0.0520044	
-0.116807	
-0.092611	
-0.119294	
-0.0183151	
-0.280215	
-0.326569	
-0.0975206	
-0.113491	
0.198172	
0.124972	
0.211108	
0.182697	
-0.374966	
-0.368527	
0.0487343	
0.00545677	
-0.309439	
-0.275456	
-0.329018	
-0.295503	
-0.280689	
-0.291504	
-0.219325	
-0.189487	
-0.315968	
-0.355714	
-0.354976	
-0.349991	
-0.347716	
-0.180028	
-0.126166	
-0.100901	
-0.297155	
-0.323887	
-0.350857	
-0.240588	
0.190579	
0.159225	
0.21101	
0.194177	
-0.325031	
-0.296639	
-0.215116	
-0.203341	
-0.18985	
-0.00716961	
-0.00783296	
-0.296263	
-0.295769	
-0.330829	
-0.300372	
-0.32295	
-0.0587596	
-0.0694709	
-0.0819238	
-0.103919	
-0.213347	
-0.254769	
-0.214079	
-0.239952	
-0.268664	
-0.300483	
0.21024	
0.186115	
0.184346	
0.145345	
-0.248601	
-0.131463	
-0.119702	
-0.13249	
0.182166	
0.139673	
0.16228	
0.0827099	
-0.348301	
0.0819314	
0.125956	
0.114906	
0.135853	
-0.333213	
-0.352192	
-0.336323	
-0.340247	
-0.331676	
-0.337916	
-0.297306	
-0.109866	
-0.100156	
-0.0985971	
-0.0987206	
0.13988	
0.197475	
0.136479	
0.195139	
0.129128	
0.120099	
0.123078	
0.0736623	
-0.252121	
-0.272969	
-0.252049	
-0.237629	
-0.340802	
-0.355615	
-0.342257	
-0.348802	
0.0782658	
0.137221	
0.0824346	
0.138737	
0.16413	
0.13091	
0.151614	
0.0941655	
0.112342	
0.0884046	
0.111582	
0.0876608	
0.17423	
0.202563	
0.205966	
0.210807	
0.22178	
0.138878	
0.232321	
0.235352	
0.237402	
0.245433	
0.249764	
0.255142	
0.229554	
0.191377	
0.169557	
0.0446953	
0.25674	
-0.0111056	
-0.0067105	
-0.037559	
0.183408	
0.249701	
0.23506	
0.265871	
0.261915	
0.268652	
0.256533	
0.26333	
0.253824	
0.246273	
0.168564	
0.218154	
0.197001	
0.218316	
0.189028	
0.149378	
0.216947	
0.158611	
0.101688	
0.257422	
0.235755	
0.234725	
0.0943786	
-0.044243	
0.249253	
-0.0269824	
-0.0458796	
0.0111612	
0.0683244	
0.0400685	
-0.039844	
0.0381595	
-0.00102126	
0.0672358	
-0.058705	
0.0127279	
0.0631014	
0.0795408	
0.0357427	
-0.00700231	
-0.0486383	
0.207144	
-0.0304363	
0.175208	
0.100909	
0.105183	
0.0820185	
0.042897	
0.0493552	
0.0668202	
0.0767845	
0.0147468	
0.055347	
0.00847067	
0.034668	
0.0155479	
0.0293824	
0.0291649	
0.0423868	
0.0815654	
0.0472347	
0.0521089	
0.0627707	
0.0845836	
0.0408706	
-0.0276854	
-0.0305863	
0.0175521	
-0.00636927	
-0.0130395	
0.0300832	
0.0588873	
0.0535926	
8.37745e-05	
-0.0245585	
-0.0329475	
-0.0125938	
0.0294468	
-0.0659829	
-0.045174	
-0.0639441	
0.166629	
0.187212	
0.184122	
0.222278	
0.0101444	
0.0990252	
0.152677	
0.160059	
0.189165	
0.000319167	
0.150126	
0.127047	
-0.0578994	
-0.0385393	
-0.0304063	
0.129772	
-0.0312202	
0.143471	
-0.00355982	
0.203967	
0.208021	
-0.0690947	
0.0759052	
0.0397333	
0.00264607	
0.0734878	
0.015658	
0.245203	
0.228862	
0.222075	
-0.0498363	
0.0823269	
0.215716	
-0.0134451	
-0.016603	
0.207119	
0.22975	
0.00715488	
0.048629	
0.196026	
0.138732	
-0.061643	
-0.0496077	
0.108526	
-0.0224168	
-0.0173472	
-0.0075682	
-0.00124092	
0.251884	
0.207213	
0.211331	
0.127944	
0.163531	
0.2431	
0.273882	
0.254647	
0.0573065	
0.168418	
0.242895	
0.192969	
0.107691	
0.129461	
0.141267	
0.160036	
0.0057214	
0.118241	
0.0820316	
0.0963411	
0.0639786	
0.118728	
0.1167	
0.18761	
0.146743	
0.191677	
0.115103	
0.156093	
0.128416	
0.164648	
0.114044	
0.121444	
0.154069	
0.205692	
0.140032	
0.150546	
0.159333	
0.158906	
0.141355	
0.264874	
0.267271	
0.277981	
0.265471	
0.281263	
0.248325	
0.112613	
-0.024302	
0.0226944	
0.027958	
0.121606	
0.23066	
0.177019	
0.109896	
0.183055	
0.168748	
0.12186	
0.235314	
0.269673	
0.274955	
0.22885	
0.24841	
0.258577	
0.27753	
0.262965	
0.252658	
0.277322	
0.261023	
0.261579	
0.2706	
0.245242	
0.242513	
0.267783	
0.267529	
0.274621	
0.10368	
0.278744	
0.226886	
0.245006	
0.199627	
0.226179	
0.269	
0.270957	
0.274203	
0.204984	
0.196534	
0.22537	
0.208663	
0.21878	
0.218507	
0.196073	
-0.0463269	
-0.0514885	
0.23875	
0.225679	
0.251618	
0.228419	
0.202346	
0.182402	
0.200371	
0.257508	
0.231981	
0.231817	
0.24147	
0.166863	
0.210311	
0.0829533	
0.262448	
0.24858	
0.0932909	
0.186357	
0.162783	
0.232908	
0.124541	
0.129883	
0.203926	
0.147077	
0.27343	
0.133273	
0.131156	
0.159766	
0.222114	
0.193275	
0.180254	
0.267158	
0.0479048	
0.107382	
0.0414618	
0.0770149	
0.191816	
0.183182	
0.153283	
0.183557	
-0.0222142	
0.257689	
0.2399	
-0.00434064	
0.00553617	
-0.0192483	
0.000987746	
0.114202	
0.0863023	
0.158894	
0.162961	
0.186829	
0.149459	
0.18761	
0.00686768	
0.157385	
0.129439	
0.172367	
-0.0381537	
-0.0515776	
-0.0428189	
-0.0510429	
0.115269	
0.1119	
0.142664	
0.132558	
0.149984	
0.0862735	
0.0943458	
0.198692	
0.176464	
0.200658	
0.21263	
0.155022	
0.102117	
0.0899813	
0.0969501	
0.0700426	
0.280089	
0.169939	
0.198038	
0.150804	
0.1683	
0.116257	
0.145887	
0.114492	
0.155386	
0.140595	
0.0161607	
0.205557	
0.214057	
0.177225	
0.237492	
0.236119	
0.148543	
0.175315	
0.123081	
0.126885	
-0.0539022	
-0.0386085	
-0.0629492	
-0.0615894	
0.101135	
0.20585	
0.238517	
0.208561	
0.197242	
0.208856	
0.168873	
0.218728	
0.215789	
0.21443	
0.204317	
0.0460877	
0.104404	
0.264446	
0.240474	
0.267322	
0.202244	
0.192451	
0.265546	
0.266398	
0.230094	
0.243369	
0.258788	
0.201655	
0.228994	
0.171172	
0.176888	
0.186739	
0.247824	
0.234409	
0.248799	
0.221077	
0.263747	
0.229876	
0.250313	
-6.89617e-05	
0.18492	
0.196546	
0.163915	
0.238134	
0.239843	
0.231975	
0.226547	
0.24388	
0.254728	
0.106099	
0.135214	
0.12359	
0.140429	
-0.0542064	
0.215501	
0.180753	
0.184613	
0.113419	
0.14649	
0.150223	
0.171434	
0.156628	
0.165738	
-0.0441111	
-0.0328937	
-0.0480042	
-0.0304094	
0.243868	
0.205417	
0.243954	
0.209038	
0.0809405	
0.216264	
0.224069	
0.22176	
0.248228	
0.230538	
0.259709	
0.147752	
0.133213	
0.218626	
0.214141	
0.222452	
0.18305	
0.186844	
0.0242591	
0.0690294	
0.265035	
0.224959	
-0.0213195	
0.190195	
0.217992	
0.225668	
0.226969	
0.208872	
0.201499	
0.199151	
0.256685	
0.259368	
0.251779	
0.150356	
0.26166	
0.266133	
0.0568702	
0.081554	
0.0804646	
0.221354	
0.222308	
0.222855	
0.265194	
-0.0674916	
-0.0615927	
0.257416	
0.253001	
0.244298	
0.221388	
-0.0622779	
-0.0566602	
0.163505	
0.150671	
0.113427	
0.115388	
0.221338	
0.0727314	
0.0873737	
0.152467	
0.153249	
0.17095	
0.169272	
0.266545	
0.259925	
0.0018275	
0.0168501	
0.076516	
0.0425751	
0.10253	
0.106766	
0.135652	
0.180427	
0.178017	
0.16641	
0.159938	
0.274692	
0.261966	
0.235791	
0.25174	
0.266451	
0.0838773	
0.0774848	
0.205144	
0.203853	
0.189704	
0.189249	
0.0244803	
0.0452896	
0.266284	
0.266749	
0.206875	
0.204088	
0.145372	
0.107131	
0.154778	
0.100096	
0.224323	
0.230848	
0.206235	
0.207505	
0.212945	
0.211391	
0.20576	
0.189717	
0.266703	
0.268006	
0.251314	
0.171176	
0.172233	
0.198944	
0.195203	
0.161968	
0.168401	
0.237877	
0.24347	
0.158581	
0.175727	
0.262347	
0.266272	
0.183985	
0.227406	
0.235658	
0.216071	
0.185879	
0.224559	
0.270972	
0.264216	
0.242245	
0.242629	
0.234188	
0.2431	
0.129364	
0.187086	
0.1256	
0.264658	
0.275098	
0.262039	
0.256549	
0.0982943	
0.0697428	
0.073002	
0.0548682	
0.26264	
0.257188	
0.26685	
0.273428	
0.00511433	
0.257877	
0.267225	
0.263378	
0.256168	
0.125084	
0.163867	
0.267187	
0.275453	
0.266234	
0.118963	
0.131582	
0.13721	
0.145928	
0.196016	
0.192354	
0.186269	
0.189654	
0.269213	
0.166884	
0.163971	
0.214709	
0.214723	
-0.00790306	
-0.0168942	
0.24792	
0.262297	
0.262314	
0.19255	
-0.00887227	
0.232959	
0.229153	
0.240198	
0.241861	
0.177908	
0.269871	
0.268345	
0.0399015	
0.010553	
0.184683	
-0.0656428	
-0.0588411	
-0.0649897	
0.177188	
0.0653402	
0.0263153	
0.0503019	
0.0252656	
0.239716	
0.122729	
0.16333	
0.262963	
0.247682	
0.26358	
0.263566	
0.267027	
-0.00395565	
-0.0250036	
0.237124	
0.221388	
0.267574	
0.258605	
0.0214154	
0.182405	
0.167025	
0.135127	
0.204204	
0.17492	
0.225271	
0.217166	
0.129372	
0.122069	
0.264359	
0.273904	
0.0654098	
0.0541675	
0.24621	
0.254385	
0.267202	
0.266389	
0.27304	
0.266164	
-0.0588851	
-0.0614406	
0.0986966	
0.0984452	
0.0245258	
0.0165268	
0.00907032	
0.244765	
0.245942	
0.218521	
0.229442	
0.211848	
0.218757	
0.27301	
0.19583	
0.259162	
0.24482	
0.239661	
0.124976	
0.0687942	
0.270801	
0.262517	
-0.0368875	
-0.00604158	
0.0110322	
0.0637487	
0.213196	
0.143001	
0.247239	
0.240776	
0.0589903	
0.0818779	
0.0354353	
0.244082	
0.158581	
0.162345	
0.254286	
0.252638	
0.0916567	
0.0721782	
-0.0139502	
-0.0157606	
0.197013	
0.200817	
0.183513	
0.192434	
0.240904	
0.204989	
0.180333	
0.225957	
0.218952	
0.198805	
0.00956677	
0.0569122	
0.0505558	
0.129242	
0.0727427	
0.181514	
0.211771	
0.261003	
0.0991408	
0.0994868	
0.209731	
0.198121	
0.25158	
0.125172	
0.126717	
0.0947666	
0.0318802	
0.0170836	
0.0444043	
0.0162906	
0.0427469	
0.163645	
0.194681	
0.191586	
0.217511	
0.0709267	
0.055143	
0.0940303	
0.0779718	
0.164612	
0.16357	
0.176714	
0.174017	
0.164242	
0.179751	
0.179898	
-0.0690765	
-0.0243368	
-0.0633816	
-0.0490153	
-0.0279537	
0.13131	
0.134381	
-0.064639	
0.110673	
0.122548	
0.0930737	
0.125552	
0.113043	
0.0328055	
-0.0394589	
0.0745497	
0.135087	
-0.06899	
0.110919	
-0.0628594	
-0.0692561	
-0.0682263	
0.0349507	
0.0709041	
0.26196	
0.238358	
0.266315	
0.24045	
0.268128	
0.268101	
0.134553	
0.0869861	
0.275265	
0.263235	
0.148139	
0.192761	
0.143025	
0.189671	
0.0445506	
0.0603249	
0.210782	
0.0918861	
0.0857161	
-0.0651632	
0.170043	
0.0890876	
0.0891303	
0.0542867	
0.177889	
0.258561	
0.268268	
0.191003	
0.0176784	
0.0114089	
0.164524	
0.193932	
0.227117	
0.21786	
-0.0521377	
-0.0380694	
0.268496	
0.26341	
0.249011	
-0.0357729	
0.265298	
0.184161	
0.186415	
0.20337	
0.192709	
0.129318	
0.0819457	
0.268679	
0.255253	
0.166455	
0.169233	
0.233684	
0.244757	
0.213605	
0.0552504	
0.067061	
0.232627	
0.258189	
0.231176	
0.0797015	
0.204244	
0.208318	
0.121978	
0.21584	
0.247517	
-0.0696962	
0.219284	
0.216789	
0.209678	
0.263344	
0.246888	
0.138168	
0.267622	
0.13681	
0.166259	
0.141343	
0.143633	
0.116479	
0.275318	
0.249186	
0.264334	
0.275769	
0.264702	
0.265059	
0.247918	
0.250093	
0.243692	
0.240439	
0.200103	
0.217631	
0.256313	
0.251133	
0.0723753	
0.0480096	
0.240625	
0.253634	
0.271293	
0.251885	
0.270104	
0.0614041	
0.0721873	
0.0696464	
0.0908318	
0.268483	
0.262795	
0.20024	
0.222357	
0.219771	
0.139754	
0.140141	
-0.0661471	
-0.0632337	
0.129413	
0.114572	
0.111354	
0.113031	
0.109781	
0.109464	
0.0846805	
0.259418	
-0.0534092	
-0.0541266	
-0.0686409	
-0.0703192	
0.21013	
0.15964	
0.158684	
0.24957	
-0.0710384	
-0.0662818	
-0.0492779	
-0.0529477	
-0.0681069	
-0.0686576	
0.214688	
0.21631	
0.206115	
0.20267	
-0.0297403	
-0.012291	
-0.036703	
-0.0210229	
0.119795	
0.123012	
0.0945773	
0.192722	
0.218443	
0.253343	
0.241359	
0.247903	
0.250259	
0.250212	
0.238935	
0.226909	
0.235017	
0.205407	
0.199829	
0.223022	
0.218468	
0.101668	
0.0910544	
0.101498	
0.0392764	
-0.00532737	
0.098908	
0.0666383	
-0.0587703	
-0.0407923	
-0.065802	
0.0712732	
0.170689	
0.118407	
0.115247	
0.0583132	
0.0442336	
-0.0244344	
-0.0446693	
0.225225	
0.224538	
0.0594468	
0.105283	
0.087609	
0.249938	
0.256017	
0.238727	
0.244428	
0.259938	
0.227062	
0.224751	
0.0835435	
0.0707917	
0.121007	
0.101817	
0.127695	
0.117922	
-0.00394135	
0.0214593	
0.102187	
0.106585	
0.170902	
0.173556	
0.120364	
0.110045	
0.0850166	
0.0818806	
0.175904	
0.173184	
0.160911	
0.125104	
0.160017	
0.166396	
0.232331	
0.245628	
0.158508	
0.148577	
0.121806	
0.164376	
0.188663	
-0.0216794	
0.0272857	
-0.0287606	
0.248571	
0.247872	
0.230307	
0.215129	
0.181593	
0.16019	
0.179168	
0.177697	
-0.0367395	
-0.042303	
-0.0561489	
-0.0586685	
0.0459137	
0.0721433	
0.0847149	
0.1674	
0.143854	
0.180545	
0.186155	
0.205257	
0.182935	
0.254074	
0.249425	
0.224943	
0.234084	
0.233523	
0.234451	
-0.0477838	
-0.0535423	
-0.0348538	
-0.0399869	
0.175267	
0.154009	
0.16689	
0.165908	
0.0323631	
0.0911258	
0.0891921	
0.0806524	
0.0853931	
0.243864	
0.257408	
0.0536505	
0.0235695	
0.261639	
0.26026	
0.247038	
0.263178	
0.259145	
0.261707	
0.0124629	
0.237052	
0.235475	
0.195415	
0.0899177	
0.0792863	
0.0652116	
0.0692721	
0.140316	
0.144882	
0.226994	
0.246782	
0.256571	
0.258463	
0.173754	
0.168802	
0.0837888	
0.0927197	
0.231625	
0.222695	
0.0564609	
0.0739869	
0.123156	
0.103402	
0.127903	
0.148725	
0.105238	
0.116034	
0.11617	
0.0781146	
0.0141142	
0.0413753	
0.0943585	
0.0760789	
0.250394	
0.267514	
-0.0173501	
0.138086	
0.110737	
0.261199	
0.259318	
0.058546	
0.0666368	
0.0987401	
0.0744183	
0.0801053	
0.0831305	
0.024083	
0.0537877	
0.0853542	
0.0737744	
0.13309	
0.123165	
0.0713707	
0.0475073	
0.0859869	
0.0577562	
0.221729	
0.223471	
0.164674	
0.179636	
0.144482	
0.135104	
0.0400563	
0.00931909	
-0.0488295	
1.26631e-05	
0.0158682	
0.0181855	
-0.00849027	
0.161944	
-0.0217772	
0.135661	
0.137363	
-0.0178792	
-0.0446659	
-0.0355	
-0.043904	
0.110261	
0.117886	
0.0401924	
0.0380272	
0.0341342	
0.186348	
0.158464	
0.264677	
0.259676	
0.101476	
0.0816486	
0.0719707	
0.0699242	
0.082289	
0.122784	
0.119626	
0.145477	
0.14491	
0.0586159	
0.0613881	
0.016532	
0.00726209	
0.0818782	
0.0583423	
0.0613	
0.0381918	
0.0957701	
0.0978007	
0.0859503	
0.0794129	
0.0881996	
0.0856882	
0.0530112	
0.271094	
0.268417	
0.264777	
0.269339	
0.0962341	
0.100582	
0.0883655	
0.0938039	
0.0921142	
0.0946929	
0.0917585	
-0.0157865	
0.00140963	
-0.00697836	
0.00963249	
0.0269407	
0.0382455	
0.0182579	
0.0081287	
-0.0119933	
-0.00347918	
0.00442597	
0.0339232	
0.0200333	
0.024422	
0.0126262	
0.004284	
0.0204902	
0.00295403	
0.0123973	
-0.0102764	
-0.0176041	
-0.0135245	
-0.00457495	
0.0272797	
0.0251823	
0.0188496	
0.0108798	
-0.0145067	
-0.00986573	
-0.00401955	
0.00268727	
0.0334177	
-0.064445	
-0.0502593	
0.00366002	
0.0322695	
-0.0268774	
-0.0318366	
-0.00954513	
0.0293651	
0.0230627	
0.00243922	
-0.0525301	
0.000823216	
-0.0307158	
-0.0742085	
-0.0568682	
0.0303829	
0.0145132	
-0.00637542	
-0.06854	
-0.0437819	
-0.0193275	
0.0236032	
0.136262	
0.174933	
0.173291	
0.116406	
0.142636	
-0.0259369	
0.0754634	
0.143117	
0.0551332	
0.0961846	
0.129904	
0.0489176	
0.0403064	
0.120314	
0.121129	
0.095801	
0.0970925	
0.0789412	
0.104933	
0.128219	
0.174144	
0.175965	
-0.0599346	
-0.0657127	
-0.0498202	
-0.0489725	
0.00434689	
0.0258234	
0.0125774	
0.165845	
0.151678	
0.155955	
0.0483905	
0.163457	
0.15464	
0.172157	
0.173128	
0.169865	
0.163045	
0.170771	
0.171365	
-0.0537136	
-0.0391466	
0.14612	
0.151941	
0.137319	
0.161535	
0.160531	
0.165833	
0.159082	
0.148145	
0.147575	
0.170705	
0.155763	
0.174738	
0.176683	
0.104338	
0.109954	
0.12931	
0.17527	
0.176727	
-0.0376062	
-0.0191547	
0.0114605	
-0.00252077	
-0.0268406	
-0.0037991	
-0.0238984	
0.0581155	
0.0375385	
0.0803559	
0.0768812	
0.120092	
0.137522	
0.113525	
0.132458	
0.102082	
0.161568	
0.165524	
0.127878	
0.0932845	
-0.155858	
-0.0328309	
0.0305577	
0.0655459	
-0.0268297	
0.0328323	
0.0446885	
-0.0316798	
0.0587623	
0.0320263	
-0.00436889	
-0.00717957	
0.00701109	
0.0339946	
0.0435855	
0.135169	
0.156814	
-0.153498	
-0.176156	
-0.128169	
-0.131563	
-0.112972	
-0.0956062	
-0.0852861	
0.084224	
0.113258	
0.0920266	
-0.0692555	
-0.0805787	
0.128048	
0.119364	
0.139771	
0.127829	
0.1293	
0.139553	
0.132555	
0.124657	
-0.162939	
-0.170772	
0.0713819	
0.0863423	
0.102951	
0.105905	
0.0827854	
0.0869252	
0.110599	
0.116019	
0.153417	
0.1521	
0.159698	
0.164207	
0.0459109	
0.099419	
0.0719593	
0.16482	
0.15957	
-0.148507	
-0.146903	
-0.122203	
-0.116086	
-0.111868	
-0.146511	
-0.125109	
-0.0203664	
-0.0668794	
-0.0378372	
-0.068326	
0.0365843	
0.0692654	
0.0146711	
0.069119	
0.0468509	
-0.0477827	
0.0736633	
0.166327	
0.218806	
0.213179	
0.212267	
0.191876	
0.207769	
0.196822	
0.186431	
0.208356	
0.201689	
0.205955	
0.193486	
0.201146	
0.196453	
0.174374	
0.155819	
0.175766	
0.185284	
0.180974	
0.214363	
0.175601	
0.206446	
0.205066	
0.191269	
0.211143	
0.198222	
0.20634	
0.0916606	
0.0979998	
-0.0947368	
-0.0177654	
0.20334	
0.1712	
0.213614	
0.15711	
0.193171	
0.0972013	
0.173238	
0.184027	
0.213653	
-0.204719	
0.176034	
0.208943	
0.188629	
0.195152	
0.110587	
0.102886	
0.147823	
0.100558	
0.131657	
-0.00161214	
-0.357323	
0.0211396	
0.12011	
0.127747	
-0.0675771	
-0.0250652	
0.0226625	
0.0523006	
-0.244105	
-0.324977	
-0.335136	
-0.340419	
-0.194017	
-0.000810867	
-0.00874769	
-0.229539	
-0.264052	
-0.14728	
-0.000449647	
-0.256662	
-0.28988	
-0.327621	
-0.328744	
-0.162214	
0.0121256	
-0.0834719	
-0.341895	
-0.340297	
-0.0800478	
0.177376	
0.0898295	
0.172139	
-0.34422	
-0.04767	
0.143022	
-0.0343236	
-0.00507086	
0.15506	
-0.244169	
-0.0265256	
-0.0875248	
-0.130772	
-0.203559	
-0.062752	
0.159538	
-0.0949536	
0.0981276	
-0.0984747	
0.120254	
0.0870791	
0.0296993	
0.0716258	
-0.238377	
-0.221217	
0.0833279	
-0.00547758	
-0.102228	
-0.0382758	
-0.135095	
-0.10142	
-0.249023	
-0.0726089	
-0.0745784	
-0.15772	
0.153169	
-0.152264	
-0.323158	
0.126688	
-0.319314	
-0.316865	
-0.00242073	
0.0554504	
-0.314678	
-0.121709	
-0.178081	
-0.137643	
0.198859	
0.112919	
0.122689	
0.122404	
0.0533784	
0.0541314	
-0.00761648	
0.0432262	
-0.211912	
-0.135055	
0.172487	