<VTKFile type="UnstructuredGrid" version="0.1" byte_order="LittleEndian">
	<UnstructuredGrid>
		<Piece NumberOfPoints="3959" NumberOfCells="7450">
			<CellData Scalars="scalars">
				<DataArray type="Float64" Name="Doublet Strengths" NumberOfComponents="1" Format="ascii">
-0.0703471	
-0.0551433	
0.00118055	
0.0313918	
-0.0306867	
-0.0404252	
-0.0165911	
0.0264287	
0.0185608	
-0.0035585	
-0.0626831	
0.00358012	
-0.0269501	
-0.0688655	
-0.0522086	
0.031613	
0.0191955	
-0.000401252	
-0.0588425	
-0.035505	
-0.01239	
0.0267983	
0.134506	
0.171854	
0.170259	
0.11314	
0.133256	
-0.107371	
0.0331528	
0.120607	
0.0326436	
0.0840432	
0.107035	
0.0110439	
-0.00428726	
0.0895772	
0.0947088	
0.0632027	
0.0616893	
0.0605202	
0.0817433	
0.106402	
0.163394	
0.170847	
-0.0925169	
-0.103694	
-0.101144	
-0.144801	
-0.0560732	
-0.0314551	
-0.0189319	
0.152819	
0.133911	
0.138581	
0.000784317	
0.150748	
0.147027	
0.159648	
0.162811	
0.156346	
0.160796	
0.158369	
0.161514	
-0.124186	
-0.168682	
0.123703	
0.130339	
0.111773	
0.144005	
0.143269	
0.157079	
0.149314	
0.132223	
0.133542	
0.16618	
0.15213	
0.170985	
0.171116	
0.0876124	
0.101062	
0.121656	
0.172218	
0.171664	
-0.0859928	
-0.0873738	
-0.038888	
-0.0413199	
-0.0615995	
-0.0515497	
-0.0812421	
0.0316742	
0.00538988	
0.0526418	
0.0435934	
0.0982234	
0.121575	
0.0956317	
0.118228	
0.105394	
0.16378	
0.167394	
0.129476	
0.100903	
-0.0764457	
0.00797487	
0.0558062	
0.0868808	
-0.00529021	
0.0489933	
0.0665511	
0.00033209	
0.0829426	
0.0613146	
0.0295553	
0.0240882	
0.0247425	
0.0549668	
0.0644659	
0.144797	
0.161011	
-0.103682	
-0.0827532	
-0.0970382	
-0.0951873	
-0.0642215	
-0.0399643	
-0.0550093	
0.101087	
0.125519	
0.108425	
-0.0231964	
-0.0374675	
0.136225	
0.126661	
0.148745	
0.139921	
0.140615	
0.142845	
0.141568	
0.136054	
-0.0941298	
-0.0431114	
0.0925515	
0.106563	
0.11899	
0.122118	
0.0980193	
0.100411	
0.122596	
0.125311	
0.155178	
0.155963	
0.163907	
0.166501	
0.0577916	
0.108613	
0.0807964	
0.16684	
0.163509	
-0.082208	
-0.0912536	
-0.0635746	
-0.0827386	
-0.0744763	
-0.0996685	
-0.0789061	
0.00628998	
-0.0303722	
-0.0124461	
-0.0374087	
0.0538602	
0.0830833	
0.0369496	
0.0845266	
-0.00596052	
-0.176899	
0.0292581	
0.167761	
0.216049	
0.207828	
0.207982	
0.191084	
0.203283	
0.193192	
0.183961	
0.205755	
0.199601	
0.200533	
0.183478	
0.194617	
0.190886	
0.170358	
0.163071	
0.171686	
0.180369	
0.17598	
0.208745	
0.175245	
0.198273	
0.198857	
0.184862	
0.204059	
0.19347	
0.205077	
0.11548	
0.108094	
-0.0322047	
0.0113396	
0.196548	
0.176113	
0.210759	
0.165241	
0.187893	
0.0585957	
0.178306	
0.184704	
0.207995	
-0.250718	
0.178535	
0.202607	
0.190115	
0.195249	
0.133399	
0.126106	
0.157935	
0.124136	
0.145644	
-0.0730297	
-0.275341	
-0.0412992	
0.0883867	
0.096639	
-0.230221	
-0.109508	
-0.0373189	
-0.000761965	
-0.364014	
-0.176514	
-0.220267	
-0.373747	
-0.218628	
-0.0285369	
-0.0836141	
-0.299295	
-0.341561	
-0.201286	
-0.0699548	
-0.312677	
-0.34985	
-0.382225	
-0.389216	
-0.303711	
-0.0519004	
-0.141796	
-0.382733	
-0.372146	
-0.0973458	
0.163601	
0.103013	
0.153276	
-0.224846	
0.0100411	
0.117227	
0.0258309	
0.0198222	
0.13001	
-0.0851003	
0.0396201	
-0.106278	
-0.151992	
-0.296572	
-0.0337747	
0.135882	
-0.0525915	
0.0616424	
-0.0141743	
0.0860915	
0.043605	
0.0263392	
0.0695258	
-0.281123	
-0.258437	
0.0557232	
0.0366945	
-0.0186898	
0.0272988	
-0.0790885	
-0.0249291	
-0.28548	
-0.126983	
-0.125366	
-0.0803511	
0.142562	
-0.064151	
-0.151324	
0.102023	
-0.168456	
-0.176537	
0.0496226	
0.0829557	
-0.224405	
-0.139909	
-0.195415	
-0.0410596	
0.186817	
0.0858219	
0.0890277	
0.0883522	
0.00880779	
0.00877875	
-0.0217366	
0.0307112	
-0.299586	
-0.20356	
0.1539	
0.130387	
0.128084	
0.139676	
-0.0987579	
-0.0751167	
-0.0768345	
-0.0313423	
-0.0202306	
0.00853306	
0.164451	
0.0528573	
0.0834662	
0.172853	
0.168166	
0.0778761	
-0.24578	
0.189381	
0.110073	
-0.0547422	
-0.122809	
0.178855	
0.199537	
0.0566887	
0.153578	
-0.276593	
-0.1908	
0.114876	
0.111497	
0.125522	
0.0246731	
0.194299	
0.170824	
0.151484	
0.154521	
0.13849	
0.161682	
0.18577	
0.181825	
0.160823	
-0.0313633	
0.0385354	
0.14657	
0.162481	
0.147696	
0.179826	
0.189638	
0.0575889	
0.170223	
0.0819953	
0.0623137	
0.0535382	
0.0617068	
0.120581	
0.187391	
0.106861	
0.0807055	
0.0554465	
0.0627281	
0.11697	
0.119426	
0.137295	
0.136265	
0.0611766	
0.00743692	
0.0220776	
-0.0274926	
0.188241	
0.207335	
0.188956	
0.182244	
0.19394	
0.0989809	
0.101764	
0.183552	
0.10562	
-0.20376	
0.0857438	
0.018437	
0.071606	
0.0848892	
0.175178	
0.0260159	
-0.0996517	
-0.0692681	
0.0578932	
0.0595011	
0.022123	
0.149071	
0.179621	
0.102172	
0.0961	
0.18511	
0.143941	
0.0947366	
0.0375724	
0.0295654	
0.0620499	
0.0651202	
0.013869	
0.142027	
0.147631	
-0.336332	
-0.294564	
-0.191272	
-0.151742	
-0.0891676	
0.118477	
0.109936	
0.129936	
0.162748	
0.149994	
0.126252	
0.18252	
-0.182083	
-0.191829	
-0.357243	
-0.326946	
0.0471785	
-0.0876996	
0.0335337	
-0.324016	
-0.350012	
0.00237748	
-0.0123618	
0.0098557	
0.00042619	
-0.108815	
-0.0691136	
-0.0613355	
-0.0146328	
0.0179518	
-0.00236264	
0.0651232	
0.0854338	
0.108772	
-0.0111081	
-0.0419341	
-0.0109928	
-0.0293108	
-0.0100377	
0.0339426	
0.110349	
0.111527	
0.0931654	
0.0244467	
0.00239212	
-0.0730635	
0.135584	
0.096834	
0.0186602	
0.00530624	
0.191781	
-0.212737	
0.0625412	
-0.0206061	
-0.0323279	
0.211022	
0.191089	
0.203182	
-0.21261	
-0.165495	
-0.110535	
-0.00159816	
-0.121534	
-0.0714074	
0.199017	
0.184327	
0.140164	
0.115814	
0.0666675	
-0.063436	
-0.134214	
-0.0870129	
0.179004	
0.0299914	
-0.384401	
-0.387224	
-0.385516	
-0.213851	
0.0606819	
0.000380149	
-0.00324985	
0.0155507	
0.0151365	
0.0237188	
-0.0135388	
0.124691	
0.119985	
-0.139443	
-0.0710117	
-0.193561	
-0.12909	
-0.0482346	
-0.163338	
-0.074117	
0.0426773	
-0.261359	
-0.243917	
0.13703	
0.0621872	
0.10767	
-0.0392141	
-0.00287141	
0.155773	
0.156964	
0.138314	
0.155363	
0.143142	
0.0762149	
0.0537937	
0.138415	
0.0462312	
0.19659	
0.186301	
-0.113803	
-0.245996	
0.181519	
0.178231	
0.188143	
0.0194398	
0.189926	
0.201338	
0.187788	
0.19758	
0.20639	
0.19125	
-0.225595	
-0.25427	
0.206642	
0.188407	
0.194107	
0.181414	
-0.35361	
0.0377456	
0.00954898	
0.0232036	
0.189984	
0.17291	
0.157745	
0.179896	
0.0632625	
0.0654169	
0.0153607	
0.0186313	
0.132472	
-0.140322	
0.0292899	
0.0728535	
-0.0590235	
0.144897	
0.154167	
0.126258	
0.0929141	
0.202537	
0.0364507	
0.0823114	
-0.0227886	
-0.00930872	
0.104861	
0.129322	
0.136617	
0.0490023	
-0.0647384	
-0.0402194	
-0.021592	
0.0194383	
0.055228	
0.0848934	
-0.0259485	
0.036171	
-0.0199832	
0.197001	
0.182084	
0.0665578	
-0.00702069	
0.0870757	
0.147702	
-0.0037385	
-0.116808	
-0.00681638	
-0.119084	
0.103923	
-0.0353964	
-0.0392485	
-0.0239062	
0.122785	
0.0950053	
0.0913187	
0.0330125	
0.0942559	
0.0555063	
0.00435783	
0.00800314	
0.0281101	
0.0229616	
0.00773861	
-0.038687	
-0.0856109	
0.115479	
0.0375231	
0.0358399	
0.0228105	
0.128876	
0.0264854	
-0.0122884	
0.0676296	
0.0788797	
0.105911	
-0.341708	
-0.0099234	
-0.0339298	
0.0579248	
0.0658836	
0.151544	
0.0929357	
0.0813767	
0.0729492	
-0.111418	
-0.0708955	
0.0373899	
0.0112094	
-0.0198639	
-0.0652093	
0.0969098	
0.0646243	
0.0575828	
0.0598305	
-0.0457871	
0.0286866	
-0.247221	
-0.230811	
-0.147406	
-0.134238	
0.144417	
-0.0444891	
-0.167037	
0.129451	
-0.0916342	
0.0266678	
-0.143726	
-0.215803	
-0.067838	
-0.0357178	
0.0163055	
-0.0171557	
-0.0980706	
-0.158412	
-0.0880486	
-0.0397917	
-0.0236148	
-0.00131028	
-0.147455	
0.131374	
0.00908786	
0.0360179	
0.0743719	
-0.105651	
-0.0712612	
-0.0847397	
-0.139352	
-0.213263	
0.121686	
0.109673	
-0.0205553	
0.0319438	
-0.111719	
-0.134416	
0.11069	
0.0373004	
0.0686926	
-0.0297212	
-0.0123869	
-0.119185	
-0.0802042	
-0.308995	
-0.346288	
0.0488541	
-0.246044	
0.0451365	
0.00514226	
-0.140476	
0.13431	
-0.0988213	
-0.0876693	
-0.012184	
-0.0578504	
0.18338	
0.0975773	
0.146166	
0.0823996	
0.102769	
0.203289	
0.190988	
-0.0511558	
-0.0437234	
0.0473868	
0.0646766	
-0.340527	
-0.135345	
-0.164991	
-0.382343	
-0.0179307	
0.0502474	
-0.0313022	
-0.0411657	
-0.137399	
-0.112371	
0.0339626	
-0.0108091	
0.00312085	
0.194087	
0.17873	
0.0647178	
0.00297001	
-0.036501	
0.0867418	
0.117969	
0.0392169	
0.0709592	
0.025648	
-0.0543338	
0.189926	
0.207766	
0.204918	
0.193039	
-0.194876	
0.185556	
0.164315	
-0.00249285	
-0.0911655	
0.0177217	
0.156245	
0.175399	
0.154786	
0.174874	
0.162852	
0.140105	
0.0645563	
0.0499159	
-0.00132233	
0.00415581	
0.11767	
0.124393	
-0.130329	
-0.363175	
-0.340773	
0.0393076	
0.027212	
0.197691	
0.179353	
0.212576	
0.196492	
0.148967	
0.116733	
-0.0724681	
0.1088	
0.140143	
0.125845	
0.142365	
0.143493	
0.161855	
0.156455	
0.136092	
-0.206683	
-0.229066	
0.177055	
0.162207	
0.0973916	
0.0568538	
0.143691	
0.142468	
0.203465	
0.190191	
-0.0334362	
-0.092583	
-0.15774	
-0.0726358	
0.0159827	
0.102153	
0.044894	
0.112795	
-0.0854292	
-0.073696	
-0.251687	
0.114583	
0.111003	
0.167116	
0.191465	
-0.0720793	
0.03732	
-0.0394015	
0.0172663	
-0.0508916	
-0.0138515	
0.0580226	
0.0597703	
0.109212	
-0.0266087	
-0.0272846	
-0.03785	
-0.0426307	
0.203011	
0.176335	
0.179548	
-0.103198	
-0.150428	
0.0645678	
-0.0090348	
0.0587942	
-0.0405055	
0.0620189	
0.0529625	
-0.0829708	
-0.0915303	
0.0762894	
-0.00442356	
0.00362223	
-0.296509	
-0.00837195	
0.0373038	
0.0774187	
0.0805646	
-0.156807	
-0.168565	
-0.237553	
-0.019082	
0.0195746	
0.164802	
0.152112	
0.00833525	
0.0656361	
0.0871696	
0.0926803	
-0.00337598	
-0.0443499	
-0.098399	
-0.100036	
0.192889	
0.181941	
0.186234	
0.0600613	
0.0626046	
0.113766	
0.0573319	
-0.139147	
-0.136371	
-0.193286	
-0.0945033	
-0.0873535	
-0.0155732	
0.112076	
0.11355	
0.077861	
0.0391472	
-0.17737	
-0.178453	
-0.0105721	
-0.0299601	
-0.222507	
-0.19594	
-0.267719	
-0.118213	
0.171622	
0.156237	
0.130789	
0.190336	
0.209581	
-0.0740467	
-0.0134252	
-0.0684989	
0.0642496	
0.109079	
0.0238557	
0.0694396	
0.0998207	
0.127214	
0.103636	
0.129755	
-0.0371018	
-0.0227485	
0.142738	
0.141627	
-0.160169	
-0.134154	
-0.202707	
0.184641	
0.192229	
0.183918	
0.13988	
0.104358	
0.156892	
0.108558	
0.154179	
0.0766023	
0.134123	
0.130987	
0.165212	
-0.0557102	
-0.0455766	
-0.0478784	
0.137011	
-0.0565022	
-0.0759618	
-0.173641	
0.0557273	
0.0303238	
-0.240532	
-0.247469	
-0.0524358	
-0.0595494	
0.118468	
0.0661407	
-0.130249	
-0.297099	
-0.261632	
0.176737	
0.175332	
0.159542	
0.174714	
0.172686	
0.0472422	
0.0889015	
0.0307595	
0.0378812	
0.185986	
-0.0397578	
-0.200308	
-0.0410637	
0.0194096	
-0.0177927	
-0.0259129	
0.014964	
-0.342068	
0.0522627	
0.0614807	
0.141771	
0.110974	
0.156812	
0.124494	
0.143258	
0.133435	
0.130352	
0.0253988	
0.0570797	
0.0497252	
0.0765133	
0.130146	
0.108893	
0.0272444	
0.140237	
0.154526	
0.106502	
0.123785	
0.113505	
0.137991	
0.117511	
0.114736	
0.0522824	
0.0546938	
0.128712	
0.11003	
0.118141	
0.0726272	
-0.0640024	
-0.0660392	
-0.0487316	
-0.0158766	
-0.0966929	
-0.0314739	
0.0736174	
0.0553105	
0.102587	
0.157784	
0.123979	
0.137462	
0.0852771	
0.00922565	
-0.0119977	
0.0566627	
-0.0161258	
0.0166967	
-0.0293023	
0.0542941	
0.179144	
0.17887	
-0.319357	
-0.279795	
0.122988	
0.113511	
-0.00804827	
-0.0228396	
0.130556	
-0.0742684	
-0.0578789	
0.174236	
0.160305	
0.188855	
0.207361	
0.0593411	
0.036094	
0.141281	
0.125224	
0.176916	
0.0190706	
0.0593542	
0.123455	
0.0777122	
0.113195	
0.0851694	
0.111724	
0.20655	
0.0310235	
0.0312379	
0.18081	
0.0497828	
0.103624	
0.102197	
0.0298399	
0.00497303	
0.107225	
0.11358	
0.147234	
0.185446	
0.190603	
0.200232	
-0.206325	
0.122428	
0.0713872	
-0.0597326	
0.0309228	
0.0682805	
0.144783	
0.142546	
0.196422	
0.187913	
0.155084	
0.146309	
-0.202845	
-0.125705	
-0.0914325	
-0.108096	
0.0831992	
0.064164	
0.0711059	
-0.0898785	
-0.061242	
-0.266403	
-0.0822409	
-0.0731041	
-0.131118	
-0.276795	
-0.215827	
-0.147504	
-0.136239	
-0.120016	
-0.101632	
0.146817	
0.134915	
0.0704765	
-0.0630124	
-0.0521164	
-0.143527	
-0.1436	
-0.209907	
-0.206709	
-0.0537572	
-0.0719091	
-0.337441	
-0.0479279	
-0.195323	
0.0878917	
0.0919973	
0.0648125	
0.0667839	
0.171005	
0.170333	
-0.0517646	
-0.0944961	
-0.00051688	
-0.00378625	
0.0469362	
0.0274341	
0.0433157	
0.0264053	
-0.198825	
-0.22458	
-0.165499	
-0.0228758	
0.134919	
0.1221	
0.0584681	
0.0380268	
-0.245292	
-0.226646	
-0.0875452	
-0.190699	
-0.232172	
-0.213088	
-0.265792	
0.200522	
0.1839	
-0.0263153	
-0.082338	
-0.0603875	
-0.0546208	
-0.0807604	
-0.189359	
-0.173074	
0.0557513	
0.0115304	
-0.157889	
-0.0504896	
-0.256116	
-0.246946	
-0.149885	
-0.130324	
-0.138019	
-0.124919	
-0.149826	
-0.148202	
-0.103552	
-0.102701	
0.148053	
0.0753069	
0.132627	
0.114464	
0.111581	
0.115314	
0.0815226	
-0.234071	
-0.189141	
-0.195055	
-0.20577	
-0.198126	
-0.263216	
-0.272226	
-0.318353	
-0.177987	
-0.117554	
-0.2164	
-0.190818	
-0.289444	
-0.33382	
-0.333258	
-0.369026	
-0.0353491	
-0.0379443	
-0.0400062	
-0.0477123	
-0.211223	
-0.217967	
-0.170113	
-0.160119	
-0.128273	
-0.137281	
-0.093161	
-0.308296	
-0.0352306	
-0.0201741	
-0.308045	
-0.265997	
-0.0136806	
-0.0235503	
-0.028576	
-0.147391	
-0.143353	
-0.0244819	
-0.0333766	
-0.0771177	
-0.0844641	
-0.173008	
-0.164719	
0.0886289	
0.0224144	
0.00235199	
-0.00581491	
0.097544	
0.0494983	
-0.120442	
-0.0963186	
-0.119871	
-0.0184177	
-0.282726	
-0.330213	
-0.098935	
-0.11492	
0.196264	
0.122559	
0.209379	
0.180564	
-0.377841	
-0.371425	
0.0460998	
0.00276147	
-0.312694	
-0.278761	
-0.332558	
-0.298905	
-0.283059	
-0.2937	
-0.221692	
-0.19171	
-0.319078	
-0.358861	
-0.358153	
-0.353141	
-0.351051	
-0.183903	
-0.130015	
-0.104733	
-0.30033	
-0.327065	
-0.353913	
-0.244237	
0.188486	
0.156958	
0.209284	
0.192116	
-0.32829	
-0.299834	
-0.21903	
-0.20717	
-0.193768	
-0.00729674	
-0.00793893	
-0.298462	
-0.297935	
-0.333472	
-0.303028	
-0.325569	
-0.0592885	
-0.0700634	
-0.0824239	
-0.104364	
-0.216989	
-0.258344	
-0.217748	
-0.243648	
-0.272317	
-0.303831	
0.20853	
0.184032	
0.182214	
0.143039	
-0.250293	
-0.13485	
-0.123075	
-0.135932	
0.181246	
0.13834	
0.161108	
0.0811497	
-0.351369	
0.0812995	
0.125481	
0.114394	
0.135549	
-0.336304	
-0.355046	
-0.339319	
-0.343199	
-0.334303	
-0.340768	
-0.299617	
-0.110503	
-0.100601	
-0.0991833	
-0.099234	
0.137664	
0.195615	
0.134233	
0.193227	
0.128958	
0.11983	
0.122819	
0.0732762	
-0.253985	
-0.274838	
-0.25375	
-0.239212	
-0.344059	
-0.358789	
-0.345453	
-0.351829	
0.0774908	
0.136689	
0.0816782	
0.138228	
0.163481	
0.12996	
0.150786	
0.0930927	
0.112262	
0.0882921	
0.111504	
0.0875511	
0.173604	
0.201781	
0.205043	
0.2098	
0.220689	
0.141869	
0.231076	
0.235256	
0.23618	
0.244335	
0.248719	
0.254189	
0.22847	
0.190792	
0.169131	
0.0470928	
0.255933	
-0.00787104	
-0.00181497	
-0.0339253	
0.182847	
0.248718	
0.233973	
0.265325	
0.261375	
0.268259	
0.256057	
0.263106	
0.253664	
0.246185	
0.170683	
0.21717	
0.196352	
0.218483	
0.18922	
0.149545	
0.217027	
0.15888	
0.101753	
0.25705	
0.235832	
0.234612	
0.094412	
-0.044268	
0.248219	
-0.0270402	
-0.0412042	
0.0139348	
0.0705971	
0.0427908	
-0.0349761	
0.0405478	
0.00222109	
0.0702545	
-0.0540297	
0.0164351	
0.0650206	
0.0841363	
0.0412985	
-0.00339668	
-0.0445152	
0.208495	
-0.0293854	
0.177213	
0.105847	
0.108636	
0.0858561	
0.0480816	
0.0546794	
0.0726883	
0.08161	
0.0202411	
0.0595833	
0.013742	
0.0397953	
0.021033	
0.0321375	
0.0312878	
0.044812	
0.0871108	
0.0527209	
0.0575189	
0.0685004	
0.089178	
0.0464518	
-0.0225283	
-0.0261826	
0.0216599	
-0.00188728	
-0.00769973	
0.0346802	
0.0643549	
0.059456	
0.0052432	
-0.0194495	
-0.0288188	
-0.00835933	
0.0330517	
-0.0616295	
-0.0402143	
-0.0638689	
0.167948	
0.188732	
0.18572	
0.223707	
0.0107368	
0.100449	
0.153824	
0.161213	
0.19005	
0.000310985	
0.151884	
0.12945	
-0.0579327	
-0.0385885	
-0.0292952	
0.133556	
-0.0311535	
0.143787	
-0.00330001	
0.204629	
0.208202	
-0.0688809	
0.0764424	
0.0402848	
0.00277894	
0.0746301	
0.0160779	
0.245848	
0.229989	
0.223296	
-0.049901	
0.0842524	
0.217501	
-0.0133493	
-0.016489	
0.208228	
0.230118	
0.00750461	
0.0489541	
0.198568	
0.140329	
-0.0616041	
-0.0495382	
0.111224	
-0.0224144	
-0.0173288	
-0.00756701	
-0.00122509	
0.251007	
0.208282	
0.213612	
0.131694	
0.166711	
0.244323	
0.273456	
0.254986	
0.0584674	
0.16982	
0.243313	
0.1941	
0.108794	
0.13018	
0.142758	
0.160884	
0.00600753	
0.120583	
0.0853344	
0.0989352	
0.0674637	
0.120387	
0.11819	
0.189189	
0.149951	
0.194171	
0.116075	
0.156627	
0.129585	
0.167188	
0.117248	
0.124661	
0.157486	
0.206135	
0.140918	
0.151321	
0.159414	
0.159128	
0.141958	
0.266011	
0.268028	
0.277851	
0.265402	
0.281559	
0.249762	
0.116132	
-0.0243771	
0.0226628	
0.0279113	
0.124996	
0.232226	
0.17873	
0.110739	
0.183536	
0.170393	
0.123772	
0.236522	
0.270052	
0.275301	
0.230417	
0.249541	
0.259438	
0.277853	
0.262289	
0.252653	
0.277491	
0.262073	
0.261862	
0.270017	
0.244352	
0.242398	
0.268567	
0.268292	
0.274347	
0.10403	
0.278722	
0.226049	
0.246433	
0.200371	
0.226474	
0.269218	
0.270427	
0.274227	
0.204474	
0.196745	
0.224654	
0.209105	
0.218102	
0.220591	
0.195746	
-0.0463122	
-0.0515054	
0.2392	
0.22671	
0.251595	
0.229436	
0.201897	
0.182795	
0.200748	
0.258315	
0.233619	
0.233522	
0.240721	
0.166655	
0.209691	
0.0850722	
0.261684	
0.248857	
0.0933444	
0.186057	
0.163162	
0.232051	
0.124756	
0.130069	
0.206351	
0.1473	
0.273332	
0.134536	
0.132389	
0.160443	
0.222472	
0.194034	
0.181166	
0.267121	
0.0484014	
0.107755	
0.0419305	
0.0774047	
0.194886	
0.186433	
0.154701	
0.184976	
-0.0214537	
0.25855	
0.241048	
-0.00436435	
0.00549782	
-0.0192827	
0.00092283	
0.116361	
0.0888517	
0.15922	
0.165306	
0.18868	
0.152301	
0.189573	
0.00691685	
0.159801	
0.13247	
0.174436	
-0.0381932	
-0.0516122	
-0.0428394	
-0.0510564	
0.116517	
0.11315	
0.143274	
0.133379	
0.151993	
0.0878182	
0.095808	
0.200052	
0.177622	
0.201594	
0.213308	
0.155355	
0.102563	
0.0904259	
0.0989571	
0.0717305	
0.280566	
0.17251	
0.20014	
0.153624	
0.17084	
0.120237	
0.147634	
0.116788	
0.156751	
0.142244	
0.0161808	
0.206285	
0.214288	
0.180136	
0.238818	
0.23743	
0.149951	
0.176433	
0.124605	
0.128308	
-0.0539594	
-0.0386806	
-0.0629982	
-0.0616365	
0.102348	
0.208145	
0.240227	
0.210836	
0.198712	
0.210023	
0.171015	
0.218602	
0.216123	
0.214761	
0.20514	
0.0480749	
0.106259	
0.265498	
0.242268	
0.267963	
0.20444	
0.194742	
0.265419	
0.266734	
0.231888	
0.244872	
0.259855	
0.204282	
0.231033	
0.173754	
0.177633	
0.18715	
0.248663	
0.235692	
0.249651	
0.222658	
0.264628	
0.231836	
0.251766	
0.00123428	
0.186604	
0.197786	
0.166288	
0.237905	
0.239913	
0.232231	
0.227116	
0.245515	
0.25599	
0.107604	
0.136061	
0.124809	
0.1412	
-0.0536647	
0.217556	
0.183614	
0.187371	
0.117287	
0.149771	
0.153533	
0.174279	
0.15726	
0.166125	
-0.0441154	
-0.0329013	
-0.0480379	
-0.0304376	
0.245228	
0.207749	
0.245279	
0.211274	
0.0854282	
0.216835	
0.224133	
0.222077	
0.249477	
0.232248	
0.260545	
0.150606	
0.136468	
0.218816	
0.21468	
0.222514	
0.182738	
0.186312	
0.0242589	
0.0690217	
0.266147	
0.227361	
-0.0206354	
0.191786	
0.219136	
0.227551	
0.228821	
0.211167	
0.200834	
0.198772	
0.258003	
0.260379	
0.253192	
0.151417	
0.261738	
0.266411	
0.0613594	
0.0851252	
0.0846	
0.223879	
0.221337	
0.222195	
0.266264	
-0.0674987	
-0.0616051	
0.256622	
0.252012	
0.244232	
0.222299	
-0.0622588	
-0.0566484	
0.166383	
0.153623	
0.116939	
0.118781	
0.22287	
0.0772513	
0.091622	
0.152737	
0.15348	
0.171396	
0.169699	
0.265888	
0.259028	
0.00202372	
0.0170816	
0.0773566	
0.0433207	
0.10689	
0.107578	
0.136308	
0.180672	
0.178511	
0.167122	
0.160903	
0.274416	
0.261376	
0.237708	
0.25316	
0.267214	
0.0856262	
0.0793692	
0.20679	
0.205417	
0.189174	
0.188914	
0.0265715	
0.0474105	
0.266177	
0.267106	
0.209001	
0.206203	
0.14661	
0.108552	
0.15601	
0.101603	
0.223206	
0.230021	
0.20545	
0.206919	
0.212292	
0.210524	
0.206652	
0.190843	
0.266949	
0.268483	
0.252472	
0.170824	
0.17176	
0.201392	
0.197756	
0.165189	
0.171462	
0.236692	
0.242492	
0.161852	
0.178659	
0.261482	
0.265596	
0.18591	
0.226225	
0.2348	
0.218359	
0.188753	
0.226575	
0.271132	
0.264227	
0.242267	
0.242242	
0.234578	
0.243072	
0.130642	
0.187859	
0.126862	
0.264491	
0.275181	
0.261334	
0.255606	
0.10062	
0.0728813	
0.0757105	
0.0580337	
0.261906	
0.256254	
0.266505	
0.273339	
0.00690105	
0.257055	
0.266648	
0.263584	
0.256233	
0.127051	
0.165507	
0.267114	
0.275209	
0.265716	
0.119948	
0.132296	
0.137884	
0.146283	
0.195483	
0.192041	
0.186914	
0.190038	
0.269326	
0.16638	
0.163736	
0.213729	
0.213996	
-0.00241318	
-0.0118466	
0.248068	
0.262627	
0.262511	
0.194577	
-0.00855239	
0.233274	
0.229338	
0.239069	
0.240911	
0.179308	
0.270297	
0.268498	
0.0405802	
0.0112136	
0.185085	
-0.0656641	
-0.0588618	
-0.065029	
0.176577	
0.0654348	
0.0264198	
0.0504228	
0.0253864	
0.239965	
0.126177	
0.165931	
0.263573	
0.248947	
0.264288	
0.262782	
0.266375	
-0.00380084	
-0.0247985	
0.237601	
0.222376	
0.267021	
0.257841	
0.0214462	
0.183725	
0.169062	
0.137956	
0.204527	
0.175222	
0.225611	
0.21736	
0.130899	
0.123877	
0.263866	
0.273668	
0.0653813	
0.0541288	
0.247686	
0.255475	
0.267856	
0.267376	
0.273012	
0.265866	
-0.0589207	
-0.061481	
0.0987432	
0.0985177	
0.0278528	
0.0198317	
0.00990149	
0.245136	
0.246369	
0.219949	
0.230556	
0.21382	
0.220435	
0.273101	
0.197903	
0.259172	
0.243831	
0.238465	
0.125133	
0.0690696	
0.270741	
0.262234	
-0.0364951	
-0.00564686	
0.0115002	
0.0659339	
0.21341	
0.143183	
0.247543	
0.240945	
0.0613308	
0.0842838	
0.0377684	
0.245846	
0.160133	
0.163805	
0.25448	
0.252734	
0.0932512	
0.0741682	
-0.0140042	
-0.0158326	
0.197327	
0.200846	
0.184419	
0.193079	
0.241007	
0.207591	
0.183435	
0.226185	
0.21908	
0.199092	
0.00965608	
0.0569879	
0.05065	
0.132678	
0.074219	
0.184393	
0.21408	
0.261557	
0.103283	
0.103705	
0.210379	
0.19896	
0.25188	
0.129075	
0.130656	
0.0994154	
0.0360522	
0.0171563	
0.0444735	
0.0163501	
0.0427969	
0.164273	
0.195042	
0.191903	
0.219745	
0.0735368	
0.0579283	
0.0961325	
0.0802871	
0.164686	
0.16357	
0.176298	
0.173564	
0.16444	
0.179379	
0.1793	
-0.0689486	
-0.0237852	
-0.0631989	
-0.0487821	
-0.0277159	
0.131933	
0.135185	
-0.0644979	
0.110768	
0.126619	
0.09779	
0.129558	
0.117313	
0.0328152	
-0.0391485	
0.0775834	
0.137739	
-0.0689568	
0.111504	
-0.0628471	
-0.0691857	
-0.0682079	
0.0349374	
0.0708809	
0.26333	
0.240447	
0.267227	
0.242442	
0.268871	
0.268864	
0.137417	
0.0902723	
0.274968	
0.262625	
0.148833	
0.193205	
0.14374	
0.191822	
0.0447734	
0.0605118	
0.213431	
0.092862	
0.0867506	
-0.0650831	
0.173395	
0.0891142	
0.0891719	
0.054341	
0.180969	
0.258484	
0.268394	
0.192641	
0.0178854	
0.0115781	
0.165284	
0.195363	
0.227966	
0.218973	
-0.0520474	
-0.0379552	
0.268917	
0.26432	
0.250426	
-0.0358351	
0.266253	
0.184479	
0.186885	
0.203592	
0.193485	
0.129561	
0.0823007	
0.269183	
0.256381	
0.166759	
0.169659	
0.233813	
0.245132	
0.214496	
0.0556222	
0.0673879	
0.233505	
0.258466	
0.232043	
0.0806816	
0.204507	
0.208732	
0.125964	
0.216706	
0.247865	
-0.069348	
0.21964	
0.217213	
0.209913	
0.264649	
0.24872	
0.14189	
0.267006	
0.139994	
0.166886	
0.14212	
0.14447	
0.117412	
0.275612	
0.249005	
0.265147	
0.276136	
0.265634	
0.26526	
0.247792	
0.250945	
0.244788	
0.241673	
0.202163	
0.21937	
0.255524	
0.250104	
0.077726	
0.0481924	
0.240617	
0.253903	
0.270886	
0.251088	
0.270389	
0.0616264	
0.0721921	
0.0696587	
0.0958599	
0.267894	
0.261937	
0.203172	
0.223235	
0.220669	
0.143426	
0.143844	
-0.0661771	
-0.0632544	
0.132419	
0.118008	
0.115258	
0.113121	
0.109886	
0.109629	
0.0848412	
0.259791	
-0.0534675	
-0.0541707	
-0.0686568	
-0.0703212	
0.212307	
0.162027	
0.161128	
0.248497	
-0.0709931	
-0.0661842	
-0.0489466	
-0.052688	
-0.0678555	
-0.0684639	
0.215037	
0.216782	
0.206292	
0.203173	
-0.0296874	
-0.012244	
-0.0366725	
-0.0209959	
0.119959	
0.123154	
0.0984181	
0.194114	
0.219469	
0.252492	
0.240184	
0.24779	
0.250983	
0.251114	
0.238077	
0.225631	
0.233946	
0.206467	
0.201032	
0.223437	
0.219031	
0.106234	
0.0958745	
0.105965	
0.0409733	
-0.00383407	
0.100049	
0.0678367	
-0.0582675	
-0.0402103	
-0.0654508	
0.0751794	
0.173634	
0.121984	
0.118902	
0.0584392	
0.044386	
-0.0239339	
-0.0442406	
0.226993	
0.226261	
0.0596023	
0.105398	
0.0918441	
0.250474	
0.256048	
0.239769	
0.245668	
0.260603	
0.229067	
0.226788	
0.0840877	
0.0714016	
0.121465	
0.102395	
0.131036	
0.121616	
-0.00269487	
0.0227085	
0.102283	
0.106666	
0.172886	
0.175759	
0.124227	
0.114252	
0.0895296	
0.0866054	
0.17631	
0.173529	
0.161214	
0.125575	
0.160242	
0.166752	
0.23456	
0.247391	
0.161604	
0.151848	
0.12567	
0.167125	
0.190851	
-0.020433	
0.0285579	
-0.0286031	
0.249042	
0.248547	
0.231461	
0.216829	
0.1844	
0.163264	
0.181035	
0.179587	
-0.0365596	
-0.0421696	
-0.0559844	
-0.0585381	
0.0459418	
0.0721459	
0.0847187	
0.168197	
0.144882	
0.18135	
0.186912	
0.207494	
0.185793	
0.253197	
0.249291	
0.225149	
0.23372	
0.233489	
0.233946	
-0.0478247	
-0.0535807	
-0.0349118	
-0.0400259	
0.178099	
0.157364	
0.168586	
0.167779	
0.0337639	
0.0957563	
0.0940224	
0.0856222	
0.0904462	
0.244716	
0.25759	
0.0591175	
0.0293881	
0.262906	
0.261628	
0.248837	
0.264083	
0.260408	
0.262937	
0.0182923	
0.238967	
0.237387	
0.198411	
0.0940951	
0.0838973	
0.0703929	
0.0742905	
0.142315	
0.146915	
0.229282	
0.245698	
0.255737	
0.258346	
0.176718	
0.171932	
0.0844968	
0.0934572	
0.233757	
0.225018	
0.0616843	
0.0787313	
0.126827	
0.107134	
0.13043	
0.150918	
0.10841	
0.119107	
0.118807	
0.0815714	
0.0152393	
0.0424039	
0.0980963	
0.0799167	
0.251289	
0.267713	
-0.0161452	
0.140941	
0.114137	
0.261545	
0.259942	
0.0625483	
0.0706313	
0.102937	
0.0785558	
0.0842534	
0.0871202	
0.0274257	
0.0576323	
0.0867253	
0.0751122	
0.13544	
0.125511	
0.0740558	
0.0502343	
0.0887201	
0.0607372	
0.22406	
0.225808	
0.167911	
0.182778	
0.148225	
0.138988	
0.0409804	
0.0102213	
-0.0481265	
0.00585165	
0.0217718	
0.0197012	
-0.00704989	
0.165512	
-0.0208232	
0.13586	
0.137599	
-0.0167818	
-0.0437953	
-0.0344754	
-0.0431279	
0.110417	
0.11801	
0.041791	
0.0438122	
0.0398577	
0.189387	
0.162065	
0.26397	
0.259683	
0.105572	
0.0850995	
0.0756376	
0.0733013	
0.0859037	
0.126794	
0.123556	
0.149034	
0.148525	
0.0623277	
0.0652411	
0.0183929	
0.00897601	
0.0820967	
0.0585767	
0.0615709	
0.0384634	
0.0999021	
0.101897	
0.0901494	
0.0835768	
0.0922471	
0.0857137	
0.0530475	
0.270678	
0.268751	
0.264265	
0.269563	
0.100476	
0.104726	
0.0925824	
0.0981463	
0.0964618	
0.0991413	
0.0962795	
-0.015887	
0.00123455	
-0.00712847	
0.00942147	
0.0267352	
0.0380524	
0.018044	
0.00794305	
-0.0121203	
-0.003643	
0.00421727	
0.0337851	
0.0198208	
0.0242401	
0.0124065	
0.00410999	
0.0203004	
0.00275891	
0.0121977	
-0.0104073	
-0.0176893	
-0.0136291	
-0.00473745	
0.0271158	
0.0249881	
0.0186356	
0.0106617	
-0.0146119	
-0.00999733	
-0.00418943	
0.0024807	
0.0332772	
-0.0634071	
-0.0489533	
0.00475232	
0.0329317	
-0.0255134	
-0.030945	
-0.00876601	
0.0299065	
0.0235701	
0.00315011	
-0.0517045	
0.00235843	
-0.0287744	
-0.0724238	
-0.0548093	
0.0312331	
0.0158087	
-0.00474006	
-0.0663507	
-0.0416023	
-0.0174464	
0.0246746	
0.135159	
0.173166	
0.171567	
0.115433	
0.140842	
-0.0295637	
0.0720072	
0.140295	
0.0533304	
0.0947669	
0.127233	
0.0460881	
0.0371904	
0.117123	
0.118278	
0.0927583	
0.0938307	
0.077191	
0.102517	
0.125634	
0.171766	
0.17404	
-0.0606282	
-0.0664494	
-0.0515639	
-0.0519979	
0.00085043	
0.0221588	
0.0106826	
0.163471	
0.149147	
0.153396	
0.0449743	
0.161112	
0.152819	
0.169677	
0.170807	
0.167334	
0.161564	
0.16832	
0.169133	
-0.0558386	
-0.0425704	
0.14326	
0.14907	
0.134324	
0.158801	
0.157815	
0.16378	
0.157042	
0.145819	
0.145406	
0.168929	
0.15427	
0.172927	
0.174702	
0.102425	
0.108649	
0.127797	
0.173504	
0.174785	
-0.0395654	
-0.0225491	
0.00839393	
-0.00468709	
-0.0282694	
-0.0064633	
-0.0265981	
0.0559963	
0.0352564	
0.0778619	
0.0740307	
0.117599	
0.135339	
0.11145	
0.130452	
0.101887	
0.160408	
0.164265	
0.12717	
0.0934897	
-0.150503	
-0.0295022	
0.03243	
0.0667923	
-0.0247357	
0.0341058	
0.0462153	
-0.0288478	
0.060281	
0.0341096	
-0.00166786	
-0.00461986	
0.0086034	
0.0355791	
0.0450443	
0.134871	
0.155855	
-0.149497	
-0.171247	
-0.125298	
-0.128925	
-0.108757	
-0.0910982	
-0.0821355	
0.0850022	
0.113468	
0.0927026	
-0.0653803	
-0.0767726	
0.127796	
0.119194	
0.139356	
0.127774	
0.129223	
0.138809	
0.132284	
0.12463	
-0.158833	
-0.165599	
0.0725982	
0.0873391	
0.103479	
0.106424	
0.0835015	
0.0875039	
0.110786	
0.115999	
0.152369	
0.151186	
0.158682	
0.163004	
0.0467821	
0.0996586	
0.0724229	
0.163587	
0.158541	
-0.143546	
-0.142441	
-0.117517	
-0.112693	
-0.108178	
-0.142397	
-0.120944	
-0.0178947	
-0.0635009	
-0.0352971	
-0.0652298	
0.0379797	
0.0700882	
0.016545	
0.0700477	
0.0432114	
-0.0517179	
0.0701699	
0.165338	
0.21795	
0.212159	
0.2113	
0.190994	
0.206764	
0.195815	
0.185443	
0.20749	
0.200812	
0.20491	
0.19185	
0.199774	
0.195124	
0.172547	
0.15496	
0.173975	
0.183736	
0.179158	
0.213273	
0.174633	
0.205019	
0.20376	
0.189763	
0.209925	
0.197177	
0.205545	
0.0912484	
0.097826	
-0.0957601	
-0.0182565	
0.201965	
0.170555	
0.212742	
0.15637	
0.191815	
0.0938409	
0.172627	
0.183172	
0.21259	
-0.208273	
0.175243	
0.207673	
0.187922	
0.194375	
0.110008	
0.102402	
0.147161	
0.100106	
0.131162	
-0.00554284	
-0.361287	
0.0172926	
0.116931	
0.124672	
-0.0722016	
-0.0289836	
0.0189528	
0.0487309	
-0.248859	
-0.328491	
-0.338647	
-0.344679	
-0.196775	
-0.0033379	
-0.0127434	
-0.233674	
-0.268406	
-0.15094	
-0.0044013	
-0.26062	
-0.294043	
-0.332181	
-0.333275	
-0.166929	
0.00831283	
-0.0871165	
-0.346086	
-0.344107	
-0.0822949	
0.175297	
0.0896113	
0.169962	
-0.34782	
-0.0485837	
0.140126	
-0.0352725	
-0.00700923	
0.152556	
-0.246519	
-0.0276403	
-0.0898598	
-0.133281	
-0.207896	
-0.0650097	
0.156978	
-0.0957217	
0.0953772	
-0.0997658	
0.117122	
0.0836807	
0.0279951	
0.0701538	
-0.241927	
-0.224508	
0.0808458	
-0.00614246	
-0.103518	
-0.0393543	
-0.137352	
-0.102579	
-0.252445	
-0.0761501	
-0.0780489	
-0.159971	
0.151722	
-0.15394	
-0.326332	
0.124417	
-0.322408	
-0.320155	
-0.00324971	
0.0550069	
-0.318093	
-0.124069	
-0.180509	
-0.139228	
0.197224	
0.110518	
0.119804	
0.119472	
0.0503785	
0.0510591	
-0.00962496	
0.0413909	
-0.216214	
-0.138925	
0.170288	