<VTKFile type="UnstructuredGrid" version="0.1" byte_order="LittleEndian">
	<UnstructuredGrid>
		<Piece NumberOfPoints="3959" NumberOfCells="7450">
			<CellData Scalars="scalars">
				<DataArray type="Float64" Name="Doublet Strengths" NumberOfComponents="1" Format="ascii">
-0.0706167	
-0.0554001	
0.000755019	
0.0309929	
-0.0310296	
-0.0406758	
-0.0169435	
0.0260397	
0.018179	
-0.00393687	
-0.06293	
0.00315525	
-0.0272851	
-0.0691319	
-0.0524908	
0.0312206	
0.0187902	
-0.00074711	
-0.0591263	
-0.0357794	
-0.0127058	
0.0263937	
0.134107	
0.171479	
0.169854	
0.112777	
0.132951	
-0.107069	
0.0331132	
0.120471	
0.0326081	
0.083837	
0.106933	
0.0110919	
-0.00427828	
0.0895102	
0.0946339	
0.0631966	
0.0616702	
0.0604183	
0.0816692	
0.1063	
0.163088	
0.170462	
-0.0925568	
-0.103682	
-0.101116	
-0.144595	
-0.0559648	
-0.0313935	
-0.0189512	
0.152547	
0.133725	
0.138375	
0.000783258	
0.15048	
0.146683	
0.159365	
0.162509	
0.156084	
0.160381	
0.158088	
0.1612	
-0.124096	
-0.16845	
0.123551	
0.130169	
0.111655	
0.143787	
0.143052	
0.156744	
0.149001	
0.132008	
0.133302	
0.165785	
0.151732	
0.170629	
0.170765	
0.0874684	
0.100798	
0.121347	
0.171827	
0.171293	
-0.0859533	
-0.0872108	
-0.03885	
-0.0413329	
-0.0616356	
-0.0515237	
-0.0811503	
0.0316689	
0.00543712	
0.0526516	
0.0436104	
0.0981219	
0.121369	
0.0954776	
0.118009	
0.105011	
0.163352	
0.167001	
0.129069	
0.100533	
-0.0766044	
0.00795741	
0.0557498	
0.0867458	
-0.00530274	
0.0488862	
0.0664395	
0.000376593	
0.0828212	
0.0612401	
0.0295471	
0.0241011	
0.0246788	
0.0548797	
0.0643562	
0.144438	
0.160595	
-0.103576	
-0.0826731	
-0.0970036	
-0.095119	
-0.0642164	
-0.0400383	
-0.0549454	
0.100849	
0.125188	
0.108176	
-0.0231916	
-0.0374102	
0.135835	
0.126256	
0.148391	
0.139601	
0.140274	
0.142418	
0.141195	
0.135714	
-0.0940104	
-0.0431502	
0.0924003	
0.106375	
0.118731	
0.121854	
0.097765	
0.10013	
0.122272	
0.124936	
0.154744	
0.155537	
0.163526	
0.166124	
0.0575753	
0.108248	
0.0804778	
0.166428	
0.163109	
-0.0822852	
-0.0912512	
-0.0636376	
-0.0826705	
-0.0744257	
-0.0995664	
-0.0788773	
0.00629893	
-0.0302976	
-0.0124318	
-0.0373568	
0.053744	
0.0828426	
0.036901	
0.0842949	
-0.00595734	
-0.176461	
0.0292075	
0.167535	
0.215835	
0.207586	
0.207753	
0.190853	
0.203068	
0.193049	
0.183807	
0.205637	
0.199477	
0.200264	
0.18325	
0.194372	
0.190643	
0.170016	
0.16303	
0.171348	
0.180057	
0.175653	
0.208524	
0.17495	
0.197962	
0.198576	
0.18458	
0.203729	
0.193309	
0.20497	
0.115535	
0.108147	
-0.0322223	
0.0114021	
0.196291	
0.176081	
0.210639	
0.165247	
0.187646	
0.0585327	
0.178314	
0.184459	
0.207761	
-0.251527	
0.178401	
0.202295	
0.189983	
0.195012	
0.133409	
0.126145	
0.157926	
0.124167	
0.145673	
-0.0728489	
-0.275567	
-0.0412077	
0.0882962	
0.0965149	
-0.229645	
-0.109171	
-0.0372239	
-0.000683511	
-0.364767	
-0.176452	
-0.220309	
-0.374327	
-0.219039	
-0.0291696	
-0.083443	
-0.300235	
-0.342418	
-0.20221	
-0.0698004	
-0.313506	
-0.350632	
-0.382757	
-0.389871	
-0.303152	
-0.0517509	
-0.142745	
-0.383428	
-0.372718	
-0.0977017	
0.163356	
0.103061	
0.153132	
-0.224823	
0.0101407	
0.117062	
0.0259412	
0.0196523	
0.129908	
-0.0851018	
0.0396369	
-0.106638	
-0.152375	
-0.297308	
-0.0340006	
0.135754	
-0.0525677	
0.0613687	
-0.0141411	
0.086009	
0.043563	
0.0259115	
0.0691299	
-0.281855	
-0.25905	
0.0551368	
0.0368118	
-0.0186777	
0.027324	
-0.0791742	
-0.0248402	
-0.286102	
-0.127871	
-0.126234	
-0.0803905	
0.142188	
-0.0641135	
-0.15127	
0.101471	
-0.168408	
-0.176485	
0.0497306	
0.0830521	
-0.224508	
-0.140292	
-0.195893	
-0.0410567	
0.186457	
0.0852426	
0.0890068	
0.0883457	
0.00849134	
0.00853473	
-0.0220523	
0.0304215	
-0.300495	
-0.204539	
0.153739	
0.13028	
0.128102	
0.139697	
-0.0995626	
-0.0751391	
-0.0769073	
-0.0321201	
-0.0201501	
0.00862429	
0.16414	
0.0524142	
0.0831643	
0.172671	
0.167976	
0.0776254	
-0.246276	
0.18908	
0.109626	
-0.0548449	
-0.122921	
0.178684	
0.199412	
0.0563263	
0.153358	
-0.277038	
-0.191258	
0.114939	
0.111561	
0.125301	
0.0243799	
0.194059	
0.17053	
0.151272	
0.154296	
0.138302	
0.161384	
0.185556	
0.18173	
0.16065	
-0.0318237	
0.0383914	
0.146545	
0.16249	
0.147545	
0.179568	
0.189239	
0.0572097	
0.170029	
0.0820855	
0.0624204	
0.053651	
0.061006	
0.120107	
0.187055	
0.106925	
0.0807995	
0.0555615	
0.0628379	
0.117001	
0.119458	
0.137337	
0.136184	
0.0610429	
0.00723746	
0.0221147	
-0.0274093	
0.187951	
0.207184	
0.188714	
0.182014	
0.193659	
0.0990364	
0.101827	
0.183294	
0.105256	
-0.204669	
0.085594	
0.0183263	
0.0713473	
0.0846374	
0.175007	
0.0261283	
-0.0993803	
-0.0691196	
0.0579313	
0.0595374	
0.0221545	
0.149069	
0.179278	
0.101673	
0.0955891	
0.184786	
0.143632	
0.0942571	
0.0370316	
0.0290079	
0.0615093	
0.0645845	
0.0132465	
0.141829	
0.147399	
-0.33682	
-0.295011	
-0.191844	
-0.15225	
-0.0896701	
0.118315	
0.109795	
0.129756	
0.162511	
0.149809	
0.126117	
0.18229	
-0.182993	
-0.192754	
-0.357884	
-0.327445	
0.0466151	
-0.0880789	
0.0332388	
-0.324484	
-0.350522	
0.00248537	
-0.0122711	
0.00996194	
0.000515316	
-0.109645	
-0.0699068	
-0.0621085	
-0.0147186	
0.0179457	
-0.00220518	
0.065151	
0.0853981	
0.10883	
-0.0110164	
-0.0418627	
-0.0108924	
-0.0293056	
-0.0100243	
0.0339808	
0.1104	
0.111084	
0.0926596	
0.0238392	
0.00173807	
-0.0734281	
0.135366	
0.0965719	
0.0187118	
0.00536675	
0.191408	
-0.213301	
0.062228	
-0.020543	
-0.0322749	
0.210792	
0.190798	
0.202938	
-0.21304	
-0.165905	
-0.111202	
-0.00186404	
-0.121889	
-0.0717397	
0.19889	
0.184173	
0.139651	
0.115205	
0.0664372	
-0.0634014	
-0.134783	
-0.0875577	
0.178992	
0.0293209	
-0.385068	
-0.387872	
-0.386113	
-0.214696	
0.0604624	
8.07398e-05	
-0.00356744	
0.0156273	
0.0152279	
0.0234323	
-0.0142567	
0.124729	
0.120025	
-0.139581	
-0.0711573	
-0.193739	
-0.129891	
-0.0489203	
-0.164197	
-0.0748487	
0.0425956	
-0.261815	
-0.244397	
0.136634	
0.0618034	
0.107293	
-0.0389891	
-0.00286499	
0.155517	
0.156697	
0.138181	
0.155197	
0.142594	
0.0755258	
0.0531821	
0.13801	
0.0456076	
0.196307	
0.186035	
-0.114372	
-0.246577	
0.181215	
0.177932	
0.187901	
0.0192446	
0.189548	
0.200999	
0.187488	
0.197282	
0.206147	
0.190956	
-0.22602	
-0.254697	
0.20642	
0.188139	
0.193955	
0.181251	
-0.353954	
0.0377192	
0.00957158	
0.0232276	
0.189737	
0.172612	
0.157529	
0.179742	
0.0633007	
0.065429	
0.0154792	
0.0187008	
0.132291	
-0.140822	
0.0288948	
0.072549	
-0.0594877	
0.144828	
0.154117	
0.125841	
0.0924367	
0.202253	
0.0359756	
0.0818902	
-0.0233194	
-0.00980544	
0.104755	
0.129173	
0.136068	
0.0483195	
-0.0655479	
-0.0409897	
-0.0223497	
0.0187567	
0.0549225	
0.0846327	
-0.0263336	
0.0358681	
-0.0198614	
0.196865	
0.181927	
0.0665748	
-0.00742796	
0.0867677	
0.147724	
-0.00407195	
-0.117203	
-0.00713905	
-0.119462	
0.103654	
-0.0353407	
-0.0391753	
-0.0238224	
0.122832	
0.0949328	
0.0912779	
0.0330626	
0.0943181	
0.0556034	
0.00446639	
0.0081151	
0.0282271	
0.0228754	
0.0076304	
-0.038794	
-0.0857465	
0.115531	
0.0376168	
0.0359604	
0.0229294	
0.128831	
0.0263328	
-0.0126756	
0.0672956	
0.0785167	
0.105593	
-0.342381	
-0.0100791	
-0.0340921	
0.0578286	
0.0658036	
0.151302	
0.0928482	
0.0813042	
0.0728978	
-0.111944	
-0.0714232	
0.0368249	
0.0105984	
-0.0204981	
-0.0659137	
0.0967907	
0.0646224	
0.0575757	
0.0598039	
-0.0461516	
0.028778	
-0.248162	
-0.231725	
-0.14827	
-0.135074	
0.144194	
-0.0448635	
-0.167485	
0.129338	
-0.0921677	
0.0266688	
-0.144056	
-0.216176	
-0.067826	
-0.0357021	
0.0160832	
-0.0173979	
-0.0983833	
-0.158895	
-0.0884833	
-0.0402152	
-0.0236305	
-0.0013295	
-0.148322	
0.130968	
0.00865262	
0.0356159	
0.0741799	
-0.106154	
-0.0717389	
-0.0852738	
-0.139945	
-0.213886	
0.121336	
0.109352	
-0.020638	
0.0318772	
-0.112005	
-0.134699	
0.110454	
0.0370126	
0.0684361	
-0.0300977	
-0.0127564	
-0.119602	
-0.0806088	
-0.309856	
-0.347121	
0.0488074	
-0.247	
0.045183	
0.00441906	
-0.141221	
0.133797	
-0.0987865	
-0.0878529	
-0.0129048	
-0.0586422	
0.183087	
0.0975107	
0.145989	
0.0823261	
0.102666	
0.202958	
0.190589	
-0.0514966	
-0.0440663	
0.0471008	
0.0644042	
-0.340822	
-0.135941	
-0.165517	
-0.382917	
-0.0184205	
0.0498176	
-0.031639	
-0.041501	
-0.137805	
-0.112746	
0.0338491	
-0.0107275	
0.0032085	
0.193937	
0.178553	
0.0647268	
0.00289943	
-0.036526	
0.0863408	
0.117585	
0.0392054	
0.0709825	
0.0256675	
-0.0543103	
0.189627	
0.207525	
0.204666	
0.192743	
-0.19486	
0.185308	
0.164005	
-0.00289233	
-0.0911716	
0.0172492	
0.156152	
0.175352	
0.154568	
0.17472	
0.162858	
0.14008	
0.0645764	
0.0499332	
-0.00131328	
0.00416646	
0.117713	
0.124434	
-0.130425	
-0.363887	
-0.341535	
0.0394097	
0.0273161	
0.197565	
0.179185	
0.212344	
0.196209	
0.148601	
0.116303	
-0.0729824	
0.108324	
0.13973	
0.125853	
0.142376	
0.14345	
0.161834	
0.156431	
0.13606	
-0.207247	
-0.229584	
0.177045	
0.162154	
0.0972492	
0.056644	
0.143585	
0.142355	
0.203144	
0.189793	
-0.0337977	
-0.0930041	
-0.158153	
-0.0727093	
0.0153799	
0.101681	
0.0443403	
0.112806	
-0.0851869	
-0.0734649	
-0.252586	
0.114639	
0.111066	
0.166884	
0.191302	
-0.0724564	
0.0368833	
-0.0399013	
0.0168315	
-0.0513954	
-0.0142216	
0.0577189	
0.0594782	
0.108969	
-0.0265739	
-0.0272514	
-0.0385311	
-0.0433276	
0.202751	
0.176035	
0.179247	
-0.103895	
-0.151227	
0.0641339	
-0.00952121	
0.0583421	
-0.0410204	
0.0617752	
0.0527134	
-0.0829666	
-0.0915284	
0.0762584	
-0.00438491	
0.00365771	
-0.297454	
-0.00843901	
0.0372246	
0.0770555	
0.0801667	
-0.157404	
-0.169221	
-0.238306	
-0.0189283	
0.0196173	
0.164692	
0.151953	
0.00796942	
0.0653314	
0.0867603	
0.0922852	
-0.00414953	
-0.0451353	
-0.0993004	
-0.100917	
0.192647	
0.181705	
0.18597	
0.0601537	
0.0627092	
0.113832	
0.057402	
-0.139389	
-0.136587	
-0.1935	
-0.0947328	
-0.0875943	
-0.0157603	
0.112146	
0.113605	
0.0779482	
0.0392198	
-0.176868	
-0.177936	
-0.0110264	
-0.0302862	
-0.222717	
-0.196204	
-0.267964	
-0.118244	
0.171306	
0.155985	
0.13036	
0.19003	
0.209358	
-0.0745069	
-0.0137828	
-0.0688865	
0.0639614	
0.108816	
0.0235053	
0.0691159	
0.0997111	
0.127047	
0.10351	
0.129575	
-0.0371105	
-0.0227115	
0.142255	
0.141119	
-0.161078	
-0.135027	
-0.203303	
0.184419	
0.191987	
0.183696	
0.139735	
0.104263	
0.156709	
0.108439	
0.154024	
0.0765115	
0.134093	
0.130947	
0.165236	
-0.0556951	
-0.0455282	
-0.0478145	
0.136595	
-0.056442	
-0.0759598	
-0.173144	
0.055792	
0.0303784	
-0.240934	
-0.248257	
-0.0524236	
-0.0595168	
0.117902	
0.065519	
-0.130221	
-0.29762	
-0.262194	
0.176411	
0.175043	
0.159287	
0.174382	
0.172372	
0.0465652	
0.0883096	
0.030796	
0.0379371	
0.185603	
-0.0405502	
-0.200603	
-0.0410772	
0.0193926	
-0.0178218	
-0.0260906	
0.0148135	
-0.3424	
0.0521962	
0.0614137	
0.141731	
0.111024	
0.156803	
0.124447	
0.143118	
0.13332	
0.130349	
0.0254837	
0.057177	
0.0498059	
0.0765953	
0.130185	
0.108938	
0.0272112	
0.139943	
0.154244	
0.106239	
0.123526	
0.113281	
0.137775	
0.117555	
0.114771	
0.0523089	
0.0547158	
0.128752	
0.110076	
0.118188	
0.0726726	
-0.063971	
-0.0660365	
-0.0486332	
-0.0158464	
-0.0964989	
-0.0314276	
0.0730571	
0.0547189	
0.102098	
0.157789	
0.123943	
0.13745	
0.0852324	
0.00936972	
-0.0118213	
0.0566566	
-0.0161522	
0.0166785	
-0.0293319	
0.054188	
0.17886	
0.1786	
-0.319723	
-0.280211	
0.122554	
0.113058	
-0.00804177	
-0.0228096	
0.13037	
-0.0747758	
-0.0583869	
0.173917	
0.160042	
0.188563	
0.20711	
0.0592527	
0.036035	
0.14128	
0.125205	
0.176554	
0.0185782	
0.0589397	
0.122859	
0.0770376	
0.113266	
0.085253	
0.111777	
0.206253	
0.0310598	
0.0312658	
0.180468	
0.0498326	
0.103698	
0.102267	
0.0295512	
0.00466674	
0.106998	
0.113357	
0.147083	
0.185221	
0.190237	
0.199906	
-0.206872	
0.121947	
0.0709275	
-0.0597353	
0.0305301	
0.0679652	
0.144561	
0.142323	
0.196171	
0.18768	
0.154881	
0.14613	
-0.202769	
-0.125297	
-0.0910887	
-0.107768	
0.0832412	
0.0642218	
0.0711842	
-0.0899018	
-0.0612421	
-0.265922	
-0.0822355	
-0.0730913	
-0.131115	
-0.277201	
-0.216286	
-0.147566	
-0.136314	
-0.119985	
-0.101596	
0.14684	
0.134932	
0.0704778	
-0.0629604	
-0.052059	
-0.143131	
-0.143185	
-0.209345	
-0.20615	
-0.0537247	
-0.0718886	
-0.337791	
-0.0477765	
-0.195778	
0.0879278	
0.0920582	
0.0649135	
0.0668826	
0.170681	
0.170015	
-0.0523334	
-0.0950485	
-0.000452559	
-0.00371122	
0.0470182	
0.0275102	
0.0433755	
0.0264646	
-0.199354	
-0.225098	
-0.165006	
-0.0228363	
0.134345	
0.12149	
0.0584165	
0.0379873	
-0.246297	
-0.227608	
-0.0882444	
-0.191152	
-0.232545	
-0.212669	
-0.265092	
0.20033	
0.183686	
-0.0262427	
-0.0823137	
-0.0603528	
-0.0545871	
-0.0807189	
-0.189889	
-0.173596	
0.0552526	
0.010971	
-0.157897	
-0.0510903	
-0.256439	
-0.247238	
-0.149842	
-0.130296	
-0.137983	
-0.124887	
-0.149837	
-0.148213	
-0.10359	
-0.102727	
0.148078	
0.0753067	
0.132644	
0.114519	
0.111648	
0.115377	
0.0816056	
-0.234709	
-0.189751	
-0.19502	
-0.20571	
-0.198066	
-0.263717	
-0.272731	
-0.318748	
-0.178268	
-0.117908	
-0.216371	
-0.190642	
-0.289546	
-0.334676	
-0.334154	
-0.369798	
-0.0353116	
-0.0379025	
-0.0399967	
-0.0476905	
-0.211263	
-0.217955	
-0.170187	
-0.160167	
-0.128819	
-0.137838	
-0.0933918	
-0.308804	
-0.0353261	
-0.0201898	
-0.308645	
-0.266599	
-0.0136286	
-0.0235104	
-0.0285374	
-0.147899	
-0.143797	
-0.0251641	
-0.0338923	
-0.0777817	
-0.0849559	
-0.173007	
-0.164728	
0.0881923	
0.0219251	
0.00182898	
-0.00575089	
0.097111	
0.0489999	
-0.120464	
-0.0962264	
-0.119844	
-0.0183529	
-0.283107	
-0.329906	
-0.0989625	
-0.114975	
0.19599	
0.122113	
0.209157	
0.180239	
-0.378528	
-0.37215	
0.0453694	
0.00199734	
-0.313117	
-0.278672	
-0.332318	
-0.298597	
-0.28342	
-0.293933	
-0.222132	
-0.192121	
-0.319325	
-0.35917	
-0.358513	
-0.353409	
-0.351146	
-0.183429	
-0.129717	
-0.104427	
-0.300943	
-0.327631	
-0.354367	
-0.243659	
0.18811	
0.156538	
0.209031	
0.191799	
-0.328695	
-0.300307	
-0.21843	
-0.206609	
-0.193195	
-0.00723879	
-0.00786849	
-0.298781	
-0.298247	
-0.333757	
-0.303389	
-0.325866	
-0.0592826	
-0.0700502	
-0.0824208	
-0.104364	
-0.216406	
-0.257812	
-0.217171	
-0.243054	
-0.271749	
-0.303338	
0.208319	
0.183697	
0.181887	
0.14262	
-0.250383	
-0.134476	
-0.122733	
-0.135538	
0.181214	
0.138183	
0.161019	
0.080923	
-0.351857	
0.0813286	
0.125517	
0.114412	
0.135571	
-0.336838	
-0.355424	
-0.33987	
-0.343717	
-0.334621	
-0.341178	
-0.299834	
-0.110473	
-0.100578	
-0.0991615	
-0.0992307	
0.137268	
0.195336	
0.13383	
0.192937	
0.12899	
0.119864	
0.122851	
0.073298	
-0.254193	
-0.275059	
-0.253899	
-0.239336	
-0.344437	
-0.359118	
-0.34582	
-0.352147	
0.0774943	
0.136709	
0.081681	
0.138248	
0.163502	
0.129927	
0.15078	
0.0930286	
0.112326	
0.0883746	
0.111567	
0.0876351	
0.173245	
0.201497	
0.204761	
0.209521	
0.220473	
0.141681	
0.230983	
0.235511	
0.236088	
0.244298	
0.24868	
0.254157	
0.22834	
0.19048	
0.168765	
0.0469678	
0.255868	
-0.00795849	
-0.00217698	
-0.0340597	
0.182518	
0.248635	
0.233909	
0.265328	
0.261409	
0.268341	
0.256063	
0.263118	
0.253776	
0.24637	
0.170503	
0.216919	
0.196067	
0.218559	
0.189264	
0.149578	
0.217117	
0.158891	
0.10171	
0.257058	
0.236012	
0.234782	
0.0943608	
-0.044305	
0.248142	
-0.027017	
-0.0414264	
0.0138602	
0.0704691	
0.0426895	
-0.0352493	
0.0404522	
0.00211411	
0.0706304	
-0.0542955	
0.0162497	
0.0648979	
0.0837629	
0.0409387	
-0.00357468	
-0.0447235	
0.209038	
-0.0294419	
0.177251	
0.106581	
0.10918	
0.0863335	
0.047684	
0.0543291	
0.0726918	
0.0813761	
0.0199698	
0.0592388	
0.0134074	
0.0394421	
0.0206872	
0.0320337	
0.0314928	
0.0452381	
0.0875915	
0.0526587	
0.0572157	
0.0687672	
0.0890241	
0.0462623	
-0.0228406	
-0.0264165	
0.0213996	
-0.0021566	
-0.00800109	
0.034365	
0.0646275	
0.0595128	
0.00490274	
-0.0197813	
-0.0290663	
-0.00858041	
0.0328458	
-0.0618482	
-0.0405281	
-0.0638831	
0.167632	
0.188696	
0.185584	
0.224151	
0.0107006	
0.100553	
0.153938	
0.161347	
0.190173	
0.000209476	
0.151563	
0.129118	
-0.0579676	
-0.0385717	
-0.0293536	
0.134434	
-0.0312634	
0.143458	
-0.00335451	
0.20439	
0.207935	
-0.0688987	
0.0764227	
0.0402583	
0.00268676	
0.0747074	
0.0160718	
0.246168	
0.230385	
0.223698	
-0.0498984	
0.084096	
0.218016	
-0.0134585	
-0.0165889	
0.208756	
0.230491	
0.00749252	
0.0489491	
0.199213	
0.140565	
-0.0616975	
-0.0496415	
0.110949	
-0.0225254	
-0.0174442	
-0.0076767	
-0.00133745	
0.251078	
0.208564	
0.214218	
0.132511	
0.167444	
0.244794	
0.273485	
0.255238	
0.0584891	
0.16949	
0.243496	
0.194352	
0.108592	
0.129896	
0.142515	
0.160633	
0.00597556	
0.120323	
0.0850412	
0.0987135	
0.0671811	
0.120181	
0.117984	
0.1893	
0.150592	
0.19477	
0.116129	
0.156364	
0.129364	
0.167766	
0.117739	
0.125195	
0.158426	
0.206198	
0.140984	
0.151382	
0.159059	
0.158788	
0.141634	
0.266309	
0.268291	
0.277979	
0.265549	
0.281695	
0.250227	
0.117033	
-0.0244225	
0.0225896	
0.0278563	
0.1247	
0.232823	
0.17912	
0.110747	
0.183542	
0.170732	
0.124025	
0.236941	
0.270348	
0.275576	
0.230963	
0.250006	
0.259832	
0.278124	
0.262369	
0.252949	
0.277585	
0.262346	
0.2621	
0.270066	
0.244344	
0.242597	
0.268763	
0.26848	
0.274402	
0.104046	
0.27881	
0.225868	
0.246801	
0.200493	
0.226566	
0.269355	
0.270421	
0.274309	
0.204178	
0.196436	
0.224449	
0.208912	
0.217833	
0.221081	
0.195449	
-0.0464159	
-0.0515942	
0.239594	
0.227263	
0.251891	
0.229976	
0.201602	
0.182504	
0.200801	
0.258648	
0.234194	
0.234063	
0.240753	
0.166292	
0.209395	
0.0849189	
0.261674	
0.249082	
0.0932787	
0.185757	
0.162888	
0.231977	
0.124758	
0.130081	
0.20699	
0.147331	
0.273396	
0.134314	
0.132161	
0.16019	
0.222555	
0.194144	
0.181276	
0.267247	
0.048384	
0.107767	
0.0419255	
0.0774137	
0.195357	
0.18692	
0.154929	
0.184722	
-0.0214959	
0.258876	
0.241599	
-0.00445628	
0.00542059	
-0.0193697	
0.00086405	
0.116671	
0.0892299	
0.158931	
0.166121	
0.189343	
0.153153	
0.190255	
0.00680064	
0.160612	
0.133306	
0.175105	
-0.0381881	
-0.0516192	
-0.0428631	
-0.0510921	
0.116303	
0.11293	
0.142994	
0.133111	
0.151641	
0.0876476	
0.0956144	
0.200601	
0.177817	
0.201788	
0.213457	
0.155364	
0.102555	
0.0904197	
0.0991849	
0.0718357	
0.280799	
0.17314	
0.200725	
0.154233	
0.17144	
0.121106	
0.147331	
0.116548	
0.156458	
0.141984	
0.0160734	
0.206137	
0.214157	
0.180855	
0.239255	
0.237859	
0.15016	
0.176592	
0.124788	
0.128461	
-0.0539724	
-0.0386683	
-0.0630213	
-0.061658	
0.102421	
0.208749	
0.240759	
0.211443	
0.199323	
0.210575	
0.171642	
0.218494	
0.216087	
0.214658	
0.205096	
0.0482232	
0.106457	
0.265721	
0.242589	
0.268123	
0.205204	
0.195517	
0.265547	
0.266965	
0.23245	
0.245376	
0.260265	
0.204732	
0.231394	
0.174383	
0.177332	
0.186846	
0.249025	
0.236125	
0.250015	
0.223126	
0.264824	
0.23221	
0.252041	
0.00119703	
0.18678	
0.198078	
0.166512	
0.238075	
0.240161	
0.232565	
0.22749	
0.246008	
0.256379	
0.107414	
0.135812	
0.124597	
0.140949	
-0.0537015	
0.218238	
0.184446	
0.188199	
0.118004	
0.150669	
0.154451	
0.175142	
0.157004	
0.16586	
-0.0442181	
-0.0330078	
-0.0481093	
-0.0305285	
0.245662	
0.208423	
0.245723	
0.211951	
0.0859807	
0.217092	
0.224276	
0.222339	
0.250001	
0.232802	
0.260952	
0.150614	
0.136324	
0.218795	
0.214735	
0.222613	
0.182416	
0.185991	
0.0241635	
0.068961	
0.266363	
0.227748	
-0.020682	
0.192198	
0.219504	
0.228091	
0.22933	
0.211733	
0.200555	
0.198486	
0.258355	
0.260681	
0.253601	
0.151516	
0.261958	
0.266674	
0.0610041	
0.0847998	
0.0841919	
0.224274	
0.221106	
0.221966	
0.266512	
-0.0675678	
-0.0616847	
0.25668	
0.252005	
0.24446	
0.22274	
-0.0623499	
-0.056744	
0.166999	
0.154231	
0.117537	
0.119357	
0.223517	
0.0768241	
0.0912261	
0.152763	
0.153497	
0.171125	
0.169429	
0.265929	
0.259005	
0.00194613	
0.0170183	
0.0773488	
0.043283	
0.107802	
0.107579	
0.13631	
0.180399	
0.178238	
0.166862	
0.160646	
0.274455	
0.261377	
0.238043	
0.253422	
0.267393	
0.0857635	
0.0795246	
0.207422	
0.206023	
0.188853	
0.188608	
0.0267638	
0.0476319	
0.266299	
0.267329	
0.209596	
0.206811	
0.146736	
0.10867	
0.156161	
0.101729	
0.223013	
0.22991	
0.20516	
0.206621	
0.211998	
0.210234	
0.206863	
0.191079	
0.267106	
0.268678	
0.252804	
0.170459	
0.171399	
0.202145	
0.19851	
0.166066	
0.172298	
0.236598	
0.24246	
0.16268	
0.179415	
0.261456	
0.265603	
0.186396	
0.226102	
0.234776	
0.2188	
0.189299	
0.227008	
0.271342	
0.264394	
0.242497	
0.242377	
0.234898	
0.243304	
0.130749	
0.187959	
0.12696	
0.26451	
0.275259	
0.261385	
0.255602	
0.100403	
0.0726693	
0.0755249	
0.0578493	
0.261883	
0.256197	
0.266537	
0.273396	
0.00699901	
0.256989	
0.266625	
0.263846	
0.25646	
0.127331	
0.165823	
0.26715	
0.275298	
0.265739	
0.119697	
0.132	
0.137573	
0.145954	
0.195192	
0.191748	
0.1866	
0.18973	
0.269538	
0.166016	
0.163375	
0.213453	
0.213713	
-0.00272479	
-0.0121458	
0.24829	
0.262894	
0.262762	
0.195105	
-0.00857466	
0.233391	
0.229453	
0.239002	
0.240917	
0.179603	
0.270466	
0.268612	
0.040547	
0.011171	
0.185095	
-0.0657229	
-0.0589339	
-0.0650687	
0.17622	
0.0653589	
0.0263244	
0.0503463	
0.0252983	
0.24014	
0.127167	
0.166753	
0.263841	
0.249332	
0.264561	
0.262733	
0.266372	
-0.00388992	
-0.0248731	
0.237945	
0.222847	
0.267007	
0.257797	
0.0213388	
0.18344	
0.168829	
0.137623	
0.20459	
0.175235	
0.225701	
0.217435	
0.130678	
0.123654	
0.263914	
0.273757	
0.0653449	
0.0540869	
0.248027	
0.255769	
0.268064	
0.267674	
0.273071	
0.265893	
-0.0589738	
-0.0615195	
0.0986948	
0.0984616	
0.027732	
0.0197218	
0.00985826	
0.245537	
0.246779	
0.220571	
0.23112	
0.214538	
0.221104	
0.273177	
0.198638	
0.259338	
0.243821	
0.238426	
0.125136	
0.0690606	
0.270803	
0.26226	
-0.0365178	
-0.00565855	
0.0114882	
0.0661862	
0.213479	
0.143214	
0.247761	
0.241136	
0.0616461	
0.084621	
0.0380864	
0.246237	
0.160411	
0.164069	
0.254733	
0.25296	
0.093062	
0.0740105	
-0.0140694	
-0.0158824	
0.197013	
0.200539	
0.184097	
0.192762	
0.241205	
0.20802	
0.183935	
0.226291	
0.219161	
0.199146	
0.00954942	
0.0568975	
0.0505577	
0.132718	
0.0742965	
0.185003	
0.214574	
0.261842	
0.102999	
0.103494	
0.210511	
0.199098	
0.252249	
0.130059	
0.131648	
0.100371	
0.0357618	
0.0170463	
0.0443751	
0.0162368	
0.0426972	
0.164317	
0.195085	
0.191937	
0.220298	
0.0733836	
0.0577982	
0.0959538	
0.0801352	
0.164346	
0.163212	
0.175945	
0.173201	
0.164145	
0.179044	
0.17896	
-0.0689735	
-0.0238305	
-0.0632472	
-0.0488241	
-0.0277664	
0.131926	
0.135213	
-0.0645119	
0.110733	
0.127599	
0.0986826	
0.130547	
0.118312	
0.0327196	
-0.0391776	
0.0779991	
0.138233	
-0.0690333	
0.111484	
-0.0628708	
-0.0692187	
-0.0682523	
0.0348591	
0.0708425	
0.263586	
0.240785	
0.267446	
0.24278	
0.269037	
0.26903	
0.137942	
0.0907217	
0.275007	
0.262619	
0.148857	
0.193227	
0.143754	
0.192375	
0.0447172	
0.0604559	
0.213897	
0.0928799	
0.086776	
-0.0651642	
0.173961	
0.0890575	
0.0891045	
0.0542501	
0.181516	
0.258587	
0.268566	
0.193075	
0.017814	
0.0114959	
0.165352	
0.195722	
0.228277	
0.219323	
-0.0521444	
-0.0380519	
0.26906	
0.264534	
0.250721	
-0.0358814	
0.266457	
0.184494	
0.186898	
0.203289	
0.193167	
0.129581	
0.0823122	
0.269363	
0.256659	
0.166765	
0.16966	
0.23398	
0.245333	
0.21474	
0.0556257	
0.0673917	
0.233853	
0.258723	
0.232381	
0.0806878	
0.204583	
0.208803	
0.126862	
0.21696	
0.248076	
-0.0693898	
0.219718	
0.217295	
0.209981	
0.264882	
0.24903	
0.142516	
0.266988	
0.140156	
0.166936	
0.142158	
0.144526	
0.117453	
0.27573	
0.249038	
0.26545	
0.276355	
0.265838	
0.265468	
0.247927	
0.251299	
0.245239	
0.242112	
0.202811	
0.219896	
0.255574	
0.250087	
0.0783288	
0.0481273	
0.240811	
0.254156	
0.270888	
0.251052	
0.270501	
0.0615803	
0.0721315	
0.0695852	
0.0968584	
0.267951	
0.261941	
0.203612	
0.22352	
0.220946	
0.144353	
0.144795	
-0.0661972	
-0.0632659	
0.133132	
0.118455	
0.11629	
0.1131	
0.109852	
0.109602	
0.0847981	
0.260089	
-0.0534714	
-0.0541815	
-0.0687049	
-0.0703805	
0.213032	
0.162718	
0.161671	
0.248521	
-0.0710668	
-0.0662567	
-0.0489708	
-0.0527227	
-0.0678764	
-0.0684861	
0.215112	
0.21686	
0.205996	
0.202884	
-0.029801	
-0.0123623	
-0.0367824	
-0.0211122	
0.119947	
0.123152	
0.0990408	
0.194452	
0.219779	
0.252568	
0.240142	
0.248059	
0.251428	
0.251587	
0.238081	
0.225509	
0.233901	
0.206947	
0.201488	
0.223793	
0.219363	
0.106997	
0.09671	
0.106902	
0.0410395	
-0.00380579	
0.100109	
0.0678797	
-0.0583121	
-0.0402585	
-0.0654894	
0.0757435	
0.17436	
0.122793	
0.119645	
0.0583694	
0.0443127	
-0.0239731	
-0.0442699	
0.227639	
0.226915	
0.0595385	
0.105348	
0.0922226	
0.250889	
0.256297	
0.240306	
0.246127	
0.260926	
0.229565	
0.227325	
0.084068	
0.0713763	
0.121456	
0.102372	
0.131407	
0.121787	
-0.00273933	
0.022694	
0.102231	
0.106626	
0.17335	
0.176282	
0.1252	
0.115219	
0.0905856	
0.08768	
0.176316	
0.173535	
0.161222	
0.125562	
0.160252	
0.166755	
0.234933	
0.247777	
0.162303	
0.152585	
0.126456	
0.167948	
0.191587	
-0.0204794	
0.028561	
-0.028692	
0.249464	
0.249011	
0.232032	
0.217511	
0.185072	
0.164016	
0.181503	
0.179915	
-0.0366399	
-0.0422608	
-0.056057	
-0.0586189	
0.0458488	
0.0720753	
0.0846731	
0.168283	
0.144999	
0.181444	
0.187007	
0.208256	
0.186433	
0.253258	
0.249576	
0.225437	
0.233866	
0.233758	
0.234069	
-0.0478788	
-0.0536378	
-0.0349673	
-0.0400987	
0.178962	
0.158298	
0.168264	
0.167469	
0.0337621	
0.0967464	
0.0949768	
0.0866617	
0.0913097	
0.2452	
0.257872	
0.0589283	
0.0291089	
0.263146	
0.26189	
0.249147	
0.264302	
0.260717	
0.263201	
0.0179788	
0.239381	
0.23784	
0.198873	
0.0949626	
0.0848532	
0.0708285	
0.074903	
0.142672	
0.147303	
0.229686	
0.245645	
0.255751	
0.258543	
0.177595	
0.172825	
0.0844696	
0.0934378	
0.234151	
0.22549	
0.0617096	
0.0788123	
0.127602	
0.107963	
0.130078	
0.150564	
0.108053	
0.118739	
0.11925	
0.0820289	
0.015221	
0.0423925	
0.0986836	
0.0804403	
0.251645	
0.267945	
-0.016186	
0.140659	
0.113762	
0.261813	
0.260268	
0.0631662	
0.0711142	
0.103624	
0.0792437	
0.0849545	
0.0879065	
0.0279045	
0.0583277	
0.086803	
0.0751709	
0.135865	
0.125906	
0.0744623	
0.0506072	
0.0891543	
0.0611148	
0.224472	
0.226262	
0.168555	
0.18334	
0.148817	
0.139595	
0.0409706	
0.0101989	
-0.0481561	
0.00555105	
0.0214769	
0.019697	
-0.00706249	
0.166035	
-0.0208503	
0.135887	
0.137626	
-0.016811	
-0.0438199	
-0.0345322	
-0.0431745	
0.110389	
0.117998	
0.0418242	
0.043649	
0.0396741	
0.189921	
0.162606	
0.264027	
0.25991	
0.106244	
0.0855391	
0.0761087	
0.0737354	
0.0863995	
0.127422	
0.124318	
0.149699	
0.149148	
0.0628922	
0.0659671	
0.0185099	
0.00902826	
0.08207	
0.0585344	
0.0615447	
0.0384268	
0.100764	
0.102729	
0.0910055	
0.0843051	
0.0929121	
0.0856501	
0.0529583	
0.270701	
0.268867	
0.264273	
0.269663	
0.101328	
0.105363	
0.0933331	
0.0990016	
0.0971924	
0.100011	
0.0970582	
-0.015892	
0.00125282	
-0.0071136	
0.00944209	
0.0267612	
0.0380902	
0.0180684	
0.00806142	
-0.0121174	
-0.00363194	
0.00423027	
0.033791	
0.0198325	
0.0242375	
0.0124213	
0.00419487	
0.0203019	
0.00276229	
0.0122004	
-0.0103966	
-0.0176777	
-0.0136179	
-0.00472767	
0.0271163	
0.0249939	
0.0186441	
0.0106712	
-0.0146081	
-0.0099922	
-0.004186	
0.00249017	
0.0332838	
-0.063387	
-0.0489839	
0.00463368	
0.0328546	
-0.0256664	
-0.0309414	
-0.00880196	
0.02983	
0.0235308	
0.00310688	
-0.051628	
0.00223618	
-0.0289865	
-0.072633	
-0.055053	
0.0311228	
0.0156212	
-0.00487762	
-0.0666732	
-0.0419294	
-0.0176052	
0.0245053	
0.135077	
0.173282	
0.171705	
0.115403	
0.14123	
-0.0285466	
0.0726944	
0.140801	
0.0536905	
0.0950149	
0.127713	
0.046672	
0.037855	
0.117715	
0.118808	
0.0933478	
0.0944618	
0.0775279	
0.102959	
0.126094	
0.172124	
0.174249	
-0.0602501	
-0.0660521	
-0.0509454	
-0.0511123	
0.00174342	
0.0229708	
0.0111886	
0.163932	
0.149593	
0.15384	
0.0456714	
0.161577	
0.153181	
0.170108	
0.171123	
0.167725	
0.161634	
0.168753	
0.16948	
-0.0551593	
-0.0416003	
0.14377	
0.149572	
0.134864	
0.159303	
0.15832	
0.164173	
0.157466	
0.146233	
0.145784	
0.169123	
0.154386	
0.173047	
0.174876	
0.102775	
0.108878	
0.128111	
0.173646	
0.174977	
-0.0389331	
-0.0216001	
0.009175	
-0.00405082	
-0.0277683	
-0.00572309	
-0.0258094	
0.0564276	
0.0357858	
0.0783453	
0.0745972	
0.118044	
0.135718	
0.111832	
0.130806	
0.101625	
0.160315	
0.164245	
0.126938	
0.0931497	
-0.151698	
-0.0304964	
0.031732	
0.0662315	
-0.025294	
0.0335836	
0.0455987	
-0.0297249	
0.059678	
0.0333875	
-0.00253832	
-0.00545234	
0.00808897	
0.0349288	
0.0444247	
0.134616	
0.155723	
-0.150304	
-0.17201	
-0.125807	
-0.129353	
-0.109853	
-0.0922745	
-0.0829169	
0.0844897	
0.113025	
0.0922269	
-0.0664528	
-0.0778293	
0.127406	
0.118807	
0.139144	
0.127485	
0.128936	
0.138531	
0.131958	
0.124305	
-0.159448	
-0.166524	
0.0720526	
0.0868413	
0.103073	
0.106023	
0.0829739	
0.0870012	
0.110322	
0.115566	
0.152176	
0.150932	
0.1586	
0.162967	
0.0464025	
0.0992675	
0.0720935	
0.163553	
0.158457	
-0.144722	
-0.143481	
-0.118705	
-0.113459	
-0.109096	
-0.143306	
-0.121999	
-0.0186218	
-0.0644744	
-0.0359723	
-0.0660076	
0.0374081	
0.0695882	
0.0158744	
0.0695087	
0.0440115	
-0.0505765	
0.0708911	
0.165207	
0.217822	
0.212047	
0.211185	
0.190904	
0.206636	
0.195727	
0.185361	
0.207393	
0.200713	
0.204821	
0.191936	
0.199783	
0.195115	
0.172674	
0.154822	
0.174117	
0.183805	
0.179309	
0.213102	
0.174543	
0.205047	
0.203752	
0.189795	
0.209827	
0.1971	
0.205448	
0.0913214	
0.0978645	
-0.0957175	
-0.0181293	
0.20197	
0.17036	
0.212636	
0.156279	
0.191812	
0.0945009	
0.172488	
0.183037	
0.212441	
-0.207515	
0.175084	
0.207643	
0.187742	
0.19425	
0.110065	
0.102449	
0.147085	
0.100161	
0.131116	
-0.00455745	
-0.361148	
0.0181533	
0.117513	
0.12521	
-0.0709117	
-0.0278918	
0.0197987	
0.0494767	
-0.247215	
-0.328225	
-0.338567	
-0.343658	
-0.196315	
-0.00298781	
-0.0117836	
-0.232413	
-0.266973	
-0.150108	
-0.00347459	
-0.2597	
-0.293015	
-0.330788	
-0.331895	
-0.165408	
0.00918289	
-0.0860048	
-0.345038	
-0.343327	
-0.0820377	
0.175526	
0.089648	
0.170224	
-0.347695	
-0.0483545	
0.140598	
-0.0350496	
-0.00699426	
0.152913	
-0.246396	
-0.0274629	
-0.089572	
-0.132917	
-0.206425	
-0.0649775	
0.157366	
-0.0955765	
0.0958922	
-0.0995348	
0.117714	
0.0843963	
0.0280579	
0.0701644	
-0.241184	
-0.223854	
0.0811575	
-0.00594657	
-0.103268	
-0.0391403	
-0.137213	
-0.102339	
-0.251707	
-0.0751122	
-0.0771313	
-0.159759	
0.151734	
-0.153704	
-0.326155	
0.124709	
-0.322146	
-0.319858	
-0.00305358	
0.0551445	
-0.317918	
-0.123772	
-0.18018	
-0.139181	
0.197324	
0.110868	
0.120311	
0.119988	
0.051075	
0.0517394	
-0.00945908	
0.0415061	
-0.214747	
-0.137701	
0.170562	