<VTKFile type="UnstructuredGrid" version="0.1" byte_order="LittleEndian">
	<UnstructuredGrid>
		<Piece NumberOfPoints="3959" NumberOfCells="7450">
			<CellData Scalars="scalars">
				<DataArray type="Float64" Name="Doublet Strengths" NumberOfComponents="1" Format="ascii">
-0.0703722	
-0.0551355	
0.00110168	
0.0312944	
-0.0306578	
-0.0405365	
-0.0167942	
0.0262572	
0.0183418	
-0.00376917	
-0.0628378	
0.00377133	
-0.0266595	
-0.0685505	
-0.0518995	
0.0316308	
0.0194237	
-5.53979e-06	
-0.0583797	
-0.0350721	
-0.0119712	
0.0269289	
0.134111	
0.171394	
0.169777	
0.112715	
0.132503	
-0.109644	
0.0311452	
0.119228	
0.0315279	
0.0832597	
0.105683	
0.00934143	
-0.00620995	
0.0879132	
0.0932192	
0.0615304	
0.0598988	
0.0595069	
0.080452	
0.105101	
0.162522	
0.170263	
-0.0933869	
-0.104582	
-0.10255	
-0.146979	
-0.0581302	
-0.0335871	
-0.0202804	
0.15186	
0.132744	
0.137414	
-0.00121628	
0.149807	
0.14632	
0.158703	
0.16198	
0.155367	
0.160355	
0.157423	
0.16069	
-0.125845	
-0.171187	
0.122324	
0.128999	
0.110286	
0.142836	
0.142107	
0.156306	
0.148506	
0.131146	
0.132547	
0.165614	
0.15162	
0.1705	
0.170531	
0.086587	
0.100408	
0.120999	
0.171748	
0.171093	
-0.0874396	
-0.0894564	
-0.0407491	
-0.0427916	
-0.062754	
-0.0532405	
-0.0830114	
0.0304012	
0.00397083	
0.0512408	
0.0419585	
0.0969432	
0.120512	
0.0945316	
0.117253	
0.10534	
0.163593	
0.167214	
0.129295	
0.101102	
-0.0738883	
0.00977085	
0.0569869	
0.0878759	
-0.00423889	
0.0498083	
0.0676011	
0.00184871	
0.0840611	
0.0626424	
0.0310958	
0.0255384	
0.0256407	
0.0560028	
0.065475	
0.145074	
0.160942	
-0.101909	
-0.0802236	
-0.0958737	
-0.0939892	
-0.0621644	
-0.0377343	
-0.0535823	
0.101801	
0.125951	
0.109115	
-0.0212206	
-0.0355722	
0.136407	
0.126799	
0.148983	
0.140341	
0.140988	
0.142731	
0.141799	
0.136428	
-0.0921111	
-0.0402502	
0.0935422	
0.107467	
0.119649	
0.122781	
0.0986536	
0.10095	
0.123011	
0.125569	
0.154964	
0.155869	
0.163862	
0.166355	
0.0583108	
0.108895	
0.0810895	
0.166657	
0.16344	
-0.0798218	
-0.0891433	
-0.0613025	
-0.0812903	
-0.0727923	
-0.097855	
-0.0769429	
0.00757337	
-0.0286769	
-0.0112231	
-0.0359573	
0.0547502	
0.0836837	
0.0380447	
0.085208	
-0.00809575	
-0.179637	
0.0272258	
0.167277	
0.215695	
0.207324	
0.207498	
0.190588	
0.202764	
0.19268	
0.183444	
0.205388	
0.199193	
0.199972	
0.182859	
0.194145	
0.190455	
0.169866	
0.162767	
0.171198	
0.179874	
0.175466	
0.208291	
0.174639	
0.197693	
0.198376	
0.184347	
0.203487	
0.192928	
0.204764	
0.115382	
0.108059	
-0.0322135	
0.0112097	
0.196058	
0.175895	
0.210412	
0.165022	
0.187468	
0.0567437	
0.17815	
0.184321	
0.207499	
-0.253911	
0.178196	
0.202089	
0.189823	
0.194832	
0.13316	
0.125931	
0.157713	
0.123993	
0.145462	
-0.075378	
-0.277156	
-0.0435895	
0.0867026	
0.0950377	
-0.233336	
-0.111939	
-0.0395105	
-0.00281651	
-0.367647	
-0.177493	
-0.221606	
-0.376883	
-0.221167	
-0.0307403	
-0.0860896	
-0.302756	
-0.345077	
-0.204432	
-0.0723698	
-0.316042	
-0.353303	
-0.385626	
-0.392737	
-0.306918	
-0.054194	
-0.144849	
-0.386087	
-0.37522	
-0.0993543	
0.162728	
0.102987	
0.152317	
-0.226161	
0.00978098	
0.115778	
0.0256092	
0.0189375	
0.128812	
-0.0854493	
0.0391975	
-0.108344	
-0.154281	
-0.299896	
-0.0348608	
0.134677	
-0.0527267	
0.0600176	
-0.0145854	
0.0844382	
0.0416852	
0.0250035	
0.068409	
-0.284324	
-0.261445	
0.053798	
0.0365175	
-0.0191852	
0.0269053	
-0.0801714	
-0.0251644	
-0.288577	
-0.129925	
-0.12827	
-0.0813434	
0.141512	
-0.0648544	
-0.152144	
0.100362	
-0.169427	
-0.177571	
0.0494318	
0.0828303	
-0.225981	
-0.142073	
-0.197706	
-0.0411035	
0.186065	
0.0840348	
0.0875727	
0.0868581	
0.006933	
0.00692158	
-0.0234088	
0.0292635	
-0.303176	
-0.206834	
0.152926	
0.129175	
0.127744	
0.139444	
-0.101495	
-0.0760101	
-0.0778016	
-0.0339026	
-0.0205382	
0.00825574	
0.163857	
0.0518166	
0.0823382	
0.172178	
0.167405	
0.076684	
-0.248274	
0.188633	
0.108702	
-0.0558063	
-0.124068	
0.178263	
0.199145	
0.055768	
0.153031	
-0.279094	
-0.192965	
0.114779	
0.111356	
0.12456	
0.0231809	
0.193842	
0.17016	
0.150425	
0.153502	
0.137265	
0.161134	
0.185414	
0.181534	
0.160348	
-0.0333664	
0.0377401	
0.146218	
0.162273	
0.146639	
0.179168	
0.188826	
0.0563892	
0.169601	
0.081897	
0.0621714	
0.0533837	
0.0596747	
0.119127	
0.186547	
0.106811	
0.0805962	
0.0552778	
0.0625642	
0.116756	
0.119274	
0.137069	
0.135776	
0.060449	
0.00648183	
0.0215447	
-0.0277881	
0.187572	
0.206923	
0.188445	
0.181617	
0.19329	
0.0989439	
0.101715	
0.182822	
0.104353	
-0.206968	
0.085067	
0.0176114	
0.0704066	
0.0837753	
0.174529	
0.0258308	
-0.102181	
-0.0716443	
0.0574586	
0.059083	
0.0216011	
0.148831	
0.178688	
0.100607	
0.0944708	
0.184347	
0.142848	
0.0932572	
0.0357768	
0.0276955	
0.0602867	
0.0633685	
0.0117719	
0.140841	
0.1465	
-0.339094	
-0.297187	
-0.194002	
-0.154257	
-0.0914417	
0.117029	
0.108415	
0.128587	
0.161866	
0.148936	
0.124949	
0.181831	
-0.185169	
-0.194977	
-0.360532	
-0.329949	
0.0453151	
-0.0895546	
0.0321646	
-0.326862	
-0.352931	
0.00217363	
-0.0125718	
0.00965963	
0.000233563	
-0.111628	
-0.071789	
-0.0639242	
-0.0155621	
0.0173035	
-0.00426979	
0.0635265	
0.0839727	
0.108581	
-0.0113752	
-0.0422118	
-0.0112386	
-0.0298548	
-0.010611	
0.0334264	
0.109973	
0.110196	
0.0915804	
0.0224074	
0.000194124	
-0.0743796	
0.134672	
0.0956681	
0.018546	
0.00518998	
0.190998	
-0.214557	
0.0611616	
-0.0207813	
-0.0324962	
0.210581	
0.190338	
0.202599	
-0.214921	
-0.167615	
-0.113079	
-0.00263858	
-0.122971	
-0.0726898	
0.198569	
0.183749	
0.13882	
0.114195	
0.0650749	
-0.0641137	
-0.135891	
-0.08852	
0.178818	
0.0278346	
-0.387998	
-0.390802	
-0.389097	
-0.216944	
0.0598745	
-0.000667205	
-0.00431503	
0.0153967	
0.0149583	
0.0222557	
-0.0159041	
0.124513	
0.11974	
-0.140784	
-0.0721593	
-0.195092	
-0.131869	
-0.0506176	
-0.16631	
-0.0766635	
0.0419517	
-0.264129	
-0.246696	
0.135848	
0.0605185	
0.106273	
-0.0412728	
-0.00357602	
0.154779	
0.156003	
0.13715	
0.154403	
0.141804	
0.0742947	
0.0518243	
0.137155	
0.0442226	
0.196054	
0.185627	
-0.115463	
-0.248034	
0.181072	
0.177636	
0.187529	
0.0185211	
0.189152	
0.200738	
0.18709	
0.197005	
0.205865	
0.190524	
-0.228051	
-0.256864	
0.206149	
0.18771	
0.19356	
0.180771	
-0.35644	
0.035803	
0.00749815	
0.0212505	
0.189554	
0.172315	
0.15718	
0.179535	
0.0616064	
0.0637339	
0.0134875	
0.0167126	
0.13185	
-0.141864	
0.0279482	
0.0717551	
-0.0607028	
0.144455	
0.153785	
0.125011	
0.0914015	
0.201901	
0.0353232	
0.0813671	
-0.0241088	
-0.0106061	
0.103357	
0.128048	
0.135232	
0.046985	
-0.0674021	
-0.042763	
-0.0240683	
0.0172285	
0.0539681	
0.0837936	
-0.0275582	
0.0348257	
-0.0219384	
0.196611	
0.181568	
0.0665522	
-0.00885452	
0.0858153	
0.147561	
-0.00545447	
-0.119047	
-0.00851907	
-0.121282	
0.102791	
-0.0355872	
-0.0394922	
-0.0241246	
0.122521	
0.0934614	
0.0897858	
0.0329111	
0.0942054	
0.0553782	
0.0041315	
0.00779624	
0.0279202	
0.0221634	
0.0068744	
-0.0397064	
-0.0867998	
0.115332	
0.0373713	
0.0356434	
0.0225904	
0.128426	
0.0256378	
-0.0141143	
0.0662181	
0.0774769	
0.104718	
-0.345021	
-0.0108714	
-0.0349624	
0.057233	
0.0652345	
0.150466	
0.0913491	
0.0796883	
0.0712303	
-0.112994	
-0.0723525	
0.0355221	
0.00915103	
-0.0220585	
-0.067668	
0.0955033	
0.0641237	
0.0570752	
0.0592797	
-0.0474041	
0.0284269	
-0.250512	
-0.234002	
-0.150358	
-0.137107	
0.14324	
-0.0464353	
-0.169535	
0.128277	
-0.0931439	
0.0260521	
-0.14521	
-0.217498	
-0.0683287	
-0.0361991	
0.0153581	
-0.0182207	
-0.0994011	
-0.16001	
-0.0894109	
-0.0410234	
-0.0243924	
-0.00202207	
-0.150442	
0.130207	
0.00797525	
0.0350059	
0.0736364	
-0.107469	
-0.0729263	
-0.0863984	
-0.141153	
-0.215289	
0.120402	
0.108304	
-0.0214697	
0.0312153	
-0.113066	
-0.135842	
0.109783	
0.0363751	
0.0678698	
-0.0308865	
-0.0135075	
-0.120649	
-0.0815499	
-0.312365	
-0.349784	
0.0469423	
-0.249398	
0.0448106	
0.00290867	
-0.143235	
0.132924	
-0.0995293	
-0.0889009	
-0.0145586	
-0.0604782	
0.182864	
0.096052	
0.145054	
0.0807376	
0.101256	
0.202717	
0.190186	
-0.0530504	
-0.0455481	
0.0459747	
0.0633884	
-0.342635	
-0.136867	
-0.166609	
-0.385866	
-0.019366	
0.0490392	
-0.0329451	
-0.042877	
-0.13948	
-0.114385	
0.0322314	
-0.0110106	
0.00293692	
0.193559	
0.178084	
0.0641831	
0.00222691	
-0.0373672	
0.0853211	
0.116752	
0.0385799	
0.0705879	
0.0251476	
-0.0549841	
0.189194	
0.207258	
0.204368	
0.192313	
-0.19613	
0.185167	
0.16378	
-0.00358419	
-0.0915908	
0.0159165	
0.155839	
0.175128	
0.154253	
0.174494	
0.162654	
0.13973	
0.0641957	
0.049496	
-0.00184054	
0.00363392	
0.117399	
0.124166	
-0.131561	
-0.366588	
-0.344153	
0.0391509	
0.0270395	
0.197229	
0.178736	
0.212153	
0.19587	
0.14797	
0.115464	
-0.0738068	
0.107245	
0.138889	
0.125529	
0.142194	
0.143092	
0.161574	
0.156221	
0.135696	
-0.208449	
-0.230856	
0.17686	
0.161884	
0.0967679	
0.0560316	
0.143238	
0.141992	
0.202875	
0.189368	
-0.0350691	
-0.0944415	
-0.159777	
-0.073658	
0.0139395	
0.10069	
0.0430626	
0.112418	
-0.0878798	
-0.076046	
-0.254915	
0.114453	
0.110844	
0.166457	
0.191015	
-0.0738216	
0.0362509	
-0.0407257	
0.0162056	
-0.0522356	
-0.0153431	
0.056848	
0.0585818	
0.108307	
-0.0272345	
-0.0279151	
-0.0402088	
-0.0450423	
0.202424	
0.175661	
0.178999	
-0.105756	
-0.153268	
0.0634521	
-0.0103858	
0.0577271	
-0.0419403	
0.0612187	
0.0521316	
-0.0834964	
-0.0919988	
0.074774	
-0.00509719	
0.00303227	
-0.300005	
-0.0092066	
0.0366188	
0.0765569	
0.0796905	
-0.159445	
-0.171322	
-0.240641	
-0.0210412	
0.0189819	
0.164381	
0.151607	
0.00727775	
0.0647977	
0.0862055	
0.0916762	
-0.0058162	
-0.0469607	
-0.101269	
-0.102892	
0.192383	
0.181351	
0.185744	
0.0599362	
0.0624138	
0.113695	
0.0570734	
-0.140574	
-0.137774	
-0.19485	
-0.09576	
-0.0885944	
-0.0165694	
0.11198	
0.113494	
0.0776915	
0.0388626	
-0.180218	
-0.181331	
-0.0126103	
-0.0320166	
-0.224179	
-0.197551	
-0.269549	
-0.119294	
0.17097	
0.155253	
0.129512	
0.189586	
0.209129	
-0.0758027	
-0.014906	
-0.0701856	
0.0630676	
0.108108	
0.0224759	
0.0682436	
0.0982731	
0.125884	
0.10211	
0.128449	
-0.0371243	
-0.0228365	
0.141516	
0.140337	
-0.163222	
-0.1371	
-0.204882	
0.184037	
0.191747	
0.183267	
0.138793	
0.103019	
0.155971	
0.107245	
0.153228	
0.0759756	
0.133709	
0.130577	
0.165056	
-0.055833	
-0.045763	
-0.0480971	
0.135791	
-0.0567807	
-0.0762205	
-0.17646	
0.0554508	
0.0299808	
-0.243465	
-0.250619	
-0.0525767	
-0.0597364	
0.116949	
0.0643296	
-0.130902	
-0.299643	
-0.264059	
0.176278	
0.174686	
0.158604	
0.174165	
0.172011	
0.0451447	
0.0871178	
0.0290157	
0.0361725	
0.185107	
-0.0422937	
-0.201969	
-0.0410799	
0.0186755	
-0.0186002	
-0.0269375	
0.0141028	
-0.344194	
0.0515769	
0.0608347	
0.141433	
0.110774	
0.156617	
0.124065	
0.142204	
0.132284	
0.130016	
0.0251165	
0.0568713	
0.0494768	
0.076322	
0.12992	
0.108522	
0.0252453	
0.139104	
0.15355	
0.105146	
0.122545	
0.112174	
0.136862	
0.11737	
0.114533	
0.0519334	
0.0543362	
0.128528	
0.109693	
0.117826	
0.0721843	
-0.0642022	
-0.0662055	
-0.0510708	
-0.0180639	
-0.0992257	
-0.0337458	
0.0718444	
0.0534204	
0.101068	
0.15763	
0.123577	
0.137107	
0.0847442	
0.00735785	
-0.0140081	
0.056086	
-0.0169351	
0.0159737	
-0.0301521	
0.0526483	
0.178536	
0.178203	
-0.321393	
-0.281684	
0.121681	
0.112115	
-0.0102103	
-0.0250596	
0.129372	
-0.075623	
-0.0591994	
0.17362	
0.159391	
0.188136	
0.206847	
0.0574728	
0.0340882	
0.141002	
0.124816	
0.175958	
0.0178969	
0.0583636	
0.121919	
0.0758351	
0.113119	
0.0850433	
0.11169	
0.206047	
0.030436	
0.0306428	
0.179929	
0.0497056	
0.10355	
0.102137	
0.028423	
0.00345688	
0.106203	
0.112603	
0.146219	
0.18481	
0.189889	
0.199679	
-0.208197	
0.12106	
0.0696992	
-0.0597897	
0.0299062	
0.0674133	
0.143614	
0.141352	
0.19597	
0.187316	
0.154141	
0.145275	
-0.203992	
-0.128114	
-0.0937192	
-0.110576	
0.0831658	
0.0640919	
0.0710136	
-0.0907867	
-0.0620757	
-0.269324	
-0.0825897	
-0.0733571	
-0.132039	
-0.278717	
-0.21758	
-0.148473	
-0.137227	
-0.120786	
-0.102365	
0.146658	
0.134653	
0.0699867	
-0.0633168	
-0.0524696	
-0.146214	
-0.146224	
-0.212904	
-0.209674	
-0.0541533	
-0.0723421	
-0.339783	
-0.0499974	
-0.197009	
0.0878742	
0.0919504	
0.0646868	
0.0666649	
0.170324	
0.169644	
-0.0539728	
-0.0968569	
-0.000859434	
-0.0041152	
0.046811	
0.0272914	
0.0432124	
0.0262857	
-0.200645	
-0.226454	
-0.168238	
-0.0232679	
0.133479	
0.120526	
0.0568444	
0.0363086	
-0.248726	
-0.229922	
-0.0901059	
-0.193449	
-0.233908	
-0.215759	
-0.268784	
0.199995	
0.183234	
-0.0266508	
-0.083189	
-0.0611792	
-0.0553234	
-0.0815423	
-0.191117	
-0.174782	
0.0541017	
0.00960334	
-0.158922	
-0.0527226	
-0.257997	
-0.248759	
-0.150734	
-0.131011	
-0.138883	
-0.125672	
-0.150893	
-0.149251	
-0.104549	
-0.103677	
0.147916	
0.0748114	
0.132342	
0.114402	
0.111471	
0.115228	
0.0813538	
-0.236245	
-0.191233	
-0.196298	
-0.206969	
-0.199327	
-0.265174	
-0.274199	
-0.320441	
-0.180603	
-0.11996	
-0.2191	
-0.193393	
-0.292468	
-0.3374	
-0.336991	
-0.372798	
-0.0354517	
-0.0380714	
-0.0400629	
-0.0477978	
-0.212642	
-0.219301	
-0.17143	
-0.16133	
-0.129867	
-0.138893	
-0.0954298	
-0.310509	
-0.0372523	
-0.0221259	
-0.310561	
-0.268407	
-0.0137853	
-0.0236437	
-0.0286764	
-0.149399	
-0.145319	
-0.0267394	
-0.0355808	
-0.0795595	
-0.0868156	
-0.174177	
-0.165892	
0.0871922	
0.020608	
0.000419288	
-0.00593655	
0.0961729	
0.0478199	
-0.12279	
-0.0985663	
-0.120516	
-0.0185659	
-0.284664	
-0.333482	
-0.0999744	
-0.116037	
0.195615	
0.121214	
0.208921	
0.179691	
-0.381391	
-0.375037	
0.0439622	
0.000418431	
-0.314777	
-0.281718	
-0.335801	
-0.301979	
-0.285013	
-0.295603	
-0.223451	
-0.193358	
-0.32226	
-0.361222	
-0.360522	
-0.356495	
-0.354475	
-0.186479	
-0.132392	
-0.107021	
-0.302731	
-0.329482	
-0.356427	
-0.2474	
0.187651	
0.155827	
0.208869	
0.191349	
-0.330483	
-0.301924	
-0.221828	
-0.210075	
-0.196503	
-0.00740862	
-0.00809536	
-0.300433	
-0.299949	
-0.335618	
-0.305028	
-0.327667	
-0.0598812	
-0.070706	
-0.0830078	
-0.104921	
-0.220029	
-0.261596	
-0.220753	
-0.246723	
-0.275567	
-0.307364	
0.208103	
0.183184	
0.181335	
0.141826	
-0.251896	
-0.137556	
-0.12572	
-0.138621	
0.181013	
0.13779	
0.160715	
0.0804029	
-0.354131	
0.0808628	
0.125197	
0.114062	
0.135406	
-0.338972	
-0.35775	
-0.34192	
-0.345837	
-0.336809	
-0.343255	
-0.301868	
-0.11119	
-0.101141	
-0.0998364	
-0.0998372	
0.136537	
0.194976	
0.133072	
0.192543	
0.128867	
0.11962	
0.122635	
0.0729236	
-0.25572	
-0.27665	
-0.255396	
-0.240767	
-0.346299	
-0.361092	
-0.34768	
-0.354019	
0.077	
0.136428	
0.0812133	
0.137992	
0.16332	
0.129553	
0.150486	
0.0925511	
0.112206	
0.0881837	
0.11145	
0.087445	
0.173422	
0.201754	
0.204969	
0.20972	
0.220678	
0.143576	
0.231222	
0.236369	
0.236349	
0.244549	
0.248937	
0.254456	
0.228572	
0.190748	
0.16906	
0.048804	
0.256116	
-0.00571383	
0.00146715	
-0.0315912	
0.182773	
0.248854	
0.23423	
0.26562	
0.261627	
0.268629	
0.256273	
0.263406	
0.25398	
0.246525	
0.172019	
0.217154	
0.196333	
0.218871	
0.189519	
0.149824	
0.217351	
0.159243	
0.101901	
0.257295	
0.236276	
0.234949	
0.094525	
-0.0442613	
0.248364	
-0.0271136	
-0.0381767	
0.0158058	
0.0722773	
0.0447224	
-0.0319138	
0.0422214	
0.00440996	
0.072384	
-0.051088	
0.01888	
0.0664053	
0.0865647	
0.0442918	
-0.00103444	
-0.0419245	
0.210571	
-0.0285063	
0.178659	
0.109583	
0.110705	
0.0883207	
0.0508391	
0.0575309	
0.0762728	
0.08427	
0.0237939	
0.0619937	
0.0167174	
0.0426162	
0.02409	
0.0340737	
0.0329928	
0.0467035	
0.0908249	
0.055994	
0.0604448	
0.0721061	
0.091859	
0.0496483	
-0.0192944	
-0.0233849	
0.024257	
0.000927372	
-0.00426777	
0.0373298	
0.0677248	
0.0629735	
0.00868894	
-0.016127	
-0.0262228	
-0.00564734	
0.0354224	
-0.0589118	
-0.0371013	
-0.0637152	
0.168906	
0.189921	
0.186867	
0.224941	
0.0113965	
0.101658	
0.154824	
0.162238	
0.190897	
0.000424548	
0.153057	
0.130912	
-0.0579158	
-0.038655	
-0.028406	
0.136806	
-0.0309697	
0.144173	
-0.00293269	
0.205312	
0.20867	
-0.068563	
0.0770499	
0.0409197	
0.00302282	
0.0755638	
0.0166217	
0.246654	
0.231065	
0.224436	
-0.0499461	
0.0856966	
0.21885	
-0.0131429	
-0.0162603	
0.210148	
0.231582	
0.00799005	
0.0494108	
0.200276	
0.141755	
-0.0614521	
-0.0493577	
0.112899	
-0.0222825	
-0.017186	
-0.00744052	
-0.0010884	
0.251555	
0.209366	
0.215219	
0.134865	
0.169584	
0.246149	
0.2739	
0.255641	
0.0593993	
0.170801	
0.243959	
0.19525	
0.109723	
0.130825	
0.143939	
0.161765	
0.00641201	
0.122121	
0.0873128	
0.100671	
0.0696222	
0.121722	
0.119402	
0.190546	
0.151937	
0.195835	
0.116912	
0.157303	
0.130607	
0.168871	
0.119215	
0.126597	
0.16058	
0.206664	
0.141748	
0.152073	
0.159684	
0.15952	
0.142566	
0.267227	
0.269074	
0.278402	
0.266305	
0.282166	
0.250982	
0.119417	
-0.0243365	
0.0227387	
0.0279656	
0.126844	
0.233506	
0.180161	
0.111483	
0.184011	
0.171834	
0.125323	
0.237625	
0.270738	
0.275938	
0.231682	
0.250601	
0.260358	
0.2785	
0.262886	
0.253824	
0.278021	
0.263096	
0.263031	
0.270591	
0.244838	
0.243504	
0.26964	
0.269366	
0.274812	
0.104495	
0.279242	
0.226207	
0.248199	
0.201133	
0.226956	
0.270185	
0.270879	
0.274719	
0.204604	
0.1972	
0.22483	
0.209714	
0.218221	
0.222754	
0.195922	
-0.0461709	
-0.0513854	
0.240815	
0.228638	
0.252768	
0.231314	
0.202062	
0.183391	
0.201193	
0.259812	
0.235723	
0.235603	
0.241281	
0.166731	
0.209783	
0.0866581	
0.26207	
0.249457	
0.0934881	
0.186226	
0.163755	
0.232335	
0.125078	
0.130362	
0.208061	
0.14765	
0.273778	
0.13565	
0.133466	
0.161252	
0.222995	
0.194774	
0.182025	
0.267991	
0.0489979	
0.108237	
0.0425064	
0.0779147	
0.196916	
0.188608	
0.15602	
0.185962	
-0.0207475	
0.260053	
0.242946	
-0.00426144	
0.00557879	
-0.0191851	
0.000974912	
0.118074	
0.0907696	
0.159743	
0.168063	
0.191093	
0.155275	
0.192068	
0.00708129	
0.162565	
0.135471	
0.176924	
-0.0382453	
-0.0516419	
-0.0428529	
-0.0510497	
0.117597	
0.114218	
0.143951	
0.134179	
0.153234	
0.0890288	
0.0969861	
0.202038	
0.178733	
0.202567	
0.214068	
0.155782	
0.1031	
0.0909708	
0.100585	
0.0731288	
0.281249	
0.174205	
0.201603	
0.155413	
0.172438	
0.123595	
0.148828	
0.118339	
0.157781	
0.143473	
0.0163157	
0.207056	
0.214871	
0.182899	
0.239951	
0.238558	
0.151247	
0.177467	
0.125954	
0.12955	
-0.0539695	
-0.0387192	
-0.0629623	
-0.0615908	
0.103339	
0.20973	
0.24158	
0.212417	
0.200896	
0.212032	
0.173327	
0.219099	
0.216879	
0.215427	
0.206054	
0.0496749	
0.107809	
0.266756	
0.243954	
0.268984	
0.206903	
0.19728	
0.266269	
0.267916	
0.233278	
0.246118	
0.260864	
0.206526	
0.232942	
0.175473	
0.178365	
0.187708	
0.249551	
0.23683	
0.25054	
0.223938	
0.265842	
0.233734	
0.253323	
0.00223592	
0.188099	
0.199194	
0.168084	
0.238897	
0.241134	
0.233614	
0.228675	
0.246848	
0.257132	
0.10881	
0.136903	
0.125854	
0.142002	
-0.0531004	
0.219932	
0.186399	
0.190114	
0.119839	
0.152855	
0.1566	
0.177098	
0.158024	
0.166748	
-0.0439825	
-0.032771	
-0.0479429	
-0.0303309	
0.247054	
0.210228	
0.247102	
0.213706	
0.0886096	
0.218007	
0.224982	
0.223245	
0.250607	
0.233598	
0.261454	
0.152363	
0.138329	
0.219538	
0.215616	
0.223276	
0.18285	
0.186281	
0.0243708	
0.0691047	
0.267207	
0.229028	
-0.0199578	
0.193149	
0.220258	
0.229701	
0.230939	
0.213516	
0.200873	
0.198943	
0.259177	
0.261397	
0.254419	
0.152327	
0.262192	
0.266979	
0.0638572	
0.0871873	
0.0867976	
0.225628	
0.221356	
0.22236	
0.267493	
-0.0673858	
-0.0614876	
0.257131	
0.252325	
0.245398	
0.224092	
-0.0621215	
-0.0565129	
0.168207	
0.155474	
0.119077	
0.120821	
0.22499	
0.0796197	
0.0938544	
0.153116	
0.153814	
0.172071	
0.17036	
0.266413	
0.259341	
0.00232657	
0.017417	
0.0781023	
0.0440327	
0.11045	
0.108296	
0.136915	
0.181204	
0.17917	
0.167917	
0.161819	
0.274884	
0.261627	
0.239492	
0.254671	
0.268328	
0.0870847	
0.0809212	
0.209053	
0.207675	
0.189154	
0.189061	
0.0282444	
0.0491202	
0.267017	
0.268286	
0.210531	
0.207725	
0.147682	
0.109764	
0.157121	
0.102885	
0.223214	
0.230247	
0.20544	
0.207021	
0.212383	
0.210499	
0.20762	
0.191985	
0.267964	
0.269653	
0.254094	
0.170817	
0.17167	
0.203973	
0.200383	
0.168162	
0.174341	
0.236891	
0.242893	
0.164834	
0.181463	
0.261807	
0.26606	
0.187384	
0.226316	
0.235189	
0.220466	
0.191224	
0.228583	
0.271672	
0.264664	
0.243479	
0.243131	
0.236021	
0.244256	
0.131726	
0.188644	
0.127925	
0.264812	
0.275675	
0.26187	
0.255947	
0.102272	
0.074913	
0.0776074	
0.0601601	
0.26228	
0.256485	
0.266814	
0.273782	
0.00833262	
0.257249	
0.267029	
0.264139	
0.256703	
0.12863	
0.166948	
0.267481	
0.275685	
0.266011	
0.120822	
0.132948	
0.138526	
0.146707	
0.195525	
0.192219	
0.187572	
0.190577	
0.269826	
0.166247	
0.16378	
0.213684	
0.214067	
0.000769063	
-0.00874004	
0.248587	
0.263255	
0.263074	
0.196072	
-0.00809581	
0.233772	
0.229758	
0.239339	
0.241361	
0.18061	
0.27139	
0.269355	
0.0412623	
0.0118905	
0.185506	
-0.0655637	
-0.0587514	
-0.0649616	
0.176421	
0.0656264	
0.026632	
0.0506454	
0.0256154	
0.240506	
0.129509	
0.168769	
0.264899	
0.250687	
0.265668	
0.263051	
0.266796	
-0.00353493	
-0.024487	
0.239159	
0.224289	
0.267396	
0.258043	
0.0215894	
0.18466	
0.170313	
0.139516	
0.204976	
0.17556	
0.226126	
0.217763	
0.132155	
0.125265	
0.264166	
0.274136	
0.0654289	
0.0541754	
0.249369	
0.256995	
0.268828	
0.268561	
0.273466	
0.266175	
-0.0588423	
-0.0614285	
0.0988699	
0.0986803	
0.0300994	
0.0220606	
0.0106442	
0.246628	
0.247878	
0.222047	
0.23246	
0.216155	
0.222619	
0.273562	
0.200356	
0.259562	
0.24424	
0.238678	
0.125391	
0.0694618	
0.271179	
0.262539	
-0.0359876	
-0.00512275	
0.0120797	
0.0676631	
0.213824	
0.143483	
0.248159	
0.241452	
0.0631737	
0.0861372	
0.0395968	
0.247444	
0.161531	
0.165154	
0.255047	
0.253224	
0.0944901	
0.0756354	
-0.0139331	
-0.0157851	
0.19783	
0.201234	
0.185179	
0.193724	
0.241484	
0.209772	
0.185887	
0.226617	
0.219428	
0.199481	
0.00985657	
0.0571616	
0.0508433	
0.134739	
0.0754554	
0.186983	
0.216321	
0.262898	
0.105528	
0.106046	
0.211095	
0.1998	
0.253259	
0.132431	
0.134021	
0.103112	
0.038573	
0.0173385	
0.0446453	
0.016521	
0.0429509	
0.16488	
0.195475	
0.192286	
0.221452	
0.0753967	
0.0598885	
0.0977135	
0.0819849	
0.164996	
0.163802	
0.176284	
0.173503	
0.164893	
0.179429	
0.179182	
-0.0687278	
-0.0231645	
-0.0629178	
-0.0484305	
-0.0273689	
0.132522	
0.135909	
-0.0642641	
0.11095	
0.130045	
0.101478	
0.132946	
0.120836	
0.0329343	
-0.0387109	
0.0796399	
0.139504	
-0.0688241	
0.112093	
-0.062781	
-0.069039	
-0.0681154	
0.0350272	
0.0709339	
0.264541	
0.242001	
0.268247	
0.243986	
0.26973	
0.269726	
0.139196	
0.0923384	
0.275443	
0.26289	
0.149477	
0.193664	
0.144391	
0.193356	
0.045096	
0.0607967	
0.215219	
0.0936936	
0.0876178	
-0.0648981	
0.175583	
0.0892237	
0.0893026	
0.0544939	
0.183535	
0.258845	
0.268891	
0.194018	
0.0181961	
0.0118545	
0.166032	
0.196648	
0.228916	
0.220083	
-0.0518424	
-0.0377266	
0.269868	
0.26559	
0.252013	
-0.0358131	
0.267211	
0.184837	
0.18737	
0.204052	
0.194187	
0.129922	
0.0827784	
0.270245	
0.257874	
0.167115	
0.170116	
0.23428	
0.245786	
0.215461	
0.0561236	
0.0678432	
0.234453	
0.259071	
0.232989	
0.0815187	
0.204947	
0.20927	
0.129305	
0.217653	
0.248498	
-0.0689168	
0.220164	
0.217795	
0.210338	
0.265788	
0.250113	
0.144326	
0.267276	
0.14207	
0.167498	
0.142827	
0.145232	
0.118219	
0.276179	
0.249273	
0.26603	
0.276777	
0.266574	
0.265766	
0.248098	
0.251819	
0.245818	
0.242752	
0.203633	
0.220689	
0.256054	
0.250451	
0.0814175	
0.0484763	
0.241027	
0.254515	
0.271291	
0.251219	
0.271233	
0.0619472	
0.0722825	
0.0697651	
0.0999248	
0.268486	
0.262321	
0.205221	
0.224192	
0.221634	
0.146629	
0.147062	
-0.06613	
-0.0632107	
0.135163	
0.120689	
0.118781	
0.11329	
0.110089	
0.109875	
0.0850942	
0.261083	
-0.0534501	
-0.0541422	
-0.0685619	
-0.0702184	
0.214771	
0.164558	
0.16329	
0.248873	
-0.0708483	
-0.0659877	
-0.0484948	
-0.0523122	
-0.0674849	
-0.0681709	
0.215552	
0.217387	
0.206738	
0.203768	
-0.0295149	
-0.0120777	
-0.0365183	
-0.0208447	
0.12023	
0.123399	
0.100798	
0.195385	
0.220528	
0.253064	
0.240384	
0.248966	
0.2526	
0.252838	
0.23856	
0.225703	
0.234246	
0.208223	
0.202747	
0.224838	
0.220398	
0.110005	
0.0996448	
0.109542	
0.0423566	
-0.00257785	
0.101005	
0.0688165	
-0.0577061	
-0.03959	
-0.0649937	
0.0776777	
0.175583	
0.124299	
0.121161	
0.0586658	
0.0446418	
-0.0233479	
-0.0437118	
0.229229	
0.228481	
0.059857	
0.105606	
0.0947561	
0.251997	
0.257146	
0.241614	
0.247486	
0.262039	
0.230614	
0.22834	
0.0846844	
0.0720367	
0.121977	
0.102988	
0.133443	
0.124002	
-0.00176909	
0.0236376	
0.10247	
0.106831	
0.174418	
0.177352	
0.127625	
0.117778	
0.0933319	
0.090501	
0.176758	
0.173918	
0.16161	
0.126087	
0.160538	
0.167156	
0.236256	
0.248969	
0.163548	
0.1539	
0.128866	
0.169976	
0.193392	
-0.0194507	
0.0295967	
-0.0283347	
0.250559	
0.250189	
0.233378	
0.219056	
0.186389	
0.165371	
0.182876	
0.181319	
-0.0362718	
-0.0419237	
-0.0557172	
-0.0583032	
0.0460736	
0.0722482	
0.0848003	
0.168976	
0.145801	
0.182146	
0.187686	
0.209977	
0.1878	
0.25374	
0.250466	
0.226368	
0.234577	
0.234631	
0.234719	
-0.0477876	
-0.0535077	
-0.0348534	
-0.0399347	
0.180896	
0.160427	
0.16968	
0.168948	
0.0348498	
0.0994522	
0.0977596	
0.0896324	
0.0942455	
0.246427	
0.258794	
0.0626989	
0.0326875	
0.264023	
0.262796	
0.250204	
0.265017	
0.261553	
0.264038	
0.0215618	
0.240422	
0.238877	
0.200579	
0.0974584	
0.0876706	
0.0737818	
0.0778616	
0.143945	
0.148525	
0.230893	
0.245863	
0.256137	
0.259306	
0.179575	
0.174873	
0.0851723	
0.0941379	
0.235298	
0.226676	
0.0648326	
0.0816341	
0.129285	
0.109587	
0.131924	
0.152233	
0.110197	
0.120804	
0.120635	
0.0837329	
0.0161321	
0.0432569	
0.100382	
0.0823038	
0.252187	
0.268254	
-0.015104	
0.142525	
0.115965	
0.262786	
0.26137	
0.0654474	
0.0736333	
0.105921	
0.0816947	
0.0870929	
0.089866	
0.0297999	
0.0602057	
0.087879	
0.0762215	
0.137118	
0.12728	
0.0760529	
0.0522163	
0.0907177	
0.0628171	
0.22603	
0.227776	
0.170071	
0.184827	
0.150679	
0.141581	
0.0417829	
0.0110049	
-0.0474532	
0.00927593	
0.0252507	
0.0209107	
-0.00587574	
0.167976	
-0.0200332	
0.136171	
0.137969	
-0.0159422	
-0.0430599	
-0.0336393	
-0.042439	
0.11067	
0.118224	
0.0430828	
0.04726	
0.0433579	
0.191735	
0.164637	
0.264495	
0.260736	
0.108403	
0.0873648	
0.077889	
0.0755249	
0.0880903	
0.129682	
0.126666	
0.15192	
0.151362	
0.0647776	
0.0677592	
0.0198968	
0.0103451	
0.0824222	
0.058917	
0.0619531	
0.0388489	
0.103226	
0.105275	
0.093643	
0.0868121	
0.0955472	
0.0858268	
0.0531835	
0.271088	
0.269605	
0.264605	
0.270356	
0.104032	
0.108272	
0.0961309	
0.101774	
0.100107	
0.102781	
0.100011	
-0.0159399	
0.00113508	
-0.00721846	
0.00931706	
0.0266376	
0.0379494	
0.0179411	
0.00772938	
-0.0121905	
-0.00373286	
0.00412159	
0.0337386	
0.0197362	
0.0241833	
0.0123129	
0.00393383	
0.020239	
0.00268797	
0.0121306	
-0.0104876	
-0.0177523	
-0.0137011	
-0.00482467	
0.0270653	
0.0249194	
0.0185569	
0.0105782	
-0.0146763	
-0.0100695	
-0.00426363	
0.00239208	
0.0332297	
-0.0633647	
-0.0488398	
0.00474398	
0.0328953	
-0.0254556	
-0.0310047	
-0.0088947	
0.029798	
0.0234227	
0.00301351	
-0.0517315	
0.00258761	
-0.0284219	
-0.0721758	
-0.0544607	
0.0313189	
0.0160561	
-0.00429911	
-0.0659758	
-0.0411869	
-0.0169439	
0.0248384	
0.134829	
0.172837	
0.171187	
0.115102	
0.14021	
-0.0313732	
0.0701962	
0.139083	
0.0523308	
0.0941154	
0.126024	
0.044554	
0.0354846	
0.115621	
0.116949	
0.09125	
0.0922087	
0.0763187	
0.10137	
0.124474	
0.171051	
0.173573	
-0.0611154	
-0.0669395	
-0.0525929	
-0.0534781	
-0.00095256	
0.0201501	
0.00958758	
0.162627	
0.148123	
0.152386	
0.0430987	
0.160281	
0.152229	
0.168894	
0.170139	
0.166525	
0.161195	
0.167526	
0.168437	
-0.0569222	
-0.0442288	
0.142049	
0.147904	
0.133004	
0.157805	
0.156822	
0.163126	
0.156351	
0.14487	
0.144538	
0.168472	
0.153848	
0.172587	
0.174267	
0.101542	
0.108114	
0.12727	
0.173146	
0.174343	
-0.040694	
-0.0242507	
0.00678755	
-0.00585846	
-0.0291551	
-0.00786687	
-0.0280211	
0.0548288	
0.0339783	
0.076595	
0.0725705	
0.116465	
0.134416	
0.11049	
0.129614	
0.101729	
0.160286	
0.164185	
0.126891	
0.0935831	
-0.14875	
-0.0280518	
0.0333689	
0.0676255	
-0.0239218	
0.0346288	
0.0470441	
-0.027722	
0.061251	
0.0352728	
-0.000417123	
-0.00348083	
0.00922174	
0.0363209	
0.0458209	
0.135169	
0.155845	
-0.148258	
-0.169447	
-0.124428	
-0.128036	
-0.107342	
-0.0893786	
-0.0811767	
0.0856166	
0.113855	
0.0933129	
-0.0638387	
-0.0753751	
0.127941	
0.119205	
0.139648	
0.128232	
0.129609	
0.138594	
0.13252	
0.124998	
-0.157383	
-0.163619	
0.0734411	
0.0881657	
0.104096	
0.107061	
0.0839904	
0.0878896	
0.111144	
0.116136	
0.152173	
0.151118	
0.158739	
0.162978	
0.0471525	
0.0998066	
0.0726146	
0.163489	
0.158549	
-0.141927	
-0.141013	
-0.115889	
-0.11172	
-0.107111	
-0.141161	
-0.119662	
-0.0169623	
-0.0622722	
-0.0343702	
-0.0642263	
0.0385511	
0.0704778	
0.0173168	
0.070517	
0.0411793	
-0.0537212	
0.0682867	
0.164635	
0.217577	
0.211656	
0.210809	
0.190516	
0.206203	
0.195264	
0.184865	
0.207103	
0.200382	
0.204344	
0.19139	
0.19946	
0.194849	
0.172203	
0.154388	
0.173643	
0.183433	
0.17882	
0.212801	
0.174009	
0.204599	
0.203446	
0.189426	
0.209454	
0.196568	
0.20521	
0.0907527	
0.0975549	
-0.0969174	
-0.0188934	
0.201628	
0.170086	
0.212346	
0.155929	
0.191537	
0.0920995	
0.172266	
0.182625	
0.212118	
-0.211166	
0.174685	
0.207333	
0.187475	
0.193944	
0.109451	
0.101881	
0.146732	
0.0995949	
0.130709	
-0.0076728	
-0.364577	
0.0150552	
0.115388	
0.123191	
-0.074757	
-0.0310127	
0.0168565	
0.0466834	
-0.252302	
-0.331305	
-0.341561	
-0.347979	
-0.19946	
-0.00535102	
-0.0151171	
-0.236694	
-0.271564	
-0.153687	
-0.00678045	
-0.263761	
-0.297287	
-0.335513	
-0.336622	
-0.170193	
0.00600984	
-0.0895948	
-0.34933	
-0.347388	
-0.0844887	
0.174622	
0.0893091	
0.169132	
-0.350772	
-0.049806	
0.138819	
-0.0365132	
-0.00834349	
0.15148	
-0.249052	
-0.029014	
-0.0921071	
-0.135709	
-0.211106	
-0.0666413	
0.155941	
-0.0966234	
0.0937251	
-0.101412	
0.11562	
0.0819393	
0.0264954	
0.068915	
-0.244878	
-0.227366	
0.0791653	
-0.00704139	
-0.105187	
-0.0407054	
-0.139105	
-0.104074	
-0.255406	
-0.0785522	
-0.08045	
-0.161983	
0.150706	
-0.155852	
-0.329352	
0.123069	
-0.32539	
-0.322951	
-0.00433381	
0.0543652	
-0.320847	
-0.126442	
-0.18308	
-0.140956	
0.196624	
0.109064	
0.11839	
0.118052	
0.0484058	
0.0490976	
-0.0114799	
0.0397739	
-0.219323	
-0.141662	
0.169466	
0.151721	
0.0965987	