<VTKFile type="UnstructuredGrid" version="0.1" byte_order="LittleEndian">
	<UnstructuredGrid>
		<Piece NumberOfPoints="3959" NumberOfCells="7450">
			<CellData Scalars="scalars">
				<DataArray type="Float64" Name="Doublet Strengths" NumberOfComponents="1" Format="ascii">
-0.0704149	
-0.0552491	
0.00106256	
0.0312816	
-0.0307425	
-0.0404774	
-0.0167187	
0.0262977	
0.0184147	
-0.00370372	
-0.0627911	
0.00352435	
-0.0270266	
-0.0688844	
-0.0523053	
0.0315363	
0.0191505	
-0.000412672	
-0.05887	
-0.0355713	
-0.0124333	
0.0267348	
0.13432	
0.171676	
0.170057	
0.112951	
0.132974	
-0.107762	
0.0326617	
0.120236	
0.0323029	
0.0837794	
0.106658	
0.0106011	
-0.00471995	
0.0891802	
0.0943145	
0.0627791	
0.0612501	
0.0602045	
0.0813603	
0.106032	
0.163121	
0.170626	
-0.0926596	
-0.103824	
-0.101359	
-0.145136	
-0.0564596	
-0.0318696	
-0.0193579	
0.152513	
0.133571	
0.13824	
0.000352891	
0.150444	
0.14676	
0.159367	
0.162567	
0.156079	
0.160595	
0.158073	
0.161242	
-0.124449	
-0.169064	
0.123336	
0.130004	
0.111397	
0.143698	
0.142949	
0.15681	
0.149029	
0.131894	
0.133224	
0.165957	
0.151913	
0.170811	
0.17092	
0.0872884	
0.100816	
0.1214	
0.172026	
0.171455	
-0.0861831	
-0.0877518	
-0.0393084	
-0.0416884	
-0.0618295	
-0.0519395	
-0.0815639	
0.0312831	
0.00496852	
0.0522365	
0.0431629	
0.097853	
0.121235	
0.0952807	
0.117905	
0.105293	
0.163649	
0.167274	
0.129348	
0.100812	
-0.0759188	
0.00832793	
0.0559997	
0.0870665	
-0.00509965	
0.0491045	
0.0667123	
0.000650987	
0.0831637	
0.0615569	
0.0298532	
0.024363	
0.0248921	
0.0551285	
0.0646218	
0.144779	
0.160907	
-0.103182	
-0.08216	
-0.0967555	
-0.0948756	
-0.0637192	
-0.0395156	
-0.0546449	
0.101164	
0.125523	
0.108508	
-0.0227879	
-0.0370249	
0.136173	
0.126589	
0.148723	
0.139946	
0.140623	
0.142724	
0.141533	
0.136058	
-0.0936034	
-0.0425344	
0.0927444	
0.106731	
0.119077	
0.122206	
0.0980479	
0.100408	
0.122592	
0.125269	
0.155035	
0.155851	
0.16382	
0.166395	
0.0577965	
0.108541	
0.0807324	
0.166712	
0.16341	
-0.0816471	
-0.0906956	
-0.0630756	
-0.0823421	
-0.074022	
-0.0991538	
-0.0783958	
0.00652859	
-0.0299756	
-0.0122067	
-0.037076	
0.053985	
0.0830936	
0.0371152	
0.0845559	
-0.00638964	
-0.177293	
0.0287799	
0.167845	
0.216066	
0.207836	
0.207987	
0.191065	
0.20331	
0.193264	
0.184035	
0.20581	
0.199658	
0.200548	
0.183357	
0.194515	
0.190778	
0.170188	
0.163153	
0.171521	
0.180208	
0.17582	
0.208747	
0.175215	
0.198205	
0.198775	
0.184713	
0.204039	
0.193529	
0.205129	
0.11557	
0.10817	
-0.0322253	
0.0114699	
0.196457	
0.176182	
0.210806	
0.16536	
0.18778	
0.0581804	
0.178382	
0.184785	
0.207984	
-0.250688	
0.178613	
0.202552	
0.190191	
0.195219	
0.133521	
0.126202	
0.158047	
0.124227	
0.145771	
-0.0734371	
-0.275108	
-0.0415231	
0.0879925	
0.096275	
-0.230564	
-0.109911	
-0.0377275	
-0.000934926	
-0.363712	
-0.176108	
-0.219971	
-0.373556	
-0.21845	
-0.028563	
-0.083919	
-0.299235	
-0.34146	
-0.201274	
-0.070152	
-0.312615	
-0.349776	
-0.382142	
-0.389154	
-0.303485	
-0.052058	
-0.141735	
-0.382628	
-0.371982	
-0.0971673	
0.163398	
0.103083	
0.15316	
-0.224453	
0.0102567	
0.116889	
0.0260332	
0.020036	
0.129878	
-0.0849166	
0.0398527	
-0.106088	
-0.151821	
-0.296266	
-0.0335796	
0.135689	
-0.0525004	
0.0617134	
-0.0139339	
0.0857559	
0.0432679	
0.0263793	
0.0695437	
-0.281069	
-0.258384	
0.0556626	
0.0368869	
-0.0184151	
0.0275315	
-0.0786896	
-0.0247294	
-0.285442	
-0.126963	
-0.125401	
-0.079927	
0.142569	
-0.0637945	
-0.150978	
0.101975	
-0.168057	
-0.176108	
0.0498072	
0.083106	
-0.224075	
-0.13972	
-0.19521	
-0.0410398	
0.186771	
0.0857734	
0.0889437	
0.088249	
0.00893886	
0.0089033	
-0.0215775	
0.0308523	
-0.299442	
-0.20343	
0.153753	
0.130233	
0.12827	
0.139814	
-0.0988176	
-0.0747276	
-0.0764181	
-0.0313309	
-0.020009	
0.00874875	
0.164519	
0.0529959	
0.0835828	
0.172937	
0.168254	
0.0779991	
-0.245566	
0.189363	
0.11005	
-0.0543728	
-0.122402	
0.178928	
0.199599	
0.0568035	
0.153673	
-0.276382	
-0.190625	
0.114971	
0.111613	
0.125621	
0.0248165	
0.194263	
0.170798	
0.151249	
0.154288	
0.138221	
0.161779	
0.18585	
0.181898	
0.160913	
-0.0313043	
0.0387513	
0.14672	
0.162603	
0.14753	
0.179672	
0.189618	
0.0576243	
0.170285	
0.082137	
0.0624824	
0.0537191	
0.0616752	
0.12055	
0.187381	
0.106959	
0.0808544	
0.0556324	
0.0629057	
0.1171	
0.11953	
0.137474	
0.136393	
0.0613576	
0.00761301	
0.0223462	
-0.0272728	
0.188172	
0.207383	
0.188835	
0.182111	
0.193954	
0.0990634	
0.101858	
0.18358	
0.10565	
-0.203501	
0.0858607	
0.0187058	
0.0717371	
0.0850138	
0.175266	
0.0262051	
-0.0999823	
-0.0696582	
0.0581131	
0.0597166	
0.0223888	
0.149192	
0.179601	
0.102129	
0.0960604	
0.185057	
0.143914	
0.0947194	
0.0375598	
0.029548	
0.0619857	
0.0650565	
0.0138008	
0.141759	
0.147359	
-0.336123	
-0.294327	
-0.191218	
-0.151667	
-0.0891113	
0.118137	
0.109577	
0.129602	
0.16255	
0.149795	
0.12601	
0.182576	
-0.182052	
-0.191786	
-0.357127	
-0.326777	
0.0472671	
-0.0875184	
0.0336796	
-0.323817	
-0.349782	
0.00257241	
-0.0121745	
0.0100451	
0.000608263	
-0.108834	
-0.0691885	
-0.061417	
-0.0142898	
0.018249	
-0.00233999	
0.0650766	
0.0853626	
0.108909	
-0.0108943	
-0.0417341	
-0.0107777	
-0.0290206	
-0.00974342	
0.0341993	
0.11054	
0.111524	
0.0931294	
0.0243867	
0.00232688	
-0.0729147	
0.135674	
0.0969399	
0.018769	
0.00542044	
0.191764	
-0.212534	
0.062655	
-0.0204493	
-0.0321861	
0.211042	
0.191082	
0.203175	
-0.212384	
-0.165277	
-0.110545	
-0.0014627	
-0.121359	
-0.0712466	
0.199084	
0.184406	
0.140129	
0.115777	
0.0667249	
-0.06309	
-0.13398	
-0.0868026	
0.179073	
0.0299391	
-0.384311	
-0.387148	
-0.385473	
-0.213851	
0.060791	
0.000504336	
-0.00312524	
0.0157104	
0.0153165	
0.0238666	
-0.0136306	
0.124795	
0.12012	
-0.139065	
-0.0706781	
-0.193262	
-0.129148	
-0.048277	
-0.163358	
-0.0741628	
0.0429437	
-0.261199	
-0.24379	
0.137023	
0.0622643	
0.107691	
-0.0391519	
-0.00254727	
0.155515	
0.156703	
0.138138	
0.155209	
0.143104	
0.0761892	
0.0537301	
0.138409	
0.0461632	
0.196507	
0.186224	
-0.113591	
-0.245717	
0.181382	
0.178066	
0.188051	
0.0196039	
0.189897	
0.201309	
0.187724	
0.197508	
0.20637	
0.191224	
-0.225393	
-0.254072	
0.206653	
0.188419	
0.194175	
0.18149	
-0.353529	
0.0374646	
0.00931416	
0.022989	
0.189983	
0.172898	
0.157843	
0.179977	
0.063174	
0.0652514	
0.0152888	
0.0184878	
0.132584	
-0.140115	
0.0293427	
0.0729331	
-0.0589434	
0.145005	
0.15428	
0.126225	
0.092884	
0.202532	
0.0365855	
0.0824124	
-0.0226279	
-0.00915098	
0.104563	
0.129071	
0.13661	
0.0490625	
-0.0647455	
-0.0402512	
-0.0216038	
0.019378	
0.0553618	
0.0850145	
-0.0257817	
0.0363139	
-0.0198922	
0.197053	
0.18215	
0.0665802	
-0.00693528	
0.0871678	
0.147822	
-0.0036115	
-0.116672	
-0.00667748	
-0.118929	
0.104023	
-0.0352426	
-0.0390618	
-0.02372	
0.12292	
0.0947749	
0.0911299	
0.0331146	
0.0943508	
0.0556689	
0.00456853	
0.00820324	
0.0283064	
0.0232556	
0.0080276	
-0.0383397	
-0.085253	
0.11559	
0.0376948	
0.0360432	
0.0230228	
0.12905	
0.0267097	
-0.0121851	
0.0677197	
0.0789411	
0.105977	
-0.34163	
-0.00966152	
-0.0336491	
0.0581488	
0.0661091	
0.151279	
0.0926718	
0.0810874	
0.0726921	
-0.111198	
-0.0707273	
0.0373541	
0.0111616	
-0.0198978	
-0.0652481	
0.0968669	
0.0648602	
0.0578261	
0.0601039	
-0.0456252	
0.0288911	
-0.247196	
-0.230801	
-0.147429	
-0.134296	
0.144133	
-0.0443681	
-0.166915	
0.129359	
-0.0914669	
0.0269542	
-0.143542	
-0.215647	
-0.0675601	
-0.0354452	
0.0164506	
-0.0169914	
-0.0978953	
-0.158203	
-0.0878914	
-0.0396226	
-0.0232676	
-0.000988662	
-0.147251	
0.131376	
0.00921495	
0.0361345	
0.0744763	
-0.105527	
-0.0711687	
-0.0846257	
-0.139158	
-0.213034	
0.121687	
0.109684	
-0.0202093	
0.0322357	
-0.111521	
-0.134209	
0.110801	
0.0374188	
0.0688145	
-0.029582	
-0.0122398	
-0.119011	
-0.0800547	
-0.308922	
-0.346195	
0.048459	
-0.245966	
0.0453318	
0.00523804	
-0.140246	
0.134277	
-0.0984581	
-0.0873648	
-0.0122658	
-0.0578921	
0.183235	
0.0973207	
0.145951	
0.0820959	
0.102479	
0.203263	
0.190965	
-0.050995	
-0.043562	
0.0475134	
0.0648009	
-0.340223	
-0.135144	
-0.164771	
-0.382261	
-0.0178461	
0.0502786	
-0.0311377	
-0.0409986	
-0.137208	
-0.112188	
0.0340317	
-0.0106242	
0.00330008	
0.194155	
0.178808	
0.0650064	
0.00330812	
-0.0361019	
0.0867624	
0.117971	
0.0395203	
0.0711569	
0.0259057	
-0.0540027	
0.189922	
0.207758	
0.204919	
0.193034	
-0.194392	
0.185623	
0.164405	
-0.00233464	
-0.0909515	
0.0177378	
0.156332	
0.175474	
0.154873	
0.174956	
0.162953	
0.140261	
0.0647558	
0.0501406	
-0.00104707	
0.00442908	
0.117811	
0.124512	
-0.129915	
-0.363095	
-0.3407	
0.0394843	
0.0273913	
0.197738	
0.179411	
0.212593	
0.196506	
0.148973	
0.116734	
-0.0723183	
0.108766	
0.140122	
0.126004	
0.142462	
0.143636	
0.161962	
0.156566	
0.136258	
-0.206479	
-0.228819	
0.177126	
0.162288	
0.0974939	
0.0569665	
0.143778	
0.14256	
0.203453	
0.190173	
-0.0332682	
-0.0923974	
-0.157547	
-0.0722385	
0.0159245	
0.102107	
0.0448447	
0.112979	
-0.0855414	
-0.0737584	
-0.251665	
0.114688	
0.111128	
0.167153	
0.191508	
-0.0718741	
0.0374326	
-0.0392642	
0.0173866	
-0.0507524	
-0.0137476	
0.0581197	
0.05988	
0.109304	
-0.0262929	
-0.0269688	
-0.0378952	
-0.0426827	
0.202997	
0.176152	
0.179384	
-0.103225	
-0.150477	
0.0646037	
-0.00891013	
0.0588934	
-0.0403356	
0.0621262	
0.0530702	
-0.0826821	
-0.0912806	
0.0762362	
-0.00410605	
0.00390959	
-0.296416	
-0.00802832	
0.0375862	
0.0775161	
0.0806325	
-0.156775	
-0.168551	
-0.237559	
-0.0190082	
0.0198601	
0.164891	
0.15221	
0.00848838	
0.0657675	
0.0872032	
0.0926831	
-0.0033618	
-0.0442444	
-0.0983421	
-0.0999376	
0.19279	
0.181813	
0.186104	
0.0602198	
0.0627851	
0.113862	
0.0575094	
-0.138909	
-0.136087	
-0.19305	
-0.0942448	
-0.0871073	
-0.0153327	
0.112182	
0.113623	
0.0780122	
0.0393406	
-0.177677	
-0.178687	
-0.0104213	
-0.0297869	
-0.222273	
-0.195754	
-0.267486	
-0.117762	
0.171431	
0.155982	
0.130761	
0.190319	
0.209573	
-0.0739623	
-0.0133048	
-0.0683502	
0.0643774	
0.109168	
0.0239857	
0.069559	
0.0994918	
0.12692	
0.103295	
0.129456	
-0.0371069	
-0.0226709	
0.142733	
0.141623	
-0.160153	
-0.134174	
-0.202582	
0.184532	
0.192128	
0.18382	
0.139791	
0.104288	
0.1568	
0.108493	
0.154067	
0.0768036	
0.134292	
0.131148	
0.165319	
-0.0556341	
-0.0454363	
-0.0477144	
0.13698	
-0.0563115	
-0.0758316	
-0.173745	
0.055908	
0.030533	
-0.240174	
-0.247156	
-0.0523566	
-0.059435	
0.118477	
0.0661867	
-0.129985	
-0.296913	
-0.261481	
0.176588	
0.175151	
0.159313	
0.174541	
0.172491	
0.0472116	
0.0888567	
0.0307881	
0.0378865	
0.18597	
-0.0396723	
-0.200136	
-0.0410779	
0.0197325	
-0.0174332	
-0.0256511	
0.0151988	
-0.341773	
0.0525311	
0.0617317	
0.141918	
0.111111	
0.156911	
0.124679	
0.143162	
0.133337	
0.13053	
0.0256073	
0.0572596	
0.0499077	
0.0766655	
0.130259	
0.109073	
0.0269106	
0.140208	
0.15448	
0.106502	
0.123762	
0.113484	
0.137942	
0.117614	
0.11487	
0.0524916	
0.0548986	
0.128805	
0.110195	
0.118299	
0.0728436	
-0.0638773	
-0.0659488	
-0.048986	
-0.0161926	
-0.0969572	
-0.031826	
0.0735635	
0.0552541	
0.102554	
0.157869	
0.124155	
0.137621	
0.0854997	
0.00922075	
-0.0120291	
0.0569381	
-0.0157619	
0.0170253	
-0.0289274	
0.0543332	
0.178985	
0.178707	
-0.319051	
-0.279504	
0.122938	
0.113457	
-0.00843429	
-0.023245	
0.130494	
-0.0740891	
-0.0577253	
0.174056	
0.160077	
0.188858	
0.207373	
0.0589089	
0.0356632	
0.141428	
0.125413	
0.176894	
0.0192091	
0.059472	
0.12343	
0.0777029	
0.113298	
0.085302	
0.111795	
0.206542	
0.0313003	
0.0315169	
0.180787	
0.0498685	
0.103736	
0.102302	
0.0299836	
0.00512548	
0.107339	
0.113691	
0.147137	
0.185346	
0.190566	
0.200171	
-0.206056	
0.122437	
0.0714382	
-0.0597157	
0.0310625	
0.0684121	
0.144487	
0.142249	
0.196322	
0.187816	
0.155003	
0.146226	
-0.202392	
-0.125569	
-0.0913564	
-0.108111	
0.083264	
0.0642589	
0.0712368	
-0.0894825	
-0.0608663	
-0.266052	
-0.0820625	
-0.0729613	
-0.130716	
-0.276518	
-0.21559	
-0.147146	
-0.13582	
-0.119649	
-0.101261	
0.146925	
0.135064	
0.0707143	
-0.0628155	
-0.0518935	
-0.143858	
-0.143965	
-0.210285	
-0.207128	
-0.0535265	
-0.0716721	
-0.337216	
-0.047803	
-0.195126	
0.0879452	
0.0920921	
0.0649759	
0.0669443	
0.170802	
0.170129	
-0.0517672	
-0.0944654	
-0.000297382	
-0.00356094	
0.047083	
0.0275879	
0.0434311	
0.0265286	
-0.19856	
-0.224314	
-0.16552	
-0.0226414	
0.134878	
0.122062	
0.0584816	
0.0380743	
-0.245202	
-0.226595	
-0.0873635	
-0.190404	
-0.231989	
-0.212785	
-0.265506	
0.200573	
0.183963	
-0.0260878	
-0.0819454	
-0.0600181	
-0.0542775	
-0.080381	
-0.18913	
-0.172847	
0.0557483	
0.0115214	
-0.157448	
-0.050496	
-0.255912	
-0.246741	
-0.149539	
-0.130006	
-0.137628	
-0.124551	
-0.149376	
-0.147751	
-0.103125	
-0.102283	
0.148153	
0.0755503	
0.132791	
0.114539	
0.111686	
0.115406	
0.081666	
-0.233863	
-0.189006	
-0.194568	
-0.205308	
-0.197639	
-0.262952	
-0.271964	
-0.318069	
-0.17771	
-0.117326	
-0.216106	
-0.190544	
-0.289066	
-0.333688	
-0.333105	
-0.368688	
-0.0352612	
-0.0378387	
-0.0399723	
-0.0476546	
-0.210807	
-0.217518	
-0.169698	
-0.159665	
-0.128103	
-0.137113	
-0.092938	
-0.307998	
-0.0350902	
-0.0200552	
-0.307886	
-0.265856	
-0.0135869	
-0.0234673	
-0.0284894	
-0.147278	
-0.143199	
-0.0243468	
-0.0332182	
-0.0769369	
-0.0842668	
-0.172546	
-0.16424	
0.0886261	
0.0224154	
0.00234689	
-0.00569951	
0.0975469	
0.0494962	
-0.120217	
-0.0961236	
-0.119555	
-0.0182772	
-0.282509	
-0.329981	
-0.0984859	
-0.114481	
0.196252	
0.12252	
0.209372	
0.180544	
-0.377713	
-0.37125	
0.0460878	
0.00280957	
-0.312406	
-0.278389	
-0.332239	
-0.298539	
-0.282855	
-0.293427	
-0.221526	
-0.19153	
-0.318716	
-0.358526	
-0.357859	
-0.352798	
-0.350689	
-0.183651	
-0.129802	
-0.10457	
-0.300103	
-0.32681	
-0.3537	
-0.244452	
0.188471	
0.156934	
0.209284	
0.192106	
-0.327975	
-0.299529	
-0.2188	
-0.207125	
-0.193606	
-0.00719504	
-0.00779007	
-0.298248	
-0.297718	
-0.333145	
-0.302776	
-0.325268	
-0.0589721	
-0.0697279	
-0.08211	
-0.104084	
-0.217182	
-0.258494	
-0.217863	
-0.243659	
-0.272338	
-0.303823	
0.20852	
0.184013	
0.182193	
0.143008	
-0.249978	
-0.135074	
-0.123266	
-0.136079	
0.181315	
0.138438	
0.161194	
0.0812578	
-0.35122	
0.0815085	
0.125621	
0.114556	
0.135622	
-0.33616	
-0.354946	
-0.339187	
-0.343078	
-0.334185	
-0.340599	
-0.29947	
-0.110157	
-0.100337	
-0.0988457	
-0.0989198	
0.137661	
0.195628	
0.13422	
0.193236	
0.12902	
0.119951	
0.122929	
0.0734667	
-0.253738	
-0.274595	
-0.253474	
-0.238923	
-0.343774	
-0.358481	
-0.345159	
-0.351529	
0.0777337	
0.136843	
0.0819095	
0.138371	
0.163583	
0.130125	
0.150922	
0.0932839	
0.112352	
0.0884181	
0.111595	
0.0876791	
0.173505	
0.201686	
0.20494	
0.209691	
0.220564	
0.141608	
0.231069	
0.235162	
0.236213	
0.244332	
0.248733	
0.254202	
0.228349	
0.190697	
0.169047	
0.047363	
0.255926	
-0.00749536	
-0.00129989	
-0.0335015	
0.182771	
0.248736	
0.233874	
0.265317	
0.261362	
0.268262	
0.256063	
0.263088	
0.253711	
0.246195	
0.170419	
0.217044	
0.196265	
0.218364	
0.18913	
0.149419	
0.21694	
0.158709	
0.101661	
0.25705	
0.235811	
0.234644	
0.0943196	
-0.0443285	
0.248247	
-0.02699	
-0.0406741	
0.0142783	
0.0707686	
0.0430198	
-0.0346041	
0.0408368	
0.0025597	
0.0698643	
-0.0535704	
0.016665	
0.0652546	
0.083867	
0.0410727	
-0.00309423	
-0.0441246	
0.208389	
-0.0297943	
0.17692	
0.105742	
0.108365	
0.0854721	
0.0479341	
0.0543655	
0.0725257	
0.0812187	
0.0204621	
0.0596063	
0.0138783	
0.0397743	
0.0210839	
0.0324246	
0.0309445	
0.0444465	
0.0868141	
0.0523851	
0.0571282	
0.068212	
0.088757	
0.0461226	
-0.0221987	
-0.0258544	
0.0218491	
-0.00164215	
-0.00735736	
0.0347945	
0.0640186	
0.059201	
0.00566152	
-0.0189874	
-0.0285069	
-0.0080821	
0.0332334	
-0.0611801	
-0.0397889	
-0.0639795	
0.167794	
0.18846	
0.185456	
0.223631	
0.0104048	
0.100067	
0.153477	
0.160881	
0.18977	
0.000148343	
0.151755	
0.129349	
-0.0579987	
-0.0385509	
-0.0297135	
0.133466	
-0.0313578	
0.143803	
-0.00352117	
0.204409	
0.208008	
-0.0690623	
0.076146	
0.0399705	
0.002576	
0.0742295	
0.0157929	
0.245833	
0.22994	
0.223239	
-0.0498922	
0.0844304	
0.217358	
-0.0135584	
-0.0166977	
0.208061	
0.230007	
0.00724184	
0.0487153	
0.198377	
0.140036	
-0.0617861	
-0.0497389	
0.1112	
-0.02259	
-0.0175119	
-0.00774259	
-0.00140199	
0.251057	
0.208113	
0.213468	
0.131594	
0.166659	
0.24434	
0.273438	
0.254957	
0.0580497	
0.169655	
0.243196	
0.193875	
0.108962	
0.130259	
0.14274	
0.160865	
0.00577904	
0.120567	
0.0853555	
0.0989786	
0.0675499	
0.120439	
0.118274	
0.188903	
0.149697	
0.193997	
0.115722	
0.156708	
0.129681	
0.166976	
0.116918	
0.124397	
0.157445	
0.205941	
0.140583	
0.151019	
0.159405	
0.159148	
0.142021	
0.265941	
0.267965	
0.277842	
0.265418	
0.281541	
0.249696	
0.115798	
-0.0244656	
0.0225471	
0.0278256	
0.12476	
0.232162	
0.1786	
0.1104	
0.183319	
0.17023	
0.123538	
0.236459	
0.270052	
0.27531	
0.230345	
0.249511	
0.259428	
0.277876	
0.262311	
0.252692	
0.277463	
0.262037	
0.261872	
0.270034	
0.244367	
0.242371	
0.268493	
0.268219	
0.274326	
0.103804	
0.278676	
0.225888	
0.246392	
0.200126	
0.226322	
0.269197	
0.27042	
0.274219	
0.204373	
0.196592	
0.224488	
0.208885	
0.217947	
0.220535	
0.195675	
-0.0464949	
-0.0516655	
0.239205	
0.226677	
0.251622	
0.229392	
0.201806	
0.182701	
0.200598	
0.25832	
0.233649	
0.233522	
0.240586	
0.166601	
0.209576	
0.0852021	
0.261715	
0.248817	
0.0932284	
0.186029	
0.163226	
0.231897	
0.124611	
0.129927	
0.206247	
0.147136	
0.273323	
0.134581	
0.132448	
0.16045	
0.222301	
0.193778	
0.180867	
0.267136	
0.0481051	
0.107522	
0.0416398	
0.0771503	
0.194734	
0.18627	
0.154407	
0.184756	
-0.0218066	
0.258558	
0.24111	
-0.00451252	
0.00537415	
-0.0194271	
0.000827673	
0.116143	
0.0885892	
0.159284	
0.165115	
0.188557	
0.152121	
0.189455	
0.00672904	
0.159557	
0.132118	
0.174184	
-0.0381755	
-0.0516223	
-0.0428742	
-0.051116	
0.116651	
0.113289	
0.143369	
0.133496	
0.151832	
0.0880053	
0.0959776	
0.199819	
0.177342	
0.201361	
0.213101	
0.155154	
0.102305	
0.0901607	
0.098692	
0.0713483	
0.28058	
0.172361	
0.19999	
0.153461	
0.170649	
0.120141	
0.147541	
0.116793	
0.156663	
0.142207	
0.0160083	
0.206045	
0.214067	
0.180103	
0.23871	
0.237324	
0.149644	
0.176131	
0.124289	
0.127955	
-0.0539857	
-0.0386622	
-0.0630651	
-0.061703	
0.101954	
0.207985	
0.240136	
0.21067	
0.198544	
0.209902	
0.170725	
0.218396	
0.215887	
0.214531	
0.204889	
0.0477458	
0.105973	
0.26541	
0.242149	
0.267895	
0.204428	
0.194676	
0.265443	
0.266754	
0.231801	
0.24481	
0.259831	
0.204143	
0.230912	
0.173601	
0.177523	
0.187026	
0.24861	
0.235609	
0.249584	
0.222535	
0.264552	
0.231723	
0.251665	
0.0007945	
0.18631	
0.197511	
0.165972	
0.237864	
0.239858	
0.232144	
0.227025	
0.245438	
0.255954	
0.107746	
0.136184	
0.124923	
0.141313	
-0.0539173	
0.21758	
0.183574	
0.187339	
0.117132	
0.149655	
0.153465	
0.17423	
0.15733	
0.166153	
-0.0442867	
-0.033072	
-0.0481748	
-0.0305859	
0.245223	
0.207749	
0.245278	
0.211282	
0.0850239	
0.216592	
0.223916	
0.221859	
0.249441	
0.232174	
0.260537	
0.150301	
0.136188	
0.218585	
0.214431	
0.222293	
0.182696	
0.186244	
0.0241061	
0.0689242	
0.266074	
0.22724	
-0.0209846	
0.191685	
0.219072	
0.227536	
0.228804	
0.211122	
0.200753	
0.198694	
0.257963	
0.260359	
0.25315	
0.151068	
0.261724	
0.266384	
0.0613262	
0.0851101	
0.0844575	
0.22375	
0.221206	
0.22203	
0.266176	
-0.0676414	
-0.0617595	
0.256627	
0.252013	
0.244237	
0.222243	
-0.0624332	
-0.0568248	
0.166168	
0.15341	
0.116684	
0.118536	
0.222847	
0.0770672	
0.0913953	
0.152561	
0.153326	
0.171368	
0.169703	
0.2659	
0.25904	
0.00181849	
0.0168774	
0.0770051	
0.0429719	
0.10678	
0.107245	
0.136027	
0.180631	
0.178443	
0.167086	
0.160863	
0.274392	
0.261372	
0.237585	
0.253058	
0.267142	
0.0852693	
0.0790503	
0.206693	
0.205347	
0.189102	
0.188858	
0.0262375	
0.0471064	
0.266199	
0.267125	
0.208889	
0.206096	
0.146256	
0.108167	
0.155674	
0.101239	
0.223084	
0.229861	
0.205349	
0.206811	
0.212175	
0.210416	
0.206443	
0.190601	
0.26694	
0.268464	
0.252448	
0.170756	
0.171675	
0.201374	
0.197729	
0.165128	
0.171406	
0.236718	
0.242519	
0.161782	
0.178605	
0.261509	
0.265624	
0.185784	
0.226119	
0.234655	
0.218241	
0.188618	
0.226477	
0.271164	
0.264266	
0.242242	
0.242266	
0.234544	
0.243067	
0.130264	
0.187586	
0.126477	
0.264471	
0.275158	
0.261355	
0.255623	
0.100673	
0.0729674	
0.0758148	
0.0581618	
0.261928	
0.256283	
0.266476	
0.273319	
0.00652645	
0.257051	
0.266636	
0.263587	
0.256251	
0.126834	
0.165325	
0.267096	
0.275183	
0.265708	
0.120083	
0.132372	
0.137956	
0.146307	
0.19541	
0.19198	
0.18676	
0.189901	
0.269357	
0.166281	
0.163675	
0.21361	
0.213873	
-0.0022025	
-0.0115809	
0.248062	
0.262633	
0.262525	
0.194414	
-0.00881036	
0.233141	
0.22924	
0.239085	
0.240906	
0.179126	
0.270265	
0.268462	
0.0402418	
0.0108659	
0.184895	
-0.0657974	
-0.059011	
-0.0651304	
0.176484	
0.0652878	
0.0262324	
0.0502541	
0.0251986	
0.239885	
0.125965	
0.165785	
0.263584	
0.248942	
0.264294	
0.262783	
0.266389	
-0.00401067	
-0.0250126	
0.237594	
0.222336	
0.267007	
0.257839	
0.0212721	
0.18352	
0.16883	
0.137751	
0.204369	
0.175066	
0.225445	
0.217234	
0.130923	
0.1239	
0.263868	
0.273653	
0.0653242	
0.0540635	
0.2476	
0.255429	
0.267782	
0.267293	
0.272999	
0.265865	
-0.0590407	
-0.0615738	
0.0986525	
0.0984073	
0.0280702	
0.0200854	
0.00952989	
0.245125	
0.246357	
0.219876	
0.230516	
0.213827	
0.220418	
0.27311	
0.197817	
0.259178	
0.24387	
0.238508	
0.125024	
0.0688717	
0.27073	
0.262236	
-0.0367821	
-0.0059294	
0.0111995	
0.0656479	
0.213279	
0.143043	
0.247483	
0.240903	
0.0610594	
0.0840261	
0.0374681	
0.245733	
0.159913	
0.16355	
0.254498	
0.252758	
0.093426	
0.0743777	
-0.0141225	
-0.0159274	
0.197167	
0.200696	
0.184251	
0.192908	
0.240993	
0.207444	
0.183265	
0.226057	
0.218973	
0.198966	
0.00945797	
0.0568315	
0.0504821	
0.132337	
0.0738118	
0.184307	
0.213993	
0.261566	
0.102994	
0.103373	
0.210167	
0.198703	
0.251942	
0.129014	
0.130599	
0.0993176	
0.0362025	
0.0169694	
0.0443081	
0.0161649	
0.0426352	
0.164033	
0.194885	
0.191761	
0.219684	
0.0736584	
0.0580877	
0.0962234	
0.0804148	
0.164691	
0.163555	
0.176235	
0.173489	
0.164489	
0.17933	
0.179218	
-0.0691053	
-0.0241125	
-0.0634073	
-0.0490051	
-0.0279374	
0.131658	
0.134874	
-0.0646485	
0.110673	
0.126527	
0.0976556	
0.129487	
0.117242	
0.0326614	
-0.0394112	
0.077214	
0.137502	
-0.0691142	
0.11122	
-0.0629188	
-0.0693177	
-0.0683133	
0.0348133	
0.070821	
0.263245	
0.240335	
0.267137	
0.242331	
0.26882	
0.268815	
0.137157	
0.0898913	
0.274945	
0.26262	
0.148555	
0.193012	
0.14345	
0.191645	
0.0445865	
0.0603447	
0.213304	
0.0924892	
0.0863651	
-0.0652647	
0.173237	
0.0890145	
0.0890543	
0.0541912	
0.180837	
0.258525	
0.268427	
0.192543	
0.0176865	
0.011375	
0.164983	
0.195244	
0.227904	
0.218899	
-0.0522511	
-0.0381646	
0.268865	
0.264245	
0.250328	
-0.0359095	
0.266199	
0.184325	
0.186669	
0.203423	
0.193304	
0.12938	
0.0820607	
0.269131	
0.256315	
0.166588	
0.169441	
0.233768	
0.245034	
0.21432	
0.0553646	
0.0671538	
0.233473	
0.258476	
0.232007	
0.0802976	
0.204375	
0.208539	
0.125854	
0.216548	
0.247791	
-0.0695826	
0.219465	
0.217011	
0.209775	
0.264571	
0.248624	
0.141715	
0.266998	
0.139648	
0.166648	
0.141825	
0.144159	
0.117067	
0.275617	
0.249036	
0.265125	
0.276148	
0.265583	
0.265244	
0.247796	
0.250882	
0.244741	
0.241591	
0.202047	
0.21924	
0.25553	
0.250127	
0.0774218	
0.0480156	
0.240643	
0.253905	
0.270868	
0.251093	
0.270339	
0.0614503	
0.0720922	
0.0695391	
0.0955791	
0.267904	
0.261951	
0.203019	
0.223117	
0.220533	
0.143344	
0.143768	
-0.0662434	
-0.0633086	
0.132039	
0.117594	
0.115084	
0.11304	
0.109776	
0.109508	
0.0847012	
0.259818	
-0.0535022	
-0.0542184	
-0.0687759	
-0.0704473	
0.212308	
0.161719	
0.160813	
0.248556	
-0.0711517	
-0.0663642	
-0.049211	
-0.0529277	
-0.0680719	
-0.0686521	
0.214862	
0.216572	
0.206116	
0.202981	
-0.0298894	
-0.0124393	
-0.0368645	
-0.0211846	
0.119837	
0.123051	
0.0981376	
0.193981	
0.219362	
0.252553	
0.240212	
0.247845	
0.251051	
0.25118	
0.237996	
0.2256	
0.23391	
0.206238	
0.200779	
0.223256	
0.218806	
0.106164	
0.0957728	
0.105836	
0.0405649	
-0.00419811	
0.0996593	
0.0674265	
-0.0585568	
-0.0405376	
-0.0657025	
0.0748717	
0.173471	
0.121806	
0.118682	
0.0582771	
0.0442058	
-0.0242499	
-0.0445347	
0.227035	
0.226285	
0.0594385	
0.105278	
0.0913993	
0.25052	
0.256079	
0.239782	
0.245679	
0.260612	
0.229012	
0.226723	
0.0837944	
0.0710891	
0.121215	
0.102106	
0.130677	
0.121247	
-0.00313586	
0.0222668	
0.102168	
0.106573	
0.172751	
0.17559	
0.124096	
0.114165	
0.0893295	
0.0864463	
0.176101	
0.173345	
0.161024	
0.125327	
0.1601	
0.166556	
0.234435	
0.247278	
0.161363	
0.151615	
0.125562	
0.166984	
0.190732	
-0.020859	
0.0281343	
-0.0288185	
0.249092	
0.248593	
0.231435	
0.216788	
0.184325	
0.163157	
0.180741	
0.179285	
-0.0367749	
-0.0423812	
-0.0561907	
-0.0587374	
0.0457897	
0.072031	
0.0846416	
0.167894	
0.144527	
0.18106	
0.186637	
0.207495	
0.185711	
0.253246	
0.249345	
0.224968	
0.233599	
0.233374	
0.233855	
-0.047916	
-0.0536998	
-0.0350163	
-0.0401603	
0.178068	
0.157323	
0.168395	
0.167575	
0.033313	
0.0956572	
0.0939252	
0.0854551	
0.0902812	
0.244764	
0.257615	
0.0591937	
0.0292738	
0.262836	
0.261556	
0.248743	
0.26404	
0.260364	
0.262877	
0.0182784	
0.238888	
0.237329	
0.198251	
0.0937343	
0.0836059	
0.0700383	
0.0739693	
0.142155	
0.146767	
0.229172	
0.245708	
0.255754	
0.258372	
0.176694	
0.171885	
0.0841722	
0.0931346	
0.233657	
0.224921	
0.0612971	
0.0782838	
0.126727	
0.107031	
0.130305	
0.150741	
0.108305	
0.118956	
0.118561	
0.0812052	
0.0148052	
0.0419916	
0.0978202	
0.0795837	
0.251216	
0.267691	
-0.0165732	
0.140718	
0.113968	
0.261561	
0.259956	
0.0624689	
0.0704851	
0.102769	
0.0783788	
0.0841156	
0.0870394	
0.0273577	
0.0575524	
0.0863097	
0.0747073	
0.135239	
0.125302	
0.0737734	
0.0498773	
0.0884318	
0.060344	
0.223922	
0.225671	
0.167782	
0.182635	
0.148044	
0.138803	
0.0405975	
0.00983471	
-0.0484269	
0.00598495	
0.0218401	
0.0192299	
-0.007498	
0.165329	
-0.0212126	
0.135706	
0.137419	
-0.0171777	
-0.0441291	
-0.0348769	
-0.0434733	
0.11029	
0.117914	
0.0413444	
0.0436116	
0.0397846	
0.189219	
0.161863	
0.263988	
0.259708	
0.105405	
0.0847122	
0.0752764	
0.0729269	
0.0855649	
0.126603	
0.123479	
0.148925	
0.148388	
0.062072	
0.065051	
0.0180359	
0.00860773	
0.0819341	
0.0583925	
0.0613747	
0.0382554	
0.0998238	
0.101805	
0.0900464	
0.0833896	
0.0920817	
0.085605	
0.0529002	
0.270661	
0.268698	
0.264254	
0.269516	
0.100396	
0.104618	
0.0924889	
0.0980654	
0.0963742	
0.0990391	
0.0961982	
-0.0158799	
0.00128285	
-0.00708486	
0.00947447	
0.0267923	
0.0381319	
0.0180999	
0.00816954	
-0.0121011	
-0.00360919	
0.0042543	
0.0338041	
0.0198523	
0.0242479	
0.012444	
0.00427924	
0.020313	
0.00277317	
0.0122107	
-0.0103752	
-0.0176559	
-0.0135932	
-0.00470664	
0.0271281	
0.0250114	
0.018661	
0.010688	
-0.0145899	
-0.00997647	
-0.00417188	
0.00251014	
0.0332982	
-0.0635943	
-0.0490976	
0.00465588	
0.0329005	
-0.0256347	
-0.0310733	
-0.00889348	
0.0298501	
0.0234902	
0.00303193	
-0.0518496	
0.00229306	
-0.0288568	
-0.0726369	
-0.0549999	
0.0312188	
0.0157947	
-0.00475232	
-0.066557	
-0.0417232	
-0.0174681	
0.0246689	
0.135298	
0.173388	
0.171785	
0.115519	
0.140898	
-0.0299195	
0.0715583	
0.140147	
0.0530583	
0.0947164	
0.12706	
0.0456499	
0.0367092	
0.116828	
0.11805	
0.092426	
0.0934671	
0.0770248	
0.102309	
0.125474	
0.171849	
0.174231	
-0.0607715	
-0.0665718	
-0.0517728	
-0.0521846	
0.000407737	
0.0216105	
0.0103413	
0.163505	
0.149084	
0.153343	
0.0444598	
0.161149	
0.15292	
0.169726	
0.170882	
0.167345	
0.161763	
0.168374	
0.169229	
-0.0560056	
-0.0427378	
0.143113	
0.148933	
0.134121	
0.158745	
0.157768	
0.163885	
0.15712	
0.145781	
0.145394	
0.169117	
0.154431	
0.173124	
0.174873	
0.102312	
0.108669	
0.127857	
0.17373	
0.174978	
-0.039877	
-0.0229256	
0.00797651	
-0.00502656	
-0.0285734	
-0.00683538	
-0.0269425	
0.0556712	
0.03489	
0.0775629	
0.073671	
0.117429	
0.135281	
0.111324	
0.130413	
0.102005	
0.160687	
0.164566	
0.127348	
0.093728	
-0.150617	
-0.0292118	
0.0327703	
0.0672061	
-0.0245931	
0.0343509	
0.0465822	
-0.0286147	
0.060718	
0.034533	
-0.00134339	
-0.00432677	
0.00880151	
0.035883	
0.0453966	
0.135252	
0.156163	
-0.149552	
-0.171279	
-0.125338	
-0.128975	
-0.108719	
-0.090938	
-0.0821333	
0.085391	
0.113841	
0.0931035	
-0.0651746	
-0.0766427	
0.128121	
0.119481	
0.139739	
0.128191	
0.129621	
0.139049	
0.132638	
0.125012	
-0.15886	
-0.165634	
0.0730282	
0.0878	
0.103904	
0.106864	
0.0838613	
0.0878464	
0.11115	
0.116319	
0.152616	
0.151471	
0.159011	
0.163306	
0.0470067	
0.0999413	
0.0726432	
0.163887	
0.158867	
-0.143623	
-0.142501	
-0.117478	
-0.112735	
-0.108227	
-0.142469	
-0.12099	
-0.0176695	
-0.0633613	
-0.0351561	
-0.0651394	
0.0382453	
0.0703959	
0.0168107	
0.0703793	
0.0426753	
-0.0519409	
0.0696974	
0.165331	
0.218073	
0.212262	
0.211402	
0.191052	
0.206825	
0.195867	
0.185493	
0.207558	
0.20088	
0.205	
0.192018	
0.199964	
0.195337	
0.172737	
0.154946	
0.174167	
0.183951	
0.179357	
0.21337	
0.174675	
0.20521	
0.203941	
0.18997	
0.210029	
0.197218	
0.205624	
0.091348	
0.0978903	
-0.0956904	
-0.0181457	
0.202124	
0.170514	
0.212818	
0.156381	
0.192035	
0.0934225	
0.172633	
0.18319	
0.212693	
-0.208752	
0.175226	
0.207868	
0.187914	
0.194432	
0.110092	
0.102487	
0.147202	
0.100197	
0.131197	
-0.00606731	
-0.361459	
0.0167251	
0.116593	
0.124388	
-0.0725726	
-0.029402	
0.018381	
0.0482644	
-0.249633	
-0.328415	
-0.338595	
-0.345288	
-0.197208	
-0.00357478	
-0.0133963	
-0.234311	
-0.26908	
-0.151466	
-0.00500606	
-0.261175	
-0.294632	
-0.332793	
-0.333901	
-0.167469	
0.0077434	
-0.0876678	
-0.346691	
-0.344712	
-0.0826018	
0.175384	
0.0896777	
0.170003	
-0.347754	
-0.0484038	
0.139913	
-0.0350922	
-0.00701068	
0.152507	
-0.246371	
-0.02748	
-0.0901816	
-0.13365	
-0.208678	
-0.0650272	
0.156938	
-0.0956407	
0.0951144	
-0.0995853	
0.116858	
0.08333	
0.0279414	
0.0701307	
-0.242432	
-0.224991	
0.080636	
-0.00597681	
-0.103345	
-0.0391858	
-0.137275	
-0.102414	
-0.252959	
-0.0766604	
-0.0785342	
-0.15988	
0.151723	
-0.153826	
-0.326274	
0.124286	
-0.322428	
-0.320079	
-0.00308064	
0.0551333	
-0.318035	
-0.124414	
-0.180906	
-0.139117	
0.197364	
0.110365	
0.119623	
0.119287	
0.0499721	
0.0506745	
-0.0098543	
0.0412063	
-0.216992	
-0.139622	
0.170334	
0.152748	