<VTKFile type="UnstructuredGrid" version="0.1" byte_order="LittleEndian">
	<UnstructuredGrid>
		<Piece NumberOfPoints="3959" NumberOfCells="7450">
			<CellData Scalars="scalars">
				<DataArray type="Float64" Name="Doublet Strengths" NumberOfComponents="1" Format="ascii">
-0.0703525	
-0.0549736	
0.00139387	
0.0315247	
-0.0303794	
-0.0402356	
-0.0164468	
0.0265089	
0.0186228	
-0.00343773	
-0.0627128	
0.00392513	
-0.0266043	
-0.068673	
-0.0519073	
0.0318202	
0.0195276	
2.5749e-05	
-0.0585286	
-0.0351349	
-0.0119924	
0.027072	
0.134317	
0.171608	
0.169995	
0.112943	
0.132803	
-0.108577	
0.0318172	
0.119694	
0.0318889	
0.0835542	
0.106114	
0.00991491	
-0.00546775	
0.0884788	
0.0937037	
0.0620759	
0.0604975	
0.0598351	
0.0808412	
0.105508	
0.162867	
0.170513	
-0.0930724	
-0.104262	
-0.101988	
-0.146035	
-0.0572758	
-0.0327467	
-0.0198005	
0.152215	
0.13314	
0.137825	
-0.000482071	
0.15015	
0.146608	
0.159085	
0.162318	
0.155764	
0.160564	
0.157797	
0.16101	
-0.12517	
-0.169996	
0.122801	
0.12948	
0.1108	
0.143271	
0.142532	
0.15661	
0.14883	
0.131511	
0.132891	
0.165862	
0.151857	
0.170725	
0.170788	
0.0869214	
0.100682	
0.121275	
0.171963	
0.171342	
-0.0868042	
-0.0885308	
-0.0400069	
-0.0421907	
-0.0622281	
-0.0525505	
-0.0822434	
0.0307865	
0.00442641	
0.0516601	
0.0424841	
0.0973382	
0.120866	
0.094884	
0.117583	
0.105437	
0.163723	
0.167338	
0.129433	
0.101106	
-0.0752622	
0.00892737	
0.0565358	
0.0875597	
-0.00468173	
0.0495172	
0.0672396	
0.00116177	
0.0836938	
0.0621285	
0.0304283	
0.024915	
0.0252791	
0.0556237	
0.0651257	
0.145056	
0.161033	
-0.102671	
-0.0814713	
-0.0964175	
-0.0945644	
-0.0632128	
-0.0388637	
-0.0542531	
0.101598	
0.125873	
0.108932	
-0.0221834	
-0.0364978	
0.136418	
0.126824	
0.148977	
0.140271	
0.140935	
0.142838	
0.141795	
0.136373	
-0.0930529	
-0.0417656	
0.0932428	
0.10721	
0.119483	
0.122617	
0.0984716	
0.100805	
0.122932	
0.125549	
0.155102	
0.155963	
0.163942	
0.16647	
0.0581537	
0.108862	
0.0810461	
0.166782	
0.163528	
-0.0810903	
-0.0902065	
-0.0624821	
-0.0818893	
-0.0735836	
-0.098632	
-0.0779269	
0.00701714	
-0.0294854	
-0.0117606	
-0.0366477	
0.0544445	
0.0834996	
0.0376037	
0.0849924	
-0.00727898	
-0.178121	
0.0279257	
0.167838	
0.216102	
0.207801	
0.207923	
0.191098	
0.203178	
0.193136	
0.183926	
0.205803	
0.199634	
0.200429	
0.183242	
0.194519	
0.190776	
0.170096	
0.163256	
0.171436	
0.180158	
0.175734	
0.208714	
0.17523	
0.198145	
0.198802	
0.184641	
0.20397	
0.193349	
0.205237	
0.115798	
0.108341	
-0.0323404	
0.0114777	
0.196458	
0.176336	
0.210803	
0.165492	
0.187756	
0.0573861	
0.178567	
0.184886	
0.207954	
-0.253102	
0.178721	
0.20254	
0.190346	
0.195408	
0.133705	
0.126419	
0.158223	
0.124464	
0.145963	
-0.0743466	
-0.27607	
-0.0425753	
0.0872915	
0.0956074	
-0.231489	
-0.11077	
-0.0386342	
-0.00189746	
-0.366287	
-0.176583	
-0.220546	
-0.376023	
-0.220739	
-0.0299951	
-0.0849777	
-0.301627	
-0.343936	
-0.203423	
-0.0712548	
-0.315119	
-0.352326	
-0.384425	
-0.391606	
-0.305143	
-0.0531282	
-0.143663	
-0.385195	
-0.374533	
-0.0988908	
0.163122	
0.103235	
0.152809	
-0.225058	
0.0103326	
0.116311	
0.0261234	
0.0196628	
0.129365	
-0.0850903	
0.0399503	
-0.107901	
-0.153858	
-0.298705	
-0.0340745	
0.135182	
-0.0525848	
0.0608435	
-0.0139024	
0.0850459	
0.0424367	
0.0255418	
0.0689576	
-0.283561	
-0.260761	
0.0545678	
0.0369934	
-0.0184095	
0.0276259	
-0.0791103	
-0.0247138	
-0.287915	
-0.128758	
-0.127218	
-0.0802705	
0.142035	
-0.0639878	
-0.151283	
0.101165	
-0.168426	
-0.176544	
0.049929	
0.083268	
-0.224775	
-0.141601	
-0.197259	
-0.041138	
0.186569	
0.0848284	
0.0882395	
0.0875176	
0.00783823	
0.00785258	
-0.0229627	
0.0297044	
-0.301854	
-0.2056	
0.153389	
0.129714	
0.128391	
0.139984	
-0.100603	
-0.0750579	
-0.0767664	
-0.0328458	
-0.019985	
0.00881811	
0.164465	
0.0523403	
0.0827906	
0.172647	
0.167849	
0.0771199	
-0.247798	
0.189161	
0.109352	
-0.0547726	
-0.122958	
0.178721	
0.199608	
0.0563468	
0.153601	
-0.278684	
-0.192591	
0.115191	
0.111831	
0.124984	
0.0236124	
0.19437	
0.170701	
0.150868	
0.153934	
0.137753	
0.161735	
0.18595	
0.182039	
0.160918	
-0.0328432	
0.0384414	
0.146762	
0.162732	
0.147104	
0.179515	
0.189389	
0.0568861	
0.170109	
0.0822787	
0.0626139	
0.0538433	
0.0605853	
0.119815	
0.187094	
0.107147	
0.0810008	
0.0557661	
0.0630475	
0.11733	
0.119767	
0.137635	
0.136374	
0.0611178	
0.00722633	
0.0223275	
-0.0272565	
0.188068	
0.20733	
0.188779	
0.181978	
0.193756	
0.0992062	
0.102005	
0.183264	
0.10484	
-0.205756	
0.0856847	
0.0184033	
0.070842	
0.0842022	
0.174974	
0.0262928	
-0.101016	
-0.0706118	
0.0581729	
0.0597912	
0.0223902	
0.14944	
0.179224	
0.101287	
0.0951411	
0.184881	
0.143488	
0.0939206	
0.0364524	
0.0283942	
0.061006	
0.0640846	
0.0125542	
0.141313	
0.146952	
-0.338559	
-0.296695	
-0.193373	
-0.153708	
-0.0908928	
0.117557	
0.10896	
0.129079	
0.162262	
0.149386	
0.125464	
0.182248	
-0.184152	
-0.193912	
-0.359833	
-0.329417	
0.0460727	
-0.0891658	
0.0325813	
-0.326372	
-0.352354	
0.00262999	
-0.0121414	
0.0101113	
0.000660563	
-0.110703	
-0.0708544	
-0.0630386	
-0.0145737	
0.0181222	
-0.00329887	
0.0642833	
0.0846836	
0.109141	
-0.0108545	
-0.0417533	
-0.0107328	
-0.0290639	
-0.00978088	
0.0341954	
0.110707	
0.110812	
0.0922678	
0.0231782	
0.00100045	
-0.0736321	
0.135099	
0.0961023	
0.0187605	
0.00541508	
0.191563	
-0.214073	
0.0615938	
-0.0204356	
-0.0321978	
0.211035	
0.190839	
0.203055	
-0.214518	
-0.167235	
-0.112369	
-0.00192908	
-0.122152	
-0.0719242	
0.199009	
0.184191	
0.139552	
0.115001	
0.065893	
-0.063252	
-0.135486	
-0.0880923	
0.179246	
0.0287074	
-0.386792	
-0.389638	
-0.387843	
-0.216127	
0.0604914	
2.98681e-06	
-0.00366258	
0.0157497	
0.0153837	
0.0226961	
-0.0150474	
0.125015	
0.120318	
-0.139668	
-0.0711865	
-0.193936	
-0.131036	
-0.049806	
-0.165411	
-0.0758169	
0.0427652	
-0.26366	
-0.246191	
0.136448	
0.0613086	
0.106991	
-0.0402026	
-0.0026898	
0.15519	
0.156396	
0.137656	
0.15485	
0.142519	
0.0751613	
0.0525756	
0.137768	
0.044999	
0.196486	
0.186103	
-0.115037	
-0.247672	
0.181345	
0.177955	
0.187971	
0.0192395	
0.189693	
0.201225	
0.187601	
0.197475	
0.206331	
0.19104	
-0.227587	
-0.256423	
0.206569	
0.188166	
0.193979	
0.181186	
-0.355718	
0.0366164	
0.00837813	
0.0220888	
0.190158	
0.172924	
0.157772	
0.180058	
0.0623294	
0.0644424	
0.0143537	
0.0175579	
0.132455	
-0.141277	
0.0284207	
0.072224	
-0.0602758	
0.14501	
0.154332	
0.125638	
0.0920786	
0.20239	
0.0358245	
0.0819017	
-0.0236482	
-0.0101395	
0.10392	
0.12855	
0.13595	
0.0478304	
-0.0663653	
-0.0418203	
-0.0230539	
0.0180807	
0.054396	
0.0842236	
-0.0271745	
0.0352413	
-0.0209146	
0.197088	
0.182048	
0.0666225	
-0.0083571	
0.0862476	
0.148068	
-0.00501155	
-0.118591	
-0.00807421	
-0.120847	
0.10322	
-0.0352625	
-0.0390771	
-0.0237055	
0.123108	
0.094078	
0.0904207	
0.0331234	
0.0944779	
0.0557711	
0.00463396	
0.00826882	
0.0284009	
0.0230417	
0.00771678	
-0.0387187	
-0.0857593	
0.115825	
0.0377734	
0.0361556	
0.0231192	
0.12902	
0.0263746	
-0.0136284	
0.0666802	
0.0779613	
0.105174	
-0.344266	
-0.0100647	
-0.0341019	
0.0579446	
0.0659469	
0.1509	
0.0919633	
0.08034	
0.0719115	
-0.112562	
-0.0718872	
0.0362515	
0.00991926	
-0.0212915	
-0.0668574	
0.0962402	
0.0648474	
0.0577818	
0.0600789	
-0.0470332	
0.0289905	
-0.249469	
-0.233038	
-0.149433	
-0.136209	
0.143702	
-0.0459625	
-0.169027	
0.128882	
-0.0926717	
0.0268638	
-0.144319	
-0.216556	
-0.0676552	
-0.0354779	
0.016056	
-0.017473	
-0.0985885	
-0.159361	
-0.0887564	
-0.040412	
-0.0234923	
-0.0011716	
-0.14929	
0.130789	
0.00853194	
0.0355566	
0.0742404	
-0.107018	
-0.0724473	
-0.085941	
-0.140732	
-0.214908	
0.121093	
0.109032	
-0.0204813	
0.0321353	
-0.112202	
-0.134914	
0.110216	
0.036982	
0.0684771	
-0.0302607	
-0.012889	
-0.119888	
-0.0808483	
-0.311395	
-0.348708	
0.0476483	
-0.248242	
0.045461	
0.00378413	
-0.142211	
0.13367	
-0.0986866	
-0.0879341	
-0.0136949	
-0.0595293	
0.18316	
0.0966421	
0.145514	
0.0813572	
0.101828	
0.203198	
0.190747	
-0.0526057	
-0.0451051	
0.0464048	
0.0638082	
-0.341889	
-0.136359	
-0.16604	
-0.384488	
-0.0188476	
0.0496082	
-0.032534	
-0.0424419	
-0.139039	
-0.113928	
0.033135	
-0.0105811	
0.00335761	
0.193983	
0.178527	
0.0649735	
0.00313193	
-0.0363697	
0.0858299	
0.117266	
0.0394108	
0.0712743	
0.0259334	
-0.0541286	
0.189728	
0.207732	
0.204823	
0.192819	
-0.19499	
0.185727	
0.164357	
-0.00300531	
-0.091152	
0.0164493	
0.156369	
0.175608	
0.154827	
0.175022	
0.163139	
0.140334	
0.0648927	
0.0502422	
-0.00103144	
0.00443234	
0.11801	
0.124718	
-0.13046	
-0.365655	
-0.343252	
0.039571	
0.0274716	
0.197689	
0.179206	
0.212591	
0.196356	
0.148491	
0.116049	
-0.0732721	
0.107943	
0.139511	
0.12614	
0.142662	
0.143658	
0.162068	
0.156783	
0.136363	
-0.207932	
-0.230218	
0.177295	
0.162373	
0.0973572	
0.05668	
0.143776	
0.142528	
0.203371	
0.18994	
-0.0346814	
-0.0940634	
-0.159427	
-0.0726265	
0.0147039	
0.101361	
0.0437915	
0.113099	
-0.0866796	
-0.07488	
-0.253996	
0.114925	
0.11137	
0.166985	
0.191515	
-0.0734543	
0.036853	
-0.0402059	
0.0167591	
-0.0516572	
-0.0149258	
0.0573002	
0.059009	
0.108759	
-0.0264118	
-0.0270682	
-0.0393912	
-0.0442102	
0.202895	
0.176002	
0.1793	
-0.104998	
-0.152461	
0.0640176	
-0.0098861	
0.0582494	
-0.0414675	
0.0618001	
0.0527253	
-0.0828342	
-0.0914657	
0.0755304	
-0.00421777	
0.00383511	
-0.298816	
-0.00824438	
0.0374965	
0.0771128	
0.0802571	
-0.158794	
-0.17062	
-0.23989	
-0.0200194	
0.0198095	
0.164931	
0.152166	
0.00788443	
0.0653755	
0.0867492	
0.0922523	
-0.00479622	
-0.0459008	
-0.100134	
-0.101767	
0.192758	
0.181681	
0.186042	
0.0603301	
0.0629341	
0.114068	
0.0576583	
-0.139582	
-0.13675	
-0.193741	
-0.0948655	
-0.0877273	
-0.0157828	
0.11238	
0.113822	
0.0781762	
0.0394613	
-0.178719	
-0.17982	
-0.0118143	
-0.031074	
-0.223026	
-0.19649	
-0.2684	
-0.118233	
0.171268	
0.155666	
0.130133	
0.190104	
0.209563	
-0.0753936	
-0.0145098	
-0.0698181	
0.0634915	
0.108546	
0.0228835	
0.0686785	
0.0988376	
0.126393	
0.102661	
0.128946	
-0.037216	
-0.0226908	
0.14214	
0.141012	
-0.162042	
-0.136057	
-0.204458	
0.184427	
0.192098	
0.183689	
0.139386	
0.103705	
0.156504	
0.107929	
0.153728	
0.0766357	
0.1343	
0.131162	
0.165493	
-0.0557436	
-0.045483	
-0.0477606	
0.136402	
-0.0563666	
-0.0759705	
-0.174999	
0.0560545	
0.0306402	
-0.242247	
-0.249479	
-0.0524573	
-0.0595312	
0.117687	
0.065081	
-0.130225	
-0.299233	
-0.263667	
0.176542	
0.175013	
0.159014	
0.174433	
0.172333	
0.0460875	
0.0879727	
0.0299222	
0.0370487	
0.185697	
-0.0412806	
-0.200923	
-0.0411986	
0.0195912	
-0.0176636	
-0.0261154	
0.0148414	
-0.343462	
0.0524323	
0.061645	
0.142088	
0.111336	
0.157157	
0.124793	
0.142753	
0.132856	
0.130729	
0.0257044	
0.0573949	
0.0500443	
0.0768365	
0.130455	
0.109206	
0.0260461	
0.139754	
0.154143	
0.105873	
0.123231	
0.112892	
0.137498	
0.117849	
0.115106	
0.052628	
0.0550304	
0.129015	
0.110365	
0.118455	
0.072911	
-0.0639809	
-0.0660761	
-0.0500402	
-0.0171443	
-0.0980556	
-0.0327893	
0.0725717	
0.0541711	
0.101741	
0.158145	
0.124308	
0.137812	
0.0855412	
0.00827891	
-0.0130126	
0.0568739	
-0.0160029	
0.0168607	
-0.0291929	
0.0534977	
0.178856	
0.178545	
-0.320775	
-0.28103	
0.122316	
0.112766	
-0.00934449	
-0.0241625	
0.130015	
-0.0750767	
-0.05865	
0.173932	
0.159786	
0.188607	
0.207288	
0.0581251	
0.034819	
0.141656	
0.125573	
0.176527	
0.0184293	
0.0589649	
0.122685	
0.0766716	
0.11351	
0.0854633	
0.111982	
0.206502	
0.0312598	
0.0314608	
0.180486	
0.0499023	
0.103896	
0.102469	
0.0288638	
0.00389473	
0.106641	
0.113043	
0.146775	
0.185242	
0.190392	
0.200127	
-0.207827	
0.121715	
0.0704303	
-0.0598638	
0.0305039	
0.0680151	
0.14406	
0.141812	
0.196346	
0.187744	
0.154692	
0.145855	
-0.202962	
-0.12681	
-0.0925081	
-0.109306	
0.0833656	
0.0643343	
0.0713508	
-0.0898181	
-0.0611311	
-0.267731	
-0.0822018	
-0.0730796	
-0.131055	
-0.277805	
-0.216833	
-0.147479	
-0.136219	
-0.119951	
-0.101514	
0.147134	
0.135231	
0.0707104	
-0.062887	
-0.0519271	
-0.144873	
-0.144873	
-0.211164	
-0.207918	
-0.0535635	
-0.0717517	
-0.339297	
-0.0489116	
-0.196207	
0.0880558	
0.0922309	
0.0650955	
0.0670673	
0.170626	
0.169942	
-0.0533441	
-0.0962411	
-0.000238869	
-0.00350627	
0.0471562	
0.0276343	
0.0434722	
0.0265452	
-0.20026	
-0.226063	
-0.166808	
-0.0226153	
0.134231	
0.121312	
0.0576768	
0.0372066	
-0.247457	
-0.228705	
-0.0891637	
-0.192288	
-0.232989	
-0.214296	
-0.267135	
0.200418	
0.183673	
-0.026073	
-0.0822248	
-0.0602412	
-0.0544682	
-0.0806266	
-0.190669	
-0.174361	
0.0547257	
0.0102758	
-0.157908	
-0.0520397	
-0.256923	
-0.24767	
-0.149765	
-0.130286	
-0.137953	
-0.12485	
-0.149861	
-0.148222	
-0.103493	
-0.102669	
0.148368	
0.075541	
0.132943	
0.114749	
0.111912	
0.115619	
0.0818399	
-0.235842	
-0.190801	
-0.195156	
-0.205907	
-0.198207	
-0.264748	
-0.273728	
-0.319913	
-0.179434	
-0.118924	
-0.21781	
-0.192094	
-0.291129	
-0.336069	
-0.335592	
-0.371314	
-0.0352946	
-0.0378725	
-0.0400523	
-0.0477375	
-0.211462	
-0.218186	
-0.170288	
-0.160238	
-0.129374	
-0.138385	
-0.0943679	
-0.310143	
-0.0362134	
-0.021108	
-0.310092	
-0.267964	
-0.0136001	
-0.0234903	
-0.0285207	
-0.14901	
-0.144959	
-0.0258875	
-0.0347424	
-0.0786633	
-0.0859369	
-0.173065	
-0.164796	
0.0877413	
0.021161	
0.00101432	
-0.00569536	
0.0967293	
0.0484295	
-0.121624	
-0.0974141	
-0.119819	
-0.018259	
-0.28377	
-0.331691	
-0.0989266	
-0.114958	
0.196104	
0.121856	
0.20936	
0.180236	
-0.380027	
-0.373636	
0.0448878	
0.00137037	
-0.314353	
-0.280314	
-0.334102	
-0.300379	
-0.284069	
-0.294429	
-0.222592	
-0.192497	
-0.320922	
-0.360577	
-0.360047	
-0.355058	
-0.352862	
-0.185051	
-0.13113	
-0.105804	
-0.302304	
-0.329054	
-0.355952	
-0.245583	
0.188231	
0.156468	
0.209286	
0.191877	
-0.33009	
-0.301543	
-0.220271	
-0.208511	
-0.195004	
-0.0072014	
-0.00776271	
-0.299415	
-0.298852	
-0.334646	
-0.304051	
-0.326682	
-0.0590838	
-0.0698762	
-0.0822739	
-0.104316	
-0.218352	
-0.25973	
-0.219125	
-0.245058	
-0.273782	
-0.30548	
0.208515	
0.183701	
0.181871	
0.142434	
-0.250706	
-0.136218	
-0.124426	
-0.137274	
0.181488	
0.138382	
0.16124	
0.0809934	
-0.353613	
0.0815754	
0.125787	
0.114716	
0.135835	
-0.338514	
-0.357145	
-0.341423	
-0.345324	
-0.336213	
-0.342755	
-0.30126	
-0.110405	
-0.100561	
-0.0990563	
-0.0991371	
0.137127	
0.19548	
0.133674	
0.193066	
0.12926	
0.120184	
0.123156	
0.0736079	
-0.254571	
-0.275495	
-0.254245	
-0.239637	
-0.345807	
-0.360515	
-0.347096	
-0.353402	
0.0777421	
0.137009	
0.0819256	
0.13854	
0.163766	
0.130153	
0.151032	
0.0931956	
0.112543	
0.0885793	
0.11178	
0.0878375	
0.17358	
0.201924	
0.205179	
0.209952	
0.220931	
0.142749	
0.23144	
0.236176	
0.236559	
0.2448	
0.249193	
0.254714	
0.228831	
0.1909	
0.169161	
0.0480519	
0.256447	
-0.00674411	
-0.000610998	
-0.0327691	
0.182921	
0.249161	
0.234409	
0.26594	
0.262002	
0.26904	
0.2567	
0.263828	
0.254354	
0.246779	
0.171452	
0.217386	
0.196481	
0.218911	
0.18953	
0.149676	
0.217442	
0.159011	
0.101764	
0.257722	
0.23637	
0.235152	
0.0944145	
-0.044526	
0.248668	
-0.0270437	
-0.0399811	
0.0149439	
0.0715535	
0.0438522	
-0.0336577	
0.0414891	
0.003368	
0.0708976	
-0.0527905	
0.0176766	
0.0658578	
0.0852057	
0.0424843	
-0.00218849	
-0.0432916	
0.209819	
-0.0297929	
0.178086	
0.107646	
0.109824	
0.087078	
0.0492318	
0.055816	
0.0740891	
0.0828074	
0.0216043	
0.0607372	
0.015051	
0.0410208	
0.0223346	
0.0331959	
0.0314594	
0.0451407	
0.088878	
0.0540794	
0.0586695	
0.0701131	
0.0904746	
0.0477053	
-0.0211988	
-0.0248745	
0.0229271	
-0.000572847	
-0.00640743	
0.0359246	
0.0659694	
0.0609111	
0.00647798	
-0.0182152	
-0.0275543	
-0.00705645	
0.0342743	
-0.0603709	
-0.0389503	
-0.0641457	
0.168555	
0.189488	
0.186434	
0.224575	
0.010373	
0.100449	
0.153983	
0.161453	
0.190366	
3.02596e-05	
0.152608	
0.130287	
-0.0582009	
-0.038633	
-0.0297167	
0.135789	
-0.0315583	
0.144117	
-0.00368282	
0.205151	
0.208624	
-0.0692423	
0.0762703	
0.0399999	
0.00244205	
0.0745125	
0.0157233	
0.246587	
0.230797	
0.224096	
-0.0500039	
0.0851038	
0.218518	
-0.0137268	
-0.016872	
0.209506	
0.231178	
0.00711485	
0.0486761	
0.199934	
0.140709	
-0.0620277	
-0.049969	
0.112167	
-0.0227671	
-0.017679	
-0.00788407	
-0.00153199	
0.251668	
0.208867	
0.214985	
0.134029	
0.168956	
0.245825	
0.274196	
0.25564	
0.0582844	
0.170427	
0.243862	
0.19461	
0.109457	
0.130674	
0.143526	
0.161521	
0.00563605	
0.121494	
0.086366	
0.0999217	
0.0685848	
0.121219	
0.11896	
0.190083	
0.151301	
0.195439	
0.116082	
0.157177	
0.130275	
0.168227	
0.118246	
0.12578	
0.159521	
0.206438	
0.140993	
0.151444	
0.15969	
0.15949	
0.142442	
0.267382	
0.269266	
0.278764	
0.266367	
0.282498	
0.250991	
0.118042	
-0.0246365	
0.0224826	
0.0277732	
0.125908	
0.233339	
0.179434	
0.11069	
0.183736	
0.170994	
0.124186	
0.237368	
0.27079	
0.276154	
0.23151	
0.250597	
0.260462	
0.278723	
0.263021	
0.253751	
0.2784	
0.263269	
0.262979	
0.27077	
0.244915	
0.243296	
0.269787	
0.269504	
0.27513	
0.103945	
0.279632	
0.226395	
0.248094	
0.200738	
0.226912	
0.270329	
0.271141	
0.275099	
0.204706	
0.197121	
0.224994	
0.209607	
0.21838	
0.222487	
0.196003	
-0.0467186	
-0.0518985	
0.240493	
0.228135	
0.252686	
0.230859	
0.202143	
0.183241	
0.201055	
0.259659	
0.235301	
0.235201	
0.241335	
0.166795	
0.209924	
0.0859909	
0.262312	
0.249466	
0.0933013	
0.186302	
0.163668	
0.232523	
0.124753	
0.130099	
0.207789	
0.147364	
0.274168	
0.135271	
0.133103	
0.161031	
0.222877	
0.194332	
0.18139	
0.268104	
0.0481421	
0.107689	
0.0416525	
0.0772264	
0.196659	
0.188262	
0.155089	
0.185613	
-0.021883	
0.25994	
0.242604	
-0.00463708	
0.00526961	
-0.0195871	
0.000709667	
0.116889	
0.0894834	
0.159678	
0.166972	
0.190154	
0.154033	
0.191088	
0.00660952	
0.161483	
0.134258	
0.175993	
-0.0382816	
-0.0517654	
-0.0430438	
-0.0513153	
0.117217	
0.11384	
0.143809	
0.133974	
0.152709	
0.088568	
0.0965413	
0.201373	
0.178012	
0.202047	
0.213744	
0.155451	
0.102479	
0.0902973	
0.0993094	
0.0717262	
0.281482	
0.17361	
0.201205	
0.154764	
0.171847	
0.122519	
0.148377	
0.117711	
0.157425	
0.143027	
0.0159226	
0.206859	
0.214791	
0.18231	
0.239745	
0.238335	
0.1503	
0.176779	
0.124856	
0.128515	
-0.0541251	
-0.0387277	
-0.0632473	
-0.0618704	
0.102271	
0.209423	
0.241481	
0.212143	
0.200115	
0.211334	
0.172497	
0.219091	
0.216758	
0.21531	
0.205805	
0.0481795	
0.10654	
0.266824	
0.24384	
0.269104	
0.206227	
0.196492	
0.266363	
0.267904	
0.233096	
0.246004	
0.260895	
0.20616	
0.232719	
0.174948	
0.17816	
0.187577	
0.249469	
0.236557	
0.250472	
0.223574	
0.26589	
0.233532	
0.253234	
0.000871321	
0.187585	
0.198835	
0.167392	
0.23873	
0.240868	
0.233248	
0.228205	
0.246808	
0.2572	
0.108369	
0.136684	
0.12551	
0.141809	
-0.0541048	
0.219376	
0.185595	
0.189309	
0.11914	
0.151584	
0.155456	
0.176149	
0.157858	
0.166644	
-0.0445063	
-0.0332724	
-0.0483955	
-0.0307736	
0.246792	
0.209692	
0.246818	
0.213162	
0.0871279	
0.217772	
0.224903	
0.222991	
0.250575	
0.233383	
0.261565	
0.151564	
0.137415	
0.219495	
0.215479	
0.223247	
0.182936	
0.186422	
0.0240409	
0.0689688	
0.267418	
0.228964	
-0.0210702	
0.192542	
0.219869	
0.229318	
0.230623	
0.213145	
0.201008	
0.199008	
0.259269	
0.261548	
0.254452	
0.151483	
0.262419	
0.267149	
0.0625025	
0.0861621	
0.0855825	
0.225532	
0.22159	
0.222513	
0.267594	
-0.0678751	
-0.0619986	
0.257295	
0.252549	
0.245242	
0.223507	
-0.0626755	
-0.0570619	
0.167668	
0.154863	
0.118264	
0.120047	
0.224521	
0.078264	
0.0926253	
0.152833	
0.15361	
0.171951	
0.170243	
0.266597	
0.259597	
0.00166556	
0.0167544	
0.077203	
0.0430573	
0.109125	
0.107522	
0.136347	
0.181125	
0.179014	
0.167712	
0.161543	
0.275189	
0.261976	
0.239314	
0.254601	
0.268409	
0.0857464	
0.0795507	
0.208321	
0.206858	
0.189293	
0.189146	
0.0266711	
0.0476042	
0.26713	
0.268287	
0.210206	
0.207333	
0.146781	
0.108611	
0.156279	
0.101672	
0.223494	
0.230454	
0.205612	
0.207146	
0.212536	
0.210703	
0.207139	
0.191324	
0.268055	
0.269728	
0.254018	
0.170913	
0.171789	
0.203319	
0.199732	
0.167265	
0.173557	
0.237084	
0.243006	
0.164012	
0.180797	
0.262066	
0.26628	
0.186794	
0.226559	
0.235311	
0.220201	
0.190797	
0.228377	
0.271963	
0.264974	
0.243226	
0.243039	
0.235628	
0.244039	
0.130708	
0.188118	
0.126885	
0.265253	
0.276056	
0.26203	
0.256166	
0.101576	
0.0739783	
0.076763	
0.059172	
0.262531	
0.256771	
0.26724	
0.274184	
0.00678973	
0.257569	
0.267326	
0.264278	
0.256875	
0.127515	
0.166066	
0.267878	
0.276011	
0.266367	
0.12057	
0.132798	
0.138379	
0.146646	
0.195661	
0.192298	
0.187383	
0.190453	
0.270103	
0.166359	
0.163834	
0.213913	
0.214234	
-0.00106196	
-0.010503	
0.248676	
0.263341	
0.263189	
0.195545	
-0.00897957	
0.233732	
0.22979	
0.239507	
0.241456	
0.179856	
0.271515	
0.269545	
0.0403061	
0.0108481	
0.185301	
-0.0660284	
-0.0592481	
-0.0653435	
0.176579	
0.0652974	
0.0261492	
0.0502262	
0.0251135	
0.2405	
0.128122	
0.167613	
0.264869	
0.250547	
0.265639	
0.263349	
0.267043	
-0.00416425	
-0.0252164	
0.23884	
0.223689	
0.267699	
0.258382	
0.0211957	
0.184332	
0.169792	
0.138776	
0.204845	
0.175437	
0.226032	
0.217779	
0.131705	
0.124738	
0.264538	
0.274471	
0.0653728	
0.054074	
0.24929	
0.256983	
0.269006	
0.268669	
0.273863	
0.266601	
-0.0592673	
-0.061786	
0.0987474	
0.0984939	
0.0290316	
0.0210017	
0.00954388	
0.246418	
0.247659	
0.221489	
0.232062	
0.215597	
0.222129	
0.273903	
0.199583	
0.259856	
0.244377	
0.2389	
0.125173	
0.0688682	
0.271569	
0.262958	
-0.036955	
-0.00605428	
0.0111357	
0.0662457	
0.213812	
0.143266	
0.24813	
0.241502	
0.0617744	
0.0847933	
0.0381357	
0.247402	
0.160616	
0.164272	
0.255131	
0.253362	
0.0940206	
0.0750341	
-0.0142719	
-0.0160811	
0.197732	
0.20122	
0.184929	
0.193544	
0.241577	
0.209418	
0.1854	
0.226618	
0.219502	
0.199405	
0.00933777	
0.0568212	
0.0504531	
0.13375	
0.0741123	
0.186519	
0.216024	
0.262796	
0.10433	
0.104816	
0.210795	
0.199341	
0.253113	
0.131108	
0.132734	
0.101533	
0.037287	
0.0168703	
0.0442715	
0.0160644	
0.0425981	
0.164441	
0.19531	
0.192178	
0.221284	
0.074573	
0.0590005	
0.0970538	
0.0812544	
0.165002	
0.163828	
0.176396	
0.173625	
0.164861	
0.179523	
0.179331	
-0.0693124	
-0.0242294	
-0.0636496	
-0.0492335	
-0.028145	
0.131959	
0.135235	
-0.0648031	
0.110786	
0.128768	
0.0999441	
0.131673	
0.119441	
0.0326148	
-0.0396163	
0.078356	
0.138645	
-0.0693485	
0.111458	
-0.0630729	
-0.0695176	
-0.0685024	
0.034781	
0.070887	
0.264697	
0.242006	
0.268463	
0.243991	
0.270004	
0.269996	
0.138308	
0.0911764	
0.275718	
0.263198	
0.148927	
0.193447	
0.143807	
0.192852	
0.0445252	
0.0603214	
0.215071	
0.0927732	
0.0866491	
-0.0655047	
0.175198	
0.0890941	
0.089129	
0.0541817	
0.183041	
0.259207	
0.269214	
0.193434	
0.0175659	
0.0112517	
0.165443	
0.196039	
0.228637	
0.21968	
-0.0524874	
-0.038377	
0.270022	
0.265619	
0.251933	
-0.0361075	
0.267434	
0.184723	
0.187076	
0.20399	
0.19398	
0.129543	
0.0821313	
0.270379	
0.257871	
0.166934	
0.169808	
0.234332	
0.245688	
0.215046	
0.055362	
0.0671679	
0.234247	
0.259145	
0.232767	
0.080544	
0.204851	
0.209036	
0.128172	
0.217272	
0.248456	
-0.0697765	
0.220028	
0.217553	
0.210293	
0.265976	
0.250181	
0.143759	
0.267609	
0.141142	
0.167068	
0.142202	
0.144573	
0.117419	
0.276478	
0.249648	
0.26615	
0.277002	
0.266801	
0.266008	
0.248401	
0.251814	
0.245759	
0.242628	
0.203267	
0.220402	
0.256209	
0.250655	
0.0798316	
0.0479637	
0.241187	
0.254551	
0.271583	
0.251547	
0.271395	
0.0614244	
0.072141	
0.069581	
0.0980629	
0.268645	
0.262543	
0.204945	
0.22386	
0.221279	
0.145585	
0.145955	
-0.0664077	
-0.0634565	
0.134123	
0.119647	
0.117284	
0.113171	
0.109871	
0.109617	
0.0847411	
0.260979	
-0.0536232	
-0.054353	
-0.0689917	
-0.070661	
0.214153	
0.16361	
0.162564	
0.249064	
-0.0713872	
-0.0665975	
-0.0494005	
-0.0531441	
-0.0682641	
-0.068839	
0.2154	
0.217135	
0.206692	
0.203642	
-0.0300869	
-0.012601	
-0.0370727	
-0.0213621	
0.119952	
0.123189	
0.0998666	
0.194756	
0.220115	
0.253187	
0.240618	
0.248841	
0.252377	
0.252579	
0.238652	
0.225947	
0.234401	
0.207675	
0.20223	
0.224463	
0.220045	
0.108339	
0.0979616	
0.108159	
0.0408552	
-0.00414175	
0.0999607	
0.0676907	
-0.0587283	
-0.040671	
-0.0658856	
0.0766164	
0.17513	
0.123568	
0.120379	
0.0582646	
0.0441564	
-0.0243769	
-0.0447079	
0.228731	
0.227985	
0.0594206	
0.10537	
0.0933803	
0.251803	
0.2571	
0.241285	
0.247174	
0.261892	
0.230488	
0.228189	
0.0839397	
0.0712177	
0.121448	
0.102317	
0.132438	
0.122899	
-0.00307677	
0.0224001	
0.102261	
0.106682	
0.173716	
0.176717	
0.126151	
0.116235	
0.0916769	
0.0887613	
0.176467	
0.17371	
0.161322	
0.125578	
0.160415	
0.166906	
0.236179	
0.248955	
0.162997	
0.153299	
0.128017	
0.168837	
0.19252	
-0.0208046	
0.0282861	
-0.0290197	
0.250352	
0.249944	
0.232993	
0.21848	
0.185996	
0.164838	
0.182335	
0.180799	
-0.0369933	
-0.042602	
-0.0564311	
-0.0589748	
0.0457712	
0.0720705	
0.0847258	
0.168356	
0.144948	
0.181563	
0.187162	
0.209312	
0.187469	
0.253869	
0.250377	
0.226083	
0.234486	
0.234394	
0.234667	
-0.0481339	
-0.0539261	
-0.0352123	
-0.0403682	
0.179998	
0.159366	
0.169236	
0.168464	
0.033454	
0.0977864	
0.0960459	
0.0877502	
0.0923893	
0.246158	
0.258716	
0.060669	
0.0307032	
0.264196	
0.262946	
0.250276	
0.265232	
0.261683	
0.264201	
0.0196267	
0.24041	
0.238845	
0.20024	
0.0960598	
0.0860359	
0.0721391	
0.0763789	
0.142919	
0.147575	
0.230835	
0.246136	
0.25634	
0.259315	
0.178678	
0.173935	
0.0843632	
0.0933515	
0.235264	
0.22657	
0.063126	
0.0801306	
0.128658	
0.108829	
0.131259	
0.151654	
0.109344	
0.119985	
0.11966	
0.0825066	
0.014887	
0.0421383	
0.0994493	
0.0811328	
0.252153	
0.268441	
-0.0165174	
0.141774	
0.115045	
0.262704	
0.261217	
0.0643446	
0.0723923	
0.105054	
0.0806086	
0.0861612	
0.0889993	
0.0286829	
0.0592006	
0.0866169	
0.0749531	
0.136214	
0.126205	
0.0746975	
0.0506183	
0.0895099	
0.0613528	
0.225798	
0.227577	
0.169651	
0.184511	
0.150131	
0.140946	
0.0407218	
0.00986357	
-0.0485956	
0.00721044	
0.0231774	
0.0193862	
-0.00742696	
0.167462	
-0.0212696	
0.135898	
0.137605	
-0.0172634	
-0.0443316	
-0.03494	
-0.0435707	
0.110377	
0.118039	
0.0416014	
0.0451435	
0.0412445	
0.191306	
0.164073	
0.264663	
0.260717	
0.107577	
0.0859415	
0.0766775	
0.0741211	
0.0869759	
0.128932	
0.125867	
0.151265	
0.150701	
0.0637174	
0.066786	
0.0183283	
0.00878308	
0.0819578	
0.0583534	
0.0613516	
0.0381752	
0.102266	
0.104198	
0.0923167	
0.0857677	
0.094217	
0.0856769	
0.0528959	
0.271363	
0.269761	
0.264889	
0.270531	
0.10274	
0.106638	
0.0946899	
0.100384	
0.0985637	
0.101368	
0.0984248	
-0.0160154	
0.00115295	
-0.00720352	
0.00934565	
0.0267014	
0.0381084	
0.0179855	
0.00831492	
-0.0122436	
-0.00375778	
0.00409941	
0.0337417	
0.0197132	
0.0241124	
0.0122958	
0.00434057	
0.0201886	
0.00261439	
0.0120655	
-0.0105028	
-0.0177342	
-0.0136861	
-0.00485736	
0.0270371	
0.0248994	
0.0185238	
0.0105351	
-0.0147077	
-0.0101186	
-0.00432994	
0.00235037	
0.033245	
-0.0636086	
-0.0492739	
0.00440829	
0.0327224	
-0.0259146	
-0.0312476	
-0.00909332	
0.0296357	
0.0232832	
0.00283609	
-0.0519507	
0.00213807	
-0.0291603	
-0.0727099	
-0.055211	
0.0310484	
0.015621	
-0.00491374	
-0.0666823	
-0.0419904	
-0.0176553	
0.024477	
0.135055	
0.173332	
0.171704	
0.115412	
0.140834	
-0.0297049	
0.071514	
0.139982	
0.0530136	
0.0945681	
0.12689	
0.0456927	
0.0367873	
0.116694	
0.117901	
0.0923398	
0.0933745	
0.0769082	
0.102167	
0.125304	
0.171812	
0.174182	
-0.0606333	
-0.0664074	
-0.0516047	
-0.0521134	
0.00055357	
0.0217119	
0.0103878	
0.163437	
0.148922	
0.153189	
0.0445125	
0.161091	
0.152866	
0.169687	
0.17086	
0.167316	
0.161628	
0.168324	
0.169193	
-0.0558676	
-0.0427659	
0.142953	
0.148797	
0.133967	
0.158675	
0.157696	
0.163837	
0.157065	
0.145614	
0.145239	
0.169048	
0.154311	
0.173085	
0.174845	
0.102146	
0.108522	
0.127794	
0.173665	
0.174936	
-0.039642	
-0.0226754	
0.0081019	
-0.00491354	
-0.0283885	
-0.00669176	
-0.0267006	
0.0556388	
0.0349046	
0.0775016	
0.0736393	
0.117264	
0.135096	
0.111143	
0.13025	
0.101665	
0.160455	
0.164416	
0.126951	
0.0933595	
-0.150311	
-0.0293214	
0.032594	
0.0670156	
-0.0247058	
0.0340518	
0.0463737	
-0.0287949	
0.0605429	
0.0343785	
-0.0014737	
-0.00446858	
0.00856758	
0.0356618	
0.0451766	
0.135041	
0.15594	
-0.149287	
-0.170645	
-0.125158	
-0.128622	
-0.108714	
-0.0910229	
-0.0821836	
0.0851231	
0.113494	
0.0928732	
-0.0652949	
-0.0767324	
0.127717	
0.11904	
0.139554	
0.128002	
0.129417	
0.138623	
0.132371	
0.124782	
-0.158338	
-0.165004	
0.0728349	
0.0876064	
0.103706	
0.106665	
0.0835354	
0.0874816	
0.110779	
0.115895	
0.152248	
0.151102	
0.158855	
0.163171	
0.0467225	
0.0995439	
0.0723243	
0.163711	
0.158683	
-0.143414	
-0.142298	
-0.11745	
-0.112693	
-0.108211	
-0.142275	
-0.120916	
-0.0178345	
-0.0634794	
-0.0352826	
-0.0652667	
0.0379594	
0.0700342	
0.0165985	
0.0700475	
0.042649	
-0.051923	
0.0696216	
0.165319	
0.217975	
0.212088	
0.211289	
0.191052	
0.206711	
0.19577	
0.185442	
0.207499	
0.20086	
0.204862	
0.19166	
0.199649	
0.194995	
0.1727	
0.155026	
0.174115	
0.183677	
0.179246	
0.213114	
0.17462	
0.204881	
0.203653	
0.189621	
0.209714	
0.19711	
0.205646	
0.0912262	
0.097846	
-0.096253	
-0.0184329	
0.201842	
0.170634	
0.212753	
0.156487	
0.191681	
0.0933083	
0.172733	
0.183202	
0.212489	
-0.209309	
0.17529	
0.207562	
0.187962	
0.194435	
0.110128	
0.10242	
0.147309	
0.10009	
0.131281	
-0.00595016	
-0.362232	
0.0165278	
0.116468	
0.124195	
-0.0726084	
-0.0292319	
0.0184601	
0.0479682	
-0.249776	
-0.328992	
-0.339327	
-0.345894	
-0.197788	
-0.00400014	
-0.0134324	
-0.234724	
-0.269418	
-0.152042	
-0.00521563	
-0.261813	
-0.295267	
-0.333375	
-0.334473	
-0.167837	
0.00748811	
-0.0878756	
-0.347285	
-0.345338	
-0.0830889	
0.175058	
0.0895941	
0.16966	
-0.348431	
-0.0489242	
0.139728	
-0.0355954	
-0.00708497	
0.152166	
-0.247537	
-0.0279962	
-0.0906686	
-0.13417	
-0.208772	
-0.0651908	
0.156588	
-0.0960381	
0.094793	
-0.100324	
0.116592	
0.0830805	
0.02762	
0.0698888	
-0.242984	
-0.225524	
0.0802256	
-0.00636356	
-0.104068	
-0.0397114	
-0.137416	
-0.103048	
-0.25352	
-0.0769308	
-0.0789493	
-0.160071	
0.151504	
-0.154363	
-0.327221	
0.123898	
-0.323105	
-0.320625	
-0.00350461	
0.0549144	
-0.318609	
-0.124939	
-0.18143	
-0.140022	
0.197022	
0.109968	
0.119283	
0.118946	
0.049694	
0.0503904	
-0.0102624	
0.0408729	
-0.217114	
-0.139766	
0.169982	
0.152403	