<VTKFile type="UnstructuredGrid" version="0.1" byte_order="LittleEndian">
	<UnstructuredGrid>
		<Piece NumberOfPoints="3959" NumberOfCells="7450">
			<CellData Scalars="scalars">
				<DataArray type="Float64" Name="Doublet Strengths" NumberOfComponents="1" Format="ascii">
-0.0704046	
-0.0551461	
0.00118743	
0.0314046	
-0.0306682	
-0.0406036	
-0.0167725	
0.0263345	
0.0184001	
-0.00373141	
-0.0628957	
0.00390305	
-0.0265696	
-0.0685002	
-0.0518259	
0.0317578	
0.019572	
9.17956e-05	
-0.0582913	
-0.0349463	
-0.0118496	
0.0270693	
0.134257	
0.171519	
0.1699	
0.112822	
0.132491	
-0.110141	
0.0308549	
0.119033	
0.0313025	
0.083187	
0.105455	
0.00904175	
-0.00653068	
0.0876722	
0.0929611	
0.0612223	
0.059602	
0.0593358	
0.0802014	
0.104878	
0.162531	
0.170355	
-0.0935707	
-0.10476	
-0.10289	
-0.147366	
-0.058607	
-0.0340443	
-0.0205422	
0.151798	
0.132606	
0.137294	
-0.00161173	
0.149743	
0.146356	
0.158704	
0.162025	
0.155375	
0.160489	
0.157398	
0.160698	
-0.126184	
-0.171535	
0.122147	
0.128893	
0.110096	
0.14278	
0.142022	
0.156327	
0.148505	
0.131026	
0.132454	
0.165718	
0.151737	
0.170619	
0.170633	
0.0864355	
0.100399	
0.12102	
0.171869	
0.17119	
-0.0878072	
-0.0899426	
-0.0411604	
-0.0431249	
-0.0630271	
-0.0536372	
-0.0834278	
0.0301049	
0.00363566	
0.0509292	
0.0416231	
0.0967143	
0.120382	
0.0943575	
0.117145	
0.105513	
0.163792	
0.167384	
0.129473	
0.101311	
-0.0735904	
0.0101511	
0.0572744	
0.088124	
-0.00404826	
0.0499513	
0.0678259	
0.00213729	
0.0843377	
0.0629796	
0.0314504	
0.0258569	
0.0257753	
0.0561914	
0.065679	
0.145311	
0.161155	
-0.101698	
-0.0799826	
-0.095805	
-0.0939218	
-0.0618498	
-0.037357	
-0.0533371	
0.102054	
0.126207	
0.109372	
-0.0208542	
-0.0352408	
0.136651	
0.127031	
0.149199	
0.14057	
0.141231	
0.142935	
0.142039	
0.136677	
-0.0918973	
-0.0400836	
0.0937897	
0.107726	
0.119906	
0.123039	
0.0988924	
0.101184	
0.123261	
0.125812	
0.155157	
0.156084	
0.164047	
0.166524	
0.0584786	
0.10912	
0.081275	
0.166841	
0.163634	
-0.079539	
-0.0888716	
-0.0609647	
-0.0810811	
-0.0725361	
-0.0976129	
-0.0766558	
0.00783839	
-0.0283665	
-0.0109758	
-0.0356861	
0.0549084	
0.0838889	
0.0382639	
0.0854206	
-0.00848352	
-0.180037	
0.026933	
0.167505	
0.215914	
0.207572	
0.207711	
0.1908	
0.202968	
0.192884	
0.183664	
0.205586	
0.19937	
0.200195	
0.182983	
0.194304	
0.1906	
0.169976	
0.162932	
0.171312	
0.179997	
0.175584	
0.208492	
0.174869	
0.197883	
0.19857	
0.184467	
0.203686	
0.193134	
0.204963	
0.115467	
0.108129	
-0.0322396	
0.0112698	
0.196225	
0.176027	
0.210612	
0.165176	
0.1876	
0.0565177	
0.178287	
0.184539	
0.207734	
-0.25379	
0.178395	
0.202294	
0.190031	
0.195057	
0.133319	
0.126054	
0.157866	
0.124102	
0.145621	
-0.075888	
-0.276666	
-0.0439057	
0.0864876	
0.0948836	
-0.233761	
-0.112463	
-0.0399822	
-0.00305741	
-0.367633	
-0.177182	
-0.221219	
-0.376788	
-0.221134	
-0.0305939	
-0.0865732	
-0.302767	
-0.345127	
-0.204365	
-0.0727122	
-0.316007	
-0.353287	
-0.385577	
-0.392706	
-0.307227	
-0.0545126	
-0.144873	
-0.386011	
-0.375154	
-0.0992372	
0.162785	
0.103051	
0.152393	
-0.225754	
0.0098867	
0.115676	
0.0257122	
0.0191869	
0.128844	
-0.0853802	
0.0393542	
-0.108244	
-0.154219	
-0.299974	
-0.0345834	
0.13466	
-0.0527117	
0.0599704	
-0.0144456	
0.0842878	
0.0415311	
0.0252208	
0.0686293	
-0.284213	
-0.261375	
0.0539857	
0.0366315	
-0.0190288	
0.0270513	
-0.0797894	
-0.0250834	
-0.288508	
-0.1299	
-0.128203	
-0.0809914	
0.141714	
-0.0646287	
-0.151853	
0.100549	
-0.169085	
-0.177215	
0.0495356	
0.0829355	
-0.225508	
-0.141965	
-0.197598	
-0.0411135	
0.186234	
0.0842231	
0.087524	
0.0868196	
0.0068224	
0.00676967	
-0.0232602	
0.0294287	
-0.30316	
-0.206889	
0.152968	
0.129192	
0.127955	
0.139619	
-0.101331	
-0.0757094	
-0.0774636	
-0.0337761	
-0.0204335	
0.00836374	
0.164108	
0.0520556	
0.0825852	
0.172393	
0.167614	
0.076863	
-0.2482	
0.188876	
0.10892	
-0.0554368	
-0.123654	
0.17846	
0.199348	
0.0560082	
0.15326	
-0.279017	
-0.192818	
0.114865	
0.111455	
0.124746	
0.0233369	
0.194055	
0.170385	
0.150434	
0.153522	
0.137234	
0.161367	
0.185627	
0.181716	
0.160566	
-0.0332403	
0.0379792	
0.146399	
0.162422	
0.146648	
0.179281	
0.189051	
0.0566026	
0.169819	
0.0819921	
0.0622809	
0.0534959	
0.0598707	
0.11931	
0.186758	
0.10689	
0.0806982	
0.0553934	
0.0626764	
0.116886	
0.11938	
0.137247	
0.135981	
0.0606783	
0.0067421	
0.0217446	
-0.0276897	
0.187741	
0.207129	
0.18857	
0.181723	
0.193506	
0.0990131	
0.101792	
0.183022	
0.104522	
-0.206952	
0.0852767	
0.0178812	
0.0705959	
0.0839713	
0.174735	
0.0259439	
-0.102698	
-0.0721426	
0.057641	
0.0592511	
0.0217857	
0.148996	
0.178898	
0.100793	
0.0946471	
0.18452	
0.142955	
0.0934687	
0.0359459	
0.0278633	
0.0604758	
0.0635537	
0.0119414	
0.140815	
0.14649	
-0.339057	
-0.297132	
-0.193921	
-0.154171	
-0.0913334	
0.116921	
0.108275	
0.128495	
0.161919	
0.148961	
0.124923	
0.18203	
-0.185101	
-0.194935	
-0.360412	
-0.329895	
0.0454249	
-0.089397	
0.032356	
-0.326846	
-0.352893	
0.00226344	
-0.012493	
0.00976097	
0.000325255	
-0.111472	
-0.0716094	
-0.0637453	
-0.0152208	
0.0175575	
-0.00448545	
0.0634309	
0.0839161	
0.108696	
-0.0112773	
-0.0421281	
-0.0111444	
-0.0296917	
-0.0104267	
0.0336284	
0.110169	
0.110397	
0.0917714	
0.0225731	
0.00036327	
-0.0741039	
0.13486	
0.0958424	
0.0185911	
0.00523688	
0.191212	
-0.21427	
0.0612942	
-0.0207202	
-0.0324499	
0.210821	
0.190541	
0.202804	
-0.214807	
-0.167437	
-0.112965	
-0.00238968	
-0.122667	
-0.0724122	
0.198769	
0.183953	
0.139022	
0.114404	
0.0650276	
-0.0639062	
-0.13567	
-0.0882933	
0.178946	
0.0280047	
-0.388038	
-0.390808	
-0.389075	
-0.216823	
0.0600909	
-0.00042279	
-0.00407309	
0.0154802	
0.0150543	
0.0224213	
-0.0157227	
0.124628	
0.119876	
-0.140358	
-0.071792	
-0.194633	
-0.131755	
-0.0504636	
-0.166167	
-0.0765114	
0.0422122	
-0.264077	
-0.246637	
0.135966	
0.0605306	
0.106333	
-0.0415473	
-0.00331471	
0.154793	
0.156021	
0.137146	
0.154438	
0.142029	
0.0745125	
0.0519847	
0.137343	
0.0443862	
0.196226	
0.185774	
-0.115242	
-0.247834	
0.181213	
0.177754	
0.187674	
0.0187699	
0.189375	
0.20095	
0.187265	
0.197199	
0.206104	
0.190761	
-0.227989	
-0.256858	
0.206357	
0.187917	
0.193766	
0.18097	
-0.356436	
0.035643	
0.0072581	
0.0210399	
0.189823	
0.172595	
0.157418	
0.179742	
0.0615182	
0.063644	
0.0132749	
0.0165123	
0.132072	
-0.141583	
0.0281555	
0.0719651	
-0.0605225	
0.14464	
0.15397	
0.125232	
0.0916124	
0.202114	
0.0355593	
0.081609	
-0.023879	
-0.0103863	
0.103244	
0.128005	
0.135497	
0.0472309	
-0.0673139	
-0.0426246	
-0.0239275	
0.0173936	
0.0541947	
0.0840026	
-0.0273159	
0.0350281	
-0.0221984	
0.196815	
0.181778	
0.0665776	
-0.00872692	
0.0859546	
0.147714	
-0.00534112	
-0.118976	
-0.00839046	
-0.12121	
0.10296	
-0.0355345	
-0.0394188	
-0.0240515	
0.122679	
0.0934092	
0.0897361	
0.032958	
0.0942811	
0.0554774	
0.00422865	
0.00789242	
0.0280309	
0.0224484	
0.00716212	
-0.039356	
-0.0864116	
0.115434	
0.0374681	
0.0357601	
0.022697	
0.128624	
0.0258923	
-0.0140003	
0.0663587	
0.0776332	
0.104879	
-0.344907	
-0.0105881	
-0.0346527	
0.0574724	
0.0654708	
0.150469	
0.0912846	
0.0796012	
0.0711341	
-0.112759	
-0.0721139	
0.0357097	
0.00932787	
-0.021899	
-0.0675223	
0.0955012	
0.0643505	
0.0573018	
0.0595483	
-0.0471678	
0.0285368	
-0.250472	
-0.233936	
-0.150215	
-0.136947	
0.143217	
-0.0463376	
-0.169459	
0.1283	
-0.0928977	
0.0262967	
-0.144879	
-0.217118	
-0.0681941	
-0.0360402	
0.0155994	
-0.0179603	
-0.0991084	
-0.159719	
-0.0891461	
-0.0407664	
-0.0241054	
-0.00174654	
-0.150397	
0.130412	
0.00822835	
0.0352515	
0.0738466	
-0.107292	
-0.072727	
-0.0861835	
-0.140943	
-0.215098	
0.120469	
0.108343	
-0.0211291	
0.0315104	
-0.11275	
-0.13549	
0.110021	
0.0366011	
0.0680948	
-0.0306385	
-0.0132599	
-0.120356	
-0.081279	
-0.312352	
-0.349811	
0.0467862	
-0.249395	
0.0449427	
0.00310435	
-0.143272	
0.133126	
-0.0993171	
-0.088526	
-0.0143886	
-0.0603383	
0.182998	
0.0959851	
0.14506	
0.0806334	
0.101164	
0.202917	
0.190395	
-0.052937	
-0.0454223	
0.0461295	
0.0635534	
-0.342269	
-0.136594	
-0.16632	
-0.385961	
-0.0191133	
0.0492744	
-0.0327741	
-0.0427181	
-0.13935	
-0.114255	
0.0320954	
-0.0109322	
0.00302809	
0.193766	
0.178296	
0.0644467	
0.0025384	
-0.0370268	
0.0854925	
0.116938	
0.0388602	
0.0707402	
0.0253252	
-0.0547897	
0.189443	
0.207505	
0.204574	
0.19252	
-0.195708	
0.185391	
0.164013	
-0.00334032	
-0.0915003	
0.016065	
0.15601	
0.175279	
0.154479	
0.174701	
0.162801	
0.13992	
0.0643425	
0.0496551	
-0.00167234	
0.00380501	
0.117559	
0.124312	
-0.131152	
-0.366545	
-0.344113	
0.0392529	
0.0271431	
0.197426	
0.178946	
0.21238	
0.1961	
0.148174	
0.115662	
-0.0735436	
0.107425	
0.139076	
0.125712	
0.142334	
0.143283	
0.161739	
0.156375	
0.135897	
-0.20816	
-0.230553	
0.176995	
0.16204	
0.0969729	
0.0562638	
0.143415	
0.142167	
0.203078	
0.189575	
-0.0348678	
-0.0942662	
-0.159618	
-0.0732867	
0.0141115	
0.1009	
0.0432518	
0.112617	
-0.0882142	
-0.0763526	
-0.254861	
0.114549	
0.110951	
0.166679	
0.191224	
-0.0735918	
0.0364962	
-0.0404799	
0.0164554	
-0.0519808	
-0.0151461	
0.0570576	
0.0588276	
0.108528	
-0.0270268	
-0.0277022	
-0.0400534	
-0.0448875	
0.202642	
0.175763	
0.179108	
-0.105641	
-0.153161	
0.0637212	
-0.0101456	
0.0579693	
-0.0417082	
0.0614274	
0.052344	
-0.0833624	
-0.091892	
0.0747028	
-0.00484929	
0.00324815	
-0.30005	
-0.00887723	
0.0369058	
0.0767994	
0.0799293	
-0.15935	
-0.171219	
-0.240511	
-0.0213044	
0.0192089	
0.164579	
0.151811	
0.00752097	
0.0650273	
0.0864554	
0.0919134	
-0.00566588	
-0.046882	
-0.101253	
-0.102877	
0.192544	
0.181463	
0.185883	
0.0600362	
0.0625199	
0.11378	
0.0571913	
-0.140172	
-0.137361	
-0.194391	
-0.0954238	
-0.0882773	
-0.0162934	
0.112066	
0.113564	
0.07779	
0.0389824	
-0.180754	
-0.181894	
-0.012655	
-0.0321578	
-0.223675	
-0.197101	
-0.269052	
-0.118918	
0.17106	
0.15527	
0.12971	
0.189808	
0.209348	
-0.0756204	
-0.0147006	
-0.069992	
0.0633155	
0.108342	
0.0227252	
0.0684946	
0.0981359	
0.125816	
0.101974	
0.128384	
-0.0371468	
-0.0228203	
0.141707	
0.140581	
-0.16321	
-0.137002	
-0.20472	
0.184173	
0.1919	
0.183403	
0.138837	
0.103003	
0.156051	
0.107245	
0.15331	
0.0761991	
0.133903	
0.130775	
0.165195	
-0.0558248	
-0.0457195	
-0.0480409	
0.135994	
-0.0567042	
-0.0761528	
-0.176913	
0.0555731	
0.0301157	
-0.243683	
-0.250705	
-0.0525581	
-0.0597031	
0.117208	
0.0645104	
-0.130703	
-0.299554	
-0.263938	
0.176404	
0.174774	
0.158649	
0.174275	
0.172103	
0.0453296	
0.0873141	
0.0288604	
0.0360266	
0.18532	
-0.0421643	
-0.201528	
-0.0411082	
0.0189802	
-0.0182939	
-0.0266455	
0.0143585	
-0.34378	
0.0518533	
0.0610863	
0.141617	
0.110891	
0.156757	
0.12428	
0.142265	
0.132326	
0.130257	
0.0252307	
0.0569763	
0.0495897	
0.0764257	
0.13007	
0.108714	
0.0250294	
0.139203	
0.15367	
0.105184	
0.122613	
0.112218	
0.13694	
0.117471	
0.114656	
0.0520768	
0.0544857	
0.128661	
0.10988	
0.117997	
0.0723844	
-0.0641631	
-0.0661812	
-0.0514178	
-0.0183658	
-0.0997043	
-0.0341056	
0.072037	
0.0536048	
0.101259	
0.157762	
0.123792	
0.137307	
0.0849888	
0.00715766	
-0.0142476	
0.0563491	
-0.0166156	
0.0162698	
-0.0298287	
0.0525788	
0.178646	
0.178303	
-0.321037	
-0.28134	
0.121895	
0.112323	
-0.0105639	
-0.0254741	
0.12942	
-0.0753462	
-0.0589344	
0.173722	
0.159436	
0.188352	
0.207067	
0.0572927	
0.0339014	
0.141195	
0.12504	
0.176179	
0.0181414	
0.0586038	
0.122183	
0.0760876	
0.113211	
0.0851412	
0.11176	
0.206254	
0.0306701	
0.0308794	
0.180167	
0.0497516	
0.103639	
0.102225	
0.0285969	
0.0036279	
0.106395	
0.112799	
0.146276	
0.184944	
0.190083	
0.199869	
-0.207981	
0.12121	
0.0698043	
-0.0598095	
0.0301571	
0.0676554	
0.143581	
0.141317	
0.196136	
0.187457	
0.154225	
0.145337	
-0.203629	
-0.128493	
-0.0940796	
-0.110935	
0.0832168	
0.0641511	
0.0710984	
-0.0904875	
-0.0617935	
-0.269635	
-0.0825138	
-0.0732976	
-0.13174	
-0.278316	
-0.217252	
-0.148158	
-0.13691	
-0.120547	
-0.102144	
0.146804	
0.134831	
0.070215	
-0.0632342	
-0.0523654	
-0.14675	
-0.146735	
-0.213391	
-0.210017	
-0.0540381	
-0.0722284	
-0.339571	
-0.0502911	
-0.196688	
0.0879255	
0.0920265	
0.0647896	
0.066764	
0.170409	
0.169723	
-0.0538452	
-0.0967462	
-0.00073699	
-0.00399685	
0.0468965	
0.0273738	
0.043274	
0.0263452	
-0.200415	
-0.226209	
-0.168642	
-0.0231377	
0.133693	
0.120745	
0.056773	
0.0361829	
-0.248792	
-0.229978	
-0.0900855	
-0.193657	
-0.233526	
-0.216115	
-0.269103	
0.200203	
0.183442	
-0.0265406	
-0.0829055	
-0.0609112	
-0.0550934	
-0.0812865	
-0.190853	
-0.174535	
0.0542717	
0.00975978	
-0.158589	
-0.0525927	
-0.257517	
-0.248282	
-0.150393	
-0.130814	
-0.138597	
-0.125447	
-0.150547	
-0.148909	
-0.104214	
-0.10335	
0.148057	
0.0750502	
0.132539	
0.114474	
0.111563	
0.11531	
0.0814524	
-0.236055	
-0.191059	
-0.195858	
-0.206586	
-0.198941	
-0.264893	
-0.273899	
-0.320116	
-0.180869	
-0.120169	
-0.219416	
-0.193727	
-0.292747	
-0.337503	
-0.337059	
-0.372596	
-0.0354284	
-0.0380414	
-0.0400653	
-0.0477928	
-0.212171	
-0.218878	
-0.171	
-0.160924	
-0.129606	
-0.13862	
-0.0956616	
-0.310304	
-0.0374822	
-0.0223632	
-0.310366	
-0.26825	
-0.0137555	
-0.0236218	
-0.0286525	
-0.149225	
-0.145154	
-0.0266618	
-0.0355921	
-0.07957	
-0.0869307	
-0.173792	
-0.165495	
0.0873722	
0.0207594	
0.00056536	
-0.00588559	
0.0963559	
0.0479874	
-0.123084	
-0.0988666	
-0.120336	
-0.0185107	
-0.284262	
-0.333734	
-0.0995946	
-0.115628	
0.195836	
0.121421	
0.209144	
0.179917	
-0.381512	
-0.375119	
0.0441622	
0.000621452	
-0.314483	
-0.28203	
-0.336044	
-0.302256	
-0.284554	
-0.295113	
-0.2231	
-0.193019	
-0.322489	
-0.360858	
-0.360252	
-0.356683	
-0.354594	
-0.186845	
-0.132733	
-0.107363	
-0.302552	
-0.329295	
-0.356246	
-0.247861	
0.18787	
0.156031	
0.209073	
0.191557	
-0.330243	
-0.301658	
-0.22217	
-0.210451	
-0.196862	
-0.00737073	
-0.00802201	
-0.299945	
-0.299428	
-0.33508	
-0.304615	
-0.32716	
-0.0597121	
-0.0705213	
-0.0828528	
-0.104783	
-0.220567	
-0.261986	
-0.221214	
-0.247127	
-0.275937	
-0.307641	
0.208311	
0.1834	
0.181544	
0.142031	
-0.251429	
-0.138065	
-0.126153	
-0.139047	
0.181175	
0.138006	
0.160889	
0.0806148	
-0.354086	
0.0810675	
0.125364	
0.114251	
0.135528	
-0.338897	
-0.35772	
-0.341764	
-0.345743	
-0.336758	
-0.343118	
-0.301811	
-0.110985	
-0.100987	
-0.099657	
-0.0996793	
0.136757	
0.195219	
0.133295	
0.192792	
0.128953	
0.119746	
0.122749	
0.0730716	
-0.255233	
-0.276161	
-0.254931	
-0.240322	
-0.345986	
-0.360761	
-0.347338	
-0.353686	
0.0772364	
0.136609	
0.0814432	
0.138165	
0.16346	
0.129752	
0.15066	
0.092765	
0.112288	
0.0882787	
0.111532	
0.0875411	
0.173592	
0.201939	
0.205174	
0.209936	
0.220914	
0.143883	
0.231385	
0.236509	
0.236517	
0.244744	
0.249155	
0.254687	
0.22877	
0.190937	
0.169234	
0.0491845	
0.256323	
-0.00530733	
0.00156685	
-0.0311907	
0.182956	
0.249068	
0.234338	
0.265798	
0.261773	
0.268739	
0.256432	
0.263564	
0.254113	
0.246598	
0.172355	
0.217384	
0.196505	
0.218822	
0.189507	
0.149793	
0.217353	
0.159189	
0.101869	
0.25746	
0.236291	
0.234982	
0.0944948	
-0.0443339	
0.248585	
-0.0271179	
-0.0379554	
0.0162089	
0.0726028	
0.0450693	
-0.0315753	
0.042607	
0.00481093	
0.0715835	
-0.0507681	
0.0192271	
0.0667595	
0.0867964	
0.044393	
-0.000631195	
-0.0415493	
0.210634	
-0.0289178	
0.178953	
0.109317	
0.110162	
0.0876459	
0.051013	
0.0576506	
0.0761444	
0.0844339	
0.0239573	
0.0622951	
0.01695	
0.0428222	
0.0242684	
0.0344571	
0.0323252	
0.0459725	
0.0906689	
0.0559513	
0.0605571	
0.0719587	
0.0919975	
0.0496383	
-0.0189865	
-0.0229775	
0.0245973	
0.00131028	
-0.00400997	
0.0376244	
0.0676687	
0.0628623	
0.00888731	
-0.0159514	
-0.0258174	
-0.00524706	
0.0357493	
-0.0585331	
-0.0367977	
-0.0638472	
0.169248	
0.190232	
0.187195	
0.224735	
0.0111261	
0.101193	
0.154481	
0.161898	
0.190648	
0.000316696	
0.153413	
0.131299	
-0.0579887	
-0.0386704	
-0.0288221	
0.136571	
-0.0311016	
0.144398	
-0.00310117	
0.205663	
0.208995	
-0.0687285	
0.0768441	
0.0406859	
0.00289766	
0.0751969	
0.0164179	
0.246576	
0.230904	
0.224248	
-0.0499789	
0.0860197	
0.21863	
-0.0132716	
-0.0163938	
0.210194	
0.231701	
0.00779435	
0.049239	
0.200041	
0.141267	
-0.0615825	
-0.0494942	
0.113285	
-0.0224117	
-0.0173147	
-0.00755933	
-0.00120618	
0.251709	
0.209133	
0.215041	
0.134613	
0.169382	
0.246202	
0.274089	
0.255617	
0.0590236	
0.171167	
0.243892	
0.194941	
0.109983	
0.131076	
0.144251	
0.162039	
0.00623653	
0.122483	
0.0876951	
0.101013	
0.0699769	
0.122029	
0.119714	
0.190829	
0.151547	
0.195577	
0.11662	
0.157529	
0.130898	
0.168469	
0.118642	
0.126092	
0.160446	
0.206568	
0.141464	
0.151835	
0.159895	
0.159743	
0.142772	
0.267214	
0.269065	
0.27849	
0.266483	
0.282293	
0.250929	
0.119128	
-0.0244187	
0.0226668	
0.0279083	
0.127156	
0.233375	
0.179823	
0.111236	
0.183923	
0.171432	
0.124786	
0.237476	
0.27071	
0.276002	
0.231546	
0.250551	
0.260364	
0.278567	
0.263078	
0.253926	
0.278152	
0.263132	
0.263183	
0.27081	
0.244993	
0.243618	
0.269715	
0.269448	
0.274963	
0.104371	
0.27934	
0.226456	
0.248274	
0.200932	
0.226882	
0.270359	
0.271105	
0.274858	
0.204817	
0.197486	
0.225083	
0.210053	
0.218472	
0.22274	
0.196123	
-0.0462985	
-0.0515141	
0.240861	
0.228695	
0.252865	
0.231381	
0.202259	
0.183631	
0.201133	
0.259923	
0.235731	
0.235614	
0.241368	
0.166925	
0.210016	
0.0869802	
0.262281	
0.249439	
0.0934414	
0.186412	
0.163972	
0.232523	
0.12501	
0.130308	
0.207867	
0.147587	
0.273916	
0.135948	
0.133763	
0.161482	
0.222889	
0.194561	
0.181755	
0.268166	
0.0487895	
0.108109	
0.042306	
0.0777586	
0.196817	
0.188472	
0.155588	
0.186332	
-0.0210636	
0.260158	
0.242981	
-0.0043683	
0.00549416	
-0.0192941	
0.000902114	
0.117508	
0.0901133	
0.159952	
0.168031	
0.191099	
0.155181	
0.192045	
0.00696055	
0.162521	
0.135248	
0.176922	
-0.0382688	
-0.0516855	
-0.0429025	
-0.0511171	
0.117844	
0.114462	
0.144164	
0.134395	
0.153615	
0.0893166	
0.0972449	
0.201994	
0.178395	
0.202311	
0.213895	
0.155705	
0.102945	
0.0908084	
0.0999903	
0.0725462	
0.281339	
0.173879	
0.201347	
0.155009	
0.172074	
0.123318	
0.149173	
0.118687	
0.158106	
0.143804	
0.0162105	
0.207396	
0.215185	
0.182726	
0.239811	
0.238415	
0.150813	
0.177147	
0.125464	
0.129099	
-0.0540182	
-0.038742	
-0.0630353	
-0.0616628	
0.102948	
0.20952	
0.24148	
0.21222	
0.200936	
0.212105	
0.17325	
0.219381	
0.217169	
0.215736	
0.206358	
0.0490344	
0.107217	
0.26682	
0.243952	
0.269087	
0.206896	
0.19728	
0.266448	
0.268064	
0.233145	
0.246041	
0.260855	
0.206471	
0.232948	
0.175153	
0.17866	
0.187986	
0.249479	
0.236673	
0.250474	
0.223733	
0.265946	
0.233757	
0.253375	
0.00175277	
0.188356	
0.199402	
0.168311	
0.239024	
0.241263	
0.233744	
0.228789	
0.24677	
0.257109	
0.109107	
0.137127	
0.126139	
0.142229	
-0.0533817	
0.219863	
0.186283	
0.190005	
0.119537	
0.152762	
0.156512	
0.17705	
0.158258	
0.166963	
-0.0441154	
-0.0329068	
-0.0480614	
-0.0304501	
0.24711	
0.210128	
0.24716	
0.213618	
0.0885453	
0.218168	
0.225169	
0.223315	
0.250547	
0.23347	
0.261467	
0.152658	
0.138619	
0.219818	
0.215887	
0.223515	
0.183054	
0.186468	
0.0242812	
0.0690641	
0.267255	
0.228968	
-0.0202591	
0.192861	
0.220065	
0.229691	
0.230942	
0.21346	
0.201046	
0.199129	
0.259178	
0.261426	
0.254388	
0.151996	
0.262248	
0.267016	
0.0641087	
0.0875522	
0.0870878	
0.225565	
0.221601	
0.222618	
0.267536	
-0.0674979	
-0.0616044	
0.257316	
0.252529	
0.2455	
0.224178	
-0.0622472	
-0.0566385	
0.167868	
0.155091	
0.118584	
0.120332	
0.225033	
0.0798701	
0.0941165	
0.153052	
0.153767	
0.172294	
0.170575	
0.266634	
0.259574	
0.0021828	
0.0172722	
0.0778363	
0.0437609	
0.110157	
0.108061	
0.136743	
0.181431	
0.179432	
0.168193	
0.162108	
0.275046	
0.261799	
0.23949	
0.254721	
0.268426	
0.0864925	
0.0803168	
0.209076	
0.207684	
0.189347	
0.189254	
0.0275856	
0.0484552	
0.267193	
0.268436	
0.210322	
0.207508	
0.147308	
0.109302	
0.156746	
0.102387	
0.223444	
0.230479	
0.20564	
0.207242	
0.212625	
0.210719	
0.20738	
0.191667	
0.268134	
0.26981	
0.254184	
0.171009	
0.171846	
0.203866	
0.200262	
0.168009	
0.174193	
0.237059	
0.24305	
0.164655	
0.18129	
0.262039	
0.266284	
0.187074	
0.226462	
0.235307	
0.22046	
0.19114	
0.228603	
0.271767	
0.264776	
0.243588	
0.243252	
0.236131	
0.244359	
0.131328	
0.188408	
0.127528	
0.264968	
0.275809	
0.262076	
0.256159	
0.102589	
0.075245	
0.0779255	
0.0604833	
0.262491	
0.256702	
0.26694	
0.273921	
0.00771806	
0.257468	
0.267239	
0.264159	
0.256729	
0.128099	
0.166525	
0.26765	
0.275823	
0.266173	
0.121051	
0.133199	
0.138736	
0.146931	
0.195705	
0.192413	
0.187881	
0.190863	
0.269921	
0.166412	
0.163967	
0.213908	
0.214309	
0.00103721	
-0.00841355	
0.248596	
0.26324	
0.263071	
0.195772	
-0.00830314	
0.233729	
0.229746	
0.239502	
0.241516	
0.180249	
0.271553	
0.269523	
0.041003	
0.0116112	
0.185437	
-0.0656699	
-0.0588675	
-0.0650516	
0.176597	
0.0655491	
0.0265254	
0.0505565	
0.0255074	
0.240477	
0.129355	
0.168695	
0.265027	
0.250757	
0.265795	
0.263282	
0.267005	
-0.0036705	
-0.0246499	
0.239248	
0.224359	
0.267595	
0.258245	
0.0214848	
0.185033	
0.170679	
0.139885	
0.204909	
0.175518	
0.226026	
0.217704	
0.132459	
0.125579	
0.264279	
0.274234	
0.0654075	
0.0541444	
0.249446	
0.257104	
0.268886	
0.268547	
0.273615	
0.266336	
-0.058945	
-0.0615158	
0.0988395	
0.0986357	
0.0304196	
0.0224319	
0.0103338	
0.24669	
0.247948	
0.2221	
0.232528	
0.216152	
0.222651	
0.273703	
0.200369	
0.259661	
0.244398	
0.238866	
0.125347	
0.0693307	
0.271324	
0.262698	
-0.0362104	
-0.00533373	
0.0118593	
0.0670104	
0.213758	
0.14343	
0.248124	
0.241449	
0.0625013	
0.0854904	
0.0389095	
0.247411	
0.161097	
0.164737	
0.255029	
0.253231	
0.0947878	
0.075968	
-0.0140246	
-0.015866	
0.198137	
0.201509	
0.185524	
0.194061	
0.241499	
0.209707	
0.185753	
0.226579	
0.219415	
0.199441	
0.00974017	
0.0570776	
0.0507507	
0.134987	
0.0749557	
0.186864	
0.216288	
0.26303	
0.105777	
0.106273	
0.210931	
0.199571	
0.253344	
0.13228	
0.133859	
0.102838	
0.0388998	
0.0172236	
0.0445512	
0.0164053	
0.0428591	
0.164723	
0.195407	
0.192238	
0.221324	
0.075711	
0.0602074	
0.0980311	
0.0823153	
0.165214	
0.164016	
0.176477	
0.17369	
0.165098	
0.179626	
0.179362	
-0.0688723	
-0.0234343	
-0.0630903	
-0.0486267	
-0.0275467	
0.132357	
0.135684	
-0.0643997	
0.11092	
0.12981	
0.101181	
0.132732	
0.120614	
0.0328478	
-0.0389159	
0.0789217	
0.13902	
-0.0689463	
0.111918	
-0.0628659	
-0.0691643	
-0.0682147	
0.0349572	
0.0709128	
0.264563	
0.241973	
0.26826	
0.243956	
0.26981	
0.269806	
0.138649	
0.0916792	
0.27561	
0.263072	
0.149292	
0.193583	
0.1442	
0.19304	
0.0449739	
0.0606974	
0.215115	
0.0933929	
0.0872944	
-0.0650378	
0.175415	
0.0891898	
0.0892562	
0.0544127	
0.183427	
0.258977	
0.269001	
0.193733	
0.01806	
0.0117256	
0.165797	
0.196366	
0.228778	
0.219892	
-0.0519859	
-0.0378702	
0.270015	
0.265697	
0.252085	
-0.0358944	
0.267271	
0.184787	
0.18727	
0.204378	
0.194544	
0.129841	
0.0826353	
0.2704	
0.257983	
0.167066	
0.17003	
0.234275	
0.245719	
0.215263	
0.0559544	
0.0676851	
0.234324	
0.259053	
0.23286	
0.081211	
0.204876	
0.209154	
0.129061	
0.217472	
0.248457	
-0.0691409	
0.220055	
0.217659	
0.210266	
0.265831	
0.250104	
0.144089	
0.267475	
0.142293	
0.167339	
0.142613	
0.144992	
0.117945	
0.276302	
0.249417	
0.266064	
0.27686	
0.266637	
0.265837	
0.248193	
0.251774	
0.245749	
0.242646	
0.203399	
0.22049	
0.25623	
0.250626	
0.0812259	
0.0483686	
0.241059	
0.254498	
0.271482	
0.25141	
0.271374	
0.0618372	
0.0722431	
0.0697132	
0.0994337	
0.268706	
0.262548	
0.205117	
0.224034	
0.221466	
0.146434	
0.146873	
-0.0662044	
-0.0632826	
0.135082	
0.120728	
0.118639	
0.113269	
0.110048	
0.109825	
0.0850226	
0.261224	
-0.0535025	
-0.0542011	
-0.0686631	
-0.0703229	
0.214688	
0.164445	
0.163385	
0.249057	
-0.0709743	
-0.0661315	
-0.0487044	
-0.0525048	
-0.0676698	
-0.0683337	
0.215458	
0.217256	
0.207067	
0.204117	
-0.0296461	
-0.0122082	
-0.0366478	
-0.0209762	
0.120175	
0.123357	
0.100279	
0.195093	
0.220334	
0.253211	
0.240566	
0.249037	
0.2527	
0.25293	
0.238665	
0.225858	
0.234397	
0.208202	
0.202765	
0.224883	
0.220437	
0.109642	
0.0993188	
0.109259	
0.0417773	
-0.00313049	
0.100639	
0.0684179	
-0.0579788	
-0.0398773	
-0.0652115	
0.0771047	
0.175294	
0.123904	
0.120711	
0.0585828	
0.0445406	
-0.0235954	
-0.0439479	
0.229189	
0.228454	
0.059767	
0.105561	
0.0947808	
0.252073	
0.257292	
0.241654	
0.247545	
0.262159	
0.230515	
0.228225	
0.0844881	
0.0718169	
0.121839	
0.102806	
0.133563	
0.124169	
-0.00220378	
0.0232309	
0.10243	
0.106804	
0.17407	
0.176991	
0.127483	
0.117602	
0.0931161	
0.0902863	
0.176671	
0.173857	
0.161538	
0.125952	
0.160507	
0.167091	
0.236206	
0.248915	
0.163204	
0.153534	
0.128597	
0.169926	
0.193391	
-0.019911	
0.0291312	
-0.0284854	
0.250632	
0.250251	
0.233446	
0.219092	
0.186166	
0.165038	
0.183018	
0.181508	
-0.0364336	
-0.0420745	
-0.055882	
-0.0584577	
0.0459921	
0.0721974	
0.0847763	
0.168725	
0.145474	
0.181896	
0.187452	
0.209944	
0.187601	
0.253895	
0.25054	
0.226425	
0.234656	
0.234749	
0.234836	
-0.0478804	
-0.0536167	
-0.0349498	
-0.0400497	
0.180843	
0.160319	
0.170058	
0.16933	
0.0343354	
0.0992604	
0.0975212	
0.0893452	
0.0939828	
0.246482	
0.258936	
0.0626412	
0.0327327	
0.264053	
0.262814	
0.250192	
0.265075	
0.261567	
0.26407	
0.0216924	
0.24037	
0.238815	
0.200457	
0.0972463	
0.0873043	
0.073702	
0.0777169	
0.143456	
0.14808	
0.23082	
0.246087	
0.256351	
0.259475	
0.179468	
0.174742	
0.0849443	
0.0939107	
0.23523	
0.226581	
0.064847	
0.0817078	
0.128989	
0.109226	
0.132313	
0.152617	
0.110574	
0.121177	
0.120104	
0.0830468	
0.0157458	
0.0429122	
0.0998325	
0.0816522	
0.252129	
0.268291	
-0.0155854	
0.142885	
0.116323	
0.262935	
0.261495	
0.065092	
0.0732979	
0.105649	
0.0813577	
0.0867573	
0.0895148	
0.0294432	
0.0597888	
0.0874175	
0.0757633	
0.136652	
0.12674	
0.0753535	
0.0514655	
0.090054	
0.0620433	
0.22596	
0.227658	
0.169835	
0.184653	
0.150466	
0.141352	
0.0414668	
0.0106729	
-0.0477688	
0.00946908	
0.0253333	
0.0203702	
-0.00641165	
0.167797	
-0.0203914	
0.136112	
0.137884	
-0.0163274	
-0.0434037	
-0.0340485	
-0.0427682	
0.110613	
0.118189	
0.0425353	
0.0471797	
0.043322	
0.191605	
0.164438	
0.264706	
0.260902	
0.108116	
0.0866358	
0.0772369	
0.0747615	
0.0874489	
0.129449	
0.126383	
0.15171	
0.151167	
0.0642576	
0.0673066	
0.0192625	
0.00975259	
0.0823245	
0.058797	
0.0618224	
0.0387013	
0.102887	
0.104944	
0.0932659	
0.0864598	
0.0951632	
0.0857859	
0.0531066	
0.271262	
0.269737	
0.264783	
0.2705	
0.103701	
0.107911	
0.0957598	
0.101428	
0.0997401	
0.102449	
0.0996466	
-0.0159597	
0.00113536	
-0.00721709	
0.0093177	
0.0266439	
0.0379721	
0.0179446	
0.00780878	
-0.0122063	
-0.00374368	
0.00410984	
0.0337361	
0.0197256	
0.024167	
0.0123026	
0.0039867	
0.0202189	
0.0026617	
0.0121066	
-0.0104995	
-0.0177598	
-0.0137083	
-0.00484029	
0.0270506	
0.0249069	
0.0185408	
0.0105594	
-0.0146919	
-0.0100889	
-0.00428752	
0.00237353	
0.0332253	
-0.0635468	
-0.0490457	
0.00463082	
0.0328394	
-0.0257144	
-0.0312062	
-0.00906612	
0.0297342	
0.0233457	
0.00288709	
-0.0519034	
0.00245999	
-0.0286085	
-0.0723669	
-0.054664	
0.0312601	
0.0159784	
-0.00444829	
-0.0661687	
-0.0413465	
-0.0171585	
0.0247751	
0.134886	
0.172889	
0.171248	
0.115113	
0.140292	
-0.0315106	
0.0700907	
0.139037	
0.0522457	
0.0940735	
0.125978	
0.0444341	
0.0353676	
0.11554	
0.11689	
0.0911655	
0.0921108	
0.0762613	
0.1013	
0.12443	
0.171058	
0.173623	
-0.0612086	
-0.0670248	
-0.052718	
-0.0535894	
-0.00108699	
0.0200312	
0.00945846	
0.162626	
0.148096	
0.152361	
0.0429919	
0.160285	
0.152266	
0.168904	
0.170154	
0.166535	
0.16126	
0.167524	
0.168454	
-0.0570149	
-0.0443372	
0.142008	
0.147877	
0.132948	
0.15785	
0.156868	
0.163158	
0.156383	
0.144867	
0.144542	
0.168516	
0.153893	
0.17263	
0.174302	
0.101504	
0.108092	
0.127274	
0.173209	
0.174391	
-0.0408346	
-0.024391	
0.00665656	
-0.00600068	
-0.0293015	
-0.00800484	
-0.0281626	
0.054728	
0.0338593	
0.0765007	
0.0724674	
0.11641	
0.1344	
0.110446	
0.129602	
0.101821	
0.160377	
0.164278	
0.127063	
0.0936884	
-0.148783	
-0.0279469	
0.0335	
0.067781	
-0.0239017	
0.0347094	
0.0471753	
-0.0276255	
0.0614055	
0.0354156	
-0.000288093	
-0.00336387	
0.00926992	
0.0364327	
0.0459453	
0.13531	
0.155945	
-0.148383	
-0.169518	
-0.124718	
-0.128176	
-0.107292	
-0.0893589	
-0.0811515	
0.0857639	
0.113999	
0.0934621	
-0.0637801	
-0.0753028	
0.128082	
0.119361	
0.139777	
0.128368	
0.129755	
0.138792	
0.13265	
0.125143	
-0.157517	
-0.163682	
0.0736037	
0.0883223	
0.104254	
0.107217	
0.0841499	
0.0880378	
0.111291	
0.11632	
0.15229	
0.151229	
0.158835	
0.16306	
0.0472125	
0.0999363	
0.0726922	
0.163586	
0.158657	
-0.141924	
-0.14104	
-0.115886	
-0.111761	
-0.107089	
-0.141237	
-0.119614	
-0.0168843	
-0.0621938	
-0.0343632	
-0.0641772	
0.0386429	
0.0705981	
0.0174077	
0.0706447	
0.0410536	
-0.0538314	
0.0681748	
0.164766	
0.217739	
0.211832	
0.210983	
0.190657	
0.206374	
0.19542	
0.18502	
0.207235	
0.200529	
0.204526	
0.191461	
0.199562	
0.194932	
0.172245	
0.154463	
0.17369	
0.183508	
0.178874	
0.212995	
0.174143	
0.204759	
0.203602	
0.189489	
0.209621	
0.196731	
0.205348	
0.0908068	
0.0976049	
-0.0968927	
-0.0188553	
0.201771	
0.17017	
0.212483	
0.15599	
0.191616	
0.0920045	
0.172326	
0.18276	
0.212274	
-0.210882	
0.174794	
0.207494	
0.187561	
0.194077	
0.109507	
0.101943	
0.146798	
0.0996551	
0.130768	
-0.0078101	
-0.364458	
0.0149405	
0.11531	
0.123126	
-0.074715	
-0.0311641	
0.0167231	
0.0465826	
-0.252322	
-0.331163	
-0.341383	
-0.347851	
-0.199157	
-0.00507937	
-0.0152678	
-0.236594	
-0.271495	
-0.15347	
-0.00690334	
-0.263486	
-0.297053	
-0.335372	
-0.336425	
-0.170065	
0.00589413	
-0.0894904	
-0.349175	
-0.347193	
-0.0841943	
0.174655	
0.0893553	
0.169178	
-0.350618	
-0.0497381	
0.138772	
-0.0364399	
-0.00825563	
0.151494	
-0.248945	
-0.0289312	
-0.0918094	
-0.135408	
-0.211061	
-0.0665459	
0.155929	
-0.0966135	
0.0938129	
-0.101329	
0.115543	
0.0818426	
0.0266823	
0.0690891	
-0.244612	
-0.227089	
0.0794715	
-0.00698437	
-0.105109	
-0.0406278	
-0.13898	
-0.104014	
-0.255129	
-0.0784233	
-0.0803048	
-0.161822	
0.150925	
-0.155778	
-0.329184	
0.123262	
-0.325228	
-0.322792	
-0.00425692	
0.0544253	
-0.320714	
-0.126139	
-0.182782	
-0.140905	
0.196784	
0.109267	
0.11838	
0.118034	
0.0484805	
0.0491665	
-0.011207	
0.0400295	
-0.219325	
-0.14162	
0.169493	
0.151727	
0.0966764	