<VTKFile type="UnstructuredGrid" version="0.1" byte_order="LittleEndian">
	<UnstructuredGrid>
		<Piece NumberOfPoints="3959" NumberOfCells="7450">
			<CellData Scalars="scalars">
				<DataArray type="Float64" Name="Doublet Strengths" NumberOfComponents="1" Format="ascii">
-0.07061	
-0.0554621	
0.000727359	
0.0309783	
-0.0310742	
-0.0407101	
-0.0169677	
0.026039	
0.018179	
-0.00395435	
-0.0630012	
0.0031018	
-0.0273706	
-0.0691467	
-0.0526254	
0.0311977	
0.0187651	
-0.000788848	
-0.0592095	
-0.0359223	
-0.0127619	
0.0263724	
0.13421	
0.171603	
0.169984	
0.11286	
0.133054	
-0.107037	
0.0331607	
0.120563	
0.0326528	
0.0839068	
0.107019	
0.0111224	
-0.0042464	
0.0895866	
0.0947117	
0.0632557	
0.06173	
0.0604772	
0.0817553	
0.106389	
0.16321	
0.170594	
-0.0924961	
-0.103646	
-0.101083	
-0.144617	
-0.0558608	
-0.0313528	
-0.0189403	
0.152668	
0.133827	
0.13847	
0.000819941	
0.150606	
0.146797	
0.159483	
0.162628	
0.156199	
0.160505	
0.158208	
0.161324	
-0.124075	
-0.168499	
0.123644	
0.130266	
0.111742	
0.143883	
0.143148	
0.15687	
0.14912	
0.132109	
0.133402	
0.165915	
0.151848	
0.170751	
0.17089	
0.0875451	
0.100877	
0.121444	
0.171955	
0.171421	
-0.0858635	
-0.0871055	
-0.038813	
-0.0413134	
-0.0615634	
-0.0514912	
-0.0810457	
0.0317232	
0.00546194	
0.0527072	
0.0436579	
0.0982166	
0.121464	
0.0955599	
0.118093	
0.105085	
0.163477	
0.167116	
0.129168	
0.100627	
-0.0766059	
0.00785258	
0.0557785	
0.0868031	
-0.00532978	
0.0489125	
0.0664808	
0.000342275	
0.0828648	
0.0612537	
0.0295212	
0.02409	
0.0246822	
0.0549074	
0.0643933	
0.144553	
0.160717	
-0.103632	
-0.0827166	
-0.0971336	
-0.0952223	
-0.0642792	
-0.040127	
-0.0550596	
0.100922	
0.125284	
0.108255	
-0.0233066	
-0.0375001	
0.135955	
0.126374	
0.148497	
0.139695	
0.140381	
0.142532	
0.141314	
0.135826	
-0.0940794	
-0.0431358	
0.0924587	
0.106437	
0.118813	
0.121933	
0.0978334	
0.100204	
0.122369	
0.125051	
0.154865	
0.155659	
0.163636	
0.166234	
0.0576113	
0.108349	
0.0805511	
0.166548	
0.163225	
-0.0823264	
-0.0913063	
-0.0637032	
-0.0827395	
-0.0744995	
-0.0996254	
-0.0789471	
0.00627395	
-0.0303922	
-0.0124777	
-0.0374636	
0.0537736	
0.0829014	
0.0369113	
0.0843516	
-0.00591773	
-0.176492	
0.0292576	
0.167521	
0.215836	
0.207597	
0.207752	
0.190811	
0.203059	
0.192996	
0.183762	
0.205579	
0.199426	
0.200276	
0.183329	
0.194411	
0.190705	
0.170136	
0.162946	
0.171467	
0.180148	
0.175769	
0.208535	
0.174915	
0.19804	
0.198654	
0.184663	
0.203785	
0.193266	
0.204917	
0.11545	
0.108079	
-0.0321958	
0.0113481	
0.196347	
0.176007	
0.210587	
0.165147	
0.187717	
0.0586049	
0.178232	
0.18449	
0.207776	
-0.251348	
0.17833	
0.202356	
0.189935	
0.194972	
0.133304	
0.126031	
0.157831	
0.124079	
0.145565	
-0.0727452	
-0.275819	
-0.0411227	
0.0883759	
0.0965936	
-0.22968	
-0.109153	
-0.0371968	
-0.000610545	
-0.364237	
-0.17657	
-0.220529	
-0.374132	
-0.218979	
-0.0290563	
-0.0833241	
-0.299834	
-0.342015	
-0.201957	
-0.0696677	
-0.313281	
-0.350359	
-0.382587	
-0.389638	
-0.302946	
-0.0516269	
-0.142416	
-0.383264	
-0.372562	
-0.097674	
0.163452	
0.102999	
0.153229	
-0.224998	
0.0100314	
0.117163	
0.0258269	
0.0195194	
0.130011	
-0.0851397	
0.0395265	
-0.106605	
-0.152332	
-0.296778	
-0.0341356	
0.135848	
-0.0525751	
0.0616602	
-0.0142253	
0.0860834	
0.0436367	
0.0259028	
0.0691137	
-0.281705	
-0.258938	
0.0552683	
0.0366992	
-0.0187832	
0.0272174	
-0.0793117	
-0.0249218	
-0.286001	
-0.127569	
-0.125975	
-0.0805167	
0.142228	
-0.0642753	
-0.151374	
0.101586	
-0.168523	
-0.176602	
0.0496151	
0.0829467	
-0.224698	
-0.140255	
-0.195845	
-0.0410438	
0.186553	
0.0853674	
0.0891012	
0.0884357	
0.00882765	
0.00887936	
-0.0220441	
0.0304187	
-0.300041	
-0.204104	
0.153837	
0.130382	
0.127983	
0.139595	
-0.0993776	
-0.0752575	
-0.076993	
-0.0318959	
-0.020246	
0.00851787	
0.164127	
0.0525141	
0.0831727	
0.172627	
0.167934	
0.0776075	
-0.246215	
0.189108	
0.109689	
-0.0549837	
-0.123071	
0.178641	
0.199362	
0.0563309	
0.153321	
-0.276984	
-0.191222	
0.114849	
0.111465	
0.125277	
0.0243825	
0.194016	
0.170494	
0.151368	
0.154393	
0.138396	
0.16143	
0.185568	
0.181642	
0.160582	
-0.0317544	
0.0382598	
0.146435	
0.162391	
0.147644	
0.179656	
0.189324	
0.057201	
0.16999	
0.081989	
0.062312	
0.0535394	
0.061167	
0.120193	
0.187083	
0.106846	
0.0806997	
0.0554447	
0.0627227	
0.116903	
0.119377	
0.137193	
0.136069	
0.0609206	
0.00710958	
0.0219564	
-0.0275022	
0.188065	
0.207149	
0.188788	
0.182096	
0.193676	
0.0989694	
0.101753	
0.183297	
0.105291	
-0.204206	
0.0854861	
0.0182014	
0.0713287	
0.0846159	
0.174959	
0.0260231	
-0.0993164	
-0.0689921	
0.0577842	
0.0593967	
0.0220132	
0.148968	
0.179329	
0.101774	
0.0956949	
0.184898	
0.143825	
0.0943253	
0.0371165	
0.0290985	
0.0616083	
0.0646857	
0.0133768	
0.141926	
0.147502	
-0.336698	
-0.294951	
-0.191737	
-0.152164	
-0.089586	
0.118418	
0.109892	
0.129855	
0.162607	
0.149906	
0.126208	
0.182286	
-0.182733	
-0.192451	
-0.357763	
-0.327345	
0.0468466	
-0.088045	
0.0332331	
-0.324382	
-0.350383	
0.00238622	
-0.0123504	
0.00986527	
0.000437584	
-0.109441	
-0.0697093	
-0.0619258	
-0.01485	
0.0178245	
-0.0020672	
0.0652359	
0.0854953	
0.108728	
-0.0111138	
-0.041939	
-0.0109892	
-0.0294126	
-0.0101377	
0.0338225	
0.110236	
0.111141	
0.0927566	
0.0239689	
0.00188621	
-0.0735079	
0.135345	
0.0965657	
0.0186663	
0.00531406	
0.191473	
-0.213216	
0.0622492	
-0.0205919	
-0.0323134	
0.210799	
0.190834	
0.202961	
-0.212988	
-0.165859	
-0.111062	
-0.00196884	
-0.121991	
-0.0718367	
0.198833	
0.184122	
0.139757	
0.115335	
0.0667165	
-0.0635457	
-0.13462	
-0.0874052	
0.178916	
0.0294907	
-0.384772	
-0.387623	
-0.385901	
-0.214519	
0.0603871	
3.09767e-06	
-0.0036201	
0.0155607	
0.0151462	
0.0234267	
-0.0140876	
0.124618	
0.119898	
-0.139743	
-0.0712992	
-0.193914	
-0.129732	
-0.0487849	
-0.164011	
-0.0746953	
0.042473	
-0.261739	
-0.244319	
0.136752	
0.0620448	
0.10749	
-0.0388082	
-0.00300422	
0.155635	
0.156812	
0.138281	
0.155295	
0.142714	
0.0756897	
0.0533164	
0.138085	
0.0457463	
0.196395	
0.186132	
-0.114227	
-0.246403	
0.181299	
0.178024	
0.187956	
0.0191219	
0.189634	
0.201065	
0.187604	
0.197374	
0.206163	
0.190984	
-0.225961	
-0.254627	
0.206415	
0.188146	
0.193906	
0.181206	
-0.353833	
0.0377956	
0.00964937	
0.023304	
0.189705	
0.172584	
0.157496	
0.179692	
0.0633768	
0.0655106	
0.0155477	
0.0187688	
0.132222	
-0.140804	
0.0288918	
0.0725364	
-0.059481	
0.144721	
0.154009	
0.125899	
0.0925093	
0.202264	
0.0360752	
0.0819252	
-0.0231916	
-0.00973316	
0.104839	
0.129264	
0.136203	
0.0485211	
-0.0653028	
-0.0407822	
-0.0221337	
0.018923	
0.0549187	
0.0846148	
-0.0263199	
0.0358635	
-0.01964	
0.196817	
0.181883	
0.066551	
-0.00737139	
0.0867904	
0.147615	
-0.00404988	
-0.117157	
-0.00712311	
-0.119423	
0.103659	
-0.0353823	
-0.0392456	
-0.0238948	
0.122695	
0.0950205	
0.0913657	
0.033016	
0.0942472	
0.0555082	
0.00436228	
0.00801052	
0.0281148	
0.0227487	
0.00750159	
-0.03893	
-0.0858928	
0.115439	
0.0375298	
0.0358418	
0.0228112	
0.128716	
0.0262001	
-0.0126263	
0.0673278	
0.078556	
0.105619	
-0.34226	
-0.0102112	
-0.0342273	
0.0577079	
0.065685	
0.15141	
0.0929337	
0.0813867	
0.0729812	
-0.111812	
-0.0713016	
0.0369204	
0.0107119	
-0.0203832	
-0.0657773	
0.0969471	
0.0645081	
0.057468	
0.0596709	
-0.0461404	
0.0286674	
-0.247883	
-0.2315	
-0.148067	
-0.134892	
0.144306	
-0.044826	
-0.16742	
0.129415	
-0.0920533	
0.0265407	
-0.144187	
-0.216293	
-0.0679089	
-0.0357972	
0.0159717	
-0.0175176	
-0.0985021	
-0.158898	
-0.0885006	
-0.0401969	
-0.0237522	
-0.00144492	
-0.147916	
0.131014	
0.0086979	
0.0356545	
0.0740898	
-0.106115	
-0.0717354	
-0.0852211	
-0.139827	
-0.213719	
0.12153	
0.109586	
-0.0207664	
0.0317566	
-0.112146	
-0.134849	
0.11043	
0.0369742	
0.0683945	
-0.0301148	
-0.0127652	
-0.119645	
-0.0806509	
-0.309602	
-0.346767	
0.0488571	
-0.246545	
0.0450794	
0.00464386	
-0.140805	
0.133903	
-0.0989303	
-0.0880013	
-0.012731	
-0.0584313	
0.183172	
0.0975953	
0.146083	
0.0824065	
0.10275	
0.203018	
0.190667	
-0.0514725	
-0.044036	
0.0471027	
0.0644038	
-0.34101	
-0.135808	
-0.165481	
-0.382629	
-0.0183883	
0.0498134	
-0.0316262	
-0.0414886	
-0.137768	
-0.112716	
0.0341265	
-0.0107969	
0.00313222	
0.193884	
0.178505	
0.0645723	
0.00276093	
-0.0366884	
0.0863855	
0.117624	
0.0390697	
0.070873	
0.025549	
-0.054433	
0.189653	
0.207537	
0.204679	
0.192774	
-0.195014	
0.185291	
0.164047	
-0.00287048	
-0.0912183	
0.0173143	
0.15608	
0.175272	
0.154519	
0.174662	
0.162762	
0.13997	
0.0644684	
0.0498195	
-0.00142668	
0.00405181	
0.117575	
0.124305	
-0.130571	
-0.363723	
-0.341349	
0.0393133	
0.0272196	
0.197514	
0.179143	
0.212349	
0.196225	
0.148637	
0.116355	
-0.0729065	
0.108397	
0.139799	
0.125742	
0.142284	
0.143336	
0.16173	
0.156348	
0.135951	
-0.207184	
-0.229556	
0.176967	
0.162075	
0.0971507	
0.0565451	
0.143511	
0.142284	
0.203194	
0.189866	
-0.0337768	
-0.0929356	
-0.158114	
-0.0728463	
0.0154967	
0.101755	
0.0444367	
0.112681	
-0.0850544	
-0.0733107	
-0.252368	
0.114548	
0.110966	
0.166848	
0.191257	
-0.0724359	
0.0369504	
-0.0398078	
0.0168866	
-0.0513087	
-0.0142191	
0.0577089	
0.0594655	
0.108946	
-0.0267321	
-0.0274042	
-0.0383881	
-0.0431746	
0.202776	
0.176135	
0.179347	
-0.10376	
-0.151071	
0.0641379	
-0.00947993	
0.058375	
-0.0409466	
0.0617264	
0.0526606	
-0.0830488	
-0.0915906	
0.0763763	
-0.00455119	
0.00349777	
-0.296995	
-0.00857371	
0.0371013	
0.0770845	
0.0802026	
-0.157287	
-0.169086	
-0.238151	
-0.0187315	
0.0194518	
0.164595	
0.151877	
0.00796822	
0.065309	
0.0867624	
0.0922719	
-0.00394803	
-0.0448876	
-0.099011	
-0.100611	
0.1927	
0.181788	
0.186049	
0.0600626	
0.0625897	
0.113744	
0.0572975	
-0.139545	
-0.136746	
-0.193672	
-0.094881	
-0.0877398	
-0.0158973	
0.112053	
0.113528	
0.0778392	
0.0391151	
-0.176889	
-0.17797	
-0.010746	
-0.0299232	
-0.22289	
-0.196366	
-0.26814	
-0.118383	
0.171427	
0.156095	
0.130432	
0.190066	
0.209372	
-0.0745089	
-0.0137818	
-0.0688748	
0.0639401	
0.108793	
0.0235016	
0.0691096	
0.0997902	
0.127138	
0.103585	
0.129665	
-0.0370917	
-0.0227389	
0.142397	
0.14126	
-0.160766	
-0.134775	
-0.203212	
0.184491	
0.19205	
0.183763	
0.139799	
0.104368	
0.156768	
0.108552	
0.15412	
0.0763937	
0.133981	
0.130835	
0.165141	
-0.0556909	
-0.0455625	
-0.0478685	
0.136661	
-0.0565046	
-0.0759849	
-0.173063	
0.0556881	
0.0302753	
-0.240403	
-0.247745	
-0.0524255	
-0.0595403	
0.118062	
0.065721	
-0.130334	
-0.29751	
-0.262091	
0.176517	
0.175147	
0.15939	
0.174502	
0.17249	
0.0467313	
0.0884429	
0.0309821	
0.0380826	
0.185667	
-0.0403096	
-0.20076	
-0.0410538	
0.0192657	
-0.0179396	
-0.0262296	
0.0146868	
-0.34257	
0.0520783	
0.0612968	
0.14163	
0.110925	
0.156715	
0.124355	
0.143209	
0.133422	
0.130227	
0.0253748	
0.0570612	
0.0496983	
0.0764873	
0.130053	
0.108782	
0.0272789	
0.140142	
0.154412	
0.106477	
0.123739	
0.113495	
0.137928	
0.117468	
0.11468	
0.0522106	
0.0546128	
0.128628	
0.109919	
0.118046	
0.0725171	
-0.063995	
-0.0660327	
-0.0485114	
-0.0157714	
-0.0963711	
-0.0313551	
0.073186	
0.0548555	
0.102194	
0.1577	
0.12384	
0.13734	
0.0851221	
0.0094629	
-0.011735	
0.0565312	
-0.0162915	
0.0165521	
-0.0294621	
0.054432	
0.17895	
0.17869	
-0.319765	
-0.280222	
0.122619	
0.113131	
-0.00798136	
-0.022737	
0.130513	
-0.0747049	
-0.0583221	
0.174035	
0.16015	
0.188579	
0.207126	
0.059305	
0.0360932	
0.14117	
0.125087	
0.176609	
0.0186995	
0.0590135	
0.123003	
0.0772129	
0.113174	
0.0851529	
0.111707	
0.206293	
0.0308989	
0.0311135	
0.180508	
0.0497823	
0.103612	
0.102184	
0.0295442	
0.00466655	
0.106969	
0.113327	
0.14714	
0.185272	
0.190324	
0.199975	
-0.206723	
0.12211	
0.0711445	
-0.0597125	
0.0305489	
0.0679491	
0.144661	
0.142434	
0.196208	
0.187726	
0.154966	
0.146211	
-0.202952	
-0.125037	
-0.0908586	
-0.10757	
0.0831899	
0.0641609	
0.0711035	
-0.0900182	
-0.061377	
-0.265659	
-0.0822793	
-0.0731121	
-0.131246	
-0.277234	
-0.216304	
-0.147681	
-0.136377	
-0.120127	
-0.101748	
0.146749	
0.134828	
0.0703637	
-0.0630205	
-0.0521395	
-0.143086	
-0.143169	
-0.209415	
-0.206237	
-0.0537936	
-0.071961	
-0.337838	
-0.0475198	
-0.195806	
0.0878815	
0.0919886	
0.0648118	
0.0667822	
0.170803	
0.170138	
-0.0522347	
-0.0949489	
-0.000549044	
-0.00381232	
0.0469401	
0.0274418	
0.0433182	
0.0264112	
-0.199218	
-0.224975	
-0.164875	
-0.0229157	
0.134464	
0.121625	
0.0586144	
0.0382205	
-0.245841	
-0.227176	
-0.0879909	
-0.19061	
-0.232641	
-0.212358	
-0.265009	
0.200316	
0.183674	
-0.0263368	
-0.0824659	
-0.0605169	
-0.0547487	
-0.080888	
-0.189776	
-0.173478	
0.0553271	
0.0110637	
-0.158004	
-0.050972	
-0.256585	
-0.247386	
-0.149987	
-0.130415	
-0.138129	
-0.12503	
-0.14996	
-0.14833	
-0.103704	
-0.102845	
0.147989	
0.0751924	
0.132536	
0.11444	
0.111553	
0.115289	
0.0814992	
-0.234579	
-0.189654	
-0.195169	
-0.20587	
-0.198216	
-0.263628	
-0.272661	
-0.318759	
-0.177687	
-0.117436	
-0.215867	
-0.190209	
-0.289002	
-0.334217	
-0.333701	
-0.369311	
-0.0353345	
-0.0379284	
-0.0399928	
-0.0476928	
-0.211436	
-0.218125	
-0.170341	
-0.160311	
-0.128716	
-0.137743	
-0.0929344	
-0.308675	
-0.0349457	
-0.0198803	
-0.308514	
-0.266484	
-0.0136718	
-0.0235389	
-0.0285627	
-0.147873	
-0.14378	
-0.0249092	
-0.0336059	
-0.0774951	
-0.0846088	
-0.173142	
-0.164867	
0.0882471	
0.0219948	
0.00191057	
-0.00580508	
0.097174	
0.0490813	
-0.119994	
-0.0958416	
-0.119956	
-0.0184043	
-0.283175	
-0.329603	
-0.0991247	
-0.11512	
0.196017	
0.122186	
0.20917	
0.180279	
-0.378168	
-0.371711	
0.045543	
0.00220926	
-0.313057	
-0.278173	
-0.331973	
-0.298255	
-0.283518	
-0.294151	
-0.222178	
-0.192199	
-0.318771	
-0.359357	
-0.358545	
-0.352874	
-0.350726	
-0.183164	
-0.129385	
-0.10413	
-0.300805	
-0.327481	
-0.354256	
-0.243623	
0.188168	
0.156605	
0.20905	
0.191827	
-0.328619	
-0.300217	
-0.218243	
-0.206468	
-0.193014	
-0.00728826	
-0.00792542	
-0.298983	
-0.298482	
-0.333973	
-0.303475	
-0.326062	
-0.0593857	
-0.0701518	
-0.0825112	
-0.104419	
-0.21638	
-0.257746	
-0.217102	
-0.242928	
-0.271621	
-0.303144	
0.208329	
0.183743	
0.181936	
0.1427	
-0.250589	
-0.134454	
-0.12269	
-0.135494	
0.181117	
0.138108	
0.160937	
0.0808736	
-0.351727	
0.0811844	
0.125381	
0.114281	
0.135468	
-0.336711	
-0.355305	
-0.339744	
-0.343596	
-0.334539	
-0.341056	
-0.29983	
-0.110598	
-0.100666	
-0.0992622	
-0.0993025	
0.137313	
0.195354	
0.133878	
0.192959	
0.128909	
0.119756	
0.122755	
0.0731878	
-0.254364	
-0.275299	
-0.254127	
-0.239566	
-0.34447	
-0.359269	
-0.34588	
-0.352307	
0.0773773	
0.136605	
0.0815682	
0.138149	
0.163409	
0.129815	
0.150675	
0.0929141	
0.112245	
0.0882786	
0.111488	
0.0875397	
0.173356	
0.201529	
0.204785	
0.209537	
0.220447	
0.141305	
0.230979	
0.235406	
0.236066	
0.24426	
0.248649	
0.254124	
0.228322	
0.190534	
0.16887	
0.046908	
0.255827	
-0.00811226	
-0.00208417	
-0.0341597	
0.182587	
0.24861	
0.233892	
0.265253	
0.261322	
0.268261	
0.255992	
0.26306	
0.253664	
0.246229	
0.170179	
0.216905	
0.196109	
0.218514	
0.189226	
0.14956	
0.21707	
0.158908	
0.10174	
0.256989	
0.235958	
0.234701	
0.0943908	
-0.0442596	
0.248117	
-0.0270335	
-0.0414071	
0.013745	
0.0703624	
0.0425125	
-0.0352668	
0.0403982	
0.00194586	
0.0708873	
-0.0543085	
0.0161297	
0.0649119	
0.0835162	
0.0407639	
-0.00370615	
-0.0447962	
0.208814	
-0.0292638	
0.176846	
0.106363	
0.109178	
0.0865343	
0.0475131	
0.0541175	
0.0724367	
0.0811012	
0.0199493	
0.0590951	
0.0133194	
0.0392941	
0.0205747	
0.0318798	
0.0317457	
0.0453282	
0.087174	
0.0523889	
0.0569757	
0.0684256	
0.0887802	
0.0460224	
-0.0227758	
-0.0265082	
0.0213453	
-0.00215905	
-0.00797506	
0.0342499	
0.0641987	
0.0592293	
0.00501242	
-0.0197025	
-0.0291573	
-0.0086628	
0.0327252	
-0.0618831	
-0.0405017	
-0.0638126	
0.16755	
0.188392	
0.18533	
0.224065	
0.010879	
0.100686	
0.154009	
0.161413	
0.190202	
0.000301416	
0.151467	
0.128968	
-0.0579241	
-0.0385804	
-0.029179	
0.134255	
-0.0311484	
0.143549	
-0.00324385	
0.204268	
0.207868	
-0.0687931	
0.0765504	
0.0404121	
0.0027938	
0.0747781	
0.0161943	
0.246091	
0.230317	
0.223657	
-0.049896	
0.084034	
0.217878	
-0.0133446	
-0.0164739	
0.208554	
0.230352	
0.00761138	
0.0490399	
0.198993	
0.140687	
-0.0615916	
-0.0495262	
0.110774	
-0.0224189	
-0.0173341	
-0.00757507	
-0.00123414	
0.250983	
0.208598	
0.214038	
0.132388	
0.16732	
0.244674	
0.273406	
0.255195	
0.0586118	
0.169412	
0.243468	
0.194403	
0.108648	
0.129966	
0.14245	
0.160617	
0.00607632	
0.120161	
0.0848798	
0.0985452	
0.0670675	
0.12012	
0.117946	
0.188963	
0.150445	
0.194592	
0.116199	
0.156388	
0.129352	
0.167686	
0.117777	
0.125163	
0.158126	
0.206185	
0.141049	
0.151429	
0.159154	
0.158852	
0.14171	
0.266215	
0.268188	
0.277893	
0.265484	
0.281614	
0.250065	
0.116663	
-0.0243741	
0.0226512	
0.0279015	
0.124384	
0.232579	
0.179166	
0.110836	
0.183549	
0.170806	
0.124154	
0.236831	
0.270225	
0.275417	
0.230773	
0.249814	
0.259659	
0.277966	
0.262309	
0.252843	
0.277516	
0.262268	
0.262018	
0.270017	
0.244307	
0.242494	
0.268672	
0.268394	
0.274316	
0.104097	
0.278727	
0.225821	
0.246698	
0.200504	
0.226532	
0.269282	
0.270373	
0.274245	
0.20419	
0.196403	
0.224384	
0.208768	
0.217815	
0.220967	
0.19548	
-0.0463092	
-0.051502	
0.239417	
0.227022	
0.251778	
0.229759	
0.201618	
0.182492	
0.200778	
0.258553	
0.234065	
0.233938	
0.240703	
0.166395	
0.209404	
0.0848281	
0.261636	
0.249039	
0.0933245	
0.185814	
0.162915	
0.231936	
0.124781	
0.130092	
0.206823	
0.14734	
0.273319	
0.134282	
0.132136	
0.160192	
0.222527	
0.194159	
0.181313	
0.267184	
0.0485158	
0.107827	
0.0420353	
0.0774956	
0.195307	
0.18688	
0.155032	
0.18455	
-0.0212903	
0.258782	
0.241461	
-0.00437214	
0.00548996	
-0.0192864	
0.000919265	
0.116787	
0.0893324	
0.158976	
0.165754	
0.189031	
0.152763	
0.189935	
0.00690818	
0.160244	
0.132909	
0.17482	
-0.0381845	
-0.0516037	
-0.0428305	
-0.0510475	
0.116299	
0.11294	
0.143033	
0.133149	
0.151536	
0.0876878	
0.095637	
0.200367	
0.177879	
0.201819	
0.21346	
0.155397	
0.102648	
0.0905163	
0.0993378	
0.0720142	
0.280668	
0.173007	
0.20058	
0.15414	
0.171335	
0.120951	
0.147237	
0.116391	
0.156391	
0.141902	
0.0161682	
0.205942	
0.21399	
0.180723	
0.239114	
0.237724	
0.150261	
0.176648	
0.124918	
0.128573	
-0.0539546	
-0.0386785	
-0.06299	
-0.06163	
0.102534	
0.208535	
0.240562	
0.211223	
0.199091	
0.210371	
0.171297	
0.218357	
0.215895	
0.214476	
0.20486	
0.0484348	
0.106613	
0.265637	
0.242507	
0.268042	
0.205002	
0.195266	
0.265485	
0.266886	
0.232243	
0.245178	
0.260087	
0.204653	
0.231308	
0.174242	
0.177295	
0.186816	
0.248888	
0.236007	
0.249864	
0.223014	
0.264739	
0.23211	
0.251957	
0.00136104	
0.186405	
0.19782	
0.166088	
0.237985	
0.240044	
0.232435	
0.227337	
0.245857	
0.256254	
0.107383	
0.13583	
0.124587	
0.14097	
-0.0535167	
0.218092	
0.184265	
0.188013	
0.117897	
0.1503	
0.154087	
0.174832	
0.157014	
0.16588	
-0.0441142	
-0.0329031	
-0.0480347	
-0.0304394	
0.245552	
0.208278	
0.245611	
0.211811	
0.0855385	
0.21691	
0.224144	
0.222189	
0.249812	
0.232609	
0.26078	
0.150134	
0.135912	
0.218638	
0.214543	
0.222479	
0.182477	
0.186056	
0.0242445	
0.0690007	
0.26628	
0.22769	
-0.0204754	
0.19222	
0.219506	
0.227961	
0.229213	
0.211611	
0.200586	
0.19851	
0.258253	
0.260592	
0.253479	
0.151589	
0.261788	
0.266498	
0.0608296	
0.0846258	
0.0839852	
0.22422	
0.221075	
0.221911	
0.26641	
-0.0674891	
-0.0615982	
0.256623	
0.251965	
0.244345	
0.222557	
-0.0622495	
-0.0566422	
0.166848	
0.154111	
0.117465	
0.119297	
0.223337	
0.0766164	
0.0909833	
0.15277	
0.153503	
0.171138	
0.169447	
0.265882	
0.258971	
0.00205607	
0.0171204	
0.0774682	
0.0434493	
0.107537	
0.10767	
0.136369	
0.180404	
0.178225	
0.166847	
0.160613	
0.274375	
0.2613	
0.237963	
0.253341	
0.267312	
0.0859356	
0.0797084	
0.207152	
0.20577	
0.188913	
0.188656	
0.0270115	
0.0478236	
0.266237	
0.267251	
0.209415	
0.206628	
0.146818	
0.108794	
0.156239	
0.101867	
0.222999	
0.229863	
0.205187	
0.206633	
0.212003	
0.210252	
0.20689	
0.191132	
0.267033	
0.268598	
0.252707	
0.170557	
0.171503	
0.201988	
0.198357	
0.165869	
0.172127	
0.236584	
0.242423	
0.162518	
0.179271	
0.261421	
0.265561	
0.186347	
0.226096	
0.234736	
0.218689	
0.189179	
0.226881	
0.271201	
0.264261	
0.242382	
0.242288	
0.234756	
0.243188	
0.130847	
0.187984	
0.12706	
0.264451	
0.275194	
0.261332	
0.255562	
0.100264	
0.0725027	
0.075366	
0.0576828	
0.261846	
0.256167	
0.26646	
0.273317	
0.00724331	
0.256951	
0.266577	
0.263706	
0.25633	
0.127449	
0.165907	
0.267087	
0.275184	
0.265653	
0.119758	
0.132068	
0.13765	
0.146039	
0.195236	
0.191786	
0.186548	
0.189695	
0.26939	
0.166122	
0.163475	
0.213465	
0.213714	
-0.00276465	
-0.0121087	
0.248235	
0.262802	
0.262662	
0.19501	
-0.00845139	
0.233356	
0.229409	
0.238987	
0.240884	
0.179673	
0.270385	
0.268536	
0.0407158	
0.0113584	
0.18509	
-0.0656555	
-0.058856	
-0.0650203	
0.176316	
0.065429	
0.0264203	
0.0504248	
0.0253931	
0.240101	
0.126773	
0.166369	
0.263753	
0.24923	
0.264473	
0.262695	
0.266333	
-0.003778	
-0.0247532	
0.237811	
0.222654	
0.266952	
0.257745	
0.0214333	
0.183287	
0.168546	
0.13737	
0.204564	
0.175215	
0.22567	
0.217392	
0.130621	
0.123571	
0.263833	
0.273666	
0.0653638	
0.0541142	
0.247906	
0.255672	
0.267948	
0.267534	
0.272998	
0.26582	
-0.0589143	
-0.0614731	
0.0987244	
0.0985043	
0.0275487	
0.0195283	
0.0100425	
0.245382	
0.246634	
0.220344	
0.230936	
0.214361	
0.220925	
0.273106	
0.198374	
0.259198	
0.243769	
0.238367	
0.125147	
0.0691232	
0.270731	
0.262193	
-0.0363762	
-0.00552697	
0.0116149	
0.066344	
0.213441	
0.143215	
0.247722	
0.241086	
0.061799	
0.0847403	
0.0382878	
0.246103	
0.160508	
0.164162	
0.254655	
0.252884	
0.093059	
0.0739716	
-0.0140065	
-0.0158321	
0.196975	
0.200522	
0.184036	
0.192709	
0.241152	
0.207946	
0.183876	
0.226253	
0.219115	
0.199115	
0.00965425	
0.0569751	
0.0506421	
0.132227	
0.0744543	
0.184887	
0.214458	
0.261754	
0.102698	
0.10317	
0.210511	
0.19912	
0.252134	
0.12969	
0.131297	
0.100072	
0.0356855	
0.0171493	
0.0444612	
0.0163407	
0.0427818	
0.164341	
0.195071	
0.191917	
0.220176	
0.0732205	
0.0576227	
0.0958554	
0.0799943	
0.164414	
0.163294	
0.176029	
0.173305	
0.164196	
0.179121	
0.179045	
-0.0688786	
-0.0236428	
-0.0631254	
-0.0486967	
-0.0276546	
0.131994	
0.135277	
-0.0644263	
0.110761	
0.127292	
0.0984188	
0.130227	
0.117976	
0.0327994	
-0.039042	
0.0781846	
0.138248	
-0.0689412	
0.111579	
-0.0628257	
-0.0691486	
-0.0681887	
0.034922	
0.0708615	
0.263501	
0.24071	
0.267358	
0.242698	
0.268958	
0.268955	
0.137945	
0.0908418	
0.274928	
0.262546	
0.148903	
0.193222	
0.143808	
0.192269	
0.0448024	
0.0605287	
0.213814	
0.0929832	
0.0868812	
-0.0650548	
0.173877	
0.0890924	
0.0891498	
0.0543252	
0.18143	
0.258493	
0.268449	
0.19308	
0.0179159	
0.0116002	
0.1654	
0.195762	
0.228273	
0.219334	
-0.0520247	
-0.0379317	
0.268973	
0.264442	
0.25062	
-0.0358287	
0.266393	
0.184476	
0.186906	
0.203255	
0.1931	
0.129601	
0.0823855	
0.269263	
0.256558	
0.166769	
0.16968	
0.233933	
0.245306	
0.214759	
0.0557203	
0.0674708	
0.23381	
0.258654	
0.232359	
0.080804	
0.204539	
0.208789	
0.126612	
0.216974	
0.248039	
-0.0692354	
0.219694	
0.217284	
0.209947	
0.264803	
0.248968	
0.142435	
0.266924	
0.139675	
0.166957	
0.142211	
0.144576	
0.117527	
0.275648	
0.248967	
0.265323	
0.276235	
0.265774	
0.265315	
0.247788	
0.251144	
0.245064	
0.241954	
0.202651	
0.219743	
0.255498	
0.250039	
0.0779782	
0.04821	
0.240743	
0.254104	
0.270821	
0.250987	
0.270422	
0.061653	
0.0721712	
0.0696367	
0.0964827	
0.267899	
0.261901	
0.203568	
0.223528	
0.220958	
0.144095	
0.144517	
-0.066167	
-0.0632411	
0.13273	
0.118053	
0.115931	
0.113114	
0.109883	
0.10963	
0.0848487	
0.259996	
-0.0534627	
-0.0541651	
-0.0686465	
-0.0703105	
0.212873	
0.162354	
0.161286	
0.248439	
-0.0709715	
-0.0661498	
-0.0488338	
-0.0525939	
-0.0677548	
-0.0683788	
0.215087	
0.216846	
0.205955	
0.202805	
-0.0296862	
-0.0122482	
-0.0366715	
-0.0209995	
0.119971	
0.123164	
0.0989748	
0.194499	
0.219797	
0.252473	
0.240099	
0.247915	
0.251313	
0.251469	
0.238045	
0.225513	
0.233883	
0.206733	
0.201249	
0.223641	
0.219189	
0.106819	
0.0964558	
0.106613	
0.0412441	
-0.00355291	
0.100212	
0.0679975	
-0.0581252	
-0.0400589	
-0.06535	
0.0758163	
0.174187	
0.122648	
0.119468	
0.0584422	
0.0443969	
-0.0238034	
-0.044128	
0.227493	
0.226765	
0.0596117	
0.105393	
0.0917346	
0.250769	
0.256206	
0.240163	
0.246011	
0.260831	
0.22944	
0.227187	
0.0841922	
0.0715161	
0.121536	
0.102479	
0.130942	
0.121326	
-0.00257831	
0.0228463	
0.102274	
0.106656	
0.173351	
0.176225	
0.124821	
0.114876	
0.0902467	
0.0873569	
0.176329	
0.173535	
0.161253	
0.125637	
0.160253	
0.166774	
0.234852	
0.247672	
0.162089	
0.152371	
0.126373	
0.167594	
0.191306	
-0.0202994	
0.0287186	
-0.0285708	
0.249333	
0.248878	
0.231858	
0.217311	
0.184945	
0.163863	
0.18117	
0.179626	
-0.0365162	
-0.042138	
-0.0559326	
-0.0584979	
0.0459247	
0.0721249	
0.0846973	
0.168328	
0.145075	
0.181479	
0.187033	
0.208073	
0.186319	
0.253199	
0.249439	
0.225304	
0.233785	
0.233646	
0.234002	
-0.0478174	
-0.0535752	
-0.0349085	
-0.0400242	
0.178706	
0.157987	
0.168134	
0.16729	
0.0339332	
0.0964205	
0.0946667	
0.0863489	
0.0910305	
0.245072	
0.257777	
0.0588184	
0.0289576	
0.263082	
0.261827	
0.249086	
0.264234	
0.260637	
0.26313	
0.0178764	
0.239282	
0.237733	
0.198814	
0.0945882	
0.0845038	
0.070384	
0.0745485	
0.142763	
0.147376	
0.229619	
0.245618	
0.255708	
0.258465	
0.177372	
0.172606	
0.0845968	
0.093553	
0.234079	
0.225391	
0.0613738	
0.0784228	
0.127475	
0.10783	
0.129916	
0.150405	
0.107862	
0.118527	
0.1193	
0.0822189	
0.0153775	
0.042535	
0.0986626	
0.0806084	
0.251494	
0.26779	
-0.0159777	
0.140348	
0.113525	
0.261725	
0.26017	
0.0631033	
0.0710494	
0.103565	
0.0791595	
0.0848709	
0.0878121	
0.0279339	
0.0582544	
0.0869417	
0.0753137	
0.135897	
0.125964	
0.0745851	
0.0507957	
0.0892632	
0.0613559	
0.224387	
0.226178	
0.168445	
0.183246	
0.148751	
0.139535	
0.0411137	
0.0103625	
-0.0479643	
0.00550281	
0.0214111	
0.0198965	
-0.00685038	
0.166004	
-0.0206765	
0.135897	
0.13765	
-0.0166417	
-0.0436427	
-0.0343592	
-0.0430192	
0.110422	
0.118011	
0.0420199	
0.0434426	
0.0395112	
0.189806	
0.162572	
0.263976	
0.259828	
0.10618	
0.0857628	
0.0763054	
0.0739644	
0.0865454	
0.127399	
0.124289	
0.149628	
0.149095	
0.0629523	
0.0658318	
0.0187575	
0.00925518	
0.0821263	
0.0586108	
0.0616188	
0.0385164	
0.100695	
0.102658	
0.0908153	
0.0842042	
0.0927778	
0.0856912	
0.05303	
0.270626	
0.268789	
0.264201	
0.269586	
0.101163	
0.105232	
0.0932097	
0.0988093	
0.0970546	
0.0997813	
0.096883	
-0.0158764	
0.00124783	
-0.00711457	
0.00943354	
0.0267424	
0.0380558	
0.018054	
0.0079465	
-0.0121079	
-0.00362985	
0.00422979	
0.0337868	
0.0198298	
0.024247	
0.0124176	
0.00411612	
0.0203067	
0.00276946	
0.0122063	
-0.0103957	
-0.0176815	
-0.0136199	
-0.00472477	
0.0271192	
0.0249942	
0.0186442	
0.0106722	
-0.014602	
-0.00998579	
-0.00417781	
0.00249289	
0.0332783	
-0.0634195	
-0.0489892	
0.00467443	
0.0329327	
-0.0256639	
-0.0309593	
-0.00882172	
0.029897	
0.0235664	
0.00311025	
-0.0516615	
0.00231025	
-0.028926	
-0.0726307	
-0.0550152	
0.0312066	
0.0157129	
-0.00479323	
-0.0666417	
-0.0418673	
-0.0175296	
0.0245954	
0.135223	
0.173443	
0.17184	
0.115605	
0.141283	
-0.0288004	
0.0725143	
0.140762	
0.0536028	
0.0950334	
0.127664	
0.0465022	
0.0376581	
0.117619	
0.118733	
0.0932243	
0.0943249	
0.0774825	
0.102897	
0.126051	
0.172175	
0.174358	
-0.060392	
-0.0662276	
-0.0511618	
-0.0513496	
0.00149823	
0.0227236	
0.0110347	
0.163971	
0.149589	
0.153835	
0.0454627	
0.161615	
0.153187	
0.170111	
0.171203	
0.16778	
0.161768	
0.168749	
0.169533	
-0.0553666	
-0.0418292	
0.143734	
0.149556	
0.134808	
0.159317	
0.158329	
0.164173	
0.15749	
0.146242	
0.145809	
0.16923	
0.154498	
0.1732	
0.175019	
0.102755	
0.10893	
0.128187	
0.173784	
0.1751	
-0.0391291	
-0.0218596	
0.00895752	
-0.00425081	
-0.0279211	
-0.00593385	
-0.0260313	
0.0563137	
0.0356216	
0.0782408	
0.0744629	
0.117998	
0.135725	
0.111808	
0.130827	
0.101778	
0.160526	
0.16444	
0.1271	
0.0933536	
-0.151611	
-0.0302489	
0.0319856	
0.0665087	
-0.025184	
0.0337635	
0.0458506	
-0.029512	
0.0599676	
0.0336802	
-0.00227515	
-0.00522682	
0.0082142	
0.035149	
0.0446659	
0.134866	
0.15595	
-0.150265	
-0.171958	
-0.125799	
-0.129332	
-0.109704	
-0.0920575	
-0.0828459	
0.0847555	
0.113284	
0.0925127	
-0.0662315	
-0.0776414	
0.12764	
0.119029	
0.139387	
0.127747	
0.129194	
0.138718	
0.132203	
0.124562	
-0.159396	
-0.166471	
0.0723367	
0.0871346	
0.103348	
0.106302	
0.083221	
0.0872385	
0.110582	
0.115797	
0.152358	
0.151155	
0.15881	
0.163167	
0.0465691	
0.099489	
0.0722758	
0.16376	
0.15867	
-0.144645	
-0.143407	
-0.118544	
-0.11341	
-0.10902	
-0.143254	
-0.121904	
-0.0184571	
-0.0642769	
-0.0358583	
-0.0659507	
0.0376071	
0.0698058	
0.0160502	
0.0697384	
0.0437788	
-0.0508439	
0.0707028	
0.165314	
0.217958	
0.212158	
0.211312	
0.191018	
0.206763	
0.195847	
0.185473	
0.207515	
0.20083	
0.204939	
0.192054	
0.199927	
0.195271	
0.172836	
0.154941	
0.174264	
0.183954	
0.17946	
0.21321	
0.174649	
0.205168	
0.203888	
0.189939	
0.209936	
0.197215	
0.205565	
0.0912886	
0.0978203	
-0.0957202	
-0.0181853	
0.202107	
0.170476	
0.212764	
0.156367	
0.191961	
0.0943621	
0.172594	
0.183145	
0.212567	
-0.207822	
0.175182	
0.207776	
0.187847	
0.194372	
0.110072	
0.10245	
0.147162	
0.100147	
0.131146	
-0.00483842	
-0.361039	
0.0178985	
0.117418	
0.125163	
-0.0712743	
-0.0281621	
0.0195264	
0.0492683	
-0.247687	
-0.328181	
-0.338403	
-0.344005	
-0.196492	
-0.00309994	
-0.012057	
-0.232731	
-0.267347	
-0.150391	
-0.00375937	
-0.260093	
-0.293436	
-0.331144	
-0.332285	
-0.165966	
0.00891697	
-0.0863623	
-0.345392	
-0.343626	
-0.0821125	
0.175601	
0.0896066	
0.170267	
-0.34754	
-0.0484481	
0.14059	
-0.0351405	
-0.00687504	
0.152925	
-0.246366	
-0.0274859	
-0.0896604	
-0.133047	
-0.206868	
-0.0648678	
0.157347	
-0.0956032	
0.0957757	
-0.0995864	
0.11762	
0.084219	
0.028102	
0.0702266	
-0.241483	
-0.224136	
0.0810394	
-0.00603538	
-0.103302	
-0.0391824	
-0.137139	
-0.102423	
-0.252042	
-0.0754487	
-0.0774157	
-0.159738	
0.151796	
-0.1537	
-0.326125	
0.124612	
-0.322136	
-0.31985	
-0.00313821	
0.0550691	
-0.317791	
-0.123868	
-0.18029	
-0.139193	
0.197417	
0.110743	
0.120239	
0.119913	
0.0508576	
0.0515483	
-0.00948562	
0.0415108	
-0.215144	
-0.138073	
0.170596	
0.153164	