<VTKFile type="UnstructuredGrid" version="0.1" byte_order="LittleEndian">
	<UnstructuredGrid>
		<Piece NumberOfPoints="3959" NumberOfCells="7450">
			<CellData Scalars="scalars">
				<DataArray type="Float64" Name="Doublet Strengths" NumberOfComponents="1" Format="ascii">
-0.0698632	
-0.0543222	
0.00192025	
0.0319791	
-0.0298032	
-0.0392542	
-0.0155107	
0.0272139	
0.0194845	
-0.00254204	
-0.0617098	
0.00388623	
-0.0266685	
-0.0692026	
-0.0521386	
0.0319978	
0.0192184	
-0.000405184	
-0.0593737	
-0.0357328	
-0.0124581	
0.0269702	
0.135371	
0.172966	
0.171375	
0.114139	
0.135157	
-0.101819	
0.0378789	
0.123977	
0.0355011	
0.0860295	
0.110438	
0.0152735	
0.000295334	
0.0936537	
0.09839	
0.0673343	
0.0660614	
0.0630954	
0.0850509	
0.109693	
0.165514	
0.172239	
-0.0904579	
-0.101694	
-0.0977198	
-0.139933	
-0.0508936	
-0.0261864	
-0.0156278	
0.155244	
0.13682	
0.141449	
0.00564756	
0.153125	
0.148738	
0.161965	
0.164845	
0.15876	
0.161788	
0.160685	
0.163533	
-0.120411	
-0.163379	
0.12708	
0.133628	
0.115417	
0.146861	
0.146094	
0.158961	
0.15131	
0.134929	
0.136038	
0.167492	
0.153292	
0.172183	
0.172548	
0.0901916	
0.102738	
0.123288	
0.173333	
0.173041	
-0.082274	
-0.082205	
-0.0342209	
-0.0376211	
-0.0585862	
-0.0472343	
-0.0767639	
0.0350058	
0.00905505	
0.0562768	
0.047668	
0.101477	
0.124257	
0.0984403	
0.120685	
0.105503	
0.164116	
0.1678	
0.129848	
0.100346	
-0.0830895	
0.00345564	
0.0529006	
0.0845072	
-0.00786091	
0.0471421	
0.0640169	
-0.00344539	
0.0802891	
0.0580458	
0.0257077	
0.0204549	
0.0227144	
0.052488	
0.0620157	
0.144058	
0.161071	
-0.108063	
-0.0888097	
-0.0999455	
-0.0981355	
-0.069455	
-0.0457261	
-0.0584994	
0.0992507	
0.124345	
0.106689	
-0.0282099	
-0.042298	
0.135639	
0.126174	
0.148137	
0.138887	
0.139666	
0.142994	
0.140893	
0.135054	
-0.0989949	
-0.0495438	
0.0902393	
0.104449	
0.117372	
0.120508	
0.0963656	
0.0989819	
0.121431	
0.124543	
0.155565	
0.156049	
0.163992	
0.166848	
0.0565974	
0.107843	
0.0800724	
0.167217	
0.16362	
-0.0884058	
-0.0966345	
-0.0694946	
-0.0861406	
-0.0786232	
-0.104154	
-0.0838409	
0.00306109	
-0.0346508	
-0.0155376	
-0.0411095	
0.0518613	
0.0815774	
0.0342914	
0.0828105	
-0.000713943	
-0.170857	
0.0341742	
0.168908	
0.217346	
0.209402	
0.209414	
0.192311	
0.204804	
0.194741	
0.185492	
0.207051	
0.200919	
0.202128	
0.185538	
0.196352	
0.192484	
0.171589	
0.163783	
0.172935	
0.181774	
0.177377	
0.210438	
0.176601	
0.200314	
0.20065	
0.186506	
0.205982	
0.195077	
0.206191	
0.115449	
0.108071	
-0.0321313	
0.0114002	
0.198353	
0.176721	
0.212026	
0.165831	
0.189443	
0.0632324	
0.178805	
0.18576	
0.209594	
-0.246501	
0.179334	
0.204435	
0.190909	
0.196256	
0.133496	
0.1261	
0.158447	
0.12411	
0.145863	
-0.0672759	
-0.273413	
-0.0357858	
0.0925854	
0.100729	
-0.223887	
-0.103549	
-0.031852	
0.00438456	
-0.3578	
-0.175661	
-0.218938	
-0.369879	
-0.214642	
-0.0251016	
-0.0777206	
-0.293976	
-0.336138	
-0.196566	
-0.0642142	
-0.308159	
-0.345254	
-0.378267	
-0.384924	
-0.29767	
-0.0463543	
-0.136636	
-0.378784	
-0.368139	
-0.0937171	
0.166009	
0.102989	
0.156187	
-0.223403	
0.0101317	
0.120885	
0.0259141	
0.021224	
0.133457	
-0.0850004	
0.0397087	
-0.102621	
-0.148219	
-0.290729	
-0.0321472	
0.139218	
-0.0525259	
0.06603	
-0.0140768	
0.0903462	
0.0483144	
0.0290427	
0.0718404	
-0.276992	
-0.254378	
0.0592021	
0.0367478	
-0.0185742	
0.0273737	
-0.0777352	
-0.0248355	
-0.281445	
-0.12192	
-0.120498	
-0.0793394	
0.144736	
-0.0638119	
-0.150715	
0.10561	
-0.16766	
-0.175622	
0.0496847	
0.0829762	
-0.222622	
-0.13607	
-0.19136	
-0.04098	
0.189236	
0.0895784	
0.0931395	
0.0924758	
0.0136796	
0.0136929	
-0.018484	
0.0336755	
-0.293822	
-0.198156	
0.156776	
0.133811	
0.128417	
0.139891	
-0.0946218	
-0.0744204	
-0.0759497	
-0.026639	
-0.0201164	
0.0086319	
0.165869	
0.0550447	
0.0859912	
0.174707	
0.170157	
0.0804788	
-0.24157	
0.191304	
0.112691	
-0.0533536	
-0.121241	
0.180509	
0.200835	
0.0583584	
0.154753	
-0.272257	
-0.186741	
0.114849	
0.111488	
0.127779	
0.0276914	
0.195388	
0.172315	
0.154368	
0.157261	
0.14174	
0.163019	
0.186717	
0.182534	
0.161817	
-0.0280731	
0.0398243	
0.147338	
0.163045	
0.150724	
0.181848	
0.191983	
0.0600917	
0.171905	
0.0819973	
0.0623478	
0.0535737	
0.065755	
0.12386	
0.189769	
0.10683	
0.0807194	
0.0554951	
0.062771	
0.116967	
0.1194	
0.137641	
0.137199	
0.0624035	
0.00894034	
0.0222897	
-0.0273846	
0.190515	
0.208726	
0.190733	
0.184266	
0.195631	
0.0989625	
0.101754	
0.185364	
0.108074	
-0.198247	
0.0869088	
0.0196934	
0.0742576	
0.0874203	
0.17698	
0.0260706	
-0.0936174	
-0.0635034	
0.0580378	
0.0596236	
0.0222966	
0.149458	
0.181943	
0.105281	
0.0993484	
0.187579	
0.147157	
0.0974499	
0.0405931	
0.0326735	
0.0651847	
0.0682627	
0.017413	
0.145144	
0.150549	
-0.332055	
-0.290179	
-0.187368	
-0.147978	
-0.0856291	
0.122101	
0.113723	
0.133274	
0.165217	
0.152939	
0.129747	
0.184335	
-0.177296	
-0.186778	
-0.353207	
-0.322814	
0.0516106	
-0.0841054	
0.0364736	
-0.319802	
-0.345695	
0.00244724	
-0.0122858	
0.00992094	
0.000490511	
-0.104447	
-0.0647885	
-0.0571642	
-0.0133946	
0.0184139	
0.00283418	
0.0695547	
0.089567	
0.108756	
-0.0110075	
-0.0418268	
-0.0108985	
-0.0291631	
-0.00985828	
0.0341638	
0.110446	
0.114057	
0.0961717	
0.0279496	
0.00610809	
-0.071096	
0.137746	
0.0993588	
0.0187199	
0.00537451	
0.194072	
-0.209611	
0.0653134	
-0.0205314	
-0.0322571	
0.212489	
0.193203	
0.205038	
-0.208409	
-0.161467	
-0.106812	
1.59322e-05	
-0.119443	
-0.0694795	
0.200445	
0.18599	
0.143298	
0.1193	
0.0710113	
-0.0631659	
-0.130874	
-0.0839652	
0.179559	
0.0341421	
-0.379225	
-0.382412	
-0.380888	
-0.209698	
0.0620476	
0.00204282	
-0.00154793	
0.0156141	
0.0151922	
0.0267208	
-0.00950528	
0.124681	
0.120011	
-0.13779	
-0.0694759	
-0.191791	
-0.125174	
-0.0445829	
-0.159167	
-0.0702744	
0.0437915	
-0.257292	
-0.239908	
0.140308	
0.0664973	
0.111476	
-0.0337065	
-0.00242418	
0.158277	
0.159354	
0.141593	
0.158182	
0.146249	
0.0801918	
0.0576145	
0.141241	
0.0500244	
0.198546	
0.188573	
-0.110501	
-0.242148	
0.182849	
0.179902	
0.190252	
0.0209087	
0.192215	
0.203307	
0.190094	
0.199612	
0.208018	
0.193156	
-0.22148	
-0.250095	
0.208092	
0.190143	
0.195736	
0.183192	
-0.349778	
0.0425053	
0.0146108	
0.0280935	
0.19103	
0.174245	
0.158957	
0.180778	
0.0677263	
0.0698488	
0.0203417	
0.0235594	
0.133665	
-0.137898	
0.0320627	
0.0753395	
-0.0557345	
0.14577	
0.154956	
0.128753	
0.0956987	
0.204591	
0.0387788	
0.0843432	
-0.0200965	
-0.00662067	
0.108802	
0.132741	
0.139881	
0.0533399	
-0.0599898	
-0.0357136	
-0.0170344	
0.0235913	
0.0580028	
0.087418	
-0.0226704	
0.0390861	
-0.0146794	
0.198268	
0.1836	
0.0665678	
-0.00385543	
0.0896596	
0.147967	
-0.000605262	
-0.11317	
-0.00365667	
-0.115437	
0.106382	
-0.0353162	
-0.0391523	
-0.0238241	
0.122845	
0.0990002	
0.0953997	
0.033058	
0.0942514	
0.0555323	
0.00444192	
0.00808211	
0.0281761	
0.0241362	
0.00902318	
-0.0373052	
-0.0840558	
0.115449	
0.0375719	
0.0359081	
0.0228879	
0.129759	
0.0278274	
-0.00909289	
0.0703671	
0.0815539	
0.10834	
-0.337662	
-0.00853473	
-0.0324722	
0.0590335	
0.0669365	
0.154285	
0.0969664	
0.0856138	
0.0772814	
-0.108277	
-0.0680392	
0.0405189	
0.0145723	
-0.0164324	
-0.0615212	
0.100907	
0.0649737	
0.0579847	
0.060533	
-0.0423758	
0.028772	
-0.24236	
-0.226257	
-0.143114	
-0.130129	
0.147395	
-0.0411406	
-0.163207	
0.132916	
-0.0887279	
0.0270684	
-0.141669	
-0.213561	
-0.067704	
-0.0356001	
0.0178189	
-0.0155053	
-0.0961321	
-0.155971	
-0.0859422	
-0.0377883	
-0.023017	
-0.000730135	
-0.142092	
0.133709	
0.011107	
0.0379095	
0.0756352	
-0.102182	
-0.0680229	
-0.0814895	
-0.135875	
-0.209481	
0.125277	
0.113467	
-0.0193643	
0.0329136	
-0.109839	
-0.132499	
0.112926	
0.0388602	
0.0701343	
-0.0278519	
-0.0105556	
-0.116992	
-0.0781595	
-0.304207	
-0.341166	
0.0535516	
-0.240571	
0.0451849	
0.0098253	
-0.135044	
0.137529	
-0.0985193	
-0.086065	
-0.00802118	
-0.0533132	
0.184937	
0.101576	
0.149213	
0.0866475	
0.106741	
0.205221	
0.193298	
-0.0477703	
-0.0403671	
0.0502311	
0.0673851	
-0.337184	
-0.132819	
-0.162392	
-0.376883	
-0.0150594	
0.0527059	
-0.0279923	
-0.0377932	
-0.133585	
-0.108666	
0.0387084	
-0.0107438	
0.00318154	
0.195688	
0.180532	
0.0653597	
0.00389035	
-0.0354648	
0.0893579	
0.120309	
0.0399019	
0.0710422	
0.0257941	
-0.0541095	
0.191813	
0.209355	
0.206806	
0.195181	
-0.193349	
0.186623	
0.165665	
-0.000639313	
-0.0910451	
0.0207383	
0.157128	
0.176088	
0.155885	
0.175764	
0.163323	
0.140811	
0.0646198	
0.0500107	
-0.00118667	
0.004301	
0.117708	
0.124416	
-0.12881	
-0.358969	
-0.336472	
0.039351	
0.0272635	
0.199101	
0.181037	
0.214001	
0.198189	
0.151076	
0.119178	
-0.0700052	
0.112182	
0.143032	
0.126017	
0.142438	
0.144332	
0.16251	
0.156921	
0.136798	
-0.203708	
-0.226045	
0.177616	
0.162951	
0.098502	
0.0582096	
0.144623	
0.143436	
0.205444	
0.192528	
-0.0301079	
-0.0889443	
-0.153771	
-0.0713699	
0.0193846	
0.104917	
0.0480158	
0.112985	
-0.0796014	
-0.0679806	
-0.247144	
0.114555	
0.110985	
0.168782	
0.192796	
-0.0684923	
0.039464	
-0.0368439	
0.0193761	
-0.0483398	
-0.0107059	
0.0606812	
0.0624772	
0.111437	
-0.0263396	
-0.0270411	
-0.0341288	
-0.0388082	
0.204794	
0.178175	
0.181097	
-0.0994739	
-0.146496	
0.0668507	
-0.00625225	
0.0610547	
-0.0375713	
0.0634056	
0.0543789	
-0.0828301	
-0.0914029	
0.0805659	
-0.00405023	
0.00391315	
-0.290807	
-0.00732103	
0.0381875	
0.0791242	
0.0823206	
-0.152987	
-0.164656	
-0.233471	
-0.0137677	
0.0198725	
0.1657	
0.153145	
0.0101168	
0.0671444	
0.0892232	
0.0947344	
0.00117819	
-0.0394602	
-0.0933843	
-0.0949383	
0.194706	
0.183886	
0.187889	
0.0600842	
0.0626479	
0.113743	
0.0573794	
-0.137345	
-0.134628	
-0.191462	
-0.0928029	
-0.0856298	
-0.0140821	
0.112073	
0.113526	
0.0778934	
0.0392186	
-0.170814	
-0.171992	
-0.005624	
-0.0247939	
-0.220553	
-0.193993	
-0.26565	
-0.11703	
0.173292	
0.158737	
0.133412	
0.192332	
0.21114	
-0.070617	
-0.010252	
-0.0649831	
0.0669283	
0.111331	
0.0268078	
0.0720829	
0.103833	
0.130687	
0.10758	
0.133143	
-0.0370284	
-0.0226844	
0.14593	
0.144836	
-0.155024	
-0.129355	
-0.198817	
0.186677	
0.193983	
0.1861	
0.143153	
0.108211	
0.159747	
0.112351	
0.157077	
0.0776656	
0.134935	
0.131808	
0.16568	
-0.0556299	
-0.0454943	
-0.0477843	
0.139556	
-0.0563897	
-0.0758687	
-0.167297	
0.055777	
0.0303885	
-0.234734	
-0.241759	
-0.0523545	
-0.0594581	
0.122038	
0.0703308	
-0.129945	
-0.292846	
-0.257483	
0.178028	
0.177097	
0.161986	
0.176143	
0.174458	
0.0514375	
0.0926707	
0.0355966	
0.0426166	
0.188433	
-0.0348427	
-0.198262	
-0.0409947	
0.0200621	
-0.0170991	
-0.0244306	
0.0162892	
-0.338721	
0.0532489	
0.0624585	
0.142362	
0.110967	
0.157197	
0.125157	
0.14642	
0.136811	
0.130815	
0.025491	
0.0571392	
0.0497945	
0.0765505	
0.130208	
0.109048	
0.0321655	
0.143539	
0.157481	
0.110327	
0.127375	
0.117308	
0.141341	
0.11748	
0.114725	
0.0523356	
0.0547539	
0.128735	
0.11014	
0.118247	
0.0728206	
-0.0639005	
-0.065941	
-0.0431196	
-0.0105583	
-0.0907135	
-0.0259918	
0.0768737	
0.0586883	
0.105526	
0.15808	
0.124592	
0.137992	
0.0860216	
0.0142844	
-0.00671205	
0.0572339	
-0.0152567	
0.0173785	
-0.0284514	
0.0588252	
0.180915	
0.180848	
-0.315894	
-0.276536	
0.125587	
0.116225	
-0.00277831	
-0.0174282	
0.134044	
-0.0720051	
-0.055626	
0.175898	
0.162673	
0.190612	
0.208867	
0.0639313	
0.040961	
0.141684	
0.125786	
0.179221	
0.0214558	
0.0614038	
0.126932	
0.081708	
0.113171	
0.0851891	
0.111694	
0.208363	
0.0313448	
0.0315839	
0.182949	
0.0498126	
0.103628	
0.102185	
0.0327897	
0.00806994	
0.109593	
0.115881	
0.150309	
0.187604	
0.192871	
0.202181	
-0.202698	
0.125971	
0.0755581	
-0.059641	
0.0327365	
0.0698427	
0.147673	
0.14552	
0.198115	
0.189979	
0.158001	
0.149447	
-0.201686	
-0.119608	
-0.0855472	
-0.102121	
0.0831921	
0.0641756	
0.0711169	
-0.0892211	
-0.0606859	
-0.260218	
-0.0821311	
-0.0729939	
-0.130514	
-0.273698	
-0.213154	
-0.146813	
-0.135494	
-0.119568	
-0.101283	
0.146916	
0.135082	
0.0708373	
-0.0628888	
-0.0519894	
-0.137168	
-0.13737	
-0.203423	
-0.200633	
-0.0536408	
-0.0717925	
-0.333645	
-0.0424047	
-0.192838	
0.0878809	
0.0919853	
0.0648354	
0.0667946	
0.172737	
0.172054	
-0.0483674	
-0.0909118	
-0.000416059	
-0.00367475	
0.0469724	
0.0274887	
0.0433493	
0.0264568	
-0.195284	
-0.220973	
-0.159241	
-0.0227781	
0.138143	
0.125545	
0.0629617	
0.0427799	
-0.23978	
-0.221223	
-0.0822802	
-0.184994	
-0.229762	
-0.2068	
-0.259519	
0.20211	
0.185715	
-0.0261937	
-0.0817933	
-0.0599237	
-0.0542556	
-0.0803205	
-0.186043	
-0.169779	
0.0585984	
0.0146766	
-0.15697	
-0.0470554	
-0.253796	
-0.244758	
-0.149332	
-0.130016	
-0.137489	
-0.124538	
-0.148775	
-0.147233	
-0.102618	
-0.101877	
0.148154	
0.0757373	
0.132873	
0.114427	
0.111555	
0.115297	
0.0815529	
-0.230154	
-0.185356	
-0.193638	
-0.204534	
-0.196989	
-0.259603	
-0.268734	
-0.314736	
-0.172223	
-0.111937	
-0.210396	
-0.184695	
-0.283452	
-0.327817	
-0.327257	
-0.362841	
-0.035264	
-0.0378591	
-0.0399233	
-0.0476234	
-0.209521	
-0.216388	
-0.16852	
-0.158661	
-0.125346	
-0.134427	
-0.087568	
-0.30425	
-0.0298991	
-0.0149401	
-0.303943	
-0.261925	
-0.0136149	
-0.0234749	
-0.0284931	
-0.143609	
-0.139505	
-0.019538	
-0.0282872	
-0.071857	
-0.0790891	
-0.171838	
-0.163446	
0.091227	
0.0254067	
0.00547143	
-0.00574455	
0.10008	
0.0523746	
-0.114613	
-0.0905784	
-0.119621	
-0.018339	
-0.279982	
-0.324192	
-0.0977106	
-0.113582	
0.198092	
0.125253	
0.210932	
0.182677	
-0.371993	
-0.365305	
0.0503501	
0.00738884	
-0.308777	
-0.272711	
-0.32646	
-0.292803	
-0.280495	
-0.291236	
-0.21918	
-0.189385	
-0.313042	
-0.354934	
-0.354079	
-0.346856	
-0.344727	
-0.177653	
-0.12399	
-0.0988193	
-0.29623	
-0.322951	
-0.349847	
-0.237839	
0.190881	
0.159778	
0.210944	
0.194365	
-0.324182	
-0.295931	
-0.212653	
-0.200796	
-0.187413	
-0.00722931	
-0.00786009	
-0.296076	
-0.295622	
-0.330403	
-0.299981	
-0.32254	
-0.0591089	
-0.0698481	
-0.0822499	
-0.104184	
-0.210484	
-0.252208	
-0.211287	
-0.237274	
-0.26614	
-0.298142	
0.210099	
0.186232	
0.18439	
0.145642	
-0.248566	
-0.128628	
-0.116978	
-0.129772	
0.181857	
0.139417	
0.161971	
0.0824829	
-0.347275	
0.0815218	
0.125594	
0.11453	
0.135574	
-0.332241	
-0.351157	
-0.335338	
-0.33929	
-0.330754	
-0.337014	
-0.29648	
-0.110236	
-0.100417	
-0.0989543	
-0.0990384	
0.139955	
0.197352	
0.136574	
0.19504	
0.128913	
0.11982	
0.122813	
0.0733423	
-0.252035	
-0.272899	
-0.252004	
-0.237637	
-0.340094	
-0.354866	
-0.341614	
-0.348153	
0.0778734	
0.13688	
0.082062	
0.138413	
0.163931	
0.130753	
0.151416	
0.0940268	
0.112244	
0.0883053	
0.111487	
0.0875666	
0.174144	
0.202334	
0.205708	
0.210492	
0.221331	
0.137343	
0.231801	
0.234074	
0.236878	
0.244967	
0.249317	
0.254692	
0.228989	
0.191263	
0.16934	
0.0429739	
0.256336	
-0.013251	
-0.00909612	
-0.0398752	
0.183263	
0.249304	
0.234429	
0.265427	
0.26145	
0.268139	
0.256076	
0.262851	
0.253467	
0.245928	
0.167227	
0.217743	
0.196901	
0.218098	
0.188924	
0.149371	
0.216718	
0.158643	
0.101663	
0.25696	
0.235474	
0.23441	
0.0943393	
-0.0442044	
0.24886	
-0.027007	
-0.0484428	
0.00930855	
0.0666362	
0.0381686	
-0.0426512	
0.0364803	
-0.00319754	
0.0669881	
-0.0614718	
0.01046	
0.0616699	
0.077665	
0.0337382	
-0.00929927	
-0.0512277	
0.205226	
-0.0300831	
0.173668	
0.0986825	
0.104804	
0.0814476	
0.0409771	
0.0473314	
0.0648722	
0.0746719	
0.0124046	
0.0534965	
0.00639244	
0.0327304	
0.0135183	
0.0274684	
0.0292006	
0.0422326	
0.0790107	
0.04496	
0.0499972	
0.0603555	
0.0823879	
0.038688	
-0.0303666	
-0.0332066	
0.015311	
-0.0088342	
-0.0157525	
0.0281073	
0.0565745	
0.0514985	
-0.00255687	
-0.027246	
-0.0354678	
-0.0150786	
0.0273026	
-0.0686762	
-0.047968	
-0.0638226	
0.16556	
0.18586	
0.182865	
0.222026	
0.0105384	
0.0989281	
0.152568	
0.159894	
0.188981	
0.000326296	
0.148917	
0.125642	
-0.0578855	
-0.0385555	
-0.030044	
0.128483	
-0.031167	
0.142855	
-0.00333701	
0.203027	
0.207242	
-0.0688473	
0.0761862	
0.0400723	
0.0027215	
0.0737529	
0.0159688	
0.244908	
0.228597	
0.221821	
-0.0498692	
0.080833	
0.215451	
-0.0133849	
-0.0165257	
0.205239	
0.228208	
0.00743756	
0.0488524	
0.195288	
0.138508	
-0.0615827	
-0.0495366	
0.107013	
-0.022398	
-0.0173265	
-0.00755607	
-0.00122893	
0.251117	
0.206931	
0.210584	
0.126759	
0.162413	
0.242255	
0.273356	
0.254349	
0.0576596	
0.167319	
0.242643	
0.192702	
0.106659	
0.128628	
0.140067	
0.159063	
0.00596204	
0.116822	
0.0803344	
0.0947608	
0.0621729	
0.117337	
0.115397	
0.186055	
0.146089	
0.191059	
0.115306	
0.15529	
0.127285	
0.164395	
0.113702	
0.121105	
0.152543	
0.20562	
0.140074	
0.150594	
0.15883	
0.158311	
0.140565	
0.264114	
0.266572	
0.277393	
0.264855	
0.280705	
0.247673	
0.109965	
-0.0243041	
0.0226826	
0.0279387	
0.120017	
0.230274	
0.176783	
0.110201	
0.183133	
0.168496	
0.121654	
0.235041	
0.26932	
0.274594	
0.228518	
0.248024	
0.258152	
0.277136	
0.262335	
0.25179	
0.276767	
0.260345	
0.260892	
0.270053	
0.24446	
0.241275	
0.267084	
0.266822	
0.274099	
0.103841	
0.278163	
0.226257	
0.244138	
0.199426	
0.22595	
0.268347	
0.270456	
0.273653	
0.204587	
0.195834	
0.224788	
0.207772	
0.218267	
0.217542	
0.19578	
-0.0462906	
-0.0514591	
0.23739	
0.224112	
0.250714	
0.226987	
0.201971	
0.181688	
0.200316	
0.256755	
0.231098	
0.230942	
0.240591	
0.166519	
0.209884	
0.0813399	
0.261962	
0.248289	
0.0932644	
0.186027	
0.162066	
0.232192	
0.124614	
0.129929	
0.203143	
0.14712	
0.272862	
0.132081	
0.129982	
0.158872	
0.221925	
0.193101	
0.180115	
0.266553	
0.04821	
0.107547	
0.0417625	
0.0772353	
0.190855	
0.182192	
0.153049	
0.182446	
-0.0217171	
0.256924	
0.238955	
-0.00433687	
0.0055327	
-0.0192426	
0.000978967	
0.114012	
0.086142	
0.158216	
0.160613	
0.184698	
0.147061	
0.185535	
0.00688643	
0.154964	
0.126858	
0.170094	
-0.0381508	
-0.051575	
-0.0427819	
-0.0510013	
0.114116	
0.110754	
0.141849	
0.131635	
0.148695	
0.0850125	
0.093111	
0.19671	
0.176255	
0.200438	
0.212402	
0.155101	
0.10232	
0.0902054	
0.0967756	
0.0699332	
0.279636	
0.169565	
0.197758	
0.150459	
0.167975	
0.114963	
0.144671	
0.113054	
0.154295	
0.13937	
0.0161668	
0.204513	
0.21312	
0.176142	
0.237191	
0.235836	
0.148326	
0.175117	
0.122885	
0.126696	
-0.0539221	
-0.0386597	
-0.0629486	
-0.0615874	
0.101183	
0.205186	
0.237849	
0.207858	
0.195196	
0.20697	
0.166632	
0.21779	
0.214597	
0.213416	
0.203105	
0.046025	
0.104219	
0.263681	
0.239608	
0.266637	
0.201008	
0.190873	
0.264948	
0.265707	
0.229474	
0.242762	
0.258272	
0.200635	
0.228066	
0.17071	
0.176016	
0.185994	
0.247514	
0.234125	
0.248482	
0.220816	
0.263002	
0.22894	
0.249464	
0.000185461	
0.183201	
0.194847	
0.162057	
0.236968	
0.238484	
0.230523	
0.224956	
0.243174	
0.254063	
0.104809	
0.134263	
0.122435	
0.139516	
-0.0537865	
0.214554	
0.179657	
0.183515	
0.112438	
0.144327	
0.148251	
0.169751	
0.155766	
0.165013	
-0.0440828	
-0.0328713	
-0.0479852	
-0.0303974	
0.243038	
0.204424	
0.243127	
0.208077	
0.0784019	
0.21477	
0.222845	
0.22035	
0.247783	
0.229983	
0.259245	
0.146119	
0.131574	
0.217459	
0.212802	
0.221253	
0.18274	
0.186676	
0.0242563	
0.0689936	
0.264295	
0.224074	
-0.0208547	
0.189969	
0.21773	
0.224746	
0.226044	
0.207868	
0.201273	
0.198849	
0.255977	
0.258712	
0.251069	
0.150317	
0.261299	
0.265791	
0.0550225	
0.0798263	
0.0787285	
0.220443	
0.221864	
0.222288	
0.264446	
-0.0674568	
-0.0615593	
0.256798	
0.252492	
0.24311	
0.219695	
-0.06223	
-0.0566196	
0.162896	
0.15014	
0.112829	
0.114906	
0.220145	
0.0709142	
0.0856091	
0.152518	
0.15327	
0.170188	
0.168518	
0.266	
0.259461	
0.00195794	
0.0170135	
0.0768877	
0.0429734	
0.100842	
0.107077	
0.135865	
0.179792	
0.177233	
0.16552	
0.158943	
0.274187	
0.261541	
0.234885	
0.250916	
0.26573	
0.0837289	
0.0773437	
0.203326	
0.201964	
0.189549	
0.188958	
0.0245009	
0.0452381	
0.265687	
0.266074	
0.206321	
0.203618	
0.145235	
0.107001	
0.154576	
0.0999523	
0.223833	
0.230137	
0.205951	
0.207114	
0.212508	
0.211057	
0.20552	
0.189464	
0.266049	
0.267296	
0.250491	
0.170919	
0.172048	
0.197936	
0.194184	
0.160774	
0.167264	
0.237323	
0.242764	
0.157409	
0.174627	
0.26189	
0.26579	
0.183776	
0.226896	
0.234879	
0.215088	
0.184818	
0.223614	
0.270567	
0.26385	
0.240962	
0.241592	
0.232734	
0.241852	
0.1293	
0.186951	
0.125571	
0.264178	
0.274549	
0.261468	
0.256041	
0.0966942	
0.0679745	
0.0711828	
0.0529128	
0.262171	
0.256756	
0.26635	
0.272889	
0.00520649	
0.257464	
0.266748	
0.263011	
0.25582	
0.124874	
0.163619	
0.266702	
0.274915	
0.26578	
0.117972	
0.130749	
0.136382	
0.145284	
0.195853	
0.192042	
0.185424	
0.188915	
0.268859	
0.166713	
0.163641	
0.214344	
0.214264	
-0.0101465	
-0.0194059	
0.247619	
0.261996	
0.261981	
0.192324	
-0.00859038	
0.232726	
0.228911	
0.23957	
0.241083	
0.177644	
0.269182	
0.267718	
0.0402843	
0.0109704	
0.184718	
-0.0656139	
-0.0588112	
-0.0649727	
0.177088	
0.0653542	
0.0263558	
0.0503406	
0.025318	
0.239451	
0.120242	
0.161079	
0.262235	
0.246836	
0.262847	
0.263115	
0.266514	
-0.00385787	
-0.0248381	
0.235678	
0.219692	
0.267091	
0.25819	
0.0214213	
0.181315	
0.165746	
0.133697	
0.20409	
0.17492	
0.225056	
0.216957	
0.128066	
0.120668	
0.26387	
0.27335	
0.0653672	
0.0541337	
0.245343	
0.253572	
0.266516	
0.265644	
0.272501	
0.265664	
-0.0588651	
-0.0614261	
0.0986632	
0.0984273	
0.0223896	
0.0143761	
0.00954688	
0.243635	
0.244862	
0.217018	
0.228154	
0.210749	
0.217611	
0.272556	
0.194096	
0.258812	
0.244121	
0.239132	
0.125008	
0.0689672	
0.270258	
0.262036	
-0.036537	
-0.00571901	
0.0113718	
0.0636347	
0.213011	
0.14302	
0.246934	
0.240492	
0.058884	
0.0817334	
0.0353743	
0.243237	
0.158331	
0.162098	
0.253941	
0.252318	
0.0903432	
0.0706633	
-0.0139512	
-0.0157662	
0.196268	
0.200165	
0.182562	
0.191549	
0.240618	
0.203993	
0.179263	
0.225714	
0.218722	
0.198714	
0.00960588	
0.0569177	
0.0505776	
0.127407	
0.0726812	
0.180439	
0.210779	
0.260286	
0.0973186	
0.0975708	
0.209511	
0.19791	
0.250678	
0.123053	
0.124789	
0.0924244	
0.0298638	
0.0171071	
0.0444122	
0.0163108	
0.0427476	
0.163732	
0.194649	
0.191551	
0.216689	
0.0690943	
0.0532133	
0.0924258	
0.0762545	
0.164098	
0.163108	
0.176487	
0.173819	
0.163635	
0.179485	
0.179783	
-0.0689037	
-0.0239219	
-0.0631748	
-0.0487651	
-0.0277258	
0.131522	
0.134595	
-0.0644594	
0.110663	
0.120823	
0.0909782	
0.123803	
0.110993	
0.0327999	
-0.0391545	
0.0742372	
0.134878	
-0.0689269	
0.11115	
-0.0628151	
-0.0691514	
-0.0681705	
0.0349341	
0.070856	
0.261172	
0.2375	
0.2656	
0.239599	
0.267445	
0.267424	
0.134247	
0.0866363	
0.274742	
0.262796	
0.148308	
0.192782	
0.143228	
0.189429	
0.0446817	
0.060416	
0.209871	
0.092212	
0.0860376	
-0.0650651	
0.169061	
0.0890525	
0.0890981	
0.0542812	
0.176811	
0.258178	
0.267867	
0.190779	
0.017813	
0.0115066	
0.164506	
0.193669	
0.226844	
0.217595	
-0.052045	
-0.0379736	
0.267826	
0.262639	
0.248166	
-0.035766	
0.264597	
0.184141	
0.186476	
0.202606	
0.191776	
0.129406	
0.082143	
0.267974	
0.254445	
0.166477	
0.169314	
0.233417	
0.244466	
0.213345	
0.0554909	
0.0672644	
0.232354	
0.257882	
0.230908	
0.0800706	
0.204109	
0.208206	
0.120554	
0.215569	
0.247238	
-0.0693671	
0.219111	
0.216634	
0.209507	
0.262588	
0.246061	
0.137161	
0.267174	
0.134863	
0.16632	
0.141514	
0.143755	
0.116711	
0.274876	
0.248805	
0.263765	
0.275258	
0.264021	
0.264705	
0.247562	
0.249755	
0.243344	
0.240121	
0.199806	
0.217348	
0.255696	
0.250599	
0.0696694	
0.0481043	
0.24032	
0.253314	
0.270824	
0.251505	
0.269463	
0.0615263	
0.0721568	
0.0696172	
0.0879262	
0.267933	
0.262293	
0.199283	
0.222076	
0.219496	
0.13842	
0.138751	
-0.0661319	
-0.0632189	
0.126863	
0.112025	
0.108844	
0.113013	
0.109784	
0.109494	
0.0847332	
0.258669	
-0.0534252	
-0.0541283	
-0.068613	
-0.0702792	
0.209135	
0.157277	
0.156444	
0.248958	
-0.0709581	
-0.0661653	
-0.0489515	
-0.0526694	
-0.0678215	
-0.0684201	
0.214547	
0.216199	
0.205359	
0.201799	
-0.0296967	
-0.0122621	
-0.0366665	
-0.0209973	
0.119832	
0.123035	
0.0938611	
0.192455	
0.218153	
0.252665	
0.24089	
0.246887	
0.249404	
0.249367	
0.238162	
0.226456	
0.234368	
0.203577	
0.19798	
0.221484	
0.216907	
0.0999423	
0.0890005	
0.0996359	
0.0392263	
-0.00521288	
0.099003	
0.066809	
-0.0583535	
-0.0403482	
-0.0654624	
0.0705403	
0.169918	
0.117605	
0.114496	
0.0583519	
0.0442996	
-0.0240427	
-0.0442932	
0.224283	
0.22356	
0.0595071	
0.105289	
0.0851379	
0.249036	
0.255252	
0.237724	
0.243598	
0.259181	
0.226281	
0.223987	
0.0838131	
0.0711031	
0.121179	
0.102064	
0.125423	
0.115739	
-0.00359814	
0.0218729	
0.102179	
0.106565	
0.170702	
0.173348	
0.117997	
0.107677	
0.0823499	
0.0791176	
0.175964	
0.173214	
0.160963	
0.125271	
0.160009	
0.166451	
0.231443	
0.244796	
0.157803	
0.147838	
0.120656	
0.16225	
0.186746	
-0.0214002	
0.027414	
-0.0286391	
0.247561	
0.246884	
0.229089	
0.213806	
0.180726	
0.159338	
0.177134	
0.175735	
-0.0365883	
-0.042187	
-0.055986	
-0.0585354	
0.0459039	
0.0721085	
0.0846696	
0.167364	
0.143851	
0.180458	
0.186038	
0.204149	
0.182033	
0.253423	
0.248479	
0.223539	
0.232995	
0.232192	
0.233442	
-0.0477636	
-0.0535224	
-0.0348453	
-0.0399718	
0.173756	
0.152386	
0.16569	
0.164679	
0.0324152	
0.0885402	
0.0866456	
0.0777976	
0.0827627	
0.242941	
0.256627	
0.0517948	
0.0215354	
0.260878	
0.259499	
0.24622	
0.262509	
0.258418	
0.260985	
0.010406	
0.236248	
0.234685	
0.194418	
0.0872826	
0.076567	
0.062772	
0.0664674	
0.140103	
0.144668	
0.226116	
0.246355	
0.256056	
0.257768	
0.172499	
0.167579	
0.0841088	
0.0930382	
0.230775	
0.221835	
0.0541246	
0.071663	
0.122272	
0.10256	
0.126467	
0.147392	
0.10364	
0.114509	
0.115955	
0.077781	
0.0145849	
0.0418147	
0.0937468	
0.0755619	
0.250069	
0.267126	
-0.0171622	
0.136641	
0.109177	
0.26049	
0.258567	
0.0576706	
0.0656681	
0.0976547	
0.0733255	
0.079234	
0.082216	
0.0233641	
0.0529817	
0.0853195	
0.0737807	
0.13289	
0.122974	
0.0711958	
0.0472942	
0.0857011	
0.0574908	
0.220781	
0.222548	
0.163742	
0.178688	
0.143433	
0.134031	
0.0404934	
0.0097977	
-0.0483535	
-0.00217311	
0.0138121	
0.0182217	
-0.00838081	
0.160882	
-0.0212712	
0.135707	
0.137435	
-0.0173956	
-0.0441807	
-0.0351116	
-0.0435501	
0.110295	
0.117889	
0.0401641	
0.0359506	
0.0321357	
0.185311	
0.157365	
0.264095	
0.258969	
0.100462	
0.0812816	
0.0715283	
0.0696259	
0.0819207	
0.121656	
0.118503	
0.144342	
0.143788	
0.0577896	
0.0604998	
0.0165504	
0.00728438	
0.0819946	
0.0584904	
0.0614756	
0.0383891	
0.0946403	
0.0966273	
0.0847406	
0.0782845	
0.0870534	
0.0856533	
0.0529996	
0.270587	
0.267786	
0.264302	
0.268727	
0.094866	
0.0991793	
0.0870665	
0.0923311	
0.090578	
0.0930239	
0.0900741	
-0.0157718	
0.00139712	
-0.00697604	
0.00958587	
0.0268733	
0.0381578	
0.0182005	
0.00796498	
-0.0119829	
-0.00348448	
0.00438555	
0.0338767	
0.0199801	
0.0243839	
0.0125758	
0.00417008	
0.0204372	
0.00291252	
0.0123479	
-0.0102787	
-0.0176169	
-0.0135345	
-0.0045855	
0.0272265	
0.0251241	
0.0187921	
0.0108275	
-0.0145069	
-0.0098659	
-0.00404292	
0.00264477	
0.0333633	
-0.0644345	
-0.0502093	
0.00372309	
0.0324133	
-0.0268443	
-0.0318242	
-0.00953953	
0.0294757	
0.0231466	
0.00247158	
-0.0525322	
0.000952327	
-0.0305557	
-0.0741378	
-0.0567304	
0.0305538	
0.0146323	
-0.00627891	
-0.0684157	
-0.0435912	
-0.0191677	
0.0237355	
0.1367	
0.175301	
0.173709	
0.116786	
0.143044	
-0.0265867	
0.0752644	
0.143333	
0.055167	
0.0964423	
0.130141	
0.0487744	
0.0400129	
0.120327	
0.121294	
0.0958367	
0.0970428	
0.0790923	
0.105128	
0.128472	
0.174466	
0.176364	
-0.0602196	
-0.066022	
-0.0502228	
-0.0496141	
0.00384091	
0.0252867	
0.0124076	
0.166236	
0.151993	
0.156256	
0.0480472	
0.163858	
0.155084	
0.172444	
0.173409	
0.170098	
0.163514	
0.1711	
0.171759	
-0.0542005	
-0.0398638	
0.146299	
0.152086	
0.137427	
0.161737	
0.160755	
0.166272	
0.159514	
0.148496	
0.14795	
0.171164	
0.15623	
0.175076	
0.177014	
0.104591	
0.110275	
0.129694	
0.17566	
0.177095	
-0.0379988	
-0.0197328	
0.0110535	
-0.00284579	
-0.0271168	
-0.00417058	
-0.0243453	
0.0581202	
0.0374293	
0.0804425	
0.0768886	
0.120333	
0.137862	
0.113796	
0.132804	
0.102542	
0.161939	
0.165913	
0.128287	
0.093862	
-0.155473	
-0.0324153	
0.0309861	
0.0660093	
-0.0265802	
0.0332456	
0.0451303	
-0.0313366	
0.0592393	
0.0324851	
-0.00395942	
-0.00679515	
0.00734753	
0.034416	
0.0440194	
0.13558	
0.157191	
-0.153319	
-0.175788	
-0.128123	
-0.131522	
-0.112695	
-0.0951695	
-0.0850496	
0.0846931	
0.113743	
0.0924994	
-0.0688446	
-0.0802428	
0.128515	
0.119865	
0.140174	
0.128257	
0.129753	
0.139982	
0.133008	
0.125116	
-0.162697	
-0.170283	
0.0718607	
0.0868415	
0.103429	
0.106389	
0.0832619	
0.0874159	
0.111079	
0.116511	
0.153832	
0.152487	
0.160098	
0.164595	
0.0463284	
0.100003	
0.0724801	
0.165216	
0.159943	
-0.148269	
-0.146743	
-0.121871	
-0.11596	
-0.111649	
-0.146318	
-0.124882	
-0.02	
-0.066565	
-0.0375301	
-0.0680457	
0.0370195	
0.0697833	
0.015072	
0.0696291	
0.0464052	
-0.0485806	
0.0733638	
0.16623	
0.218687	
0.213025	
0.212128	
0.191751	
0.207591	
0.196608	
0.186301	
0.208104	
0.201509	
0.205819	
0.193523	
0.201188	
0.196544	
0.1747	
0.155572	
0.176094	
0.185529	
0.181276	
0.214207	
0.175519	
0.206383	
0.20506	
0.19144	
0.211041	
0.198019	
0.206172	
0.0917927	
0.0980558	
-0.0942862	
-0.017559	
0.20335	
0.170933	
0.213392	
0.156848	
0.193313	
0.0970113	
0.172984	
0.183901	
0.213497	
-0.205171	
0.175813	
0.208886	
0.188476	
0.195015	
0.110627	
0.102984	
0.147615	
0.100656	
0.131556	
-0.00222694	
-0.356242	
0.0206261	
0.120073	
0.127681	
-0.0682299	
-0.0257274	
0.0221216	
0.0518722	
-0.244325	
-0.324117	
-0.334035	
-0.340485	
-0.194129	
-0.0010581	
-0.00937615	
-0.230039	
-0.264623	
-0.147766	
-0.000970526	
-0.257151	
-0.290353	
-0.327911	
-0.329111	
-0.162521	
0.0116281	
-0.0840074	
-0.342097	
-0.339982	
-0.0801416	
0.177492	
0.0898994	
0.172032	
-0.343283	
-0.0472634	
0.143068	
-0.0339149	
-0.00520503	
0.154877	
-0.243244	
-0.026108	
-0.0876649	
-0.130921	
-0.203963	
-0.0627944	
0.15946	
-0.0946611	
0.0977753	
-0.0978907	
0.120088	
0.0867508	
0.0299006	
0.0717461	
-0.238781	
-0.221543	
0.0828953	
-0.00518236	
-0.101651	
-0.0378379	
-0.134902	
-0.100868	
-0.249379	
-0.0731428	
-0.0750991	
-0.157356	
0.153056	
-0.151711	
-0.322146	
0.126332	
-0.318466	
-0.316135	
-0.00208233	
0.0556364	
-0.31391	
-0.121672	
-0.177777	
-0.136996	
0.198746	
0.112542	
0.122386	
0.122101	
0.052959	
0.0537084	
-0.00778238	
0.0430097	