<VTKFile type="UnstructuredGrid" version="0.1" byte_order="LittleEndian">
	<UnstructuredGrid>
		<Piece NumberOfPoints="3959" NumberOfCells="7450">
			<CellData Scalars="scalars">
				<DataArray type="Float64" Name="Doublet Strengths" NumberOfComponents="1" Format="ascii">
-0.070342	
-0.055078	
0.00119581	
0.0313619	
-0.0305583	
-0.0404645	
-0.0167162	
0.0263163	
0.0184043	
-0.00370005	
-0.0628143	
0.00387705	
-0.0265393	
-0.0684849	
-0.051824	
0.0317012	
0.0195047	
9.29136e-05	
-0.0583092	
-0.0349772	
-0.0118629	
0.0270036	
0.134135	
0.171362	
0.169756	
0.112737	
0.132484	
-0.109671	
0.0310879	
0.119177	
0.031519	
0.0832613	
0.105639	
0.00930088	
-0.00620118	
0.0878583	
0.0931729	
0.0614828	
0.0598462	
0.059504	
0.0804202	
0.105059	
0.162485	
0.170234	
-0.0933919	
-0.104582	
-0.10263	
-0.147053	
-0.0581724	
-0.0336308	
-0.020321	
0.151812	
0.132688	
0.137359	
-0.00125683	
0.149759	
0.146309	
0.158663	
0.161941	
0.15532	
0.160346	
0.157384	
0.160656	
-0.125916	
-0.171229	
0.122273	
0.128934	
0.110233	
0.142775	
0.142049	
0.156282	
0.148484	
0.131099	
0.132507	
0.165599	
0.151622	
0.170465	
0.170496	
0.0865797	
0.100402	
0.120998	
0.17172	
0.171061	
-0.0875346	
-0.0894948	
-0.0407935	
-0.0428483	
-0.0628291	
-0.0533138	
-0.0830752	
0.0303742	
0.00392567	
0.051205	
0.0419167	
0.0969065	
0.120483	
0.0945146	
0.117231	
0.105363	
0.163587	
0.167189	
0.129313	
0.101117	
-0.0738396	
0.00978832	
0.0569874	
0.0878729	
-0.00422538	
0.0498039	
0.0675973	
0.00184835	
0.0840572	
0.0626413	
0.0311051	
0.025545	
0.0256157	
0.0559867	
0.065467	
0.145062	
0.160935	
-0.101775	
-0.0800941	
-0.0958081	
-0.0939224	
-0.0621003	
-0.0377034	
-0.0534679	
0.101797	
0.12595	
0.109111	
-0.0211789	
-0.0355182	
0.136409	
0.126807	
0.148967	
0.140326	
0.140976	
0.14274	
0.141794	
0.136421	
-0.0919746	
-0.0401932	
0.0935406	
0.107456	
0.119641	
0.122771	
0.0986504	
0.100947	
0.123009	
0.125572	
0.154967	
0.155869	
0.163838	
0.166329	
0.0583217	
0.108905	
0.0811051	
0.166638	
0.163421	
-0.0797894	
-0.0890181	
-0.0612636	
-0.0811591	
-0.0726569	
-0.0977116	
-0.0768171	
0.00758478	
-0.0286379	
-0.0111956	
-0.0358995	
0.0547489	
0.0836831	
0.0380415	
0.085199	
-0.00813081	
-0.179611	
0.027174	
0.167251	
0.215745	
0.207393	
0.207549	
0.190611	
0.202813	
0.192711	
0.18347	
0.20542	
0.199222	
0.200034	
0.182862	
0.194174	
0.190464	
0.169827	
0.162723	
0.171157	
0.179835	
0.175425	
0.208324	
0.174649	
0.197733	
0.198412	
0.184293	
0.203534	
0.192972	
0.204791	
0.115379	
0.108058	
-0.032223	
0.0111838	
0.196091	
0.175855	
0.210448	
0.164994	
0.187438	
0.0566913	
0.178142	
0.184322	
0.207566	
-0.253672	
0.178184	
0.202132	
0.189834	
0.194854	
0.133163	
0.125939	
0.157692	
0.123994	
0.145474	
-0.0753926	
-0.277409	
-0.0435889	
0.0866503	
0.0949875	
-0.233268	
-0.111946	
-0.0395481	
-0.002819	
-0.367502	
-0.17763	
-0.221795	
-0.376784	
-0.221089	
-0.0305884	
-0.0860865	
-0.302538	
-0.344872	
-0.204225	
-0.0723655	
-0.315832	
-0.353103	
-0.385479	
-0.392564	
-0.30684	
-0.0541936	
-0.144742	
-0.385947	
-0.375172	
-0.0993048	
0.162677	
0.102986	
0.152322	
-0.226358	
0.00972784	
0.115728	
0.0255634	
0.018733	
0.128815	
-0.0855181	
0.039142	
-0.108284	
-0.154204	
-0.299797	
-0.0351142	
0.134643	
-0.0527612	
0.0600825	
-0.0146585	
0.0843985	
0.0417135	
0.0249742	
0.0683887	
-0.284146	
-0.261285	
0.053946	
0.036481	
-0.0192663	
0.0268453	
-0.0803007	
-0.0252181	
-0.288416	
-0.129778	
-0.128081	
-0.0814625	
0.141594	
-0.0649741	
-0.152282	
0.100459	
-0.169584	
-0.177726	
0.0493947	
0.0828079	
-0.226194	
-0.142037	
-0.197748	
-0.0411227	
0.186108	
0.0841346	
0.0875864	
0.0868676	
0.00697323	
0.00696119	
-0.0233601	
0.0293173	
-0.303055	
-0.206743	
0.152916	
0.12917	
0.127738	
0.139452	
-0.101308	
-0.076122	
-0.0779173	
-0.033753	
-0.0206022	
0.00820024	
0.16385	
0.0516936	
0.0823548	
0.172207	
0.167449	
0.0767314	
-0.248306	
0.188715	
0.108818	
-0.0559431	
-0.124235	
0.178289	
0.199173	
0.0556045	
0.152975	
-0.279092	
-0.19298	
0.114776	
0.111345	
0.124611	
0.0232388	
0.193865	
0.170173	
0.150368	
0.153452	
0.137223	
0.1611	
0.185415	
0.181525	
0.160304	
-0.0332574	
0.0375591	
0.146157	
0.162245	
0.146606	
0.179122	
0.188879	
0.0563785	
0.169621	
0.0818795	
0.0621422	
0.053352	
0.0597747	
0.11921	
0.186601	
0.106806	
0.0805753	
0.0552431	
0.062532	
0.116745	
0.11927	
0.137071	
0.135687	
0.0602906	
0.00626187	
0.0214749	
-0.0278515	
0.187611	
0.206965	
0.188434	
0.181601	
0.193352	
0.0989401	
0.101709	
0.18288	
0.104434	
-0.206894	
0.0849175	
0.0174592	
0.0704388	
0.0838032	
0.174559	
0.0257989	
-0.102174	
-0.071654	
0.0574136	
0.0590368	
0.0215324	
0.148827	
0.178756	
0.100714	
0.0945734	
0.184389	
0.14289	
0.0933827	
0.035903	
0.0278289	
0.0604232	
0.063504	
0.0119264	
0.140791	
0.146446	
-0.339065	
-0.297168	
-0.193856	
-0.154129	
-0.09132	
0.116978	
0.108363	
0.128523	
0.161813	
0.148895	
0.12491	
0.181886	
-0.184966	
-0.194775	
-0.36034	
-0.329829	
0.0453835	
-0.0895546	
0.0321839	
-0.326783	
-0.352862	
0.00212952	
-0.0126177	
0.00961945	
0.000192419	
-0.111437	
-0.0716072	
-0.0637464	
-0.0156731	
0.017237	
-0.00425498	
0.0635606	
0.08399	
0.108564	
-0.0114326	
-0.0422734	
-0.0112935	
-0.0299419	
-0.0106945	
0.0333639	
0.10995	
0.110302	
0.0917066	
0.0225576	
0.000352116	
-0.0746963	
0.134725	
0.0957306	
0.0185266	
0.00516659	
0.191055	
-0.214984	
0.061236	
-0.0208227	
-0.0325361	
0.210651	
0.190388	
0.202642	
-0.214919	
-0.167616	
-0.112919	
-0.00288271	
-0.123315	
-0.0729996	
0.198601	
0.183783	
0.138899	
0.114282	
0.0651408	
-0.0642256	
-0.136138	
-0.0887454	
0.178802	
0.0279518	
-0.387801	
-0.390602	
-0.388908	
-0.216742	
0.0596899	
-0.000925517	
-0.00457096	
0.0153638	
0.0149213	
0.0223004	
-0.0157409	
0.124511	
0.11973	
-0.140966	
-0.0723271	
-0.195298	
-0.131685	
-0.0504492	
-0.166106	
-0.0764868	
0.0418273	
-0.264019	
-0.246569	
0.135891	
0.0605617	
0.106316	
-0.0412569	
-0.00366242	
0.154731	
0.155956	
0.137132	
0.154381	
0.141873	
0.0743775	
0.0519378	
0.137233	
0.044346	
0.196089	
0.185661	
-0.11567	
-0.248358	
0.181033	
0.177596	
0.187561	
0.0183078	
0.1892	
0.200783	
0.187129	
0.197044	
0.205933	
0.190604	
-0.228025	
-0.25683	
0.206199	
0.18777	
0.193601	
0.180814	
-0.356525	
0.0358334	
0.00749953	
0.0212457	
0.189573	
0.172321	
0.157134	
0.179522	
0.0616323	
0.0637351	
0.0134915	
0.0167119	
0.131748	
-0.142243	
0.027936	
0.0717599	
-0.0607375	
0.144373	
0.153724	
0.125119	
0.0915234	
0.201949	
0.0351945	
0.0813076	
-0.0242755	
-0.0107199	
0.103315	
0.128003	
0.135295	
0.0470436	
-0.0672605	
-0.0426151	
-0.0239354	
0.0173527	
0.0539617	
0.0838089	
-0.0275563	
0.0348373	
-0.0219135	
0.196637	
0.181592	
0.066554	
-0.00875569	
0.0858888	
0.147572	
-0.00537348	
-0.118948	
-0.00844463	
-0.121196	
0.102855	
-0.0356312	
-0.0395483	
-0.0241733	
0.122515	
0.0934499	
0.089781	
0.0328951	
0.094198	
0.0553521	
0.00408194	
0.00775022	
0.0278791	
0.0220356	
0.00672333	
-0.0398462	
-0.0869645	
0.115324	
0.03734	
0.035601	
0.0225433	
0.128343	
0.0254541	
-0.0140195	
0.0662986	
0.0775623	
0.104794	
-0.344805	
-0.0110571	
-0.0351497	
0.0571027	
0.0651177	
0.150407	
0.0913324	
0.0796771	
0.0712204	
-0.113256	
-0.0725928	
0.0356629	
0.0093022	
-0.021897	
-0.0674914	
0.0955376	
0.0640854	
0.0570337	
0.0592282	
-0.0473955	
0.0283786	
-0.250298	
-0.233786	
-0.150161	
-0.136912	
0.143182	
-0.0463417	
-0.169418	
0.128297	
-0.0934135	
0.0259843	
-0.14555	
-0.217866	
-0.0684208	
-0.036283	
0.0151353	
-0.0184737	
-0.0997201	
-0.160402	
-0.089745	
-0.0413124	
-0.0244789	
-0.00209803	
-0.150364	
0.130302	
0.0077637	
0.0348265	
0.0734728	
-0.107545	
-0.073001	
-0.0865056	
-0.141354	
-0.215552	
0.120444	
0.108349	
-0.021574	
0.031141	
-0.113376	
-0.136141	
0.109803	
0.0361599	
0.0676959	
-0.0311654	
-0.0137671	
-0.121002	
-0.0818725	
-0.31215	
-0.349572	
0.0469175	
-0.249205	
0.0447611	
0.0029721	
-0.14317	
0.133007	
-0.0996689	
-0.0890851	
-0.0144002	
-0.0602941	
0.182822	
0.096025	
0.145011	
0.0807225	
0.10122	
0.202762	
0.19024	
-0.0529761	
-0.0454833	
0.0460398	
0.0634459	
-0.343086	
-0.137253	
-0.16701	
-0.385737	
-0.0194398	
0.0490048	
-0.0329279	
-0.0428489	
-0.13948	
-0.114362	
0.0322751	
-0.0110545	
0.0028972	
0.193597	
0.178123	
0.064137	
0.00214329	
-0.0374688	
0.0854101	
0.116834	
0.0385208	
0.0705488	
0.0250822	
-0.0550892	
0.189276	
0.207326	
0.204406	
0.19236	
-0.196305	
0.18518	
0.163754	
-0.0038329	
-0.0916728	
0.0160216	
0.155756	
0.175083	
0.154199	
0.174475	
0.162642	
0.13968	
0.0641542	
0.0494454	
-0.00191673	
0.00355885	
0.117395	
0.124165	
-0.131721	
-0.36641	
-0.343968	
0.0391196	
0.0270055	
0.19726	
0.17876	
0.21221	
0.195941	
0.148052	
0.115561	
-0.0740988	
0.107335	
0.138964	
0.125522	
0.142207	
0.143022	
0.161534	
0.156202	
0.135647	
-0.208878	
-0.231303	
0.176845	
0.161837	
0.0966308	
0.0558485	
0.143154	
0.141896	
0.202924	
0.189425	
-0.0350967	
-0.0944755	
-0.159779	
-0.073779	
0.01409	
0.10081	
0.0432015	
0.112398	
-0.0878674	
-0.0760349	
-0.254704	
0.114446	
0.110831	
0.166473	
0.191039	
-0.0738158	
0.0360894	
-0.040959	
0.0160095	
-0.052489	
-0.0153454	
0.0568559	
0.0585986	
0.108325	
-0.0273324	
-0.028009	
-0.0400414	
-0.0448721	
0.202492	
0.17562	
0.17896	
-0.10559	
-0.153085	
0.0634096	
-0.0104668	
0.0576633	
-0.0420615	
0.0610296	
0.0519331	
-0.0836056	
-0.092087	
0.0747917	
-0.00518361	
0.00295305	
-0.299802	
-0.00929623	
0.0365516	
0.0764287	
0.0795691	
-0.159295	
-0.171156	
-0.240453	
-0.021021	
0.0189094	
0.164337	
0.151539	
0.00704159	
0.0646293	
0.0861701	
0.0916546	
-0.00567267	
-0.0468681	
-0.10117	
-0.102806	
0.192415	
0.181323	
0.185704	
0.0599114	
0.0623801	
0.113692	
0.0570344	
-0.140802	
-0.137979	
-0.195068	
-0.0960044	
-0.0888573	
-0.0167851	
0.111974	
0.113497	
0.0776671	
0.0388154	
-0.180179	
-0.181291	
-0.0125623	
-0.0319759	
-0.224416	
-0.197797	
-0.269811	
-0.119431	
0.170925	
0.155206	
0.129621	
0.189666	
0.209191	
-0.0758278	
-0.0149018	
-0.0701857	
0.0630865	
0.10813	
0.0224913	
0.0682629	
0.0982278	
0.125841	
0.102061	
0.128403	
-0.0371371	
-0.0228609	
0.141562	
0.140386	
-0.163054	
-0.136886	
-0.204968	
0.184052	
0.191767	
0.183291	
0.138814	
0.10304	
0.155996	
0.10727	
0.153239	
0.0758524	
0.133641	
0.130509	
0.165046	
-0.0558656	
-0.0458067	
-0.0481479	
0.135898	
-0.0568451	
-0.0762906	
-0.176416	
0.0554093	
0.0299255	
-0.2434	
-0.250547	
-0.0526126	
-0.0597822	
0.117002	
0.0643809	
-0.131028	
-0.299682	
-0.264106	
0.17624	
0.174645	
0.158563	
0.174122	
0.171966	
0.0452587	
0.0872195	
0.0290415	
0.0361915	
0.185169	
-0.0422141	
-0.202242	
-0.0410913	
0.0186131	
-0.0186888	
-0.0271433	
0.0139217	
-0.344664	
0.0514945	
0.0607389	
0.141396	
0.110758	
0.156605	
0.124028	
0.142231	
0.132298	
0.130007	
0.0250657	
0.0568354	
0.0494359	
0.076295	
0.129922	
0.108501	
0.0252398	
0.139146	
0.153589	
0.105192	
0.122586	
0.112215	
0.136896	
0.117365	
0.11452	
0.0518862	
0.0542915	
0.128534	
0.109677	
0.117813	
0.0721439	
-0.0642546	
-0.0662577	
-0.0510622	
-0.018067	
-0.0992171	
-0.0337438	
0.0719786	
0.0535619	
0.101188	
0.157632	
0.123545	
0.137088	
0.0846973	
0.00737075	
-0.014	
0.056039	
-0.0170243	
0.015904	
-0.0302468	
0.0527084	
0.178487	
0.178152	
-0.321887	
-0.28216	
0.121792	
0.112232	
-0.0102146	
-0.025072	
0.129402	
-0.0759398	
-0.0594869	
0.173579	
0.159345	
0.188199	
0.206903	
0.0574325	
0.0340971	
0.141001	
0.124797	
0.176047	
0.0177337	
0.0582317	
0.121988	
0.0759005	
0.113115	
0.0850245	
0.111692	
0.206091	
0.03037	
0.0305762	
0.18002	
0.0496948	
0.10354	
0.102128	
0.0284649	
0.00349189	
0.106242	
0.112639	
0.146239	
0.184838	
0.189933	
0.199719	
-0.208508	
0.121106	
0.069748	
-0.0598113	
0.0297086	
0.0672563	
0.143553	
0.141293	
0.196001	
0.187345	
0.154169	
0.145301	
-0.204158	
-0.128089	
-0.0937011	
-0.110554	
0.0831629	
0.0640808	
0.0709957	
-0.0909153	
-0.0621924	
-0.269267	
-0.0826703	
-0.0734273	
-0.132203	
-0.27918	
-0.218012	
-0.148641	
-0.13738	
-0.12094	
-0.102513	
0.146675	
0.134655	
0.0699498	
-0.0633871	
-0.0525435	
-0.146192	
-0.146209	
-0.212847	
-0.209612	
-0.0542325	
-0.0724268	
-0.34014	
-0.0499719	
-0.197419	
0.087873	
0.0919419	
0.0646618	
0.0666419	
0.17028	
0.1696	
-0.0538416	
-0.0967223	
-0.000922718	
-0.00417777	
0.0467864	
0.0272624	
0.0431947	
0.026264	
-0.20097	
-0.226814	
-0.168183	
-0.0233407	
0.133556	
0.120604	
0.0568973	
0.0363483	
-0.248616	
-0.22978	
-0.0900427	
-0.193384	
-0.234294	
-0.215707	
-0.268701	
0.200044	
0.183287	
-0.0267182	
-0.083319	
-0.0612957	
-0.0554351	
-0.0816718	
-0.191482	
-0.17512	
0.0542133	
0.00973136	
-0.15908	
-0.052583	
-0.258307	
-0.249041	
-0.150886	
-0.131142	
-0.139049	
-0.125829	
-0.151038	
-0.149393	
-0.104675	
-0.1038	
0.147936	
0.0747764	
0.132344	
0.114404	
0.111464	
0.115226	
0.0813308	
-0.236476	
-0.191356	
-0.196463	
-0.20713	
-0.199487	
-0.265603	
-0.274663	
-0.320943	
-0.180546	
-0.119914	
-0.21905	
-0.193343	
-0.292389	
-0.337256	
-0.336835	
-0.37268	
-0.0354831	
-0.0381065	
-0.040085	
-0.0478258	
-0.212837	
-0.219495	
-0.171605	
-0.161491	
-0.130193	
-0.139238	
-0.0953908	
-0.310866	
-0.0372189	
-0.0220942	
-0.310774	
-0.268508	
-0.0138095	
-0.0236703	
-0.0287056	
-0.149438	
-0.145337	
-0.026683	
-0.0355313	
-0.0795038	
-0.0867665	
-0.174335	
-0.166042	
0.0872864	
0.0207159	
0.00053619	
-0.00596436	
0.0962669	
0.0479299	
-0.122753	
-0.0985352	
-0.120636	
-0.0186034	
-0.285086	
-0.333399	
-0.100105	
-0.116174	
0.19569	
0.121328	
0.208985	
0.179779	
-0.381259	
-0.374913	
0.0440577	
0.00051622	
-0.315231	
-0.281657	
-0.335733	
-0.301901	
-0.285361	
-0.295903	
-0.223862	
-0.193745	
-0.322169	
-0.361673	
-0.36095	
-0.356409	
-0.354394	
-0.186441	
-0.132362	
-0.106996	
-0.302999	
-0.329806	
-0.356751	
-0.247329	
0.187712	
0.1559	
0.208907	
0.191403	
-0.33088	
-0.302337	
-0.221772	
-0.210006	
-0.196461	
-0.00743304	
-0.00813311	
-0.300747	
-0.30024	
-0.335978	
-0.30547	
-0.328033	
-0.0599839	
-0.0708179	
-0.0831252	
-0.105025	
-0.219976	
-0.261515	
-0.220689	
-0.246662	
-0.275496	
-0.307273	
0.208146	
0.183252	
0.181415	
0.141924	
-0.252114	
-0.137535	
-0.125699	
-0.138582	
0.181004	
0.137705	
0.160647	
0.0802414	
-0.354171	
0.0808277	
0.12519	
0.114048	
0.135419	
-0.339098	
-0.357863	
-0.342142	
-0.346022	
-0.336965	
-0.343506	
-0.302027	
-0.111326	
-0.101238	
-0.099967	
-0.0999601	
0.136642	
0.195059	
0.133181	
0.192629	
0.128876	
0.119612	
0.12263	
0.072887	
-0.255963	
-0.276903	
-0.25562	
-0.24098	
-0.34678	
-0.361571	
-0.348179	
-0.354498	
0.0769655	
0.136432	
0.0811829	
0.137999	
0.163313	
0.129489	
0.150453	
0.0924549	
0.112203	
0.0881674	
0.111446	
0.0874277	
0.173389	
0.201758	
0.204996	
0.209755	
0.220709	
0.143573	
0.231238	
0.236339	
0.236355	
0.244555	
0.248959	
0.254477	
0.228603	
0.190717	
0.169029	
0.0488177	
0.256136	
-0.00567625	
0.00147619	
-0.0315614	
0.182743	
0.248878	
0.234244	
0.265639	
0.261659	
0.268653	
0.256297	
0.263463	
0.254116	
0.246668	
0.172034	
0.217186	
0.196303	
0.218941	
0.189595	
0.149886	
0.21745	
0.159324	
0.101942	
0.257333	
0.236414	
0.235065	
0.0945597	
-0.0442593	
0.248391	
-0.0271295	
-0.038116	
0.015829	
0.0722893	
0.0447487	
-0.0319461	
0.0422326	
0.00442689	
0.0725949	
-0.0510739	
0.0188761	
0.0664	
0.0865169	
0.0441918	
-0.00102438	
-0.041903	
0.210475	
-0.0284459	
0.178664	
0.10938	
0.111093	
0.0886493	
0.0507725	
0.0574435	
0.0760589	
0.0841969	
0.0236656	
0.0619676	
0.0166424	
0.0425498	
0.0239855	
0.0341014	
0.0331293	
0.046867	
0.0906782	
0.0558621	
0.060337	
0.0719549	
0.0917854	
0.0495128	
-0.019365	
-0.0233817	
0.0242213	
0.00089543	
-0.00438631	
0.0372748	
0.0675698	
0.0628146	
0.00857715	
-0.0161825	
-0.0262143	
-0.00565171	
0.0354152	
-0.0588715	
-0.0371275	
-0.0636973	
0.168922	
0.189937	
0.186886	
0.225243	
0.0114748	
0.101778	
0.15494	
0.162363	
0.191014	
0.000450285	
0.153074	
0.130929	
-0.0579143	
-0.03867	
-0.0283428	
0.136606	
-0.0309372	
0.144156	
-0.00287921	
0.205344	
0.208704	
-0.0685472	
0.0771365	
0.040999	
0.00306666	
0.0756661	
0.0166904	
0.246867	
0.231332	
0.224713	
-0.0499582	
0.0856993	
0.219201	
-0.0131045	
-0.016221	
0.21009	
0.231535	
0.00805198	
0.0494784	
0.200619	
0.141921	
-0.0614321	
-0.0493303	
0.112915	
-0.0222552	
-0.017156	
-0.00741223	
-0.00105739	
0.251535	
0.209587	
0.21553	
0.134698	
0.169443	
0.246053	
0.273909	
0.25583	
0.0595008	
0.170819	
0.244119	
0.195426	
0.109707	
0.130807	
0.143951	
0.161751	
0.00646962	
0.122141	
0.0873164	
0.100691	
0.0696263	
0.121724	
0.1194	
0.190552	
0.15232	
0.196203	
0.117019	
0.157285	
0.130601	
0.169253	
0.119591	
0.126986	
0.160364	
0.206766	
0.141857	
0.152179	
0.159659	
0.159497	
0.142544	
0.267233	
0.269084	
0.278428	
0.266286	
0.282324	
0.251249	
0.119298	
-0.0243268	
0.0227585	
0.0279777	
0.126837	
0.233841	
0.180454	
0.11158	
0.184108	
0.172063	
0.125512	
0.237914	
0.270925	
0.27617	
0.232021	
0.250896	
0.260616	
0.278723	
0.262882	
0.253778	
0.278124	
0.263221	
0.26299	
0.270594	
0.244831	
0.243421	
0.269643	
0.269364	
0.274831	
0.104571	
0.279265	
0.22624	
0.248135	
0.201249	
0.22705	
0.270167	
0.270887	
0.274781	
0.204615	
0.197213	
0.224839	
0.209744	
0.218257	
0.222663	
0.1959	
-0.046147	
-0.0513658	
0.240682	
0.22853	
0.252719	
0.231214	
0.202048	
0.183355	
0.201288	
0.259751	
0.235606	
0.235497	
0.241263	
0.166702	
0.20981	
0.0866685	
0.262083	
0.24963	
0.0935294	
0.186197	
0.163732	
0.232365	
0.125145	
0.130425	
0.208355	
0.147721	
0.27381	
0.135641	
0.133455	
0.161205	
0.223074	
0.194879	
0.182131	
0.267976	
0.049075	
0.108316	
0.0425827	
0.0779916	
0.196939	
0.188604	
0.156179	
0.185989	
-0.0206629	
0.259997	
0.242848	
-0.0042434	
0.00559757	
-0.0191656	
0.000988636	
0.118282	
0.0909875	
0.159724	
0.167963	
0.190979	
0.155135	
0.191922	
0.00711769	
0.16248	
0.13538	
0.176856	
-0.038257	
-0.0516499	
-0.0428559	
-0.0510488	
0.117553	
0.114172	
0.143929	
0.134154	
0.153249	
0.0889817	
0.0969343	
0.202001	
0.178877	
0.202712	
0.214199	
0.15587	
0.103184	
0.0910528	
0.100761	
0.0732523	
0.28145	
0.174593	
0.201973	
0.155805	
0.172823	
0.123399	
0.148844	
0.118358	
0.157796	
0.143489	
0.016348	
0.207084	
0.214898	
0.18276	
0.240266	
0.238869	
0.151397	
0.177603	
0.126097	
0.129685	
-0.0539767	
-0.0387324	
-0.062963	
-0.0615925	
0.103447	
0.210081	
0.241884	
0.212757	
0.20082	
0.211948	
0.173283	
0.219126	
0.216902	
0.215454	
0.206076	
0.0498089	
0.10797	
0.266744	
0.243923	
0.268977	
0.206749	
0.197131	
0.266253	
0.267879	
0.233606	
0.246418	
0.261126	
0.206448	
0.232881	
0.175858	
0.178364	
0.187709	
0.249807	
0.237132	
0.250803	
0.224267	
0.265816	
0.233668	
0.253283	
0.00233409	
0.188098	
0.199193	
0.168069	
0.238839	
0.241069	
0.233561	
0.228607	
0.247118	
0.257361	
0.108801	
0.136882	
0.125845	
0.141987	
-0.053056	
0.219786	
0.18622	
0.189924	
0.120002	
0.152676	
0.156407	
0.176918	
0.15798	
0.166718	
-0.0439595	
-0.0327464	
-0.0479266	
-0.0303105	
0.246975	
0.210101	
0.247019	
0.213577	
0.088489	
0.218012	
0.224997	
0.223244	
0.250907	
0.233929	
0.261703	
0.152355	
0.138318	
0.219561	
0.215634	
0.223295	
0.182821	
0.18625	
0.0243991	
0.0691297	
0.267225	
0.229066	
-0.0198726	
0.193449	
0.220529	
0.229601	
0.230847	
0.213407	
0.200851	
0.198914	
0.259361	
0.261578	
0.254644	
0.152435	
0.262371	
0.267184	
0.0638213	
0.0871821	
0.0867737	
0.225647	
0.221383	
0.222371	
0.267499	
-0.067375	
-0.0614715	
0.257123	
0.252336	
0.245336	
0.224	
-0.0621032	
-0.0564927	
0.16859	
0.155866	
0.11947	
0.121213	
0.22487	
0.0795814	
0.093823	
0.153192	
0.153886	
0.172025	
0.170329	
0.266418	
0.25936	
0.00237596	
0.0174718	
0.0782006	
0.0441221	
0.110205	
0.108396	
0.137013	
0.181188	
0.179154	
0.167908	
0.161817	
0.2749	
0.261648	
0.23945	
0.254638	
0.268313	
0.0872204	
0.081064	
0.20893	
0.207551	
0.189123	
0.189031	
0.0283809	
0.0492704	
0.267002	
0.268251	
0.210889	
0.20809	
0.147805	
0.109887	
0.157254	
0.103011	
0.223247	
0.230259	
0.205461	
0.207045	
0.212418	
0.210532	
0.207773	
0.192148	
0.267941	
0.269623	
0.254037	
0.170786	
0.171634	
0.203819	
0.200234	
0.167973	
0.174168	
0.236899	
0.242884	
0.16466	
0.181313	
0.26183	
0.266074	
0.187723	
0.226344	
0.235205	
0.220386	
0.191122	
0.228507	
0.271854	
0.264829	
0.243388	
0.243083	
0.235941	
0.244175	
0.131843	
0.188743	
0.128037	
0.264882	
0.275753	
0.261873	
0.255961	
0.102293	
0.0749272	
0.0776213	
0.0601715	
0.262293	
0.256506	
0.266838	
0.273808	
0.00844056	
0.257268	
0.26704	
0.264322	
0.256848	
0.128831	
0.16716	
0.267574	
0.275708	
0.266034	
0.120795	
0.132929	
0.138502	
0.146684	
0.195499	
0.192191	
0.187583	
0.190584	
0.270024	
0.166218	
0.163753	
0.213721	
0.214103	
0.000686589	
-0.00880275	
0.248752	
0.263427	
0.263229	
0.196429	
-0.00803881	
0.233903	
0.229882	
0.239347	
0.241362	
0.180813	
0.271367	
0.269343	
0.04135	
0.0119729	
0.185595	
-0.0655527	
-0.0587353	
-0.0649561	
0.176389	
0.0656715	
0.0266763	
0.0506931	
0.025661	
0.240654	
0.129376	
0.16862	
0.264856	
0.250621	
0.265624	
0.263067	
0.266805	
-0.00349	
-0.0244426	
0.239065	
0.224186	
0.267407	
0.258062	
0.0216237	
0.184688	
0.170333	
0.139523	
0.205068	
0.17564	
0.226207	
0.217829	
0.132158	
0.12528	
0.264222	
0.27419	
0.0654454	
0.0541912	
0.249312	
0.256947	
0.268839	
0.268564	
0.273507	
0.266208	
-0.0588311	
-0.0614229	
0.0989075	
0.0987243	
0.0300964	
0.0220618	
0.0107292	
0.246554	
0.247808	
0.221935	
0.232362	
0.216013	
0.222492	
0.273709	
0.200219	
0.259742	
0.24423	
0.23868	
0.125449	
0.069528	
0.271228	
0.262586	
-0.0359321	
-0.00506049	
0.0121511	
0.0678317	
0.213892	
0.143547	
0.24833	
0.241601	
0.0633474	
0.0863357	
0.0397595	
0.247468	
0.161718	
0.165332	
0.255222	
0.253388	
0.0944721	
0.0756359	
-0.0139173	
-0.0157734	
0.197845	
0.201239	
0.185196	
0.193743	
0.241631	
0.209705	
0.185805	
0.22673	
0.219525	
0.199569	
0.00989785	
0.0572042	
0.0508882	
0.134712	
0.0755686	
0.186868	
0.216227	
0.262845	
0.105492	
0.106002	
0.211218	
0.199925	
0.253201	
0.132207	
0.133787	
0.10285	
0.0385344	
0.0173784	
0.0446866	
0.0165594	
0.0429892	
0.16498	
0.195566	
0.19237	
0.221681	
0.0754169	
0.0599074	
0.0977247	
0.0820037	
0.164973	
0.163777	
0.176254	
0.173474	
0.164873	
0.179401	
0.179152	
-0.0687036	
-0.0230917	
-0.0628871	
-0.0483915	
-0.0273228	
0.132619	
0.136012	
-0.0642521	
0.110997	
0.129788	
0.101212	
0.132699	
0.12058	
0.0329649	
-0.0386624	
0.0798935	
0.139864	
-0.068811	
0.112187	
-0.0627746	
-0.0690199	
-0.0681107	
0.0350515	
0.0709522	
0.264553	
0.242006	
0.268259	
0.243982	
0.269758	
0.269759	
0.139571	
0.0926771	
0.275456	
0.262907	
0.149576	
0.193757	
0.144486	
0.193724	
0.0451539	
0.0608527	
0.2153	
0.0937954	
0.0877214	
-0.0648769	
0.175664	
0.0892552	
0.0893409	
0.054533	
0.183435	
0.258987	
0.269061	
0.194323	
0.0182489	
0.0119031	
0.16614	
0.196922	
0.22915	
0.220346	
-0.0518137	
-0.0376921	
0.269852	
0.265558	
0.251958	
-0.0358069	
0.267267	
0.184913	
0.187459	
0.204085	
0.194215	
0.129994	
0.082853	
0.270223	
0.257829	
0.167197	
0.17021	
0.234413	
0.245951	
0.215656	
0.056196	
0.0679134	
0.234702	
0.259262	
0.233237	
0.0816159	
0.205033	
0.209369	
0.129083	
0.217857	
0.248668	
-0.0688983	
0.220246	
0.217893	
0.210419	
0.265812	
0.250146	
0.144432	
0.267292	
0.142041	
0.167599	
0.142931	
0.14534	
0.118325	
0.276348	
0.249393	
0.266246	
0.276963	
0.26664	
0.265971	
0.248248	
0.25209	
0.246118	
0.243063	
0.203999	
0.221037	
0.25604	
0.250446	
0.0812456	
0.0485309	
0.241167	
0.254698	
0.271303	
0.251239	
0.271226	
0.062007	
0.0723086	
0.0697949	
0.0997429	
0.268487	
0.262334	
0.205197	
0.224418	
0.221855	
0.146415	
0.146837	
-0.0661357	
-0.0632166	
0.135088	
0.120614	
0.118636	
0.113335	
0.11014	
0.109931	
0.0851489	
0.261032	
-0.053457	
-0.0541482	
-0.0685563	
-0.0702133	
0.214593	
0.164501	
0.163252	
0.248864	
-0.0708348	
-0.0659657	
-0.0484422	
-0.0522726	
-0.0674575	
-0.0681425	
0.215647	
0.217492	
0.206774	
0.203803	
-0.0294831	
-0.0120436	
-0.0364903	
-0.0208142	
0.12029	
0.123455	
0.101143	
0.195642	
0.22077	
0.253041	
0.240381	
0.248886	
0.252525	
0.252756	
0.238558	
0.225721	
0.234252	
0.208197	
0.202729	
0.224807	
0.220389	
0.109759	
0.0993866	
0.109281	
0.0424674	
-0.00248967	
0.101114	
0.0689199	
-0.0576621	
-0.0395179	
-0.064961	
0.0779926	
0.175898	
0.124596	
0.121498	
0.0587147	
0.0446928	
-0.023282	
-0.0436502	
0.229097	
0.228353	
0.0599095	
0.105658	
0.0946535	
0.25193	
0.257108	
0.24152	
0.24739	
0.261977	
0.230849	
0.228598	
0.0847728	
0.0721263	
0.122065	
0.103081	
0.13339	
0.123951	
-0.00167423	
0.0237328	
0.102518	
0.106876	
0.174748	
0.177711	
0.127442	
0.117559	
0.0931637	
0.0903073	
0.176851	
0.174005	
0.161695	
0.126176	
0.160611	
0.167244	
0.236243	
0.248964	
0.163911	
0.154249	
0.128714	
0.16982	
0.193252	
-0.019374	
0.0296955	
-0.0282946	
0.25049	
0.250113	
0.233279	
0.218928	
0.186641	
0.165657	
0.182855	
0.181304	
-0.0362322	
-0.0418891	
-0.055685	
-0.0582749	
0.0461075	
0.0722783	
0.0848254	
0.169084	
0.14591	
0.182248	
0.187784	
0.209822	
0.188018	
0.253721	
0.250409	
0.226344	
0.234541	
0.2346	
0.234684	
-0.0477802	
-0.0534956	
-0.0348416	
-0.0399179	
0.18071	
0.160216	
0.169698	
0.168967	
0.0349507	
0.0992455	
0.0975435	
0.0894403	
0.0940285	
0.246344	
0.258748	
0.0624837	
0.0325299	
0.264063	
0.262856	
0.250251	
0.265104	
0.261675	
0.264126	
0.0214382	
0.240555	
0.239058	
0.200537	
0.0973308	
0.0874935	
0.0736276	
0.0777117	
0.144181	
0.148807	
0.230972	
0.245889	
0.256149	
0.259278	
0.17938	
0.174672	
0.0852679	
0.0942351	
0.235396	
0.22684	
0.0647133	
0.081539	
0.129501	
0.109842	
0.131936	
0.152247	
0.110199	
0.120807	
0.120963	
0.0840742	
0.0162265	
0.0433537	
0.100754	
0.0826542	
0.25246	
0.268449	
-0.0150228	
0.142531	
0.115962	
0.262739	
0.261309	
0.065511	
0.0736576	
0.105834	
0.0816214	
0.0871692	
0.0900142	
0.0298834	
0.0603721	
0.0879904	
0.0763292	
0.137435	
0.127539	
0.0762681	
0.0523996	
0.0909761	
0.0630252	
0.22599	
0.227744	
0.170279	
0.184969	
0.150686	
0.141546	
0.0418773	
0.0110924	
-0.0473977	
0.0091576	
0.0251075	
0.021011	
-0.00577869	
0.167913	
-0.0199442	
0.136237	
0.138042	
-0.01585	
-0.0429975	
-0.0335703	
-0.0423851	
0.110729	
0.118276	
0.0431903	
0.0470326	
0.0431693	
0.191669	
0.164552	
0.264498	
0.260702	
0.10837	
0.0876716	
0.078228	
0.0757918	
0.0884528	
0.129573	
0.126535	
0.151817	
0.151252	
0.0650341	
0.0679854	
0.0200079	
0.0104439	
0.082484	
0.0589781	
0.0620179	
0.0389108	
0.103079	
0.105121	
0.093474	
0.086698	
0.0954148	
0.0858589	
0.0532189	
0.2711	
0.2696	
0.264618	
0.270352	
0.103828	
0.108087	
0.095945	
0.10155	
0.0998892	
0.102538	
0.0997708	
-0.0159495	
0.00112083	
-0.00723506	
0.00930466	
0.0266289	
0.0379383	
0.0179305	
0.00768844	
-0.0122018	
-0.00374458	
0.00411186	
0.0337373	
0.0197311	
0.0241826	
0.0123051	
0.00390127	
0.0202374	
0.002683	
0.0121277	
-0.0105	
-0.0177658	
-0.0137147	
-0.00483523	
0.0270644	
0.0249166	
0.0185528	
0.0105724	
-0.0146873	
-0.0100793	
-0.00427099	
0.00238393	
0.0332282	
-0.0634005	
-0.0489154	
0.00470215	
0.0328638	
-0.0255109	
-0.031068	
-0.00893628	
0.029768	
0.0233927	
0.00297624	
-0.05178	
0.00254376	
-0.0284734	
-0.0722107	
-0.0545185	
0.0312863	
0.0160219	
-0.00433809	
-0.0660188	
-0.0412334	
-0.0169846	
0.0248053	
0.134803	
0.17283	
0.171173	
0.115088	
0.1403	
-0.0313128	
0.0702491	
0.1391	
0.0523389	
0.0941178	
0.126037	
0.0445831	
0.035533	
0.11565	
0.116967	
0.091276	
0.0922422	
0.0763302	
0.101381	
0.124487	
0.171055	
0.173564	
-0.061082	
-0.0668897	
-0.0525678	
-0.0534173	
-0.000890336	
0.0202163	
0.00959965	
0.162641	
0.148134	
0.152398	
0.0431572	
0.160297	
0.152241	
0.168907	
0.170141	
0.166531	
0.161176	
0.167533	
0.168445	
-0.0568719	
-0.0441951	
0.14207	
0.147923	
0.133027	
0.157827	
0.156889	
0.163125	
0.156359	
0.144887	
0.144551	
0.168459	
0.153826	
0.172578	
0.174261	
0.10155	
0.108118	
0.127284	
0.173136	
0.174344	
-0.0406747	
-0.0241895	
0.0068402	
-0.00583986	
-0.0291601	
-0.00782453	
-0.0279748	
0.054839	
0.0339948	
0.0766093	
0.0725933	
0.116477	
0.134427	
0.110502	
0.12963	
0.101707	
0.160269	
0.164182	
0.126868	
0.093565	
-0.148712	
-0.0280396	
0.033378	
0.0676277	
-0.023904	
0.0346311	
0.0470498	
-0.0276896	
0.061258	
0.0352787	
-0.000400728	
-0.00346192	
0.00922912	
0.0363275	
0.0458259	
0.135159	
0.155829	
-0.148223	
-0.169394	
-0.124417	
-0.128025	
-0.107292	
-0.0893671	
-0.0811391	
0.0856151	
0.113844	
0.0933086	
-0.0638245	
-0.0753379	
0.127925	
0.119186	
0.139645	
0.128226	
0.129601	
0.138573	
0.13251	
0.124988	
-0.157349	
-0.163551	
0.0734421	
0.0881641	
0.104092	
0.107062	
0.0839842	
0.0878806	
0.111133	
0.116121	
0.152153	
0.1511	
0.158729	
0.162967	
0.0471451	
0.0997895	
0.0725997	
0.163476	
0.158537	
-0.141871	
-0.140973	
-0.115858	
-0.111678	
-0.107052	
-0.141123	
-0.11959	
-0.0169393	
-0.0622343	
-0.0343465	
-0.0641905	
0.0385527	
0.0704705	
0.0173285	
0.0705114	
0.0412386	
-0.053689	
0.0683413	
0.164686	
0.217599	
0.21168	
0.210839	
0.190558	
0.206238	
0.195307	
0.18491	
0.207137	
0.200419	
0.204375	
0.191391	
0.199466	
0.194848	
0.172195	
0.154418	
0.173635	
0.183431	
0.178809	
0.212825	
0.174053	
0.20462	
0.203466	
0.189421	
0.209477	
0.196602	
0.205241	
0.0907664	
0.0975714	
-0.0968964	
-0.0188773	
0.20164	
0.170125	
0.212368	
0.155945	
0.191534	
0.0921464	
0.172285	
0.18267	
0.212123	
-0.210991	
0.174721	
0.207354	
0.187509	
0.193986	
0.109458	
0.101895	
0.146746	
0.0996071	
0.130722	
-0.00761021	
-0.364419	
0.0150962	
0.115424	
0.123226	
-0.0747138	
-0.03096	
0.0169218	
0.0467149	
-0.252244	
-0.331239	
-0.341434	
-0.347822	
-0.199296	
-0.00526099	
-0.0150667	
-0.236586	
-0.271452	
-0.153555	
-0.00675063	
-0.263625	
-0.297158	
-0.335376	
-0.336487	
-0.170125	
0.00603595	
-0.089556	
-0.349176	
-0.347172	
-0.0843521	
0.174628	
0.089321	
0.169139	
-0.350675	
-0.0497932	
0.138847	
-0.0364959	
-0.00828578	
0.151492	
-0.248987	
-0.0289857	
-0.091958	
-0.135552	
-0.211044	
-0.0665679	
0.155951	
-0.0966282	
0.0937526	
-0.101381	
0.115651	
0.0819672	
0.0266089	
0.0690125	
-0.244699	
-0.227216	
0.0792119	
-0.00702372	
-0.105154	
-0.0406787	
-0.139056	
-0.104059	
-0.255249	
-0.0785095	
-0.0803876	
-0.161919	
0.150762	
-0.155811	
-0.329264	
0.123124	
-0.325322	
-0.322889	
-0.004313	
0.0543844	
-0.320757	
-0.1263	
-0.182931	
-0.140944	
0.196647	
0.109123	
0.118413	
0.118072	
0.0484297	
0.0491239	
-0.0113613	
0.03988	
-0.219247	
-0.141631	
0.169472	
0.151733	
0.0966212	
0.120592	
-0.0625268	
-0.155591	
-0.162352	