<VTKFile type="UnstructuredGrid" version="0.1" byte_order="LittleEndian">
	<UnstructuredGrid>
		<Piece NumberOfPoints="3959" NumberOfCells="7450">
			<CellData Scalars="scalars">
				<DataArray type="Float64" Name="Doublet Strengths" NumberOfComponents="1" Format="ascii">
-0.0688671	
-0.0534403	
0.00272593	
0.0325481	
-0.0289642	
-0.0373364	
-0.0136999	
0.0282995	
0.0209337	
-0.000869807	
-0.0596685	
0.00334972	
-0.0276293	
-0.0707046	
-0.0534279	
0.0320063	
0.0182343	
-0.00182572	
-0.0617916	
-0.0378086	
-0.0141563	
0.0264212	
0.136386	
0.17437	
0.172775	
0.115529	
0.138242	
-0.0823095	
0.050224	
0.130911	
0.0418333	
0.0897364	
0.117353	
0.0259076	
0.0127122	
0.102976	
0.106313	
0.0768969	
0.0765235	
0.0684284	
0.0918684	
0.116277	
0.169145	
0.174232	
-0.0829913	
-0.09364	
-0.0857609	
-0.12042	
-0.0349185	
-0.0103759	
-0.00714923	
0.15947	
0.142365	
0.146926	
0.0191274	
0.157242	
0.151386	
0.166109	
0.16837	
0.16323	
0.162971	
0.164765	
0.166884	
-0.105692	
-0.140791	
0.134026	
0.140423	
0.123274	
0.152482	
0.15161	
0.161967	
0.154565	
0.139892	
0.140453	
0.169316	
0.154845	
0.173775	
0.174675	
0.0951682	
0.105599	
0.125876	
0.174735	
0.175022	
-0.0704415	
-0.0651122	
-0.0207343	
-0.0273955	
-0.0498178	
-0.0347234	
-0.0625095	
0.0424375	
0.0179377	
0.0642467	
0.0572325	
0.108015	
0.129159	
0.103784	
0.125086	
0.105126	
0.164001	
0.167735	
0.129939	
0.0987731	
-0.101943	
-0.00809674	
0.045904	
0.0786188	
-0.0135641	
0.0429985	
0.0580564	
-0.012274	
0.0734671	
0.0496779	
0.01609	
0.0117119	
0.0181086	
0.0468496	
0.0563749	
0.141691	
0.160369	
-0.119677	
-0.107832	
-0.107265	
-0.106023	
-0.0822987	
-0.0607633	
-0.0665173	
0.0947871	
0.121286	
0.102328	
-0.0409488	
-0.0540066	
0.133825	
0.12466	
0.145912	
0.135686	
0.136779	
0.142619	
0.138777	
0.132198	
-0.113375	
-0.0718695	
0.0843611	
0.0987756	
0.113039	
0.116083	
0.0924489	
0.0956104	
0.118467	
0.122427	
0.155611	
0.155477	
0.16321	
0.16662	
0.0537275	
0.105808	
0.0781323	
0.167133	
0.16296	
-0.104824	
-0.110342	
-0.0847466	
-0.0946107	
-0.088385	
-0.115591	
-0.0958099	
-0.00418901	
-0.0445982	
-0.0223388	
-0.0494041	
0.047367	
0.0781412	
0.0282963	
0.0788844	
0.0145574	
-0.145268	
0.0472724	
0.1727	
0.219631	
0.212802	
0.212709	
0.195579	
0.208616	
0.198917	
0.189704	
0.209938	
0.204047	
0.206113	
0.189129	
0.19881	
0.194574	
0.173254	
0.16644	
0.174619	
0.183678	
0.179326	
0.213129	
0.18046	
0.203513	
0.203015	
0.188855	
0.208908	
0.199433	
0.208616	
0.116378	
0.108685	
-0.0311145	
0.0120596	
0.200931	
0.178677	
0.214655	
0.167861	
0.191421	
0.0748753	
0.180489	
0.188666	
0.212827	
-0.217403	
0.182085	
0.206968	
0.193231	
0.198747	
0.135059	
0.127289	
0.160398	
0.12515	
0.147425	
-0.0480519	
-0.263249	
-0.0166308	
0.102273	
0.110429	
-0.192013	
-0.0824829	
-0.0151385	
0.021472	
-0.316698	
-0.17047	
-0.211838	
-0.336139	
-0.190525	
-0.00700149	
-0.0564465	
-0.260471	
-0.300057	
-0.168646	
-0.0430331	
-0.275387	
-0.310541	
-0.341992	
-0.348121	
-0.259594	
-0.0262443	
-0.11105	
-0.344185	
-0.336219	
-0.075381	
0.170683	
0.103475	
0.162804	
-0.216118	
0.0119236	
0.129035	
0.0276606	
0.0269839	
0.142105	
-0.0829557	
0.0420459	
-0.0835638	
-0.127099	
-0.254937	
-0.0251607	
0.147115	
-0.0515886	
0.0798305	
-0.0116347	
0.10111	
0.0620472	
0.0392839	
0.0799812	
-0.247145	
-0.226302	
0.0734962	
0.038143	
-0.0158865	
0.0296926	
-0.0716001	
-0.0230796	
-0.252324	
-0.0973922	
-0.0963297	
-0.0738419	
0.152748	
-0.0600448	
-0.146401	
0.116849	
-0.162607	
-0.17022	
0.0512345	
0.0841691	
-0.214036	
-0.116143	
-0.170133	
-0.0396433	
0.19395	
0.102028	
0.104769	
0.104119	
0.0307576	
0.0307913	
-0.00339002	
0.046665	
-0.258487	
-0.168943	
0.1632	
0.142354	
0.130774	
0.141648	
-0.0721022	
-0.0696532	
-0.0706154	
-0.00732878	
-0.0180557	
0.0105668	
0.170404	
0.0631497	
0.0950759	
0.180193	
0.176628	
0.0909722	
-0.217764	
0.196608	
0.123163	
-0.0472088	
-0.114117	
0.185203	
0.203915	
0.0653801	
0.158984	
-0.248488	
-0.167521	
0.115765	
0.112684	
0.136074	
0.0411832	
0.198125	
0.176746	
0.160433	
0.162857	
0.148859	
0.167278	
0.189484	
0.184921	
0.16555	
-0.010885	
0.0450456	
0.150125	
0.16495	
0.157544	
0.185322	
0.196582	
0.0692982	
0.176756	
0.0827311	
0.0636756	
0.0548182	
0.0794268	
0.133863	
0.195145	
0.107297	
0.0818459	
0.0569399	
0.0641853	
0.118374	
0.120539	
0.139602	
0.140892	
0.0674175	
0.0153291	
0.0252116	
-0.0254327	
0.194606	
0.211857	
0.193375	
0.187774	
0.200337	
0.099509	
0.10244	
0.190956	
0.11821	
-0.168706	
0.0916636	
0.0249443	
0.0847305	
0.0970668	
0.182288	
0.0273697	
-0.0715559	
-0.0439828	
0.0604387	
0.0619588	
0.0250674	
0.151261	
0.188257	
0.116615	
0.111103	
0.192432	
0.155169	
0.108881	
0.0550078	
0.0476851	
0.0788552	
0.0817531	
0.0339213	
0.151811	
0.15657	
-0.304153	
-0.264466	
-0.16254	
-0.1253	
-0.0656889	
0.130069	
0.122133	
0.140223	
0.170097	
0.159392	
0.138056	
0.189694	
-0.150285	
-0.159041	
-0.320643	
-0.292822	
0.0664023	
-0.0675048	
0.0484874	
-0.290963	
-0.315563	
0.00379471	
-0.0108241	
0.0113457	
0.00181432	
-0.0813111	
-0.0437208	
-0.036629	
-0.00798193	
0.0219682	
0.0202266	
0.0828227	
0.101458	
0.110229	
-0.00908311	
-0.039929	
-0.00907503	
-0.0263379	
-0.00690233	
0.03698	
0.112708	
0.124372	
0.108048	
0.0438106	
0.0232372	
-0.0622722	
0.145537	
0.109484	
0.0189947	
0.00574991	
0.198637	
-0.195831	
0.0773443	
-0.0190365	
-0.0310485	
0.215438	
0.198097	
0.208703	
-0.186921	
-0.14215	
-0.0849459	
0.00700873	
-0.109907	
-0.0608946	
0.204074	
0.190744	
0.151799	
0.129636	
0.0844309	
-0.0596768	
-0.116945	
-0.0716655	
0.181389	
0.0497976	
-0.340679	
-0.344438	
-0.342484	
-0.182304	
0.0677761	
0.00929731	
0.00584603	
0.0169186	
0.0163729	
0.0397418	
0.00855106	
0.125921	
0.121579	
-0.130244	
-0.0628036	
-0.183369	
-0.101766	
-0.0251515	
-0.133712	
-0.0493104	
0.04844	
-0.230632	
-0.213603	
0.148903	
0.0803102	
0.1224	
-0.0140515	
0.00139857	
0.163055	
0.163779	
0.149398	
0.164368	
0.154479	
0.0930026	
0.0718343	
0.150038	
0.0647179	
0.201475	
0.192797	
-0.0966537	
-0.224655	
0.184514	
0.182532	
0.19397	
0.0271167	
0.196605	
0.206361	
0.194344	
0.202756	
0.211545	
0.19824	
-0.198218	
-0.224795	
0.211527	
0.195293	
0.200205	
0.188456	
-0.318983	
0.0567711	
0.03077	
0.0435019	
0.193843	
0.178244	
0.163299	
0.183486	
0.0809858	
0.0828987	
0.0364943	
0.0394374	
0.138429	
-0.126776	
0.0425463	
0.0841135	
-0.0422433	
0.149086	
0.157961	
0.138127	
0.107339	
0.208299	
0.0473821	
0.0917051	
-0.00970153	
0.00386831	
0.11843	
0.140662	
0.148625	
0.0679062	
-0.0389102	
-0.0161477	
0.00161076	
0.0398676	
0.0685622	
0.0967064	
-0.00890014	
0.0507605	
0.0039239	
0.201085	
0.18754	
0.0670228	
0.0119717	
0.100412	
0.149473	
0.0145036	
-0.0928145	
0.0114582	
-0.0953277	
0.116124	
-0.0338566	
-0.0372911	
-0.0222655	
0.124464	
0.109945	
0.106702	
0.0333423	
0.0950314	
0.0566506	
0.00606522	
0.0097477	
0.029739	
0.0291053	
0.0144298	
-0.03133	
-0.0772081	
0.116633	
0.0389381	
0.0376091	
0.0245597	
0.133085	
0.0334073	
0.00686823	
0.0823265	
0.093158	
0.118143	
-0.305602	
-0.00262017	
-0.0261763	
0.0635935	
0.0712603	
0.159808	
0.10787	
0.0972948	
0.0897009	
-0.0953934	
-0.056488	
0.055236	
0.0309228	
0.00137083	
-0.0412607	
0.112209	
0.0678353	
0.0609498	
0.0641111	
-0.0283552	
0.0305145	
-0.212069	
-0.1974	
-0.118118	
-0.10604	
0.153531	
-0.023883	
-0.140197	
0.141853	
-0.0768614	
0.0304839	
-0.132299	
-0.203094	
-0.0648901	
-0.0328792	
0.0242805	
-0.00836149	
-0.0874503	
-0.144736	
-0.0764279	
-0.0288594	
-0.0187774	
0.0032481	
-0.116	
0.142669	
0.0197155	
0.045818	
0.0808846	
-0.0876258	
-0.0547991	
-0.0679093	
-0.12077	
-0.19222	
0.135096	
0.124205	
-0.0140574	
0.0372471	
-0.101484	
-0.123834	
0.120299	
0.0454711	
0.0761863	
-0.0196041	
-0.00246603	
-0.10703	
-0.0689195	
-0.271319	
-0.305418	
0.0665571	
-0.209539	
0.0472978	
0.0269088	
-0.109316	
0.146494	
-0.094769	
-0.0789715	
0.00996467	
-0.0327631	
0.1871	
0.111949	
0.155966	
0.0979626	
0.116618	
0.208131	
0.197808	
-0.0306818	
-0.0238411	
0.0627041	
0.0787694	
-0.322215	
-0.121451	
-0.150564	
-0.337268	
-0.00376182	
0.0618082	
-0.0133211	
-0.0223686	
-0.114743	
-0.0903743	
0.0542065	
-0.00948135	
0.00441473	
0.200028	
0.185953	
0.0688724	
0.0084047	
-0.0303427	
0.10073	
0.129749	
0.0437872	
0.0731177	
0.0284487	
-0.0507893	
0.197033	
0.212722	
0.210095	
0.199855	
-0.186177	
0.189555	
0.169582	
0.00737263	
-0.088494	
0.0356032	
0.160358	
0.178433	
0.160051	
0.178774	
0.165085	
0.143592	
0.0666766	
0.0522967	
0.00155369	
0.00706203	
0.119385	
0.125872	
-0.121865	
-0.324536	
-0.302982	
0.0405887	
0.0285351	
0.202579	
0.185713	
0.216877	
0.202642	
0.158581	
0.129008	
-0.0593729	
0.123089	
0.151684	
0.127992	
0.143688	
0.147499	
0.164902	
0.158829	
0.139681	
-0.190517	
-0.212741	
0.179538	
0.165681	
0.10307	
0.0639402	
0.148203	
0.147056	
0.208605	
0.197224	
-0.0157684	
-0.0722663	
-0.135431	
-0.0655586	
0.0355867	
0.116066	
0.0623729	
0.115254	
-0.0572164	
-0.0463675	
-0.217353	
0.115658	
0.112277	
0.173723	
0.196183	
-0.0531156	
0.0477529	
-0.0266286	
0.0278616	
-0.0380127	
0.00154169	
0.0702321	
0.0722865	
0.118646	
-0.0229609	
-0.023755	
-0.0149943	
-0.0192908	
0.20859	
0.181266	
0.183363	
-0.0777729	
-0.122208	
0.0752178	
0.0045968	
0.0694016	
-0.0257882	
0.069092	
0.0602705	
-0.0799208	
-0.0887796	
0.0931669	
-0.000468851	
0.00706076	
-0.256839	
-0.00244471	
0.0423117	
0.0858338	
0.0891014	
-0.129481	
-0.140152	
-0.205521	
0.004721	
0.0230612	
0.169009	
0.156984	
0.0179277	
0.073312	
0.0965376	
0.101995	
0.0187666	
-0.0194495	
-0.0703431	
-0.071724	
0.197428	
0.187098	
0.190179	
0.0612239	
0.0640447	
0.114473	
0.0590536	
-0.129187	
-0.126694	
-0.182843	
-0.0852765	
-0.0780369	
-0.00774591	
0.113	
0.11418	
0.0791473	
0.0411005	
-0.142851	
-0.143554	
0.0124832	
-0.00538911	
-0.211286	
-0.184915	
-0.255422	
-0.111015	
0.175985	
0.16352	
0.142747	
0.197466	
0.213955	
-0.0563147	
0.0019652	
-0.0505597	
0.0767128	
0.119045	
0.0382809	
0.0817819	
0.113495	
0.138462	
0.116859	
0.140583	
-0.036126	
-0.0219647	
0.15422	
0.153248	
-0.128741	
-0.104788	
-0.180471	
0.190203	
0.19645	
0.190092	
0.15133	
0.118919	
0.166328	
0.122787	
0.163676	
0.0819509	
0.138023	
0.134983	
0.167286	
-0.0543996	
-0.044024	
-0.0460408	
0.148474	
-0.0544315	
-0.0740847	
-0.138895	
0.0575788	
0.0325593	
-0.202349	
-0.209229	
-0.0507155	
-0.0577577	
0.132223	
0.0838123	
-0.126399	
-0.268813	
-0.235696	
0.179696	
0.179995	
0.166779	
0.178208	
0.177381	
0.0660881	
0.104777	
0.0511012	
0.0575993	
0.193692	
-0.0151345	
-0.18873	
-0.0402404	
0.0243135	
-0.0125663	
-0.0180814	
0.0218235	
-0.323694	
0.0574439	
0.0665786	
0.144866	
0.112404	
0.158834	
0.127978	
0.154086	
0.145301	
0.133274	
0.0272433	
0.0586779	
0.0514988	
0.0779609	
0.131637	
0.111199	
0.0468063	
0.151899	
0.164405	
0.121072	
0.136898	
0.127724	
0.149752	
0.118602	
0.116191	
0.0544201	
0.0567803	
0.129942	
0.112165	
0.12009	
0.0753079	
-0.0621053	
-0.0642948	
-0.0236119	
0.00661154	
-0.0682796	
-0.00806296	
0.0899703	
0.0729064	
0.116762	
0.159422	
0.12735	
0.140405	
0.0893756	
0.0309053	
0.0112563	
0.0607487	
-0.0105397	
0.0215654	
-0.0236113	
0.0729581	
0.183754	
0.184222	
-0.300775	
-0.262397	
0.135405	
0.126751	
0.0133399	
-0.000675923	
0.143062	
-0.0619473	
-0.0456773	
0.178536	
0.167243	
0.195828	
0.21243	
0.0758015	
0.0545293	
0.143744	
0.128503	
0.185883	
0.0307462	
0.0692073	
0.136761	
0.0944393	
0.114074	
0.0864642	
0.112272	
0.210943	
0.0345425	
0.0348359	
0.189208	
0.0501362	
0.104564	
0.103157	
0.0453856	
0.0216212	
0.118445	
0.124304	
0.157738	
0.191537	
0.197074	
0.205094	
-0.1869	
0.135859	
0.0887572	
-0.0584849	
0.0404756	
0.0764008	
0.153447	
0.151572	
0.200383	
0.193587	
0.164803	
0.157115	
-0.195275	
-0.0944412	
-0.0627501	
-0.0781933	
0.0835622	
0.0646683	
0.0720584	
-0.084417	
-0.0562612	
-0.225264	
-0.0799579	
-0.0710892	
-0.125697	
-0.260185	
-0.200936	
-0.141721	
-0.13028	
-0.115511	
-0.0973525	
0.148193	
0.136885	
0.0737184	
-0.0608591	
-0.0498	
-0.112255	
-0.113279	
-0.173432	
-0.172857	
-0.0512044	
-0.069311	
-0.31337	
-0.0220057	
-0.181362	
0.0885353	
0.092873	
0.0659084	
0.0675936	
0.175535	
0.174847	
-0.0297984	
-0.0704205	
0.00176854	
-0.00160145	
0.0480958	
0.0286533	
0.0439101	
0.0270391	
-0.180071	
-0.20549	
-0.131526	
-0.020441	
0.147067	
0.135486	
0.0767328	
0.0579947	
-0.208204	
-0.191249	
-0.0597539	
-0.156001	
-0.218556	
-0.17587	
-0.224442	
0.206213	
0.191134	
-0.0241425	
-0.0773036	
-0.0557687	
-0.0505592	
-0.0761769	
-0.171989	
-0.156083	
0.0717759	
0.030384	
-0.151484	
-0.0283161	
-0.242809	
-0.234413	
-0.144851	
-0.126335	
-0.132884	
-0.12047	
-0.142997	
-0.141641	
-0.0972016	
-0.0966674	
0.149352	
0.0787628	
0.134933	
0.115096	
0.11262	
0.116133	
0.082852	
-0.211564	
-0.167947	
-0.186733	
-0.198003	
-0.190493	
-0.243839	
-0.253326	
-0.298784	
-0.144012	
-0.0875127	
-0.179399	
-0.15548	
-0.247333	
-0.290852	
-0.289421	
-0.321196	
-0.0337856	
-0.0363673	
-0.0385219	
-0.0461896	
-0.201614	
-0.208953	
-0.161142	
-0.15189	
-0.113026	
-0.122024	
-0.0645705	
-0.285067	
-0.0101713	
0.0037769	
-0.281753	
-0.241029	
-0.0132966	
-0.0224671	
-0.0272171	
-0.126654	
-0.122373	
-0.000702355	
-0.00882609	
-0.0499954	
-0.0567401	
-0.165451	
-0.156999	
0.102537	
0.0401134	
0.0213034	
-0.00508595	
0.110831	
0.0658436	
-0.0897687	
-0.067241	
-0.116178	
-0.0169375	
-0.267211	
-0.283281	
-0.0917755	
-0.107322	
0.202476	
0.135265	
0.213823	
0.188812	
-0.332681	
-0.325393	
0.0650214	
0.0245681	
-0.291486	
-0.237016	
-0.285699	
-0.255099	
-0.268364	
-0.279583	
-0.207495	
-0.178528	
-0.274919	
-0.336691	
-0.334531	
-0.305683	
-0.30249	
-0.148707	
-0.0984838	
-0.0750206	
-0.275289	
-0.301947	
-0.327626	
-0.203892	
0.195921	
0.167072	
0.213063	
0.198988	
-0.305547	
-0.278525	
-0.181118	
-0.169953	
-0.157705	
-0.00693601	
-0.00624504	
-0.284433	
-0.284062	
-0.316278	
-0.286518	
-0.308855	
-0.0559983	
-0.0665106	
-0.0791682	
-0.100963	
-0.17874	
-0.217108	
-0.179598	
-0.203693	
-0.23052	
-0.261102	
0.212717	
0.19196	
0.190327	
0.154244	
-0.239879	
-0.103294	
-0.0923652	
-0.104186	
0.183892	
0.143719	
0.165135	
0.0880044	
-0.319237	
0.0840429	
0.127324	
0.11661	
0.136587	
-0.306505	
-0.322707	
-0.311392	
-0.314126	
-0.30518	
-0.313703	
-0.273318	
-0.10665	
-0.0974156	
-0.0955533	
-0.0957678	
0.148463	
0.20189	
0.145322	
0.199931	
0.129713	
0.121262	
0.124046	
0.0753337	
-0.242503	
-0.262884	
-0.243133	
-0.229163	
-0.32247	
-0.337189	
-0.324691	
-0.3318	
0.0808577	
0.138725	
0.0849234	
0.140123	
0.165545	
0.13386	
0.153821	
0.0977882	
0.112994	
0.0893936	
0.112295	
0.0887206	
0.174049	
0.201145	
0.204725	
0.209433	
0.219638	
0.119338	
0.230123	
0.225583	
0.235078	
0.242759	
0.247039	
0.252041	
0.226729	
0.190267	
0.168668	
0.0312689	
0.254041	
-0.0281736	
-0.0366669	
-0.0562102	
0.182511	
0.24766	
0.231798	
0.262452	
0.258896	
0.265067	
0.253993	
0.260113	
0.25122	
0.243952	
0.152756	
0.216052	
0.195848	
0.216478	
0.187784	
0.148336	
0.215328	
0.157135	
0.101016	
0.25474	
0.233492	
0.232823	
0.0938049	
-0.0447845	
0.24725	
-0.0274656	
-0.0736639	
-0.00304456	
0.0544043	
0.0241386	
-0.0693191	
0.0254023	
-0.0188033	
0.0529782	
-0.0858041	
-0.00931913	
0.0527369	
0.0521519	
0.00262416	
-0.0271095	
-0.0707951	
0.18908	
-0.035546	
0.158353	
0.0584819	
0.0890381	
0.0631331	
0.0131013	
0.0172073	
0.0237002	
0.0460832	
-0.0226735	
0.030822	
-0.0216474	
0.00529691	
-0.0162245	
0.0138333	
0.018807	
0.0300808	
0.0364948	
0.00816989	
0.0181076	
0.018828	
0.053757	
0.00318327	
-0.0599019	
-0.0565131	
-0.0072283	
-0.0335447	
-0.048104	
0.00373612	
0.0183286	
0.010769	
-0.0341034	
-0.0565753	
-0.0560046	
-0.0378474	
0.00765484	
-0.089761	
-0.0749352	
-0.0655335	
0.15555	
0.172927	
0.170205	
0.213982	
0.00695614	
0.0919998	
0.147103	
0.154295	
0.184512	
-0.000632777	
0.137255	
0.111293	
-0.0589009	
-0.0392444	
-0.0355252	
0.0979639	
-0.0327819	
0.139778	
-0.00571129	
0.194509	
0.200826	
-0.0713556	
0.0731481	
0.0367658	
0.00106089	
0.0684343	
0.0130555	
0.240103	
0.221866	
0.214799	
-0.0508775	
0.0704569	
0.205734	
-0.014975	
-0.0182384	
0.190506	
0.217112	
0.00472648	
0.0464611	
0.181352	
0.13049	
-0.0632036	
-0.0512291	
0.0914586	
-0.0235432	
-0.0185513	
-0.00861307	
-0.0023395	
0.246757	
0.200857	
0.197533	
0.0968928	
0.136526	
0.227224	
0.268778	
0.251061	
0.0522936	
0.156766	
0.239589	
0.186503	
0.100764	
0.124068	
0.129819	
0.151526	
0.00351144	
0.10291	
0.062165	
0.0799421	
0.0431503	
0.106717	
0.106051	
0.171897	
0.130013	
0.177897	
0.110755	
0.149912	
0.119454	
0.151879	
0.0990533	
0.106368	
0.125152	
0.203235	
0.135591	
0.146663	
0.156094	
0.154808	
0.135947	
0.253769	
0.257791	
0.272742	
0.257152	
0.275879	
0.238222	
0.0810558	
-0.0248857	
0.0220575	
0.0275043	
0.100686	
0.220848	
0.167922	
0.106259	
0.180941	
0.159969	
0.112396	
0.227791	
0.265225	
0.270223	
0.219299	
0.240249	
0.251309	
0.272524	
0.257177	
0.242682	
0.272354	
0.252135	
0.251114	
0.264971	
0.240391	
0.232917	
0.257383	
0.257053	
0.269684	
0.101683	
0.273514	
0.223027	
0.228744	
0.195495	
0.223722	
0.259692	
0.265975	
0.269513	
0.201971	
0.190108	
0.221375	
0.200003	
0.215294	
0.198536	
0.193247	
-0.0476674	
-0.0525789	
0.225688	
0.209283	
0.241649	
0.21231	
0.199325	
0.175839	
0.198418	
0.24417	
0.213734	
0.213424	
0.235776	
0.164972	
0.207336	
0.0694183	
0.25836	
0.245365	
0.0925483	
0.183768	
0.157206	
0.228546	
0.123171	
0.128673	
0.189238	
0.145682	
0.268806	
0.123223	
0.121491	
0.152338	
0.219565	
0.1892	
0.175591	
0.258985	
0.0451507	
0.10531	
0.0387828	
0.0747348	
0.172429	
0.162447	
0.145788	
0.171139	
-0.0258967	
0.244165	
0.223812	
-0.00524083	
0.00483496	
-0.0201466	
0.000437288	
0.103574	
0.0739934	
0.153956	
0.138515	
0.165608	
0.122466	
0.165816	
0.00556316	
0.132494	
0.101051	
0.150169	
-0.0386799	
-0.052572	
-0.0432615	
-0.0517222	
0.106557	
0.103423	
0.136832	
0.125971	
0.135703	
0.0773139	
0.0854461	
0.180875	
0.170331	
0.195421	
0.208534	
0.153284	
0.0997641	
0.0875792	
0.0871682	
0.0618207	
0.274585	
0.156822	
0.186786	
0.136933	
0.155439	
0.0827868	
0.133203	
0.0994437	
0.144462	
0.128417	
0.0151345	
0.195241	
0.205681	
0.151757	
0.229205	
0.228028	
0.141222	
0.169544	
0.115332	
0.119704	
-0.0548519	
-0.0395688	
-0.0640532	
-0.0626542	
0.0954258	
0.192565	
0.22732	
0.19515	
0.178376	
0.191711	
0.147101	
0.211356	
0.205797	
0.205306	
0.192769	
0.0365039	
0.0952781	
0.252269	
0.224554	
0.257281	
0.180402	
0.169822	
0.257658	
0.255686	
0.218775	
0.233234	
0.250654	
0.180258	
0.210896	
0.157669	
0.168584	
0.179829	
0.241636	
0.226454	
0.242485	
0.211974	
0.251917	
0.21184	
0.235484	
-0.00601655	
0.167941	
0.181006	
0.14387	
0.229333	
0.229048	
0.220104	
0.212979	
0.232699	
0.245228	
0.096026	
0.128174	
0.114587	
0.13356	
-0.0573739	
0.194829	
0.155264	
0.159796	
0.0895078	
0.118011	
0.12185	
0.145853	
0.149701	
0.159866	
-0.0452842	
-0.0339857	
-0.0490395	
-0.0314028	
0.227553	
0.183246	
0.227754	
0.187475	
0.045146	
0.203747	
0.214465	
0.210373	
0.239334	
0.219744	
0.252514	
0.127685	
0.111987	
0.20913	
0.202663	
0.213078	
0.180784	
0.18565	
0.0234233	
0.0684863	
0.254812	
0.209154	
-0.0248337	
0.181584	
0.211109	
0.206362	
0.20791	
0.187348	
0.199783	
0.196323	
0.246678	
0.250793	
0.241476	
0.145182	
0.25842	
0.262163	
0.0311032	
0.0602647	
0.0567021	
0.204626	
0.219846	
0.218884	
0.253406	
-0.0688939	
-0.0628011	
0.252346	
0.249518	
0.234411	
0.205884	
-0.0637643	
-0.0580599	
0.148397	
0.135742	
0.0960144	
0.0991366	
0.202847	
0.0467125	
0.062482	
0.150982	
0.151955	
0.164442	
0.162975	
0.261288	
0.256469	
-4.61818e-05	
0.0149031	
0.072863	
0.0390886	
0.0660017	
0.103301	
0.132795	
0.174726	
0.170937	
0.158473	
0.150784	
0.269688	
0.258971	
0.218891	
0.237387	
0.255554	
0.0753369	
0.0683101	
0.185433	
0.184391	
0.188394	
0.186751	
0.0143343	
0.0350059	
0.258421	
0.256066	
0.19465	
0.192177	
0.139304	
0.10008	
0.148454	
0.0925888	
0.222038	
0.226507	
0.204495	
0.204639	
0.209915	
0.209546	
0.200526	
0.183395	
0.25713	
0.257035	
0.23648	
0.169789	
0.171446	
0.17601	
0.171662	
0.13402	
0.141611	
0.235257	
0.239303	
0.130391	
0.149902	
0.258825	
0.261617	
0.173864	
0.225163	
0.230961	
0.195843	
0.162079	
0.205569	
0.2666	
0.260714	
0.231855	
0.234822	
0.221676	
0.232941	
0.12323	
0.182915	
0.119597	
0.261331	
0.270342	
0.256749	
0.252828	
0.0830473	
0.0507088	
0.0559269	
0.0353834	
0.258626	
0.254394	
0.263477	
0.268848	
-0.00351648	
0.255125	
0.262785	
0.259574	
0.25315	
0.115299	
0.155209	
0.263607	
0.270481	
0.262885	
0.112088	
0.126069	
0.131608	
0.141803	
0.194371	
0.189568	
0.178063	
0.182738	
0.26544	
0.166417	
0.162337	
0.212929	
0.211765	
-0.040229	
-0.0476715	
0.245125	
0.258499	
0.258843	
0.181796	
-0.011261	
0.230365	
0.227011	
0.237037	
0.237296	
0.170247	
0.25941	
0.259759	
0.0365827	
0.00717708	
0.182805	
-0.0668167	
-0.0599509	
-0.0660271	
0.176828	
0.0642581	
0.0249425	
0.0490197	
0.0238365	
0.236989	
0.0920129	
0.137997	
0.250953	
0.231985	
0.251098	
0.260188	
0.262475	
-0.00566374	
-0.0270064	
0.223915	
0.205185	
0.263144	
0.255779	
0.0203107	
0.170552	
0.151959	
0.117154	
0.202158	
0.173444	
0.222698	
0.215275	
0.117806	
0.109121	
0.261137	
0.269145	
0.0650624	
0.0538345	
0.230271	
0.240226	
0.257853	
0.255531	
0.268572	
0.26296	
-0.059999	
-0.0625312	
0.098111	
0.0976587	
0.005003	
-0.00240689	
0.00531894	
0.232277	
0.233235	
0.200196	
0.212911	
0.191371	
0.199695	
0.269041	
0.174074	
0.256158	
0.240681	
0.237114	
0.123906	
0.0669067	
0.266474	
0.259394	
-0.0396162	
-0.00867114	
0.00822521	
0.0532386	
0.21127	
0.141844	
0.243875	
0.238157	
0.0476423	
0.0702518	
0.0240698	
0.229027	
0.150377	
0.154585	
0.250836	
0.249847	
0.0818767	
0.0604684	
-0.0146517	
-0.0163493	
0.189994	
0.194995	
0.173889	
0.183788	
0.238448	
0.184238	
0.156796	
0.223671	
0.217189	
0.197113	
0.00814576	
0.0558467	
0.0493678	
0.105858	
0.0654661	
0.157037	
0.190747	
0.249087	
0.0736829	
0.0727979	
0.205871	
0.193514	
0.239888	
0.0930634	
0.0943921	
0.0564795	
0.00753703	
0.0157418	
0.0432458	
0.0149925	
0.0416579	
0.160735	
0.192713	
0.18991	
0.203202	
0.0544334	
0.0380494	
0.0800589	
0.0632417	
0.161053	
0.160567	
0.175347	
0.172973	
0.159763	
0.177961	
0.179323	
-0.0708569	
-0.0275212	
-0.0653983	
-0.0512287	
-0.0301041	
0.128561	
0.130822	
-0.0664609	
0.109804	
0.088781	
0.0538078	
0.092634	
0.07815	
0.0319536	
-0.0419092	
0.0602927	
0.122265	
-0.0705847	
0.108175	
-0.0643006	
-0.0707951	
-0.069657	
0.0342339	
0.0704893	
0.250336	
0.223524	
0.256639	
0.225812	
0.259771	
0.259787	
0.120768	
0.0716871	
0.27013	
0.260029	
0.145033	
0.190667	
0.139914	
0.178332	
0.0427733	
0.0587805	
0.194042	
0.0876551	
0.0812119	
-0.0668352	
0.149472	
0.0885595	
0.0883546	
0.0532474	
0.153134	
0.255568	
0.264261	
0.182137	
0.0158508	
0.00970135	
0.160584	
0.185938	
0.221524	
0.211153	
-0.0538039	
-0.0397884	
0.258818	
0.251104	
0.233896	
-0.0363525	
0.256358	
0.182564	
0.184166	
0.196364	
0.183361	
0.127787	
0.0798381	
0.258147	
0.241125	
0.164927	
0.167223	
0.231346	
0.241265	
0.208173	
0.0529547	
0.0649822	
0.226754	
0.254714	
0.22543	
0.0754783	
0.202314	
0.20573	
0.0887149	
0.210421	
0.244175	
-0.0723819	
0.216731	
0.213878	
0.207692	
0.252408	
0.233647	
0.115092	
0.264077	
0.113493	
0.163298	
0.137849	
0.139774	
0.11237	
0.270617	
0.246669	
0.257023	
0.270436	
0.256101	
0.261249	
0.245592	
0.243583	
0.235961	
0.232399	
0.188891	
0.207733	
0.251229	
0.247628	
0.0283642	
0.0464092	
0.23845	
0.250149	
0.266697	
0.249866	
0.261548	
0.059717	
0.0717195	
0.0689983	
0.0457263	
0.262744	
0.258744	
0.180779	
0.216722	
0.21414	
0.108802	
0.109204	
-0.0673281	
-0.064729	
0.101842	
0.0854234	
0.077839	
0.112268	
0.108784	
0.108324	
0.083385	
0.24807	
-0.0543833	
-0.0551394	
-0.0700409	
-0.0716866	
0.188649	
0.136017	
0.136058	
0.245934	
-0.0725593	
-0.0679748	
-0.0518487	
-0.0552827	
-0.0704277	
-0.0707193	
0.212276	
0.213488	
0.199181	
0.194174	
-0.0312203	
-0.0136879	
-0.0381312	
-0.0223471	
0.118602	
0.121996	
0.0744652	
0.18494	
0.212094	
0.248265	
0.238964	
0.238279	
0.236577	
0.235648	
0.234113	
0.225207	
0.231565	
0.189485	
0.183478	
0.210523	
0.205537	
0.0607969	
0.0498174	
0.0644872	
0.0310433	
-0.0127159	
0.0935726	
0.0611105	
-0.0618809	
-0.0440934	
-0.0685485	
0.050514	
0.153882	
0.0982896	
0.0955745	
0.0570459	
0.0427501	
-0.0274515	
-0.0475401	
0.206077	
0.205507	
0.0580255	
0.104261	
0.054759	
0.237055	
0.246317	
0.223025	
0.228547	
0.247214	
0.214065	
0.211708	
0.0807763	
0.0677789	
0.118698	
0.0990607	
0.101426	
0.091131	
-0.00941757	
0.0162978	
0.10129	
0.105814	
0.160692	
0.162252	
0.0880205	
0.0754988	
0.0468456	
0.0417825	
0.173861	
0.171469	
0.159192	
0.122778	
0.158777	
0.164658	
0.216278	
0.231024	
0.141796	
0.130758	
0.090256	
0.138575	
0.166047	
-0.0274937	
0.0210848	
-0.0305853	
0.235683	
0.233951	
0.213662	
0.195545	
0.164631	
0.142198	
0.159779	
0.158775	
-0.0387083	
-0.0440708	
-0.0581257	
-0.0604604	
0.0449797	
0.0714599	
0.0842359	
0.163238	
0.138801	
0.176293	
0.182064	
0.183291	
0.165391	
0.249176	
0.239928	
0.21385	
0.226228	
0.223387	
0.227425	
-0.048483	
-0.0545502	
-0.0355572	
-0.0409132	
0.149897	
0.12552	
0.153683	
0.151856	
0.025628	
0.0531169	
0.0493067	
0.0371338	
0.0426525	
0.229377	
0.246852	
0.0148623	
-0.0127704	
0.2511	
0.249437	
0.234165	
0.254776	
0.249131	
0.251776	
-0.0229253	
0.224158	
0.222645	
0.174771	
0.0547308	
0.0402433	
0.0252947	
0.0274629	
0.130175	
0.134538	
0.212026	
0.244483	
0.252362	
0.249833	
0.147687	
0.141655	
0.0805707	
0.0894574	
0.217543	
0.207836	
0.018914	
0.0400823	
0.101391	
0.0817	
0.111475	
0.133507	
0.0858936	
0.0971869	
0.10343	
0.0620797	
0.00930627	
0.0369349	
0.0758319	
0.0577362	
0.243803	
0.263526	
-0.0236236	
0.119805	
0.0903938	
0.250232	
0.246765	
0.0292727	
0.0345485	
0.0687297	
0.0417314	
0.0521038	
0.0574351	
-0.000436416	
0.0290355	
0.0786365	
0.0672794	
0.121574	
0.111704	
0.0583864	
0.034399	
0.0724827	
0.0436801	
0.203176	
0.205419	
0.145134	
0.160547	
0.120876	
0.109822	
0.0359958	
0.00527084	
-0.0524351	
-0.0364994	
-0.0219034	
0.0108662	
-0.0155727	
0.138144	
-0.0260341	
0.1344	
0.135841	
-0.0225099	
-0.0486418	
-0.0402526	
-0.0479025	
0.109036	
0.116936	
0.0324738	
-0.00248193	
-0.00543332	
0.163876	
0.133399	
0.259396	
0.25032	
0.0734744	
0.065364	
0.0548541	
0.0542282	
0.0655923	
0.0942388	
0.0896673	
0.117336	
0.117347	
0.0368983	
0.0384461	
0.00749422	
-0.000992496	
0.0803044	
0.056558	
0.0594232	
0.0361853	
0.0628147	
0.0638049	
0.0495789	
0.0453043	
0.0527132	
0.0850451	
0.0520695	
0.266483	
0.259845	
0.260803	
0.2613	
0.0597916	
0.0622942	
0.0510622	
0.0561857	
0.053302	
0.056699	
0.0518036	
-0.0151518	
0.00236756	
-0.00565761	
0.0103299	
0.0272145	
0.0384611	
0.0187411	
0.00739969	
-0.0112308	
-0.00279684	
0.00488433	
0.0341694	
0.0202993	
0.0248048	
0.0129884	
0.00399553	
0.0205467	
0.00307955	
0.0124755	
-0.00978925	
-0.0173778	
-0.0131621	
-0.0041318	
0.0273265	
0.0253201	
0.0190163	
0.0110888	
-0.0141626	
-0.00948003	
-0.00378009	
0.0029805	
0.0335152	
-0.0645081	
-0.0499001	
0.00441504	
0.0331039	
-0.0262883	
-0.0316325	
-0.00915875	
0.0300735	
0.0236687	
0.00293251	
-0.0526741	
0.00182602	
-0.0297345	
-0.073627	
-0.0559912	
0.0313222	
0.015532	
-0.00535064	
-0.0675739	
-0.0427151	
-0.0182475	
0.024581	
0.13702	
0.175432	
0.173867	
0.117028	
0.142722	
-0.0314145	
0.0726334	
0.141934	
0.0539228	
0.0960011	
0.128699	
0.0463101	
0.0371846	
0.118434	
0.119612	
0.0937276	
0.0948003	
0.0781567	
0.103685	
0.127098	
0.173986	
0.176351	
-0.0623686	
-0.0684595	
-0.0534953	
-0.0548686	
8.07637e-05	
0.0218325	
0.0104736	
0.165566	
0.150948	
0.15525	
0.0451035	
0.163201	
0.15488	
0.171847	
0.172999	
0.169453	
0.163755	
0.170488	
0.171347	
-0.058325	
-0.046019	
0.144932	
0.150837	
0.135874	
0.160777	
0.159792	
0.165955	
0.159125	
0.147599	
0.147203	
0.171204	
0.156371	
0.175153	
0.176963	
0.103698	
0.110078	
0.129536	
0.175803	
0.17708	
-0.0411091	
-0.0239502	
0.0078688	
-0.00528277	
-0.0292563	
-0.00724723	
-0.0279896	
0.0565148	
0.0353996	
0.0786739	
0.0747211	
0.118967	
0.136971	
0.112778	
0.132063	
0.103294	
0.162582	
0.166434	
0.128932	
0.0948684	
-0.150885	
-0.0297407	
0.032931	
0.0677659	
-0.0251074	
0.0346024	
0.0469236	
-0.0291044	
0.0611246	
0.0346142	
-0.00159852	
-0.00457212	
0.00868099	
0.0361227	
0.0457476	
0.136695	
0.157961	
-0.150273	
-0.170878	
-0.126204	
-0.12945	
-0.109632	
-0.0917862	
-0.0831162	
0.0862253	
0.115054	
0.0940112	
-0.0659272	
-0.0774493	
0.129584	
0.120886	
0.141192	
0.129446	
0.130951	
0.140735	
0.134106	
0.126341	
-0.158917	
-0.164517	
0.0736211	
0.0884996	
0.104886	
0.107838	
0.0847112	
0.0887746	
0.112362	
0.117643	
0.154462	
0.15326	
0.160759	
0.165117	
0.0474489	
0.101116	
0.0734871	
0.165779	
0.160655	
-0.144251	
-0.143284	
-0.118296	
-0.113814	
-0.109268	
-0.143361	
-0.121953	
-0.018074	
-0.0641274	
-0.035767	
-0.0659932	
0.0385124	
0.0711216	
0.0168066	
0.0710717	
0.0434754	
-0.0549975	
0.0708257	
0.1712	
0.21997	
0.214624	
0.213936	
0.19501	
0.209834	
0.199746	
0.189981	
0.210246	
0.204143	
0.207857	
0.193689	
0.201497	
0.196785	
0.174749	
0.16081	
0.176141	
0.185596	
0.181286	
0.215134	
0.179815	
0.206935	
0.205477	
0.19151	
0.211756	
0.200803	
0.208362	
0.097623	
0.100596	
-0.0818716	
-0.00991094	
0.203715	
0.174307	
0.215142	
0.161259	
0.193481	
0.094884	
0.176413	
0.187603	
0.214863	
-0.19296	
0.179847	
0.209438	
0.19168	
0.197882	
0.116843	
0.108707	
0.152417	
0.106542	
0.136505	
-0.00627658	
-0.32338	
0.0184827	
0.118239	
0.126167	
-0.0751179	
-0.0305634	
0.0186405	
0.0506085	
-0.238428	
-0.293135	
-0.303433	
-0.321432	
-0.17911	
0.00655024	
-0.0127835	
-0.220272	
-0.253895	
-0.139168	
-0.00320372	
-0.244295	
-0.276505	
-0.311665	
-0.313426	
-0.163672	
0.00993436	
-0.078836	
-0.323873	
-0.319454	
-0.0678789	
0.177186	
0.0932131	
0.172063	
-0.311435	
-0.0330227	
0.141769	
-0.0197716	
0.00797795	
0.154753	
-0.213825	
-0.0105997	
-0.0753529	
-0.117628	
-0.198628	
-0.046904	
0.158947	
-0.0836348	
0.098897	
-0.0788227	
0.118683	
0.085188	
0.0402884	
0.0803058	
-0.224858	
-0.207502	
0.0871166	
0.00534047	
-0.0827087	
-0.0224914	
-0.115132	
-0.0833291	
-0.234082	
-0.067737	
-0.0689908	
-0.134819	
0.157041	
-0.13092	
-0.288661	
0.128935	
-0.28617	
-0.284944	
0.0103304	
0.0625787	
-0.284051	
-0.108031	
-0.162058	
-0.117854	
0.199465	
0.115494	
0.122256	
0.121839	
0.0545583	