<VTKFile type="UnstructuredGrid" version="0.1" byte_order="LittleEndian">
	<UnstructuredGrid>
		<Piece NumberOfPoints="3959" NumberOfCells="7450">
			<CellData Scalars="scalars">
				<DataArray type="Float64" Name="Doublet Strengths" NumberOfComponents="1" Format="ascii">
-0.0705317	
-0.0554688	
0.000820528	
0.0310672	
-0.0310816	
-0.0408015	
-0.0169763	
0.0260804	
0.0181944	
-0.00393868	
-0.0629798	
0.00332386	
-0.0272246	
-0.0689188	
-0.0524216	
0.0313355	
0.0189882	
-0.00058796	
-0.0589155	
-0.0356695	
-0.0125686	
0.0265604	
0.134048	
0.171361	
0.169744	
0.1127	
0.13272	
-0.107974	
0.0325224	
0.119992	
0.0322382	
0.083594	
0.106443	
0.0106044	
-0.00481803	
0.0889476	
0.094113	
0.0626264	
0.0611154	
0.060081	
0.0812123	
0.105825	
0.162808	
0.170309	
-0.0928219	
-0.103988	
-0.101566	
-0.145474	
-0.0566524	
-0.032082	
-0.0192871	
0.152221	
0.133313	
0.137975	
0.000184171	
0.150161	
0.146479	
0.159056	
0.162242	
0.155757	
0.160296	
0.157776	
0.160934	
-0.124726	
-0.169579	
0.123076	
0.129709	
0.111143	
0.143392	
0.142659	
0.156508	
0.148749	
0.131641	
0.132972	
0.165647	
0.151622	
0.170495	
0.170598	
0.0871274	
0.100612	
0.121159	
0.171712	
0.171138	
-0.0863385	
-0.087921	
-0.0394024	
-0.0417165	
-0.0619455	
-0.0520103	
-0.0817132	
0.0312416	
0.00502369	
0.0521428	
0.043067	
0.0976662	
0.121013	
0.0951073	
0.117689	
0.10507	
0.163352	
0.166982	
0.129087	
0.10066	
-0.0754507	
0.00850704	
0.0560151	
0.0869563	
-0.00506949	
0.0490103	
0.0666502	
0.000760115	
0.0830819	
0.0615846	
0.0299616	
0.024467	
0.0248336	
0.0550676	
0.0645457	
0.144549	
0.160625	
-0.102925	
-0.0816472	
-0.0965715	
-0.0946595	
-0.0634792	
-0.0392143	
-0.0545175	
0.101003	
0.125323	
0.108329	
-0.0225403	
-0.0368148	
0.135937	
0.12636	
0.148489	
0.139736	
0.140403	
0.142458	
0.1413	
0.135843	
-0.0932402	
-0.0418645	
0.0926133	
0.106583	
0.118885	
0.122012	
0.0978997	
0.100267	
0.122399	
0.125055	
0.154749	
0.155569	
0.163546	
0.16611	
0.0577076	
0.108379	
0.0806147	
0.166418	
0.16313	
-0.0812999	
-0.090433	
-0.0627548	
-0.0822053	
-0.0738583	
-0.0989528	
-0.0781806	
0.00658539	
-0.0298185	
-0.0121473	
-0.0369616	
0.0538866	
0.0829803	
0.0371079	
0.0844289	
-0.00663537	
-0.177826	
0.0285941	
0.167514	
0.215786	
0.207527	
0.207715	
0.19095	
0.203052	
0.193021	
0.183808	
0.205598	
0.199456	
0.200223	
0.182967	
0.19417	
0.19043	
0.169873	
0.162939	
0.171205	
0.179879	
0.175493	
0.208427	
0.175075	
0.19788	
0.198468	
0.184369	
0.203714	
0.193269	
0.204961	
0.11543	
0.108068	
-0.0322005	
0.0113041	
0.196113	
0.176004	
0.210593	
0.165164	
0.187415	
0.0579689	
0.178229	
0.184541	
0.207683	
-0.251311	
0.178331	
0.202255	
0.189931	
0.195116	
0.13331	
0.126028	
0.157838	
0.124064	
0.145573	
-0.0736737	
-0.275859	
-0.041988	
0.087735	
0.0960172	
-0.231375	
-0.110162	
-0.0379815	
-0.00143532	
-0.364933	
-0.176707	
-0.220604	
-0.374284	
-0.219053	
-0.02909	
-0.0843082	
-0.300087	
-0.34232	
-0.202025	
-0.070692	
-0.313311	
-0.350485	
-0.382847	
-0.38987	
-0.304764	
-0.0526262	
-0.142528	
-0.383306	
-0.372648	
-0.0977078	
0.163057	
0.10299	
0.152727	
-0.225138	
0.00997179	
0.116588	
0.0257722	
0.0195526	
0.129415	
-0.0852021	
0.0394813	
-0.106651	
-0.152395	
-0.297454	
-0.0341092	
0.135311	
-0.0526245	
0.0610213	
-0.0142927	
0.0854875	
0.0429539	
0.0260711	
0.0692866	
-0.28166	
-0.258892	
0.0551927	
0.0366466	
-0.0188453	
0.0271759	
-0.0793345	
-0.0249852	
-0.285967	
-0.127701	
-0.126075	
-0.0805728	
0.14218	
-0.064337	
-0.151516	
0.101584	
-0.168667	
-0.17675	
0.0495675	
0.0829124	
-0.224798	
-0.140282	
-0.195795	
-0.0410633	
0.186387	
0.0853548	
0.0884089	
0.0877319	
0.00816085	
0.00812304	
-0.0220641	
0.030404	
-0.300451	
-0.204342	
0.153337	
0.129791	
0.127973	
0.139585	
-0.0994129	
-0.075313	
-0.0770535	
-0.0319594	
-0.0203105	
0.00845788	
0.164259	
0.0525689	
0.08322	
0.172657	
0.167942	
0.0776027	
-0.246182	
0.189027	
0.109621	
-0.0549967	
-0.123098	
0.178687	
0.199408	
0.0562292	
0.153285	
-0.276998	
-0.19117	
0.114828	
0.111437	
0.125271	
0.0243592	
0.194162	
0.170652	
0.150912	
0.153952	
0.137891	
0.161466	
0.185574	
0.18167	
0.160563	
-0.0317794	
0.0382947	
0.146456	
0.16241	
0.147144	
0.179308	
0.189238	
0.0573453	
0.170061	
0.0819595	
0.0622703	
0.0534934	
0.0612284	
0.120166	
0.187023	
0.106831	
0.0806666	
0.0553982	
0.0626792	
0.11688	
0.119357	
0.137235	
0.136086	
0.0609432	
0.0071321	
0.0219229	
-0.0275672	
0.18779	
0.207153	
0.188467	
0.181729	
0.193622	
0.0989556	
0.101736	
0.183276	
0.105256	
-0.204548	
0.0855008	
0.0182049	
0.0713405	
0.0846365	
0.174988	
0.0259662	
-0.100353	
-0.0699268	
0.0577597	
0.05937	
0.0219705	
0.148978	
0.17921	
0.101689	
0.0956148	
0.184666	
0.143417	
0.0942638	
0.037071	
0.0290472	
0.0615293	
0.0646035	
0.0133233	
0.141426	
0.147026	
-0.336744	
-0.294977	
-0.191738	
-0.152193	
-0.0896091	
0.117834	
0.109287	
0.129298	
0.162209	
0.149442	
0.125681	
0.182285	
-0.182816	
-0.192579	
-0.357749	
-0.327363	
0.0465798	
-0.0880364	
0.0332502	
-0.324449	
-0.350421	
0.00232556	
-0.0124191	
0.00980028	
0.000370775	
-0.109492	
-0.0697711	
-0.0619768	
-0.0148602	
0.0177916	
-0.00305493	
0.0644841	
0.0848168	
0.108697	
-0.0111762	
-0.0420024	
-0.0110517	
-0.0294675	
-0.0102017	
0.0337882	
0.110214	
0.111082	
0.0926702	
0.0239106	
0.00182857	
-0.0735383	
0.135336	
0.09655	
0.0186299	
0.00528224	
0.191392	
-0.213243	
0.0622271	
-0.0206526	
-0.0323697	
0.210737	
0.190728	
0.202838	
-0.212994	
-0.16586	
-0.111069	
-0.00196265	
-0.122011	
-0.0718481	
0.198854	
0.184143	
0.139719	
0.115338	
0.0660452	
-0.0636167	
-0.134531	
-0.0873244	
0.178911	
0.0294304	
-0.385139	
-0.387919	
-0.386247	
-0.214484	
0.0603702	
-1.64097e-05	
-0.00366463	
0.0155034	
0.015083	
0.0234166	
-0.0141512	
0.12461	
0.119887	
-0.139761	
-0.0713001	
-0.193951	
-0.129719	
-0.0488048	
-0.164012	
-0.0747135	
0.0424741	
-0.261805	
-0.244372	
0.136518	
0.0615842	
0.107104	
-0.0399198	
-0.00304965	
0.15519	
0.156378	
0.137753	
0.154817	
0.142676	
0.0756869	
0.0532517	
0.138003	
0.0456748	
0.196156	
0.185826	
-0.114118	
-0.246343	
0.181039	
0.177724	
0.187673	
0.0191419	
0.189524	
0.200976	
0.187352	
0.197179	
0.206078	
0.190897	
-0.225995	
-0.254692	
0.206396	
0.188117	
0.193913	
0.181208	
-0.354095	
0.0370992	
0.00890334	
0.022556	
0.189839	
0.172735	
0.157465	
0.17968	
0.062621	
0.0647683	
0.014685	
0.017964	
0.132189	
-0.141025	
0.0290225	
0.0726185	
-0.0593381	
0.144732	
0.15402	
0.125825	
0.0924392	
0.202203	
0.0361582	
0.0820557	
-0.0230971	
-0.00959459	
0.104272	
0.128752	
0.136128	
0.0484314	
-0.0654053	
-0.0408628	
-0.0222108	
0.0188538	
0.0549619	
0.0846452	
-0.0262542	
0.0358903	
-0.0206771	
0.196874	
0.181934	
0.0665457	
-0.00741089	
0.0867643	
0.147635	
-0.00409113	
-0.117221	
-0.00715297	
-0.119484	
0.103641	
-0.0354467	
-0.0393085	
-0.0239644	
0.122681	
0.0943828	
0.0906806	
0.0329815	
0.0942277	
0.0554637	
0.00430282	
0.00795148	
0.0280605	
0.0227473	
0.00750363	
-0.0389371	
-0.0859008	
0.115416	
0.0374717	
0.0357878	
0.0227544	
0.128733	
0.0262267	
-0.0126699	
0.0672941	
0.0785232	
0.105592	
-0.342234	
-0.0101992	
-0.0342207	
0.0577161	
0.0656901	
0.150948	
0.0923181	
0.0807508	
0.0723112	
-0.111748	
-0.0712494	
0.0368608	
0.010654	
-0.0204269	
-0.0657868	
0.0962895	
0.0644872	
0.0574452	
0.0596892	
-0.0460978	
0.0286119	
-0.247979	
-0.231526	
-0.148098	
-0.134904	
0.143808	
-0.0448771	
-0.16748	
0.128869	
-0.0920136	
0.0265124	
-0.14419	
-0.216333	
-0.0679891	
-0.0358675	
0.015985	
-0.0175025	
-0.0984993	
-0.159113	
-0.0886044	
-0.0403864	
-0.0237971	
-0.00148371	
-0.148182	
0.130957	
0.00858506	
0.035562	
0.0740894	
-0.105986	
-0.0715763	
-0.0850595	
-0.139689	
-0.213624	
0.121137	
0.109102	
-0.020775	
0.0317593	
-0.112126	
-0.134837	
0.110478	
0.036916	
0.068334	
-0.0302084	
-0.0128806	
-0.119728	
-0.0807234	
-0.309668	
-0.347003	
0.0482124	
-0.246839	
0.0450332	
0.00456526	
-0.141179	
0.133869	
-0.0990071	
-0.0879961	
-0.0128	
-0.0585103	
0.182888	
0.0969877	
0.145611	
0.0817725	
0.102174	
0.202938	
0.190598	
-0.0515095	
-0.044072	
0.0470788	
0.0643865	
-0.340986	
-0.136003	
-0.165682	
-0.383187	
-0.0182199	
0.0499894	
-0.0316181	
-0.0414908	
-0.137759	
-0.112726	
0.0333062	
-0.0108648	
0.00306829	
0.193899	
0.178525	
0.0645927	
0.00279738	
-0.0366819	
0.0863484	
0.117591	
0.0390616	
0.0708353	
0.0254975	
-0.0545103	
0.189579	
0.207462	
0.204592	
0.192681	
-0.195151	
0.185403	
0.164119	
-0.00304982	
-0.0912707	
0.0172907	
0.156064	
0.175269	
0.154489	
0.174647	
0.162767	
0.139974	
0.0644355	
0.0497811	
-0.00147635	
0.00400349	
0.117566	
0.124299	
-0.130607	
-0.363764	
-0.341365	
0.0392562	
0.0271586	
0.197517	
0.179156	
0.21229	
0.196166	
0.148587	
0.116307	
-0.0729884	
0.10836	
0.139742	
0.12574	
0.14229	
0.143356	
0.161746	
0.156356	
0.135954	
-0.207232	
-0.229637	
0.176961	
0.162067	
0.097153	
0.0565495	
0.143498	
0.142266	
0.203116	
0.189804	
-0.0337478	
-0.0929211	
-0.158098	
-0.072861	
0.0154311	
0.101679	
0.0443709	
0.112677	
-0.0861766	
-0.0744267	
-0.252376	
0.114525	
0.110936	
0.166981	
0.191339	
-0.0724049	
0.0369734	
-0.039785	
0.0168558	
-0.0513084	
-0.0141448	
0.0577744	
0.0595161	
0.109	
-0.0267767	
-0.0274564	
-0.0384211	
-0.0432117	
0.202661	
0.175809	
0.179046	
-0.103738	
-0.151036	
0.0643065	
-0.00931599	
0.0585262	
-0.0407988	
0.0616877	
0.0526259	
-0.0831282	
-0.0916644	
0.0756603	
-0.00461223	
0.00345327	
-0.297339	
-0.00856809	
0.0371327	
0.0770402	
0.0802039	
-0.157286	
-0.16905	
-0.2381	
-0.0197768	
0.019401	
0.164603	
0.151862	
0.00780235	
0.0651931	
0.0869231	
0.0924404	
-0.00390019	
-0.0449013	
-0.0990837	
-0.100708	
0.192427	
0.18143	
0.185749	
0.0600151	
0.0625447	
0.113726	
0.0572491	
-0.139537	
-0.136745	
-0.193693	
-0.0948633	
-0.0877176	
-0.0158717	
0.112031	
0.113514	
0.0778014	
0.0390608	
-0.178247	
-0.179319	
-0.0111994	
-0.0306161	
-0.222953	
-0.196377	
-0.268223	
-0.118442	
0.171101	
0.155665	
0.130337	
0.189959	
0.209263	
-0.074375	
-0.0137229	
-0.06882	
0.0639937	
0.108858	
0.0235789	
0.0691849	
0.0992154	
0.126599	
0.103025	
0.129139	
-0.0370983	
-0.0227591	
0.142242	
0.141132	
-0.16091	
-0.134864	
-0.203078	
0.184152	
0.19177	
0.183421	
0.139313	
0.103757	
0.156359	
0.107959	
0.15363	
0.0764088	
0.13399	
0.13085	
0.165154	
-0.0557403	
-0.0456252	
-0.047935	
0.136567	
-0.0565702	
-0.0760401	
-0.17447	
0.0556395	
0.0302194	
-0.241362	
-0.248301	
-0.052476	
-0.0596005	
0.117945	
0.06557	
-0.130406	
-0.29751	
-0.262027	
0.176267	
0.174828	
0.158978	
0.174212	
0.172158	
0.0467613	
0.0884486	
0.0300869	
0.0372166	
0.185598	
-0.0402916	
-0.200774	
-0.0410586	
0.019207	
-0.0179871	
-0.026213	
0.0147059	
-0.342522	
0.0520805	
0.0612966	
0.141646	
0.110896	
0.156722	
0.12436	
0.142697	
0.132858	
0.130242	
0.0253178	
0.0570145	
0.0496478	
0.0764469	
0.130053	
0.108764	
0.0265851	
0.1397	
0.154015	
0.105917	
0.123214	
0.112909	
0.137422	
0.117447	
0.114653	
0.052169	
0.0545791	
0.128628	
0.109904	
0.118026	
0.0724842	
-0.0640508	
-0.0660782	
-0.0494195	
-0.0165413	
-0.0974144	
-0.0321492	
0.0731077	
0.0547754	
0.102107	
0.157707	
0.123847	
0.137342	
0.0851246	
0.00854215	
-0.0126985	
0.0565123	
-0.0163094	
0.0165164	
-0.0294979	
0.0536461	
0.178636	
0.178351	
-0.319802	
-0.280329	
0.122536	
0.113043	
-0.00871436	
-0.0235072	
0.129971	
-0.0749046	
-0.0584933	
0.173726	
0.159743	
0.188536	
0.20707	
0.0586855	
0.0354341	
0.141182	
0.125096	
0.176498	
0.0187498	
0.0590498	
0.122951	
0.077172	
0.113154	
0.0851212	
0.111696	
0.206219	
0.0308537	
0.0310721	
0.180418	
0.049754	
0.10359	
0.102164	
0.0295425	
0.00466714	
0.106978	
0.113341	
0.146681	
0.184955	
0.190198	
0.199858	
-0.206657	
0.121895	
0.0708016	
-0.0597379	
0.0304098	
0.0678303	
0.144168	
0.141928	
0.195988	
0.187439	
0.15455	
0.145755	
-0.203086	
-0.126426	
-0.092158	
-0.108847	
0.0831773	
0.0641322	
0.0710694	
-0.0900825	
-0.061441	
-0.267228	
-0.0823465	
-0.0731707	
-0.131346	
-0.277393	
-0.216534	
-0.147729	
-0.136458	
-0.120209	
-0.10182	
0.146741	
0.134817	
0.070339	
-0.0630888	
-0.052208	
-0.144308	
-0.144354	
-0.210964	
-0.207785	
-0.0538646	
-0.0720401	
-0.337875	
-0.0486322	
-0.196002	
0.0878716	
0.0919686	
0.0647724	
0.0667445	
0.170468	
0.169796	
-0.0522502	
-0.0949617	
-0.000612477	
-0.00387666	
0.0468907	
0.0273873	
0.0432791	
0.0263682	
-0.199162	
-0.224932	
-0.166295	
-0.022985	
0.134452	
0.12161	
0.0578176	
0.0373601	
-0.246103	
-0.227431	
-0.0881223	
-0.191467	
-0.232763	
-0.213741	
-0.266557	
0.200312	
0.183672	
-0.0264031	
-0.0825532	
-0.0605975	
-0.0548079	
-0.0809659	
-0.189755	
-0.173441	
0.0552926	
0.0110343	
-0.158102	
-0.0509992	
-0.256675	
-0.247459	
-0.150094	
-0.130493	
-0.138232	
-0.125105	
-0.150052	
-0.148422	
-0.10377	
-0.102913	
0.147981	
0.0751669	
0.132521	
0.114425	
0.111528	
0.115269	
0.0814616	
-0.234453	
-0.18951	
-0.195318	
-0.206021	
-0.198379	
-0.263619	
-0.272664	
-0.318784	
-0.178726	
-0.118162	
-0.217175	
-0.191456	
-0.290337	
-0.334683	
-0.334144	
-0.369901	
-0.0353652	
-0.0379694	
-0.0400115	
-0.0477247	
-0.211545	
-0.21825	
-0.170405	
-0.16037	
-0.128718	
-0.137774	
-0.0938304	
-0.30866	
-0.0359175	
-0.0208586	
-0.308455	
-0.266391	
-0.0136947	
-0.0235629	
-0.0285921	
-0.147745	
-0.143704	
-0.0250761	
-0.0339935	
-0.0776814	
-0.0850411	
-0.173257	
-0.164969	
0.0882152	
0.0219699	
0.00188812	
-0.00583904	
0.097129	
0.0490433	
-0.121134	
-0.0970218	
-0.120033	
-0.0184506	
-0.283455	
-0.331323	
-0.0991458	
-0.115157	
0.195913	
0.122095	
0.209068	
0.180177	
-0.378656	
-0.37227	
0.0455751	
0.00224283	
-0.313084	
-0.279646	
-0.333599	
-0.299837	
-0.283795	
-0.294232	
-0.222315	
-0.192266	
-0.320002	
-0.359294	
-0.358575	
-0.354102	
-0.352054	
-0.184631	
-0.130737	
-0.105453	
-0.300733	
-0.327475	
-0.354365	
-0.245353	
0.188098	
0.156567	
0.208972	
0.191766	
-0.328663	
-0.300201	
-0.219817	
-0.208009	
-0.194559	
-0.00731451	
-0.00798008	
-0.299174	
-0.298558	
-0.333973	
-0.303629	
-0.326119	
-0.0594535	
-0.0702361	
-0.0825841	
-0.104503	
-0.217944	
-0.259517	
-0.218667	
-0.24459	
-0.273409	
-0.304987	
0.208201	
0.183625	
0.181812	
0.142595	
-0.250704	
-0.135645	
-0.12386	
-0.136736	
0.181134	
0.138091	
0.160931	
0.0808295	
-0.35183	
0.0811662	
0.125378	
0.114281	
0.135481	
-0.336737	
-0.355517	
-0.339763	
-0.343645	
-0.334731	
-0.341205	
-0.300003	
-0.110679	
-0.100735	
-0.0993524	
-0.0993911	
0.137252	
0.19529	
0.133814	
0.192891	
0.128899	
0.119737	
0.122736	
0.0731555	
-0.254448	
-0.275344	
-0.254187	
-0.239628	
-0.344484	
-0.359214	
-0.34589	
-0.352266	
0.0773487	
0.136589	
0.0815423	
0.138136	
0.163416	
0.129826	
0.150679	
0.0929232	
0.112229	
0.0882499	
0.111472	
0.0875104	
0.173208	
0.201427	
0.204696	
0.209467	
0.220445	
0.142302	
0.230868	
0.235281	
0.235975	
0.244118	
0.248542	
0.254044	
0.22826	
0.1904	
0.168767	
0.0474848	
0.255829	
-0.00723959	
-0.000340983	
-0.0331701	
0.182433	
0.248567	
0.233785	
0.265268	
0.261318	
0.268244	
0.256034	
0.263134	
0.25374	
0.246309	
0.170933	
0.216875	
0.195984	
0.218525	
0.189246	
0.149589	
0.217066	
0.158947	
0.101774	
0.257043	
0.235959	
0.234717	
0.094421	
-0.0442533	
0.24806	
-0.027049	
-0.0398703	
0.0144272	
0.0709252	
0.0432582	
-0.033764	
0.0409432	
0.00284536	
0.0708011	
-0.0527909	
0.0171738	
0.0652902	
0.0849021	
0.0423776	
-0.00267899	
-0.0436101	
0.208749	
-0.0291433	
0.177511	
0.106882	
0.109176	
0.0863815	
0.0490014	
0.0556299	
0.0741493	
0.0823173	
0.021825	
0.0603179	
0.0148301	
0.04077	
0.0221581	
0.0326178	
0.0317638	
0.0454603	
0.0883596	
0.0539229	
0.0583751	
0.0697791	
0.0898784	
0.0476283	
-0.0211525	
-0.025181	
0.0225111	
-0.000888065	
-0.00616244	
0.0355428	
0.0655293	
0.0608312	
0.00680826	
-0.0179616	
-0.027926	
-0.00743381	
0.0337429	
-0.0605968	
-0.0388912	
-0.0637859	
0.167988	
0.188926	
0.185896	
0.22418	
0.0109304	
0.100732	
0.154039	
0.161434	
0.190218	
0.000342556	
0.152008	
0.129726	
-0.0579115	
-0.0385933	
-0.02905	
0.134225	
-0.0311002	
0.143586	
-0.00318695	
0.204601	
0.208084	
-0.0687592	
0.0766012	
0.0404623	
0.0028468	
0.0748541	
0.0162428	
0.246136	
0.230384	
0.223705	
-0.0498965	
0.0844876	
0.218123	
-0.0132937	
-0.0164224	
0.208465	
0.230229	
0.0076682	
0.0490854	
0.198917	
0.140706	
-0.0615501	
-0.0494806	
0.111585	
-0.0223715	
-0.0172876	
-0.00753073	
-0.00118957	
0.250863	
0.208593	
0.213929	
0.132271	
0.167183	
0.244541	
0.273415	
0.255192	
0.0586979	
0.169886	
0.243472	
0.194406	
0.108814	
0.130056	
0.142837	
0.160829	
0.0061358	
0.120853	
0.0858423	
0.0992778	
0.0680505	
0.120523	
0.118293	
0.189446	
0.150391	
0.194569	
0.116259	
0.156476	
0.129606	
0.167909	
0.11784	
0.125214	
0.158202	
0.206212	
0.141091	
0.151471	
0.159139	
0.158871	
0.141798	
0.266154	
0.26813	
0.277866	
0.26542	
0.281652	
0.250023	
0.116972	
-0.0243461	
0.0226816	
0.0279234	
0.125501	
0.232739	
0.17919	
0.110903	
0.183612	
0.170817	
0.124211	
0.236951	
0.2703	
0.275608	
0.230963	
0.249966	
0.259759	
0.27813	
0.26216	
0.252712	
0.277563	
0.262237	
0.261931	
0.269943	
0.244215	
0.242376	
0.268665	
0.268388	
0.274327	
0.104141	
0.278746	
0.22586	
0.246681	
0.200517	
0.226542	
0.269284	
0.270359	
0.2743	
0.204174	
0.196581	
0.224455	
0.20905	
0.217844	
0.220908	
0.195426	
-0.0462631	
-0.0514498	
0.239354	
0.227025	
0.251654	
0.229732	
0.201591	
0.182636	
0.200805	
0.258476	
0.233938	
0.233814	
0.240606	
0.166333	
0.209399	
0.0853447	
0.261583	
0.249037	
0.0933617	
0.185724	
0.162975	
0.231891	
0.124828	
0.130131	
0.206684	
0.147367	
0.273355	
0.134581	
0.132422	
0.160345	
0.222547	
0.194177	
0.181338	
0.267146	
0.0485656	
0.10787	
0.0420921	
0.0775386	
0.195224	
0.186795	
0.155042	
0.185074	
-0.0212353	
0.258726	
0.241329	
-0.00433218	
0.00552685	
-0.019241	
0.000948997	
0.116861	
0.0894624	
0.159017	
0.165876	
0.189118	
0.152986	
0.19006	
0.00695589	
0.16037	
0.133185	
0.174825	
-0.0381956	
-0.0516047	
-0.0428323	
-0.0510417	
0.116563	
0.113198	
0.143141	
0.13331	
0.152185	
0.0879759	
0.0959358	
0.200333	
0.17789	
0.201826	
0.213466	
0.15544	
0.102694	
0.0905628	
0.0994038	
0.0720853	
0.280701	
0.173051	
0.20078	
0.154194	
0.171462	
0.120902	
0.147736	
0.117049	
0.156773	
0.142349	
0.0162112	
0.206297	
0.214235	
0.180598	
0.239294	
0.237894	
0.150278	
0.17666	
0.124944	
0.128599	
-0.0539441	
-0.038674	
-0.0629623	
-0.0615956	
0.102582	
0.208505	
0.24053	
0.211175	
0.198978	
0.210231	
0.171379	
0.218538	
0.216157	
0.214743	
0.205225	
0.0485038	
0.106673	
0.265627	
0.242481	
0.268043	
0.204936	
0.195274	
0.26543	
0.266828	
0.232241	
0.245175	
0.260108	
0.204599	
0.231272	
0.174257	
0.177543	
0.187003	
0.249011	
0.236146	
0.250005	
0.223193	
0.264738	
0.232081	
0.251942	
0.00150821	
0.1869	
0.198025	
0.16669	
0.237893	
0.239943	
0.232312	
0.227219	
0.245788	
0.256209	
0.107721	
0.135996	
0.124847	
0.141116	
-0.0534778	
0.217969	
0.184184	
0.187934	
0.117691	
0.15051	
0.154261	
0.174913	
0.157144	
0.165956	
-0.0440608	
-0.0328502	
-0.0479883	
-0.0303901	
0.245475	
0.208164	
0.245501	
0.211689	
0.0864252	
0.216962	
0.224159	
0.222164	
0.249883	
0.232636	
0.260829	
0.15104	
0.136962	
0.218834	
0.214772	
0.222532	
0.182375	
0.185915	
0.0242831	
0.0690296	
0.266285	
0.22763	
-0.0204239	
0.192247	
0.219512	
0.227856	
0.229113	
0.211502	
0.200485	
0.19846	
0.258203	
0.260564	
0.253418	
0.151619	
0.261905	
0.266628	
0.0621518	
0.0856864	
0.0852751	
0.224161	
0.221082	
0.221966	
0.266393	
-0.0674426	
-0.0615493	
0.256475	
0.251815	
0.244228	
0.222472	
-0.0622067	
-0.0565975	
0.166813	
0.154096	
0.117446	
0.119296	
0.22325	
0.0780121	
0.092315	
0.152807	
0.153537	
0.171249	
0.169545	
0.265797	
0.258895	
0.00211172	
0.0171776	
0.0775365	
0.043518	
0.1077	
0.107737	
0.136432	
0.180485	
0.178375	
0.167032	
0.160867	
0.27439	
0.261316	
0.237935	
0.253329	
0.26731	
0.0860014	
0.0797784	
0.207214	
0.205817	
0.18878	
0.188579	
0.0270406	
0.0478878	
0.266193	
0.267201	
0.209429	
0.206672	
0.146845	
0.108833	
0.156257	
0.101907	
0.222974	
0.229856	
0.205109	
0.206616	
0.212005	
0.210196	
0.206894	
0.191138	
0.267022	
0.268594	
0.25269	
0.170474	
0.171389	
0.201876	
0.198243	
0.16582	
0.172042	
0.236497	
0.242334	
0.162431	
0.179155	
0.261355	
0.265502	
0.186493	
0.226005	
0.234655	
0.218647	
0.189081	
0.226851	
0.271315	
0.264394	
0.242263	
0.242173	
0.234645	
0.243068	
0.130886	
0.188011	
0.127103	
0.264522	
0.275249	
0.261193	
0.255417	
0.100913	
0.0733764	
0.0761192	
0.0585726	
0.261802	
0.256119	
0.266494	
0.273355	
0.00728876	
0.25694	
0.266575	
0.263793	
0.2564	
0.127508	
0.16592	
0.26715	
0.275191	
0.265667	
0.119928	
0.132164	
0.137747	
0.146069	
0.195125	
0.191725	
0.186818	
0.18989	
0.269556	
0.166	
0.163412	
0.213414	
0.213715	
-0.00115456	
-0.0106294	
0.248232	
0.262843	
0.262706	
0.195264	
-0.00839072	
0.233361	
0.229412	
0.238886	
0.240769	
0.179674	
0.270389	
0.268537	
0.0407722	
0.0114158	
0.185147	
-0.0656104	
-0.0588067	
-0.0649836	
0.176175	
0.0654741	
0.0264712	
0.0504746	
0.0254449	
0.240103	
0.126991	
0.16658	
0.263712	
0.249183	
0.26444	
0.262671	
0.266291	
-0.00372399	
-0.024701	
0.237721	
0.222625	
0.266957	
0.257752	
0.0214772	
0.183799	
0.169281	
0.138317	
0.204586	
0.175267	
0.225684	
0.217406	
0.131	
0.124041	
0.263834	
0.273663	
0.0653825	
0.0541331	
0.247894	
0.255669	
0.267933	
0.267502	
0.273038	
0.265865	
-0.0588739	
-0.0614419	
0.0987559	
0.0985426	
0.0284708	
0.0204519	
0.0101176	
0.245292	
0.246532	
0.220326	
0.230865	
0.214264	
0.220834	
0.273157	
0.198407	
0.259361	
0.243665	
0.238261	
0.125186	
0.0691767	
0.270776	
0.262256	
-0.0363197	
-0.00547718	
0.0116744	
0.0664138	
0.213461	
0.143236	
0.247721	
0.241088	
0.0618707	
0.0848334	
0.0383177	
0.246058	
0.160518	
0.164168	
0.254675	
0.252896	
0.0933987	
0.074426	
-0.013969	
-0.0158018	
0.197185	
0.200664	
0.184393	
0.193011	
0.24115	
0.207893	
0.183799	
0.226249	
0.21912	
0.199136	
0.00970499	
0.0570199	
0.0506899	
0.133222	
0.0745177	
0.184764	
0.214409	
0.261681	
0.103948	
0.10437	
0.210516	
0.199128	
0.252001	
0.129913	
0.131489	
0.100378	
0.0368396	
0.017198	
0.0445071	
0.0163886	
0.0428258	
0.164385	
0.195103	
0.19195	
0.220066	
0.0739311	
0.0583873	
0.0963875	
0.0806051	
0.164397	
0.163274	
0.175911	
0.173196	
0.164204	
0.179003	
0.178896	
-0.068845	
-0.0235907	
-0.0630942	
-0.0486628	
-0.0276043	
0.132059	
0.135337	
-0.0643923	
0.110798	
0.127437	
0.0987156	
0.130379	
0.1182	
0.0328385	
-0.0389807	
0.0781892	
0.138506	
-0.0689028	
0.111646	
-0.0628064	
-0.0691177	
-0.0681599	
0.0349547	
0.0708818	
0.263495	
0.240683	
0.267344	
0.242668	
0.268974	
0.26897	
0.13809	
0.0908533	
0.274941	
0.26256	
0.14896	
0.193265	
0.143871	
0.192526	
0.044859	
0.060582	
0.213727	
0.0930549	
0.0869547	
-0.0650148	
0.173763	
0.089123	
0.0891861	
0.0543676	
0.181334	
0.258555	
0.268524	
0.193126	
0.0179724	
0.0116551	
0.165425	
0.195766	
0.228269	
0.219334	
-0.0519791	
-0.0378827	
0.268978	
0.264439	
0.250604	
-0.0358137	
0.266383	
0.184523	
0.186964	
0.203458	
0.193442	
0.129644	
0.0824253	
0.269261	
0.256556	
0.16682	
0.169747	
0.233939	
0.245308	
0.214761	
0.0557645	
0.0675199	
0.233836	
0.258666	
0.232365	
0.0808782	
0.204574	
0.208814	
0.126699	
0.216974	
0.248043	
-0.0691948	
0.219718	
0.217308	
0.209968	
0.264805	
0.248933	
0.142303	
0.266936	
0.140508	
0.166997	
0.142265	
0.144625	
0.117589	
0.275694	
0.249021	
0.265325	
0.276259	
0.265764	
0.265474	
0.247906	
0.251353	
0.245281	
0.242185	
0.202768	
0.219982	
0.25537	
0.249896	
0.0789085	
0.0482646	
0.240745	
0.254102	
0.270838	
0.250998	
0.270429	
0.0617083	
0.0721999	
0.0696707	
0.0969908	
0.267812	
0.261811	
0.2035	
0.223522	
0.220952	
0.144141	
0.144583	
-0.0661361	
-0.0632133	
0.133085	
0.118731	
0.116158	
0.113147	
0.109923	
0.109676	
0.0848967	
0.259861	
-0.0534359	
-0.0541373	
-0.0686026	
-0.0702665	
0.212759	
0.16246	
0.161525	
0.248313	
-0.0709334	
-0.0661095	
-0.0487724	
-0.0525408	
-0.0677044	
-0.0683357	
0.215113	
0.216876	
0.206154	
0.203098	
-0.029638	
-0.0122	
-0.0366245	
-0.0209524	
0.120016	
0.123204	
0.0989354	
0.1945	
0.219791	
0.25235	
0.239959	
0.247808	
0.251172	
0.251328	
0.237937	
0.225408	
0.233772	
0.206699	
0.201284	
0.223556	
0.219168	
0.10713	
0.0968333	
0.106824	
0.041329	
-0.00348405	
0.100268	
0.068078	
-0.0580797	
-0.0400086	
-0.0652905	
0.0757138	
0.17402	
0.122446	
0.119397	
0.0584914	
0.0444499	
-0.0237474	
-0.044062	
0.227366	
0.22664	
0.0596632	
0.105436	
0.0927375	
0.250635	
0.256066	
0.240039	
0.245886	
0.260744	
0.229348	
0.227075	
0.0842438	
0.0715717	
0.121586	
0.102543	
0.131562	
0.122162	
-0.002438	
0.0229528	
0.102315	
0.106691	
0.173448	
0.176475	
0.125086	
0.115164	
0.0905588	
0.087663	
0.176393	
0.173596	
0.161295	
0.125695	
0.16029	
0.166827	
0.234812	
0.247598	
0.162011	
0.15227	
0.126247	
0.167775	
0.191385	
-0.0201662	
0.0288528	
-0.0285193	
0.249211	
0.24875	
0.231774	
0.217249	
0.184757	
0.163661	
0.181384	
0.179938	
-0.0364666	
-0.0420895	
-0.0558907	
-0.0584551	
0.0459649	
0.0721579	
0.0847225	
0.168353	
0.14508	
0.181508	
0.187061	
0.207983	
0.186134	
0.253055	
0.249342	
0.225225	
0.233685	
0.233528	
0.233886	
-0.0477989	
-0.0535374	
-0.0348752	
-0.039979	
0.178718	
0.158079	
0.168721	
0.167949	
0.0340534	
0.0967536	
0.0950351	
0.0867263	
0.0914772	
0.244938	
0.257635	
0.0606713	
0.0306675	
0.263065	
0.261799	
0.249046	
0.264218	
0.260591	
0.263099	
0.019592	
0.239191	
0.237638	
0.198755	
0.0950598	
0.0849602	
0.0715208	
0.0754325	
0.142802	
0.147422	
0.229544	
0.245523	
0.255605	
0.258328	
0.177341	
0.172574	
0.0846684	
0.0936237	
0.234005	
0.22529	
0.0627834	
0.0796611	
0.127256	
0.107627	
0.130731	
0.151149	
0.10886	
0.119524	
0.119558	
0.0821253	
0.0154739	
0.0426139	
0.0986204	
0.0804681	
0.251664	
0.267921	
-0.0158609	
0.141312	
0.114622	
0.261594	
0.260039	
0.0630864	
0.0712128	
0.103481	
0.0791716	
0.0847929	
0.0876299	
0.0278987	
0.0581571	
0.0870006	
0.0753812	
0.136047	
0.126083	
0.0747846	
0.050823	
0.0894773	
0.0613046	
0.22434	
0.226085	
0.168247	
0.183121	
0.14865	
0.139445	
0.0411853	
0.010444	
-0.0479121	
0.00735542	
0.0232696	
0.0200142	
-0.0067341	
0.165923	
-0.0205903	
0.135924	
0.137678	
-0.0165491	
-0.0435669	
-0.0342402	
-0.0429154	
0.110468	
0.118049	
0.0421132	
0.0452443	
0.0413338	
0.189747	
0.162489	
0.263874	
0.259694	
0.106103	
0.0856821	
0.076177	
0.0738696	
0.0864408	
0.127275	
0.124086	
0.149514	
0.148971	
0.062862	
0.0657704	
0.0188039	
0.00934069	
0.0821789	
0.0586672	
0.0616757	
0.0385752	
0.100528	
0.102555	
0.0908599	
0.0842223	
0.0929106	
0.0857242	
0.0530701	
0.270638	
0.268796	
0.264212	
0.269594	
0.101224	
0.105482	
0.0933269	
0.0989307	
0.097259	
0.0999457	
0.0971324	
-0.0158886	
0.00122522	
-0.00713792	
0.00941182	
0.0267251	
0.0380372	
0.0180346	
0.00790522	
-0.0121238	
-0.00364859	
0.0042124	
0.0337798	
0.0198173	
0.0242391	
0.0124028	
0.00408144	
0.0203019	
0.00276223	
0.0122011	
-0.0104124	
-0.017695	
-0.0136354	
-0.00474144	
0.0271152	
0.0249866	
0.0186354	
0.0106624	
-0.0146152	
-0.00999961	
-0.00418939	
0.00247895	
0.0332728	
-0.0633736	
-0.0490196	
0.00453354	
0.0327261	
-0.0257042	
-0.0311189	
-0.0090105	
0.0296888	
0.023342	
0.00290214	
-0.0517561	
0.00223154	
-0.0287951	
-0.0723612	
-0.0548144	
0.0310511	
0.0156945	
-0.00478483	
-0.0662947	
-0.0415953	
-0.017457	
0.0245316	
0.134907	
0.172853	
0.171243	
0.115197	
0.140562	
-0.0298944	
0.0716008	
0.139942	
0.0530485	
0.0945317	
0.126909	
0.0457121	
0.0368162	
0.116695	
0.117936	
0.0923985	
0.0934315	
0.0769334	
0.102221	
0.125325	
0.171409	
0.173698	
-0.0607117	
-0.0665204	
-0.0517424	
-0.05233	
0.000525883	
0.0217423	
0.0103887	
0.163146	
0.148829	
0.153062	
0.0445651	
0.1608	
0.152529	
0.169312	
0.170459	
0.166965	
0.161253	
0.167967	
0.168784	
-0.0560504	
-0.0429645	
0.14287	
0.148657	
0.133911	
0.158408	
0.157433	
0.163467	
0.15674	
0.145512	
0.145108	
0.168604	
0.153991	
0.17264	
0.174392	
0.102163	
0.108409	
0.127547	
0.173178	
0.174448	
-0.0397277	
-0.0228234	
0.00809922	
-0.00490848	
-0.0284172	
-0.00670098	
-0.0267947	
0.0556841	
0.034921	
0.077548	
0.073675	
0.1173	
0.135045	
0.111164	
0.130172	
0.101669	
0.160137	
0.164012	
0.126912	
0.0933257	
-0.150099	
-0.0293431	
0.0324717	
0.0668247	
-0.0246888	
0.0340501	
0.0462502	
-0.0287515	
0.0603439	
0.0341998	
-0.00157226	
-0.00454173	
0.00859316	
0.0355751	
0.0450684	
0.13473	
0.155614	
-0.149207	
-0.170663	
-0.125082	
-0.128682	
-0.108482	
-0.0908189	
-0.0819705	
0.0849732	
0.113359	
0.0926681	
-0.0651623	
-0.0765551	
0.12762	
0.119003	
0.139219	
0.127688	
0.129109	
0.138556	
0.132126	
0.124511	
-0.158427	
-0.164924	
0.0726309	
0.0873637	
0.103444	
0.106394	
0.0834469	
0.0874248	
0.110676	
0.115842	
0.152094	
0.150936	
0.158469	
0.162784	
0.0467168	
0.0995263	
0.0722996	
0.163327	
0.158311	
-0.143175	
-0.142109	
-0.117195	
-0.112473	
-0.107999	
-0.142081	
-0.120701	
-0.0178489	
-0.0633286	
-0.0352578	
-0.0651083	
0.0379187	
0.0700067	
0.0165352	
0.0699916	
0.0427484	
-0.0521569	
0.0697136	
0.164967	
0.217639	
0.211785	
0.210939	
0.19067	
0.206384	
0.195428	
0.185061	
0.207172	
0.200486	
0.204516	
0.191563	
0.199508	
0.19487	
0.172268	
0.154606	
0.173708	
0.183491	
0.178909	
0.212901	
0.174268	
0.204696	
0.203477	
0.189493	
0.209533	
0.196778	
0.205271	
0.0911416	
0.0977529	
-0.0959638	
-0.0183269	
0.201686	
0.170234	
0.212439	
0.156086	
0.191554	
0.0933785	
0.172364	
0.182859	
0.212222	
-0.209404	
0.174897	
0.20736	
0.187646	
0.194093	
0.109817	
0.102265	
0.146918	
0.0999821	
0.130941	
-0.00594375	
-0.362528	
0.0167992	
0.116473	
0.124219	
-0.0728209	
-0.0293706	
0.0184985	
0.0482329	
-0.249606	
-0.329195	
-0.339612	
-0.346019	
-0.19799	
-0.00424802	
-0.0132437	
-0.23472	
-0.269444	
-0.15198	
-0.00490785	
-0.26183	
-0.295277	
-0.333424	
-0.334493	
-0.167401	
0.00780081	
-0.087968	
-0.347421	
-0.345463	
-0.0833428	
0.174989	
0.0895352	
0.169619	
-0.348777	
-0.0487277	
0.139685	
-0.0354397	
-0.00761019	
0.152179	
-0.246963	
-0.0278642	
-0.0909285	
-0.134414	
-0.208651	
-0.0657363	
0.156617	
-0.0958295	
0.0947934	
-0.100001	
0.116717	
0.0832721	
0.0273128	
0.0695678	
-0.243161	
-0.22575	
0.0801042	
-0.0062417	
-0.10377	
-0.0395651	
-0.137878	
-0.102765	
-0.253732	
-0.077023	
-0.0789544	
-0.160466	
0.151141	
-0.154276	
-0.327017	
0.123788	
-0.323018	
-0.320756	
-0.00340265	
0.0549082	
-0.319077	
-0.125175	
-0.181661	
-0.139503	
0.196849	
0.109861	
0.119366	
0.11904	
0.0497341	
0.0504436	
-0.0105509	
0.0405491	
-0.217034	
-0.139798	