<VTKFile type="UnstructuredGrid" version="0.1" byte_order="LittleEndian">
	<UnstructuredGrid>
		<Piece NumberOfPoints="3959" NumberOfCells="7450">
			<CellData Scalars="scalars">
				<DataArray type="Float64" Name="Doublet Strengths" NumberOfComponents="1" Format="ascii">
-0.0704033	
-0.0551921	
0.00103459	
0.031241	
-0.0307273	
-0.0404537	
-0.0167185	
0.0262591	
0.0183881	
-0.00371254	
-0.0627456	
0.0035297	
-0.0269882	
-0.0688654	
-0.0522392	
0.0314999	
0.0191474	
-0.000363825	
-0.0588409	
-0.0355155	
-0.012335	
0.0267178	
0.134229	
0.171599	
0.169969	
0.112877	
0.132964	
-0.107631	
0.0326645	
0.120243	
0.0323761	
0.0837971	
0.106692	
0.0106248	
-0.00476701	
0.0891803	
0.0943406	
0.0628064	
0.0612691	
0.06026	
0.0814151	
0.106062	
0.163072	
0.170554	
-0.0926156	
-0.103773	
-0.101363	
-0.145034	
-0.0564039	
-0.0318149	
-0.0192898	
0.152501	
0.133579	
0.13824	
0.000306093	
0.150429	
0.146708	
0.159329	
0.162515	
0.156033	
0.1605	
0.158046	
0.161197	
-0.124385	
-0.168897	
0.123336	
0.12998	
0.111397	
0.143665	
0.142927	
0.156749	
0.148989	
0.131892	
0.133217	
0.165862	
0.151821	
0.170736	
0.170849	
0.0873336	
0.100822	
0.121392	
0.171944	
0.171385	
-0.0862494	
-0.0876899	
-0.0392692	
-0.0416405	
-0.0618323	
-0.0518918	
-0.0815352	
0.0313665	
0.00504805	
0.0523035	
0.0431881	
0.0978898	
0.121256	
0.0953259	
0.117927	
0.105228	
0.163554	
0.167186	
0.129263	
0.100802	
-0.0760885	
0.00823249	
0.0560722	
0.0870513	
-0.00509233	
0.0491262	
0.0667701	
0.00064539	
0.0831288	
0.0615346	
0.0297996	
0.0243764	
0.0249071	
0.0551863	
0.0646725	
0.144705	
0.160818	
-0.103349	
-0.0824341	
-0.0968702	
-0.0949997	
-0.0638403	
-0.0396571	
-0.0547003	
0.101155	
0.125484	
0.108476	
-0.022896	
-0.0371062	
0.136111	
0.126532	
0.148644	
0.139871	
0.14055	
0.142638	
0.141465	
0.135993	
-0.0937978	
-0.0428259	
0.0927135	
0.106676	
0.11902	
0.122144	
0.0980663	
0.100425	
0.122559	
0.125223	
0.15494	
0.15576	
0.163732	
0.166312	
0.0578168	
0.108536	
0.0807369	
0.166622	
0.163321	
-0.0818268	
-0.0908683	
-0.0632067	
-0.0824325	
-0.074102	
-0.0993202	
-0.0785158	
0.00655842	
-0.0300284	
-0.0122039	
-0.03711	
0.0540351	
0.0831264	
0.0371961	
0.0845942	
-0.00633305	
-0.177024	
0.0288004	
0.167658	
0.215877	
0.207663	
0.207769	
0.190894	
0.203086	
0.193077	
0.183851	
0.205639	
0.199489	
0.200338	
0.183298	
0.194468	
0.190712	
0.170114	
0.16302	
0.171451	
0.180147	
0.175753	
0.20861	
0.175038	
0.198121	
0.198725	
0.184649	
0.20388	
0.193329	
0.204967	
0.115545	
0.108131	
-0.032242	
0.0114437	
0.196415	
0.17605	
0.210625	
0.16526	
0.187682	
0.0581831	
0.178275	
0.184615	
0.207843	
-0.251067	
0.178424	
0.202438	
0.190033	
0.19506	
0.133469	
0.126179	
0.157959	
0.124207	
0.145722	
-0.0733018	
-0.275297	
-0.041419	
0.08799	
0.0962708	
-0.23026	
-0.109737	
-0.0376549	
-0.000844796	
-0.364234	
-0.176159	
-0.22006	
-0.373982	
-0.218728	
-0.0288769	
-0.0837571	
-0.299564	
-0.34178	
-0.2016	
-0.0700146	
-0.312952	
-0.350113	
-0.382513	
-0.389521	
-0.303363	
-0.051949	
-0.142203	
-0.383034	
-0.372365	
-0.0974222	
0.163368	
0.103051	
0.153149	
-0.224543	
0.0102324	
0.116873	
0.0259939	
0.0198692	
0.129887	
-0.0849622	
0.0398167	
-0.106358	
-0.152083	
-0.296632	
-0.0337667	
0.135648	
-0.0525035	
0.0617079	
-0.0139467	
0.0857674	
0.0432783	
0.0261646	
0.0693439	
-0.281441	
-0.258688	
0.0554295	
0.036859	
-0.0184532	
0.0275014	
-0.0788042	
-0.0247327	
-0.285764	
-0.127351	
-0.12571	
-0.0800032	
0.142313	
-0.0638128	
-0.151007	
0.101706	
-0.168086	
-0.176155	
0.0497628	
0.0830604	
-0.224204	
-0.139985	
-0.195474	
-0.0410564	
0.18666	
0.0855005	
0.0889836	
0.0882821	
0.00889571	
0.0089089	
-0.0218183	
0.0306166	
-0.299869	
-0.203944	
0.153709	
0.130237	
0.12821	
0.139761	
-0.0991365	
-0.0747719	
-0.0764862	
-0.0317562	
-0.0200279	
0.00872559	
0.164326	
0.0527563	
0.0833672	
0.172737	
0.168048	
0.0777779	
-0.245842	
0.189199	
0.10983	
-0.0544996	
-0.12253	
0.17874	
0.199428	
0.0564931	
0.153446	
-0.276631	
-0.190853	
0.114942	
0.111584	
0.125402	
0.0245768	
0.194098	
0.170615	
0.151235	
0.154265	
0.13821	
0.161582	
0.185682	
0.181728	
0.160694	
-0.031568	
0.0385961	
0.146604	
0.162508	
0.147477	
0.179611	
0.189421	
0.0574197	
0.170099	
0.0820992	
0.0624431	
0.0536865	
0.0612849	
0.120319	
0.1872	
0.106926	
0.0808069	
0.05559	
0.0628608	
0.117076	
0.119509	
0.137419	
0.136249	
0.0611997	
0.00742884	
0.022327	
-0.0272891	
0.188139	
0.207183	
0.188747	
0.18203	
0.193725	
0.0990295	
0.101819	
0.18334	
0.105379	
-0.204086	
0.0856905	
0.018575	
0.0715168	
0.0847975	
0.17507	
0.0261815	
-0.0998218	
-0.0695145	
0.058093	
0.0596966	
0.0223685	
0.149127	
0.179428	
0.101913	
0.0958308	
0.184997	
0.143901	
0.0944726	
0.0372605	
0.029262	
0.0617801	
0.0648534	
0.0135688	
0.141735	
0.147319	
-0.336401	
-0.294609	
-0.191497	
-0.151932	
-0.089376	
0.118117	
0.109563	
0.129577	
0.162519	
0.149762	
0.126003	
0.182339	
-0.182408	
-0.192138	
-0.357546	
-0.327112	
0.0469895	
-0.0877688	
0.0334515	
-0.324131	
-0.350112	
0.00256696	
-0.0121751	
0.0100278	
0.000595958	
-0.109194	
-0.0694903	
-0.0617078	
-0.0144095	
0.0182009	
-0.00220637	
0.0651368	
0.0854461	
0.108889	
-0.0109135	
-0.0417504	
-0.0107918	
-0.0290636	
-0.00977905	
0.0341762	
0.110505	
0.111266	
0.0929116	
0.024152	
0.00207657	
-0.0731858	
0.135447	
0.0966929	
0.0187449	
0.00540144	
0.191576	
-0.212986	
0.0623881	
-0.0204495	
-0.0321808	
0.210855	
0.190918	
0.203029	
-0.212646	
-0.165532	
-0.110848	
-0.00168449	
-0.121616	
-0.0715008	
0.198902	
0.184215	
0.139868	
0.115451	
0.0667405	
-0.063111	
-0.134286	
-0.0870976	
0.178953	
0.0296272	
-0.384632	
-0.387489	
-0.385813	
-0.214231	
0.0605793	
0.000257824	
-0.00338609	
0.015678	
0.0152957	
0.0236354	
-0.0138993	
0.124774	
0.120096	
-0.139197	
-0.0708153	
-0.193396	
-0.129503	
-0.0485717	
-0.163734	
-0.0744686	
0.0428218	
-0.261497	
-0.244075	
0.136879	
0.0621618	
0.10762	
-0.0389968	
-0.00258993	
0.155469	
0.156656	
0.138103	
0.155158	
0.142825	
0.0758226	
0.0534633	
0.138186	
0.0459018	
0.196467	
0.186199	
-0.113869	
-0.246116	
0.181306	
0.178002	
0.188027	
0.0194186	
0.189725	
0.201152	
0.187682	
0.197456	
0.206233	
0.191074	
-0.225668	
-0.25436	
0.206434	
0.188182	
0.193984	
0.181294	
-0.353879	
0.0374759	
0.00937794	
0.0230277	
0.189819	
0.172724	
0.157628	
0.179793	
0.0632015	
0.0653011	
0.0153704	
0.018544	
0.132348	
-0.140531	
0.0291317	
0.0727344	
-0.0591717	
0.144865	
0.15415	
0.126033	
0.0926606	
0.202368	
0.0363441	
0.0821983	
-0.0228857	
-0.00939254	
0.104573	
0.129067	
0.136313	
0.0486528	
-0.0651349	
-0.0406087	
-0.021991	
0.019076	
0.0551374	
0.0847995	
-0.0260258	
0.0360853	
-0.0197378	
0.196885	
0.181972	
0.0665489	
-0.00719351	
0.0869071	
0.14777	
-0.00386254	
-0.116927	
-0.00692718	
-0.119185	
0.103773	
-0.0352408	
-0.0390675	
-0.0237189	
0.122887	
0.0948028	
0.0911658	
0.0330872	
0.0943097	
0.0556297	
0.00455063	
0.00818933	
0.0282789	
0.0231326	
0.00789741	
-0.0384692	
-0.0853883	
0.115571	
0.0376565	
0.0360048	
0.0229888	
0.128927	
0.0265509	
-0.0124416	
0.0674551	
0.0786716	
0.105718	
-0.342034	
-0.00980561	
-0.0337925	
0.0580214	
0.0659877	
0.151234	
0.0926554	
0.0810796	
0.0727251	
-0.111558	
-0.0710682	
0.0370973	
0.0109042	
-0.0201903	
-0.0655593	
0.0969387	
0.0648074	
0.0577712	
0.0600275	
-0.0458532	
0.0288654	
-0.247529	
-0.231142	
-0.147792	
-0.134632	
0.144094	
-0.0446217	
-0.16718	
0.129407	
-0.0918331	
0.0269088	
-0.143762	
-0.215846	
-0.0676052	
-0.0354816	
0.0162475	
-0.017198	
-0.0981247	
-0.158603	
-0.0882209	
-0.0399801	
-0.0233178	
-0.00104422	
-0.147797	
0.131125	
0.0088808	
0.0358268	
0.0742802	
-0.105796	
-0.0714083	
-0.0848728	
-0.139435	
-0.213346	
0.121647	
0.109666	
-0.0203241	
0.0321329	
-0.11172	
-0.134398	
0.110593	
0.0371579	
0.0685519	
-0.0298883	
-0.0125591	
-0.119316	
-0.0803603	
-0.30925	
-0.346515	
0.0484898	
-0.246273	
0.0453154	
0.00478389	
-0.140709	
0.134018	
-0.0984852	
-0.0875086	
-0.0125516	
-0.0582338	
0.18317	
0.0973114	
0.145931	
0.0820959	
0.102487	
0.203108	
0.190769	
-0.0512537	
-0.0438137	
0.0472704	
0.0645623	
-0.340647	
-0.135576	
-0.165211	
-0.38251	
-0.0180739	
0.0500687	
-0.0313765	
-0.04124	
-0.137467	
-0.112444	
0.034097	
-0.0106221	
0.00328698	
0.193969	
0.178611	
0.0649351	
0.00322233	
-0.0361876	
0.0864826	
0.117702	
0.0394481	
0.0711277	
0.0258754	
-0.0540276	
0.189741	
0.207606	
0.20477	
0.192868	
-0.19449	
0.185452	
0.164215	
-0.00267964	
-0.0910028	
0.0174543	
0.15616	
0.175327	
0.15464	
0.174763	
0.162869	
0.140158	
0.0647245	
0.0501066	
-0.00108771	
0.00439171	
0.117786	
0.124484	
-0.130031	
-0.36346	
-0.341053	
0.0394485	
0.0273642	
0.197559	
0.17922	
0.212398	
0.196296	
0.148733	
0.116461	
-0.0727022	
0.10853	
0.139913	
0.125947	
0.142408	
0.143508	
0.161852	
0.156482	
0.136155	
-0.206945	
-0.229292	
0.177008	
0.162147	
0.0973213	
0.0567643	
0.143608	
0.142384	
0.203292	
0.189971	
-0.0335121	
-0.0926497	
-0.15778	
-0.0723454	
0.015687	
0.101907	
0.0446128	
0.112924	
-0.0853857	
-0.0736074	
-0.252009	
0.11467	
0.111108	
0.166966	
0.191335	
-0.0721358	
0.037173	
-0.0395978	
0.0170724	
-0.0511051	
-0.0139502	
0.0579199	
0.059677	
0.109111	
-0.0263088	
-0.0269871	
-0.0381752	
-0.0429608	
0.202854	
0.176094	
0.17933	
-0.103552	
-0.150822	
0.0644014	
-0.00914036	
0.0586792	
-0.0405851	
0.0618936	
0.0528391	
-0.0827377	
-0.0913364	
0.0763284	
-0.00414086	
0.00388641	
-0.296735	
-0.00812542	
0.0374938	
0.0772619	
0.0804304	
-0.157057	
-0.16885	
-0.237889	
-0.0188646	
0.0198276	
0.164701	
0.151996	
0.00815813	
0.0654745	
0.0870304	
0.0924886	
-0.0038254	
-0.0447518	
-0.0988152	
-0.100435	
0.192738	
0.181728	
0.186023	
0.0601817	
0.0627438	
0.113825	
0.0574951	
-0.139064	
-0.136232	
-0.193165	
-0.0944117	
-0.0873048	
-0.0155013	
0.112141	
0.113592	
0.0779733	
0.0393259	
-0.177387	
-0.178398	
-0.0105992	
-0.0298219	
-0.222424	
-0.195884	
-0.26767	
-0.117843	
0.171366	
0.15594	
0.130565	
0.19016	
0.209438	
-0.0741839	
-0.0135121	
-0.0685685	
0.0641502	
0.108961	
0.0237449	
0.069333	
0.0994877	
0.126903	
0.103289	
0.129434	
-0.037118	
-0.0226665	
0.142504	
0.141365	
-0.160507	
-0.134493	
-0.202828	
0.18449	
0.192072	
0.183782	
0.139834	
0.104366	
0.15682	
0.108564	
0.15406	
0.0766726	
0.134179	
0.131029	
0.165235	
-0.0556437	
-0.0454372	
-0.0477219	
0.136792	
-0.0563336	
-0.0758567	
-0.173524	
0.0558965	
0.0305208	
-0.240353	
-0.247649	
-0.0523755	
-0.0594518	
0.118174	
0.0658427	
-0.129967	
-0.297165	
-0.261719	
0.176529	
0.175103	
0.15927	
0.174473	
0.172432	
0.0468492	
0.088559	
0.0308803	
0.0379668	
0.185773	
-0.040178	
-0.200284	
-0.0410882	
0.0196577	
-0.0174976	
-0.0258057	
0.0150504	
-0.342235	
0.0524226	
0.06162	
0.141825	
0.111089	
0.156839	
0.124588	
0.143182	
0.133349	
0.130463	
0.0255872	
0.0572197	
0.0498879	
0.0766361	
0.130211	
0.109025	
0.0268961	
0.140206	
0.154475	
0.106521	
0.123786	
0.113523	
0.137972	
0.117593	
0.114845	
0.0524615	
0.0548678	
0.128764	
0.110149	
0.118261	
0.0728056	
-0.0639022	
-0.0659767	
-0.0488674	
-0.0161197	
-0.0967751	
-0.0317328	
0.073343	
0.0550249	
0.10234	
0.157808	
0.124068	
0.137542	
0.0854073	
0.00934476	
-0.011898	
0.056871	
-0.01584	
0.0169542	
-0.0290022	
0.0543925	
0.178928	
0.178655	
-0.319546	
-0.279984	
0.122758	
0.113274	
-0.00838362	
-0.0231807	
0.130543	
-0.0744908	
-0.0581172	
0.173997	
0.160022	
0.188618	
0.207152	
0.0589173	
0.0356932	
0.141363	
0.125335	
0.176719	
0.0189424	
0.0592307	
0.123115	
0.0773404	
0.113258	
0.085256	
0.11176	
0.20639	
0.0312601	
0.0314746	
0.180617	
0.0498397	
0.103684	
0.102251	
0.0297535	
0.00489172	
0.107127	
0.113481	
0.14717	
0.185318	
0.19042	
0.200067	
-0.206446	
0.122236	
0.0712318	
-0.059732	
0.0307255	
0.0681092	
0.144448	
0.142212	
0.196275	
0.187786	
0.155028	
0.146262	
-0.202461	
-0.125391	
-0.0911798	
-0.107946	
0.0832357	
0.0642276	
0.0712001	
-0.089518	
-0.0609014	
-0.266023	
-0.08209	
-0.0729868	
-0.130733	
-0.276958	
-0.215986	
-0.147115	
-0.135844	
-0.119668	
-0.101284	
0.146869	
0.135005	
0.0706581	
-0.0628399	
-0.0519118	
-0.143617	
-0.143764	
-0.209933	
-0.206828	
-0.0535412	
-0.0716956	
-0.337658	
-0.047635	
-0.195456	
0.0879125	
0.092054	
0.0649365	
0.0669087	
0.170738	
0.170063	
-0.0520682	
-0.0947445	
-0.000309314	
-0.00357821	
0.047044	
0.0275516	
0.0433987	
0.0264981	
-0.198974	
-0.224751	
-0.165341	
-0.0226506	
0.134579	
0.121743	
0.0585551	
0.0381549	
-0.245656	
-0.226939	
-0.08784	
-0.190547	
-0.232249	
-0.212647	
-0.265461	
0.200352	
0.183738	
-0.0261051	
-0.0819737	
-0.0600474	
-0.0542971	
-0.0804047	
-0.18956	
-0.173259	
0.0554549	
0.011215	
-0.157493	
-0.050804	
-0.256138	
-0.246937	
-0.149533	
-0.13002	
-0.137647	
-0.124571	
-0.149429	
-0.147802	
-0.103187	
-0.102334	
0.148099	
0.0754873	
0.132729	
0.114512	
0.111657	
0.115374	
0.0816319	
-0.234167	
-0.189268	
-0.194649	
-0.205378	
-0.197707	
-0.263416	
-0.272435	
-0.318546	
-0.177712	
-0.117352	
-0.216002	
-0.1904	
-0.289051	
-0.334034	
-0.333561	
-0.369295	
-0.0352647	
-0.0378407	
-0.0399834	
-0.0476637	
-0.21092	
-0.217617	
-0.169787	
-0.159764	
-0.128504	
-0.137527	
-0.0929029	
-0.308431	
-0.0349734	
-0.0199234	
-0.308193	
-0.266111	
-0.0135804	
-0.0234675	
-0.0284929	
-0.147508	
-0.143421	
-0.0247474	
-0.0334751	
-0.0773268	
-0.0844286	
-0.172585	
-0.164317	
0.0883434	
0.0221259	
0.00205055	
-0.00570954	
0.0972682	
0.0492014	
-0.120097	
-0.0959733	
-0.119585	
-0.0182781	
-0.282833	
-0.329856	
-0.0985761	
-0.114582	
0.1961	
0.122327	
0.209235	
0.180378	
-0.37798	
-0.371573	
0.0456781	
0.00234124	
-0.312889	
-0.278328	
-0.332172	
-0.298478	
-0.283144	
-0.293691	
-0.221805	
-0.191804	
-0.31876	
-0.359038	
-0.358345	
-0.352868	
-0.350798	
-0.183501	
-0.129628	
-0.104396	
-0.300479	
-0.327243	
-0.354143	
-0.244184	
0.188278	
0.156718	
0.209143	
0.191929	
-0.32844	
-0.300012	
-0.21869	
-0.20697	
-0.19347	
-0.00719721	
-0.00780019	
-0.29851	
-0.297958	
-0.333547	
-0.303151	
-0.325644	
-0.0590206	
-0.0697686	
-0.0821673	
-0.104129	
-0.216893	
-0.258297	
-0.217622	
-0.243479	
-0.272166	
-0.303691	
0.208393	
0.183845	
0.18203	
0.142821	
-0.250107	
-0.13484	
-0.123057	
-0.135881	
0.181177	
0.138222	
0.161021	
0.0810204	
-0.351506	
0.0814603	
0.12557	
0.114504	
0.135577	
-0.336439	
-0.355286	
-0.339555	
-0.343428	
-0.334519	
-0.340992	
-0.299782	
-0.110189	
-0.100369	
-0.0988835	
-0.0989752	
0.137428	
0.19543	
0.133998	
0.193041	
0.129004	
0.11993	
0.122907	
0.0734372	
-0.253896	
-0.274772	
-0.253611	
-0.239052	
-0.34426	
-0.358976	
-0.345638	
-0.351994	
0.0776714	
0.136781	
0.0818476	
0.138311	
0.163501	
0.130014	
0.150825	
0.0931669	
0.112312	
0.0883732	
0.111552	
0.0876328	
0.173428	
0.201567	
0.204839	
0.209592	
0.220497	
0.141388	
0.231042	
0.235388	
0.23614	
0.244272	
0.248647	
0.254108	
0.228342	
0.190602	
0.168963	
0.0472337	
0.255785	
-0.00764846	
-0.00157927	
-0.0336636	
0.182682	
0.248585	
0.233936	
0.265202	
0.261244	
0.268181	
0.255936	
0.262979	
0.253668	
0.246196	
0.170214	
0.216959	
0.196146	
0.218351	
0.189093	
0.149425	
0.216921	
0.158692	
0.101655	
0.256927	
0.235806	
0.234619	
0.0943205	
-0.0443341	
0.248105	
-0.0269765	
-0.0409722	
0.0141507	
0.0706647	
0.0428995	
-0.0348221	
0.0407199	
0.00240422	
0.0703572	
-0.0537961	
0.0165253	
0.0651803	
0.0837082	
0.0410772	
-0.00326445	
-0.0442963	
0.208665	
-0.0296999	
0.176816	
0.10615	
0.108903	
0.0861056	
0.0478343	
0.0543757	
0.0724884	
0.0811964	
0.020346	
0.0594146	
0.0136953	
0.0396443	
0.020958	
0.0322864	
0.0312218	
0.044806	
0.0870676	
0.0524195	
0.0571758	
0.0683058	
0.0887867	
0.0461729	
-0.0224308	
-0.026049	
0.0216962	
-0.0018448	
-0.00758357	
0.0346088	
0.0640517	
0.0592345	
0.00542513	
-0.0192518	
-0.0286601	
-0.00826846	
0.0330822	
-0.0613416	
-0.0400206	
-0.0639334	
0.167622	
0.188332	
0.185294	
0.223838	
0.0104351	
0.100162	
0.153558	
0.160973	
0.189829	
0.000162863	
0.151573	
0.129133	
-0.0579954	
-0.038535	
-0.0296217	
0.13384	
-0.0313498	
0.143726	
-0.00352124	
0.204246	
0.207887	
-0.0690036	
0.0761544	
0.0399904	
0.00258134	
0.0742905	
0.0158296	
0.245914	
0.230093	
0.2234	
-0.0498693	
0.0843074	
0.217676	
-0.0135507	
-0.016688	
0.208399	
0.230267	
0.0072711	
0.0487313	
0.198732	
0.140249	
-0.0617785	
-0.0497263	
0.111004	
-0.0225859	
-0.0175076	
-0.00773064	
-0.0013929	
0.251029	
0.208232	
0.213751	
0.131972	
0.16695	
0.244429	
0.273336	
0.255007	
0.0581134	
0.169439	
0.243214	
0.194002	
0.108901	
0.130186	
0.142584	
0.160761	
0.00578244	
0.12038	
0.0851451	
0.0988231	
0.0673862	
0.120288	
0.118165	
0.188863	
0.150192	
0.194371	
0.115763	
0.156588	
0.129596	
0.16739	
0.117431	
0.124892	
0.157709	
0.205937	
0.140624	
0.151046	
0.159318	
0.159051	
0.141933	
0.265968	
0.267952	
0.277779	
0.265374	
0.281494	
0.249862	
0.116372	
-0.0244645	
0.0225557	
0.0278277	
0.12452	
0.232414	
0.178812	
0.110415	
0.183289	
0.170427	
0.123769	
0.236639	
0.270104	
0.275376	
0.230605	
0.249684	
0.259544	
0.277922	
0.262273	
0.252755	
0.277395	
0.262043	
0.261875	
0.269958	
0.24436	
0.242499	
0.268479	
0.268204	
0.274231	
0.103823	
0.278612	
0.225846	
0.246454	
0.200172	
0.226321	
0.269139	
0.270302	
0.274127	
0.204245	
0.196476	
0.224427	
0.208742	
0.217861	
0.220676	
0.195551	
-0.0464993	
-0.0516728	
0.239352	
0.226863	
0.251697	
0.229615	
0.201673	
0.182597	
0.200571	
0.258341	
0.233761	
0.233637	
0.240723	
0.166515	
0.209457	
0.0850648	
0.261594	
0.248838	
0.0932269	
0.185924	
0.163102	
0.231941	
0.124592	
0.129925	
0.206512	
0.147145	
0.273216	
0.134445	
0.132356	
0.160347	
0.222309	
0.193822	
0.180924	
0.267073	
0.0481254	
0.10754	
0.0416729	
0.0771748	
0.194905	
0.186457	
0.154568	
0.184533	
-0.0217501	
0.258576	
0.241227	
-0.00449828	
0.00538403	
-0.0194161	
0.000831825	
0.116414	
0.0889481	
0.159172	
0.165569	
0.188881	
0.152532	
0.189769	
0.00673762	
0.16006	
0.132693	
0.174659	
-0.0381667	
-0.0516084	
-0.0428761	
-0.0511182	
0.11657	
0.113221	
0.143265	
0.133401	
0.151599	
0.0879717	
0.0959347	
0.200198	
0.177447	
0.201439	
0.213146	
0.155144	
0.102307	
0.0901707	
0.0989366	
0.0715335	
0.280573	
0.172763	
0.200354	
0.153874	
0.171068	
0.120552	
0.147368	
0.116629	
0.156511	
0.142049	
0.0160222	
0.205906	
0.213984	
0.180368	
0.238955	
0.237562	
0.149788	
0.176225	
0.12443	
0.128086	
-0.0539683	
-0.0386364	
-0.063055	
-0.0616899	
0.102022	
0.208321	
0.240368	
0.210998	
0.198919	
0.210227	
0.171136	
0.218343	
0.215814	
0.214437	
0.204789	
0.0479843	
0.106195	
0.265419	
0.242224	
0.267869	
0.204616	
0.194937	
0.265381	
0.266731	
0.23206	
0.245013	
0.259955	
0.204319	
0.23102	
0.174008	
0.177411	
0.18692	
0.248754	
0.235819	
0.249746	
0.222809	
0.264545	
0.231828	
0.251713	
0.000881283	
0.18632	
0.197659	
0.166012	
0.237992	
0.240027	
0.232392	
0.227251	
0.245619	
0.256032	
0.107632	
0.136076	
0.124836	
0.141202	
-0.053877	
0.217747	
0.183847	
0.187573	
0.117567	
0.149983	
0.153739	
0.17447	
0.157212	
0.166048	
-0.0442928	
-0.0330752	
-0.0481806	
-0.0305824	
0.2453	
0.207954	
0.245347	
0.211479	
0.0852541	
0.216759	
0.224061	
0.222079	
0.249626	
0.232428	
0.260639	
0.15017	
0.135994	
0.218535	
0.214414	
0.222394	
0.182594	
0.186147	
0.0241192	
0.0689297	
0.266052	
0.227336	
-0.0209308	
0.19189	
0.219214	
0.227676	
0.228935	
0.211303	
0.200622	
0.198561	
0.258008	
0.26038	
0.253236	
0.151132	
0.261764	
0.266451	
0.0611472	
0.0848861	
0.0842466	
0.223854	
0.221127	
0.221953	
0.266185	
-0.0676367	
-0.0617627	
0.2566	
0.25196	
0.244339	
0.222441	
-0.0624307	
-0.0568267	
0.166609	
0.153869	
0.11723	
0.119061	
0.22308	
0.0768844	
0.0912024	
0.152573	
0.153331	
0.171269	
0.169583	
0.265832	
0.258945	
0.00181323	
0.0168667	
0.0770282	
0.0430006	
0.107218	
0.107258	
0.136021	
0.180506	
0.178334	
0.166981	
0.160724	
0.274295	
0.261255	
0.237675	
0.253099	
0.267126	
0.0854866	
0.0792726	
0.206945	
0.205589	
0.188998	
0.188756	
0.0265018	
0.0473733	
0.266131	
0.267099	
0.209214	
0.206426	
0.146352	
0.108287	
0.155782	
0.101363	
0.223049	
0.229866	
0.205241	
0.206697	
0.212055	
0.210305	
0.206522	
0.190719	
0.266888	
0.268431	
0.252485	
0.170674	
0.171594	
0.201627	
0.197998	
0.165449	
0.171708	
0.236655	
0.242485	
0.162102	
0.178905	
0.261392	
0.265517	
0.18607	
0.226135	
0.23475	
0.218388	
0.188852	
0.226598	
0.271176	
0.264255	
0.24238	
0.242311	
0.234713	
0.24318	
0.130353	
0.187631	
0.126558	
0.26437	
0.275075	
0.261301	
0.255552	
0.100509	
0.0728153	
0.0756608	
0.0580236	
0.261805	
0.256143	
0.266385	
0.273217	
0.00673604	
0.256906	
0.266512	
0.263625	
0.256259	
0.127074	
0.165522	
0.267008	
0.27509	
0.265595	
0.120012	
0.132295	
0.137873	
0.146225	
0.195294	
0.191862	
0.186644	
0.189795	
0.269371	
0.1662	
0.163591	
0.213516	
0.213762	
-0.00239266	
-0.0117982	
0.24809	
0.262663	
0.262544	
0.194756	
-0.00878297	
0.233143	
0.229231	
0.239048	
0.240929	
0.179291	
0.270224	
0.268402	
0.0402669	
0.0108996	
0.184863	
-0.0657975	
-0.0590165	
-0.0651283	
0.176406	
0.0652905	
0.0262362	
0.0502514	
0.0252002	
0.23989	
0.126467	
0.166157	
0.263573	
0.248997	
0.264286	
0.262645	
0.266268	
-0.0040049	
-0.0250081	
0.23775	
0.222523	
0.266887	
0.257703	
0.0212864	
0.183291	
0.168593	
0.137492	
0.204361	
0.175032	
0.225448	
0.21723	
0.130772	
0.123736	
0.263761	
0.273561	
0.0653244	
0.0540618	
0.247661	
0.255455	
0.267761	
0.267304	
0.272892	
0.265743	
-0.0590432	
-0.0615721	
0.0986455	
0.0984033	
0.0279183	
0.0199273	
0.00957512	
0.245281	
0.246519	
0.220126	
0.230747	
0.214011	
0.220645	
0.273038	
0.198096	
0.259189	
0.243829	
0.238437	
0.124998	
0.0688639	
0.270629	
0.262121	
-0.0367273	
-0.00588894	
0.0112401	
0.0659254	
0.213276	
0.143049	
0.247505	
0.240906	
0.0613787	
0.0843497	
0.0377968	
0.2458	
0.160104	
0.163748	
0.254518	
0.252759	
0.093364	
0.0742614	
-0.0141147	
-0.0159238	
0.197036	
0.200562	
0.184051	
0.192712	
0.240997	
0.20761	
0.183498	
0.226052	
0.218958	
0.198939	
0.0094644	
0.0568391	
0.0504886	
0.132264	
0.0739148	
0.184542	
0.214152	
0.26158	
0.102826	
0.103263	
0.210206	
0.198762	
0.25201	
0.129315	
0.130905	
0.0997329	
0.0360223	
0.0169825	
0.0443198	
0.0161783	
0.0426485	
0.164029	
0.194856	
0.191728	
0.219858	
0.0735007	
0.057932	
0.0960631	
0.0802578	
0.164588	
0.163465	
0.176147	
0.173409	
0.164374	
0.179236	
0.179138	
-0.0690574	
-0.0240682	
-0.0633701	
-0.0489784	
-0.027929	
0.13165	
0.134886	
-0.0645924	
0.110658	
0.126918	
0.0981143	
0.12985	
0.117609	
0.032674	
-0.039368	
0.0777226	
0.137913	
-0.0690982	
0.111218	
-0.0628751	
-0.069274	
-0.0682817	
0.0348247	
0.0708243	
0.263246	
0.24039	
0.267144	
0.242384	
0.268768	
0.268763	
0.137536	
0.0904436	
0.274847	
0.262498	
0.148554	
0.192984	
0.143449	
0.192014	
0.0445683	
0.0603231	
0.213444	
0.0925251	
0.086411	
-0.0652368	
0.173473	
0.089016	
0.0890612	
0.0542026	
0.181074	
0.258463	
0.268413	
0.192764	
0.017675	
0.0113748	
0.165015	
0.195419	
0.228004	
0.219033	
-0.0522329	
-0.0381486	
0.26882	
0.264244	
0.250383	
-0.0359177	
0.26617	
0.184292	
0.186642	
0.203279	
0.193093	
0.129387	
0.082083	
0.269097	
0.25634	
0.166563	
0.169414	
0.233764	
0.245057	
0.214409	
0.0553906	
0.0671718	
0.233582	
0.258499	
0.232111	
0.0803344	
0.204369	
0.20854	
0.126245	
0.216637	
0.247812	
-0.0695262	
0.219472	
0.217022	
0.209772	
0.264557	
0.248663	
0.14203	
0.266865	
0.139643	
0.166647	
0.141837	
0.144186	
0.1171	
0.275574	
0.248961	
0.265177	
0.276143	
0.265555	
0.265289	
0.247789	
0.251046	
0.244943	
0.241819	
0.202397	
0.219552	
0.255493	
0.250062	
0.0777298	
0.0479982	
0.240634	
0.253937	
0.270746	
0.250949	
0.27028	
0.0614288	
0.0720942	
0.0695468	
0.0962695	
0.26785	
0.261873	
0.203158	
0.223213	
0.220628	
0.143705	
0.144122	
-0.0662192	
-0.0632763	
0.132492	
0.117832	
0.11557	
0.113021	
0.109754	
0.109479	
0.0846767	
0.259845	
-0.053482	
-0.054199	
-0.0687654	
-0.0704303	
0.212504	
0.162187	
0.161103	
0.2485	
-0.0711232	
-0.0663285	
-0.0491539	
-0.0528818	
-0.0680118	
-0.0685962	
0.214865	
0.216582	
0.20598	
0.202808	
-0.0298895	
-0.0124386	
-0.0368674	
-0.0211858	
0.119805	
0.123021	
0.0987163	
0.194147	
0.21948	
0.252518	
0.240137	
0.247895	
0.251123	
0.251259	
0.238084	
0.225575	
0.233932	
0.206578	
0.201089	
0.223544	
0.219068	
0.106653	
0.0962357	
0.106281	
0.0407798	
-0.00403529	
0.0997208	
0.0674953	
-0.0584986	
-0.0404837	
-0.0656456	
0.0754927	
0.173853	
0.122297	
0.119209	
0.0582712	
0.0441993	
-0.0242098	
-0.0444842	
0.227168	
0.226439	
0.0594249	
0.105267	
0.0915611	
0.250617	
0.256102	
0.239951	
0.245752	
0.260643	
0.229162	
0.226919	
0.0837997	
0.0711001	
0.121208	
0.102107	
0.130808	
0.121281	
-0.00304844	
0.0223409	
0.102162	
0.106563	
0.173034	
0.175937	
0.124457	
0.114501	
0.089879	
0.086977	
0.176071	
0.173312	
0.161005	
0.125318	
0.160077	
0.166536	
0.234513	
0.24737	
0.161815	
0.152082	
0.12598	
0.167344	
0.191046	
-0.0207571	
0.0282167	
-0.028805	
0.249194	
0.248712	
0.231657	
0.217019	
0.184627	
0.163546	
0.180998	
0.179478	
-0.0367603	
-0.0423624	
-0.0561637	
-0.0587092	
0.0458029	
0.0720378	
0.0846426	
0.167933	
0.144586	
0.181105	
0.18668	
0.207664	
0.185955	
0.253204	
0.249392	
0.225213	
0.233778	
0.233613	
0.234011	
-0.0479231	
-0.0537047	
-0.0350186	
-0.0401647	
0.178286	
0.157577	
0.168149	
0.167323	
0.0333769	
0.0960141	
0.0943089	
0.0860418	
0.0907163	
0.244876	
0.257653	
0.059157	
0.0292807	
0.262828	
0.261561	
0.248783	
0.26402	
0.260387	
0.26288	
0.0182287	
0.238973	
0.237428	
0.198407	
0.0942221	
0.0841682	
0.0701811	
0.0743851	
0.142377	
0.147	
0.229273	
0.245616	
0.255684	
0.258369	
0.176916	
0.172147	
0.0841842	
0.0931454	
0.233747	
0.225048	
0.0613087	
0.0783407	
0.127154	
0.107532	
0.130073	
0.150489	
0.10807	
0.118715	
0.118961	
0.081789	
0.0148711	
0.0420425	
0.0983999	
0.0802009	
0.251387	
0.267748	
-0.0164606	
0.140462	
0.113729	
0.261579	
0.259994	
0.0629702	
0.0709833	
0.103164	
0.0788603	
0.0846067	
0.0875297	
0.0277155	
0.057994	
0.0864002	
0.0747677	
0.135575	
0.12562	
0.074175	
0.0502895	
0.088876	
0.0608334	
0.224044	
0.225784	
0.168066	
0.182854	
0.148321	
0.139101	
0.0406395	
0.00988557	
-0.0483807	
0.00588953	
0.021734	
0.0193662	
-0.00735029	
0.165565	
-0.0211452	
0.135713	
0.13743	
-0.0171186	
-0.0440716	
-0.0347922	
-0.0433892	
0.110259	
0.117882	
0.0415011	
0.0436171	
0.0397529	
0.189424	
0.162135	
0.263929	
0.259718	
0.105794	
0.0852579	
0.075852	
0.0734905	
0.0861371	
0.126951	
0.123791	
0.149237	
0.148679	
0.0626607	
0.0656091	
0.0182565	
0.00880497	
0.0819115	
0.0583732	
0.0613621	
0.0382462	
0.100229	
0.102261	
0.0905576	
0.0838742	
0.0925918	
0.0856108	
0.0529151	
0.270549	
0.268644	
0.264133	
0.26945	
0.10087	
0.105116	
0.0929981	
0.0985562	
0.0968825	
0.0995117	
0.0967004	
-0.0158937	
0.00125438	
-0.00710615	
0.00944378	
0.0267656	
0.038114	
0.0180699	
0.00821446	
-0.0121161	
-0.00363205	
0.00422647	
0.0337796	
0.0198214	
0.0242134	
0.0124138	
0.0043067	
0.0202905	
0.00275107	
0.012188	
-0.0103843	
-0.0176567	
-0.0135971	
-0.00472279	
0.0271078	
0.0249869	
0.0186349	
0.010662	
-0.0145968	
-0.00998752	
-0.00418739	
0.0024856	
0.0332795	
-0.0635158	
-0.0490102	
0.0046906	
0.0329609	
-0.0255917	
-0.0309836	
-0.00882133	
0.0298999	
0.0235487	
0.00309584	
-0.0517273	
0.00237757	
-0.0288485	
-0.0726799	
-0.0549662	
0.0312596	
0.0158046	
-0.00469799	
-0.0666347	
-0.0417764	
-0.0174291	
0.0246698	
0.135271	
0.173515	
0.171907	
0.115622	
0.14115	
-0.0292855	
0.072155	
0.140587	
0.0534047	
0.094969	
0.1275	
0.0461796	
0.0372818	
0.117353	
0.118526	
0.0929527	
0.0940232	
0.0773427	
0.10273	
0.125901	
0.17212	
0.174402	
-0.0605168	
-0.0663193	
-0.0514349	
-0.0517141	
0.0010385	
0.0222617	
0.0107486	
0.163826	
0.149465	
0.153717	
0.0450695	
0.161466	
0.15314	
0.170024	
0.171149	
0.16767	
0.161838	
0.168674	
0.169493	
-0.055574	
-0.042139	
0.143553	
0.149368	
0.134593	
0.159121	
0.158137	
0.164131	
0.157384	
0.146134	
0.145725	
0.169268	
0.154536	
0.173263	
0.175049	
0.102641	
0.108885	
0.128072	
0.173858	
0.175145	
-0.0394509	
-0.0223116	
0.00855094	
-0.00456768	
-0.0281989	
-0.00630952	
-0.0264153	
0.0560792	
0.0353423	
0.0780171	
0.0741851	
0.117848	
0.135632	
0.111683	
0.130739	
0.101907	
0.160666	
0.164585	
0.12722	
0.0935331	
-0.151334	
-0.0298853	
0.0322861	
0.0667922	
-0.0249234	
0.0340286	
0.0461449	
-0.029197	
0.0602602	
0.0339924	
-0.00194789	
-0.00489911	
0.00848923	
0.0354635	
0.0449716	
0.135088	
0.156118	
-0.150113	
-0.171987	
-0.125703	
-0.129334	
-0.109426	
-0.0917415	
-0.0826034	
0.085024	
0.113537	
0.092776	
-0.0658949	
-0.0773456	
0.127863	
0.11923	
0.139594	
0.127975	
0.129424	
0.138869	
0.132464	
0.124806	
-0.159465	
-0.166378	
0.0726184	
0.0874098	
0.103602	
0.106556	
0.0834984	
0.0875056	
0.110832	
0.116031	
0.152492	
0.151316	
0.158981	
0.163313	
0.0467761	
0.0996969	
0.072452	
0.163899	
0.158838	
-0.14434	
-0.143169	
-0.118239	
-0.113208	
-0.108772	
-0.143049	
-0.121624	
-0.0181307	
-0.0639994	
-0.035565	
-0.0656773	
0.0378939	
0.0700652	
0.0163888	
0.0700187	
0.0433198	
-0.0513757	
0.0703055	
0.165254	
0.217935	
0.212132	
0.211257	
0.191	
0.206698	
0.195812	
0.185441	
0.207504	
0.20082	
0.204871	
0.192079	
0.199967	
0.195344	
0.172875	
0.154918	
0.174278	
0.184021	
0.179461	
0.213248	
0.174608	
0.205167	
0.203929	
0.190021	
0.209959	
0.197156	
0.205565	
0.0912827	
0.0978402	
-0.095796	
-0.0182098	
0.202141	
0.170484	
0.212751	
0.156356	
0.192053	
0.0940005	
0.172608	
0.18312	
0.21256	
-0.208599	
0.175168	
0.207803	
0.187852	
0.194367	
0.110033	
0.102426	
0.147169	
0.100138	
0.131138	
-0.00537305	
-0.361553	
0.0173163	
0.117132	
0.124853	
-0.07194	
-0.0287107	
0.0190502	
0.0487612	
-0.249076	
-0.328627	
-0.3388	
-0.344862	
-0.197128	
-0.00356438	
-0.0127089	
-0.233806	
-0.268538	
-0.151144	
-0.00440461	
-0.260943	
-0.294325	
-0.332338	
-0.333438	
-0.167102	
0.00829882	
-0.0871754	
-0.346299	
-0.344438	
-0.0825456	
0.175567	
0.089624	
0.170167	
-0.34796	
-0.0485323	
0.14034	
-0.0352215	
-0.00705386	
0.152745	
-0.246625	
-0.0276119	
-0.0901301	
-0.133598	
-0.208104	
-0.0650742	
0.157206	
-0.0957037	
0.0952742	
-0.0997405	
0.117306	
0.0838278	
0.0279271	
0.0700947	
-0.24226	
-0.224858	
0.0807002	
-0.00607638	
-0.103495	
-0.0393163	
-0.137412	
-0.102541	
-0.252811	
-0.0762011	
-0.0781277	
-0.160101	
0.151617	
-0.153972	
-0.326502	
0.1244	
-0.32256	
-0.320292	
-0.00320026	
0.0550526	
-0.318209	
-0.124343	
-0.180813	
-0.139291	
0.19735	
0.110497	
0.119918	
0.1196	
0.0501922	
0.0508933	
-0.00979747	
0.0412466	
-0.216397	
-0.13906	
0.170513	