<VTKFile type="UnstructuredGrid" version="0.1" byte_order="LittleEndian">
	<UnstructuredGrid>
		<Piece NumberOfPoints="3959" NumberOfCells="7450">
			<CellData Scalars="scalars">
				<DataArray type="Float64" Name="Doublet Strengths" NumberOfComponents="1" Format="ascii">
-0.0677517	
-0.0523456	
0.00363344	
0.0332147	
-0.0279292	
-0.0355206	
-0.0120356	
0.0293343	
0.022234	
0.000652311	
-0.0577682	
0.00325366	
-0.0280073	
-0.0714375	
-0.0540081	
0.0322746	
0.0178143	
-0.00256151	
-0.0632335	
-0.0390223	
-0.015097	
0.0263015	
0.137186	
0.175301	
0.173724	
0.116585	
0.14018	
-0.0717097	
0.0564125	
0.134533	
0.0456624	
0.0921589	
0.121059	
0.031566	
0.0192003	
0.107657	
0.110483	
0.0818654	
0.0818278	
0.071726	
0.0956822	
0.119857	
0.171152	
0.175479	
-0.0784964	
-0.0888457	
-0.0788398	
-0.109022	
-0.0265497	
-0.00234981	
-0.00223656	
0.161834	
0.145382	
0.149871	
0.0259854	
0.159573	
0.153043	
0.168357	
0.170307	
0.165598	
0.163829	
0.167018	
0.168797	
-0.0970107	
-0.127131	
0.137617	
0.143885	
0.127277	
0.155402	
0.154506	
0.163758	
0.156521	
0.142689	
0.143004	
0.170502	
0.155924	
0.174791	
0.175955	
0.0981859	
0.107533	
0.127578	
0.175672	
0.176244	
-0.0637129	
-0.055933	
-0.0135629	
-0.021644	
-0.044628	
-0.027903	
-0.0546265	
0.0467211	
0.0229202	
0.068646	
0.0623173	
0.111627	
0.131988	
0.106913	
0.1277	
0.105126	
0.164196	
0.167973	
0.130224	
0.0981152	
-0.111949	
-0.013391	
0.0427201	
0.0760434	
-0.0165798	
0.0409249	
0.0553528	
-0.0164914	
0.0705116	
0.0460035	
0.0117317	
0.00767107	
0.0156956	
0.0442104	
0.0537914	
0.140823	
0.160267	
-0.126168	
-0.118741	
-0.11141	
-0.110504	
-0.0887669	
-0.0680286	
-0.0707513	
0.0928335	
0.120014	
0.100464	
-0.0469817	
-0.0597118	
0.13314	
0.124089	
0.145138	
0.134471	
0.135671	
0.142645	
0.137988	
0.131064	
-0.121665	
-0.0852016	
0.0818322	
0.0964042	
0.111254	
0.114283	
0.0906971	
0.0941085	
0.117221	
0.121557	
0.155877	
0.155421	
0.163108	
0.166797	
0.0522741	
0.104925	
0.0772105	
0.167353	
0.162897	
-0.113367	
-0.117654	
-0.0924075	
-0.0992682	
-0.0935128	
-0.121824	
-0.101993	
-0.00771461	
-0.0494607	
-0.0258119	
-0.0536336	
0.0451924	
0.0765406	
0.0254145	
0.0770708	
0.0221391	
-0.13034	
0.0537489	
0.174633	
0.22083	
0.214504	
0.214326	
0.197318	
0.210483	
0.20133	
0.192184	
0.2114	
0.205693	
0.208067	
0.191086	
0.200234	
0.195833	
0.174299	
0.168495	
0.175669	
0.184828	
0.180493	
0.214582	
0.181784	
0.205272	
0.204413	
0.190225	
0.21053	
0.201569	
0.209866	
0.115973	
0.108091	
-0.0363069	
0.0120599	
0.202409	
0.178688	
0.216003	
0.167976	
0.192624	
0.080624	
0.181825	
0.189758	
0.214472	
-0.203008	
0.183839	
0.208428	
0.194571	
0.199621	
0.134598	
0.126991	
0.161507	
0.12493	
0.147625	
-0.0382248	
-0.258076	
-0.0071626	
0.107084	
0.115237	
-0.173592	
-0.071321	
-0.00674364	
0.0298377	
-0.293912	
-0.171926	
-0.210985	
-0.31708	
-0.178588	
0.00157756	
-0.0457081	
-0.243145	
-0.280733	
-0.154637	
-0.0324805	
-0.258329	
-0.29217	
-0.320996	
-0.327631	
-0.238716	
-0.0163065	
-0.098015	
-0.325233	
-0.318652	
-0.0663254	
0.173136	
0.102998	
0.166135	
-0.21401	
0.0107495	
0.133094	
0.0260332	
0.0279502	
0.146381	
-0.0859328	
0.0415435	
-0.0741	
-0.117133	
-0.236192	
-0.0225014	
0.151075	
-0.0532964	
0.086569	
-0.0127568	
0.106421	
0.0687774	
0.044734	
0.0835118	
-0.232182	
-0.2123	
0.0802724	
0.0368951	
-0.0168337	
0.0289838	
-0.0690917	
-0.0251508	
-0.237471	
-0.0849399	
-0.0843283	
-0.0715948	
0.156468	
-0.060502	
-0.147118	
0.122339	
-0.162642	
-0.170292	
0.0499358	
0.0832538	
-0.210459	
-0.106137	
-0.159482	
-0.0452326	
0.196441	
0.108105	
0.110402	
0.109786	
0.0390853	
0.0391307	
0.00395931	
0.0530702	
-0.240184	
-0.153968	
0.166452	
0.146588	
0.131418	
0.14242	
-0.0610884	
-0.0693101	
-0.0686474	
0.00218087	
-0.0197165	
0.00917904	
0.172971	
0.0674453	
0.0994555	
0.182984	
0.180029	
0.0960269	
-0.205692	
0.199217	
0.128071	
-0.0447246	
-0.111163	
0.187622	
0.205622	
0.0689118	
0.160944	
-0.236437	
-0.157904	
0.115369	
0.111992	
0.140015	
0.0480615	
0.198969	
0.178788	
0.163533	
0.165735	
0.152448	
0.169316	
0.190729	
0.186651	
0.16813	
-0.00251573	
0.0453762	
0.149896	
0.164417	
0.160984	
0.18723	
0.199006	
0.074462	
0.179326	
0.082902	
0.062302	
0.0538964	
0.0861049	
0.138766	
0.19788	
0.10784	
0.080682	
0.0557358	
0.063111	
0.118111	
0.120306	
0.139751	
0.143102	
0.0698042	
0.0187821	
0.0249022	
-0.0269566	
0.1968	
0.213402	
0.194875	
0.189693	
0.202656	
0.098944	
0.101557	
0.193662	
0.122978	
-0.153445	
0.0936776	
0.0280353	
0.0898906	
0.101945	
0.184934	
0.0264141	
-0.0602386	
-0.0340963	
0.0601447	
0.0616037	
0.0247181	
0.15152	
0.191345	
0.122015	
0.116738	
0.19499	
0.159175	
0.11425	
0.0617822	
0.0547525	
0.0852985	
0.0881166	
0.0417319	
0.155185	
0.159635	
-0.289484	
-0.250799	
-0.15032	
-0.114081	
-0.0558309	
0.134044	
0.126331	
0.143736	
0.17265	
0.16267	
0.14221	
0.192052	
-0.13677	
-0.145027	
-0.303149	
-0.277027	
0.073619	
-0.0598902	
0.0546998	
-0.276116	
-0.29905	
0.00295154	
-0.0123845	
0.00992367	
0.000598964	
-0.0699316	
-0.0334882	
-0.0266974	
-0.00575053	
0.022133	
0.0286679	
0.0892419	
0.107218	
0.10966	
-0.0109138	
-0.0420236	
-0.0108002	
-0.0270357	
-0.00726745	
0.0370837	
0.112556	
0.129242	
0.113651	
0.0513344	
0.0313964	
-0.0575153	
0.149254	
0.114287	
0.0201879	
0.00672042	
0.201043	
-0.188475	
0.0829607	
-0.0216215	
-0.0327285	
0.216935	
0.200566	
0.210573	
-0.175757	
-0.132212	
-0.074331	
0.0105594	
-0.104116	
-0.0564337	
0.205942	
0.1931	
0.156013	
0.134727	
0.0909823	
-0.060208	
-0.110474	
-0.0657729	
0.181784	
0.0574366	
-0.319082	
-0.323228	
-0.320477	
-0.168817	
0.070552	
0.0129595	
0.00937033	
0.014806	
0.0155981	
0.0459505	
0.0172366	
0.1256	
0.121228	
-0.12705	
-0.0596006	
-0.178814	
-0.0903931	
-0.0158845	
-0.121176	
-0.0392169	
0.0507791	
-0.217392	
-0.200586	
0.15319	
0.0870702	
0.127773	
-0.0044402	
0.00171988	
0.165535	
0.166114	
0.153302	
0.16751	
0.15859	
0.0992781	
0.0787357	
0.154302	
0.0718236	
0.203119	
0.195059	
-0.0897329	
-0.215597	
0.185562	
0.184033	
0.195995	
0.030644	
0.198927	
0.208034	
0.196625	
0.204495	
0.213465	
0.200741	
-0.186912	
-0.211989	
0.213199	
0.197791	
0.202497	
0.190985	
-0.299919	
0.0637598	
0.0386991	
0.0510368	
0.195187	
0.180274	
0.165427	
0.184453	
0.0874469	
0.0892715	
0.0443612	
0.0471816	
0.141083	
-0.120443	
0.048246	
0.0887046	
-0.035009	
0.150625	
0.15987	
0.142494	
0.112781	
0.210231	
0.0513443	
0.0956397	
-0.00514855	
0.00903171	
0.123191	
0.144631	
0.15295	
0.0750143	
-0.0283843	
-0.00658394	
0.010775	
0.0477943	
0.0737362	
0.101272	
-0.0019996	
0.056592	
0.0130181	
0.201689	
0.188983	
0.0652231	
0.0197173	
0.105356	
0.149054	
0.0216736	
-0.0828995	
0.0187848	
-0.0854065	
0.120717	
-0.0362766	
-0.0398805	
-0.0241476	
0.124541	
0.115308	
0.112229	
0.0342918	
0.0936248	
0.0554754	
0.00483417	
0.00785422	
0.0281404	
0.0313444	
0.0173022	
-0.0286829	
-0.0740289	
0.11633	
0.0367828	
0.0357795	
0.023343	
0.13385	
0.0355667	
0.0147117	
0.0878971	
0.0986354	
0.122721	
-0.289027	
0.000381503	
-0.0226238	
0.0659993	
0.0736967	
0.162628	
0.113228	
0.103033	
0.0957857	
-0.0888701	
-0.0505611	
0.0621045	
0.0386103	
0.00990761	
-0.0315079	
0.117765	
0.0681779	
0.0620272	
0.0641028	
-0.0212277	
0.0295525	
-0.196823	
-0.183194	
-0.105807	
-0.0942242	
0.156652	
-0.0155865	
-0.128837	
0.146233	
-0.0707895	
0.0301279	
-0.127077	
-0.198607	
-0.0670886	
-0.0343944	
0.0279168	
-0.00414375	
-0.0825439	
-0.138585	
-0.0716798	
-0.0240558	
-0.0180944	
0.0045044	
-0.102833	
0.146895	
0.0240607	
0.0499297	
0.0835237	
-0.0806097	
-0.0482807	
-0.0608952	
-0.11287	
-0.183265	
0.139935	
0.129492	
-0.0118543	
0.0389908	
-0.0985598	
-0.119609	
0.123981	
0.0484768	
0.0793146	
-0.0156322	
0.00200471	
-0.101689	
-0.0640993	
-0.254497	
-0.286395	
0.0729441	
-0.193494	
0.0463355	
0.0352548	
-0.0964198	
0.150928	
-0.0956479	
-0.0751576	
0.0186771	
-0.0227041	
0.188379	
0.117067	
0.159388	
0.103536	
0.121495	
0.209755	
0.200198	
-0.022097	
-0.0154942	
0.0687055	
0.0842861	
-0.315571	
-0.115935	
-0.144316	
-0.31393	
0.00207918	
0.0665363	
-0.00603514	
-0.0145356	
-0.10592	
-0.0812967	
0.0617672	
-0.0102744	
0.00349192	
0.202273	
0.188625	
0.0696586	
0.00862416	
-0.0285749	
0.106091	
0.134203	
0.0450195	
0.0728882	
0.0281892	
-0.0513585	
0.199595	
0.214408	
0.211825	
0.202252	
-0.183735	
0.190959	
0.170944	
0.0107589	
-0.0915334	
0.0426518	
0.161193	
0.179169	
0.162374	
0.180261	
0.166011	
0.144996	
0.0662725	
0.0520407	
0.000946475	
0.00654061	
0.119169	
0.125717	
-0.118936	
-0.306424	
-0.285424	
0.0392833	
0.0273289	
0.204447	
0.187928	
0.218365	
0.204848	
0.162019	
0.133592	
-0.0535371	
0.12841	
0.15591	
0.127675	
0.143511	
0.148693	
0.165955	
0.159796	
0.141265	
-0.183547	
-0.205916	
0.180646	
0.166931	
0.106534	
0.0671721	
0.149322	
0.147778	
0.210327	
0.199694	
-0.00857343	
-0.0641188	
-0.126476	
-0.0639123	
0.043245	
0.121232	
0.0690628	
0.114743	
-0.0460703	
-0.0356975	
-0.202407	
0.115314	
0.111834	
0.176232	
0.197902	
-0.0452238	
0.0521168	
-0.0214407	
0.0320909	
-0.0328637	
0.0076909	
0.075164	
0.0773995	
0.121664	
-0.023564	
-0.0241946	
-0.00586889	
-0.00996358	
0.2105	
0.182975	
0.184671	
-0.0673081	
-0.11038	
0.0795726	
0.0102273	
0.0735117	
-0.0197006	
0.0706791	
0.0621572	
-0.0819	
-0.0912799	
0.0992907	
0.000337955	
0.00749089	
-0.238967	
-0.000855987	
0.0433432	
0.0893169	
0.0927062	
-0.117943	
-0.128131	
-0.191669	
0.0137505	
0.02366	
0.170869	
0.159262	
0.0219912	
0.0754603	
0.100272	
0.105714	
0.0273947	
-0.00959598	
-0.0588253	
-0.06015	
0.198971	
0.188882	
0.19152	
0.0597906	
0.0636248	
0.114391	
0.0585109	
-0.125272	
-0.12242	
-0.178811	
-0.0816144	
-0.0746693	
-0.00510703	
0.112381	
0.113802	
0.0785684	
0.0401515	
-0.127624	
-0.128403	
0.0213359	
0.00412386	
-0.206665	
-0.180787	
-0.249843	
-0.109057	
0.177509	
0.166	
0.14717	
0.200008	
0.215421	
-0.0488368	
0.00743485	
-0.0439332	
0.0820791	
0.122918	
0.0443345	
0.0865868	
0.118279	
0.142366	
0.121463	
0.144329	
-0.0404038	
-0.0231501	
0.158353	
0.157426	
-0.115524	
-0.0925769	
-0.171314	
0.192111	
0.197725	
0.192208	
0.155396	
0.124167	
0.169663	
0.127913	
0.166975	
0.0837769	
0.139332	
0.136622	
0.167326	
-0.0580136	
-0.0467712	
-0.0491267	
0.152694	
-0.056988	
-0.07746	
-0.124196	
0.0569872	
0.0316386	
-0.185491	
-0.192285	
-0.055525	
-0.0618202	
0.137231	
0.0903873	
-0.128328	
-0.255988	
-0.224172	
0.180736	
0.181611	
0.169274	
0.179427	
0.179011	
0.0732535	
0.110703	
0.0586545	
0.0648724	
0.19639	
-0.00544943	
-0.184046	
-0.0440502	
0.0293616	
-0.0108972	
-0.0147393	
0.0241851	
-0.31672	
0.0585721	
0.0686738	
0.146195	
0.112048	
0.159691	
0.128747	
0.157844	
0.149462	
0.133201	
0.0266016	
0.0577723	
0.0506089	
0.0772829	
0.131712	
0.111563	
0.0539948	
0.156071	
0.167917	
0.126364	
0.141602	
0.132859	
0.153939	
0.11829	
0.115723	
0.0539646	
0.0565099	
0.130027	
0.11255	
0.120241	
0.0755808	
-0.0660874	
-0.0686627	
-0.013928	
0.0150845	
-0.056933	
0.000831615	
0.0961159	
0.0796067	
0.122069	
0.159623	
0.128114	
0.141234	
0.0907829	
0.0389539	
0.0200229	
0.0619071	
-0.00896537	
0.0233803	
-0.0219808	
0.0798487	
0.18536	
0.186092	
-0.293134	
-0.254558	
0.139995	
0.131721	
0.0213077	
0.00765697	
0.147543	
-0.0571851	
-0.0406228	
0.180033	
0.169632	
0.198359	
0.214183	
0.0816486	
0.0612062	
0.143792	
0.129222	
0.189107	
0.0360517	
0.0737633	
0.141619	
0.100673	
0.113487	
0.0850388	
0.111902	
0.212375	
0.0351776	
0.0352718	
0.192224	
0.0505104	
0.103396	
0.101586	
0.0513994	
0.0283305	
0.122666	
0.128374	
0.161438	
0.193657	
0.199325	
0.206724	
-0.179099	
0.140757	
0.0952119	
-0.0634553	
0.0444151	
0.0800805	
0.156401	
0.154648	
0.201721	
0.195561	
0.168245	
0.160962	
-0.192726	
-0.0818739	
-0.0514955	
-0.0662958	
0.0833321	
0.0645455	
0.0708438	
-0.0840414	
-0.0556748	
-0.206735	
-0.0829241	
-0.0745501	
-0.124846	
-0.25266	
-0.194237	
-0.141249	
-0.129766	
-0.115555	
-0.0981279	
0.1485	
0.137159	
0.0743572	
-0.06333	
-0.051674	
-0.0989518	
-0.100101	
-0.156213	
-0.156257	
-0.053032	
-0.0713776	
-0.301678	
-0.0119888	
-0.174867	
0.0867229	
0.0910359	
0.0650755	
0.0678357	
0.177096	
0.176413	
-0.0209224	
-0.0605052	
0.000536369	
-0.00284403	
0.0463905	
0.0269426	
0.0439214	
0.0271436	
-0.172237	
-0.197573	
-0.117412	
-0.021695	
0.151491	
0.140401	
0.0834571	
0.0654173	
-0.192106	
-0.17619	
-0.0486171	
-0.141245	
-0.212161	
-0.15998	
-0.205792	
0.208213	
0.193755	
-0.0255059	
-0.0764688	
-0.0547466	
-0.0503959	
-0.0758804	
-0.164542	
-0.149219	
0.0779293	
0.0378053	
-0.151755	
-0.0193357	
-0.237168	
-0.229186	
-0.145794	
-0.128009	
-0.133053	
-0.121546	
-0.14151	
-0.140933	
-0.095588	
-0.0956158	
0.149841	
0.0798494	
0.136036	
0.115006	
0.112067	
0.115735	
0.0820555	
-0.201606	
-0.158884	
-0.184508	
-0.195678	
-0.189645	
-0.234959	
-0.244911	
-0.28979	
-0.129748	
-0.0753467	
-0.163467	
-0.140594	
-0.228141	
-0.270919	
-0.268798	
-0.297399	
-0.038157	
-0.040258	
-0.043991	
-0.0511417	
-0.198374	
-0.208198	
-0.158071	
-0.151222	
-0.10658	
-0.114976	
-0.0531877	
-0.274713	
-0.000513674	
0.0129206	
-0.269655	
-0.230471	
-0.012255	
-0.0248817	
-0.0307587	
-0.117805	
-0.113733	
0.00851602	
0.000705541	
-0.0392272	
-0.0457129	
-0.163753	
-0.154431	
0.107837	
0.0470373	
0.0287352	
-0.00517476	
0.115821	
0.0720774	
-0.0774073	
-0.0557083	
-0.117904	
-0.0196061	
-0.259492	
-0.259969	
-0.0897418	
-0.105543	
0.204674	
0.14001	
0.215314	
0.19177	
-0.310653	
-0.302892	
0.0721975	
0.0329753	
-0.281861	
-0.218003	
-0.262812	
-0.234572	
-0.26138	
-0.274236	
-0.201455	
-0.171906	
-0.254584	
-0.325563	
-0.323577	
-0.282648	
-0.27867	
-0.133997	
-0.0857458	
-0.0632078	
-0.263762	
-0.290557	
-0.315016	
-0.184687	
0.19851	
0.170736	
0.214313	
0.201387	
-0.295882	
-0.269176	
-0.16475	
-0.153919	
-0.142462	
-0.00562242	
-0.00975586	
-0.279994	
-0.278218	
-0.30701	
-0.279288	
-0.300465	
-0.0571077	
-0.0674536	
-0.0806218	
-0.104292	
-0.161457	
-0.197431	
-0.162622	
-0.185674	
-0.211045	
-0.240692	
0.21422	
0.194732	
0.19321	
0.158336	
-0.23634	
-0.0902455	
-0.0798513	
-0.0911606	
0.184796	
0.145998	
0.166413	
0.0906891	
-0.303286	
0.0841096	
0.127347	
0.116259	
0.136354	
-0.292435	
-0.306646	
-0.297936	
-0.300007	
-0.29007	
-0.300548	
-0.259663	
-0.107855	
-0.0997736	
-0.0968447	
-0.0978515	
0.152498	
0.204135	
0.149473	
0.202345	
0.129462	
0.120895	
0.123835	
0.0751254	
-0.238014	
-0.257745	
-0.239967	
-0.225842	
-0.312248	
-0.327155	
-0.315048	
-0.322443	
0.0818714	
0.139341	
0.0860494	
0.140739	
0.166213	
0.135231	
0.155329	
0.0996291	
0.112396	
0.0883773	
0.1114	
0.0874096	
0.174286	
0.200905	
0.204567	
0.209247	
0.219166	
0.110973	
0.229623	
0.221859	
0.234498	
0.241959	
0.246223	
0.251015	
0.225998	
0.190117	
0.168642	
0.0260126	
0.253031	
-0.0351675	
-0.0530086	
-0.0640687	
0.182455	
0.247048	
0.23087	
0.261417	
0.258132	
0.263799	
0.252941	
0.258457	
0.249898	
0.242658	
0.146161	
0.215575	
0.195671	
0.215586	
0.186983	
0.148098	
0.214604	
0.156755	
0.101049	
0.253897	
0.231719	
0.231532	
0.0938707	
-0.0436972	
0.246673	
-0.0237538	
-0.0883468	
-0.00866251	
0.0489201	
0.0177237	
-0.0833945	
0.0204464	
-0.0261287	
0.0447624	
-0.0991168	
-0.0187608	
0.0488344	
0.0397571	
-0.0131742	
-0.0356163	
-0.0805859	
0.18168	
-0.0354873	
0.151345	
0.0352616	
0.0802613	
0.052933	
-0.000735461	
0.00210716	
0.000305598	
0.0319557	
-0.0423191	
0.0199086	
-0.0357828	
-0.0083515	
-0.0313876	
0.00759487	
0.0138162	
0.02224	
0.0128575	
-0.0112756	
0.00188382	
-0.00472334	
0.0396084	
-0.0154541	
-0.0756246	
-0.0682266	
-0.0181156	
-0.0458028	
-0.0660931	
-0.00815245	
-0.00227411	
-0.0119895	
-0.0521222	
-0.0733748	
-0.0661458	
-0.0490517	
-0.00164155	
-0.100779	
-0.089668	
-0.061749	
0.151132	
0.167096	
0.164506	
0.209345	
0.00704034	
0.0883395	
0.14403	
0.151352	
0.182121	
-0.000184965	
0.132053	
0.104766	
-0.0558996	
-0.0348284	
-0.036059	
0.0825387	
-0.0314919	
0.138631	
-0.00469078	
0.190809	
0.198125	
-0.0682719	
0.0728281	
0.0366851	
0.00185661	
0.066232	
0.0133802	
0.237278	
0.218143	
0.2111	
-0.0456803	
0.0658794	
0.199975	
-0.014096	
-0.0172004	
0.183744	
0.212127	
0.005326	
0.0467418	
0.173991	
0.126388	
-0.0612052	
-0.049585	
0.0843363	
-0.0229405	
-0.0178805	
-0.008171	
-0.00187952	
0.244982	
0.196993	
0.190593	
0.0816497	
0.123736	
0.220414	
0.266777	
0.248822	
0.0501702	
0.152078	
0.237955	
0.183109	
0.0983045	
0.122235	
0.125338	
0.148335	
0.00427799	
0.0966281	
0.0536995	
0.0732073	
0.0342435	
0.102051	
0.101985	
0.165469	
0.121511	
0.171122	
0.108698	
0.147714	
0.116116	
0.144219	
0.0898061	
0.0978189	
0.11172	
0.202069	
0.133712	
0.144862	
0.15511	
0.153469	
0.134101	
0.2489	
0.253856	
0.270654	
0.253746	
0.273031	
0.233166	
0.0668151	
-0.0244571	
0.0222347	
0.0274808	
0.0916257	
0.216347	
0.162672	
0.104932	
0.180103	
0.154541	
0.107396	
0.223427	
0.262567	
0.268289	
0.214901	
0.236428	
0.247726	
0.270216	
0.255021	
0.238715	
0.269731	
0.247734	
0.246788	
0.262817	
0.23873	
0.229275	
0.252883	
0.252584	
0.267876	
0.101526	
0.271402	
0.221809	
0.221799	
0.19349	
0.222586	
0.255792	
0.264017	
0.267262	
0.201029	
0.187714	
0.220074	
0.196667	
0.214197	
0.189773	
0.192364	
-0.0464749	
-0.0517404	
0.220456	
0.202533	
0.237703	
0.205665	
0.19839	
0.173433	
0.197349	
0.238525	
0.205824	
0.205431	
0.233786	
0.164527	
0.206437	
0.064108	
0.256787	
0.243125	
0.092534	
0.183004	
0.155258	
0.227129	
0.123093	
0.128575	
0.181855	
0.145469	
0.266548	
0.119403	
0.117843	
0.149611	
0.217838	
0.186945	
0.172924	
0.255635	
0.0451332	
0.105096	
0.0388867	
0.0746898	
0.162717	
0.152171	
0.142101	
0.166101	
-0.025846	
0.238393	
0.217019	
-0.00464432	
0.00510174	
-0.0195203	
0.000600203	
0.0969731	
0.0664171	
0.15227	
0.128098	
0.156736	
0.11069	
0.156571	
0.00638212	
0.121853	
0.0886032	
0.14081	
-0.0355804	
-0.0480721	
-0.0418806	
-0.0499258	
0.103329	
0.100298	
0.134794	
0.123627	
0.129832	
0.0740053	
0.0821617	
0.173555	
0.167359	
0.192854	
0.20655	
0.152929	
0.0994409	
0.0873708	
0.0823428	
0.0576916	
0.271688	
0.150341	
0.180771	
0.129435	
0.148114	
0.0661703	
0.128113	
0.0933192	
0.140161	
0.123588	
0.0155115	
0.191172	
0.202494	
0.139971	
0.224468	
0.223338	
0.137656	
0.166784	
0.111559	
0.116217	
-0.0509891	
-0.034459	
-0.0606854	
-0.0594776	
0.0931095	
0.185968	
0.221786	
0.188482	
0.170587	
0.184733	
0.137915	
0.208632	
0.201967	
0.201792	
0.188184	
0.0317987	
0.0907011	
0.247006	
0.217425	
0.253148	
0.170948	
0.160028	
0.254416	
0.251181	
0.213224	
0.228266	
0.246522	
0.170637	
0.203012	
0.15126	
0.16542	
0.177264	
0.238056	
0.221829	
0.238854	
0.206645	
0.247	
0.203997	
0.229195	
-0.00810813	
0.160947	
0.174684	
0.135385	
0.225989	
0.224866	
0.215454	
0.20757	
0.22705	
0.240383	
0.0922146	
0.125635	
0.111236	
0.131087	
-0.0557488	
0.185743	
0.143576	
0.14857	
0.0770244	
0.105306	
0.109107	
0.134562	
0.147183	
0.157785	
-0.0444231	
-0.0334017	
-0.0478053	
-0.0305955	
0.22048	
0.173349	
0.220796	
0.177922	
0.028201	
0.198804	
0.210807	
0.205934	
0.23504	
0.214507	
0.248902	
0.119101	
0.102806	
0.205531	
0.198175	
0.209536	
0.180158	
0.185473	
0.023601	
0.0686658	
0.250135	
0.201337	
-0.0246429	
0.176846	
0.207265	
0.197912	
0.199622	
0.177835	
0.199411	
0.195447	
0.241743	
0.246494	
0.23631	
0.142328	
0.256706	
0.259938	
0.0194961	
0.0510422	
0.0461773	
0.196406	
0.219229	
0.217582	
0.248117	
-0.0663479	
-0.0613432	
0.250497	
0.248401	
0.23059	
0.199601	
-0.061756	
-0.0564411	
0.140972	
0.128559	
0.0872789	
0.0910132	
0.195054	
0.0350237	
0.0514134	
0.150722	
0.15166	
0.162098	
0.16073	
0.259289	
0.255314	
0.000921148	
0.0157193	
0.0718732	
0.0384177	
0.047671	
0.102204	
0.131824	
0.172672	
0.168317	
0.155511	
0.147286	
0.267823	
0.257965	
0.211423	
0.231282	
0.251078	
0.0711618	
0.0637783	
0.177146	
0.176253	
0.188165	
0.186029	
0.00897516	
0.0296435	
0.255193	
0.251567	
0.188824	
0.186614	
0.136108	
0.0964468	
0.145393	
0.0887859	
0.221515	
0.225102	
0.204105	
0.203749	
0.208998	
0.209159	
0.197925	
0.180251	
0.253221	
0.252529	
0.230219	
0.169544	
0.171457	
0.165809	
0.16112	
0.120901	
0.129347	
0.234548	
0.237917	
0.117232	
0.138032	
0.257637	
0.259866	
0.168323	
0.224671	
0.229403	
0.186642	
0.150943	
0.197115	
0.264429	
0.258976	
0.227842	
0.231899	
0.216713	
0.229016	
0.119835	
0.180384	
0.116282	
0.259519	
0.267848	
0.254794	
0.251608	
0.0768971	
0.0427227	
0.0489623	
0.0272383	
0.257087	
0.253392	
0.262296	
0.266888	
-0.00703793	
0.25419	
0.261025	
0.257384	
0.251416	
0.109589	
0.149973	
0.261684	
0.268763	
0.261873	
0.109631	
0.12418	
0.129682	
0.140466	
0.193997	
0.18872	
0.174899	
0.180157	
0.263884	
0.166566	
0.162002	
0.212581	
0.210892	
-0.0558012	
-0.0621875	
0.243418	
0.256155	
0.256651	
0.175414	
-0.0104208	
0.229093	
0.226009	
0.23614	
0.235781	
0.165792	
0.25496	
0.256144	
0.0361582	
0.00704526	
0.181944	
-0.0649516	
-0.0587418	
-0.0638666	
0.176989	
0.0645677	
0.0255046	
0.0494503	
0.0244299	
0.235519	
0.0781016	
0.127052	
0.245922	
0.225293	
0.245864	
0.259005	
0.260763	
-0.00479462	
-0.0257447	
0.21864	
0.19856	
0.261351	
0.254757	
0.0208752	
0.165786	
0.145707	
0.109547	
0.201194	
0.172802	
0.221216	
0.214009	
0.113325	
0.104008	
0.260145	
0.267491	
0.0652896	
0.0537537	
0.223345	
0.234269	
0.254096	
0.25102	
0.266976	
0.262099	
-0.0579518	
-0.0598594	
0.09802	
0.0977285	
-0.00314478	
-0.0102736	
0.00474631	
0.227252	
0.228087	
0.192496	
0.206035	
0.182527	
0.191612	
0.266922	
0.164756	
0.255156	
0.239309	
0.236438	
0.123758	
0.0670594	
0.264705	
0.258107	
-0.0384263	
-0.00799335	
0.00858414	
0.048144	
0.209761	
0.141642	
0.241409	
0.235961	
0.0413537	
0.062896	
0.0180956	
0.221969	
0.146014	
0.150584	
0.249059	
0.248599	
0.0782093	
0.0559651	
-0.0143034	
-0.0160174	
0.18734	
0.192863	
0.170102	
0.180459	
0.236768	
0.174826	
0.145703	
0.222673	
0.216462	
0.196281	
0.00884081	
0.0561274	
0.0497372	
0.0956628	
0.0617116	
0.145704	
0.18134	
0.244115	
0.0623484	
0.0608445	
0.204054	
0.191332	
0.23515	
0.0781238	
0.0791641	
0.0372271	
-0.00318734	
0.0165175	
0.0437814	
0.0157571	
0.0421983	
0.159195	
0.191565	
0.188867	
0.196208	
0.0477606	
0.0310839	
0.0745252	
0.0573795	
0.159932	
0.159677	
0.175094	
0.172858	
0.158266	
0.177534	
0.179394	
-0.0678786	
-0.026889	
-0.0633272	
-0.0494198	
-0.0287678	
0.127661	
0.129107	
-0.0629875	
0.110103	
0.0722895	
0.0337276	
0.0767677	
0.0611452	
0.0321116	
-0.0405492	
0.0527122	
0.114962	
-0.0677605	
0.107417	
-0.0597898	
-0.0677001	
-0.0660698	
0.0345888	
0.0709756	
0.245002	
0.216512	
0.252383	
0.219096	
0.255808	
0.255728	
0.112449	
0.0626502	
0.268299	
0.259116	
0.143539	
0.189487	
0.138564	
0.171595	
0.043359	
0.0592569	
0.185793	
0.0858115	
0.0791954	
-0.0646688	
0.139132	
0.0883478	
0.0887097	
0.0537895	
0.14127	
0.253968	
0.262167	
0.177514	
0.0166356	
0.0104852	
0.158814	
0.181192	
0.218139	
0.207234	
-0.0522972	
-0.0384355	
0.254767	
0.245925	
0.227394	
-0.0356601	
0.252075	
0.181607	
0.183117	
0.193755	
0.179714	
0.127702	
0.0797862	
0.25368	
0.235029	
0.164439	
0.16656	
0.22936	
0.239115	
0.205045	
0.0530466	
0.0650956	
0.223789	
0.25313	
0.222336	
0.0739143	
0.201198	
0.204467	
0.0725524	
0.207107	
0.241634	
-0.0699986	
0.214874	
0.212033	
0.206183	
0.247197	
0.227156	
0.103412	
0.262838	
0.103389	
0.161746	
0.136089	
0.137883	
0.110396	
0.268078	
0.245125	
0.253293	
0.267784	
0.252241	
0.259594	
0.244521	
0.240248	
0.232431	
0.228378	
0.18338	
0.202343	
0.249384	
0.246525	
0.00563806	
0.0470038	
0.237561	
0.248236	
0.264974	
0.249325	
0.258111	
0.060139	
0.0714487	
0.069081	
0.0219217	
0.260496	
0.25729	
0.171265	
0.213135	
0.210538	
0.0939741	
0.0944572	
-0.0636723	
-0.0595071	
0.0897907	
0.0724656	
0.0620444	
0.112438	
0.109009	
0.108588	
0.0837218	
0.243351	
-0.0506527	
-0.0516672	
-0.0668711	
-0.068806	
0.179177	
0.125946	
0.126412	
0.24483	
-0.0701309	
-0.0657086	
-0.0502511	
-0.0533001	
-0.0679922	
-0.0679119	
0.210707	
0.211865	
0.196605	
0.190898	
-0.0300852	
-0.0126867	
-0.0368609	
-0.021391	
0.118558	
0.121842	
0.0635663	
0.180166	
0.208143	
0.246487	
0.238343	
0.234538	
0.230885	
0.229525	
0.232499	
0.224912	
0.230517	
0.183028	
0.176808	
0.205582	
0.200403	
0.0386528	
0.0277227	
0.0459722	
0.0270419	
-0.0154279	
0.0915205	
0.0589226	
-0.0604042	
-0.0433266	
-0.0661166	
0.039019	
0.145389	
0.0879901	
0.0852469	
0.057426	
0.0433057	
-0.0266859	
-0.046236	
0.19781	
0.197315	
0.0585337	
0.104535	
0.0396494	
0.231763	
0.24243	
0.216438	
0.221743	
0.241879	
0.207708	
0.205239	
0.0803529	
0.0672762	
0.118204	
0.0984136	
0.0898745	
0.0792636	
-0.0110812	
0.0144627	
0.101462	
0.105993	
0.15535	
0.15574	
0.0727984	
0.0589461	
0.0281424	
0.0218151	
0.173117	
0.170837	
0.158737	
0.122225	
0.158367	
0.164171	
0.208964	
0.223998	
0.13323	
0.121575	
0.0743987	
0.127303	
0.156346	
-0.0292777	
0.0189113	
-0.0293899	
0.230432	
0.228199	
0.206713	
0.187232	
0.156427	
0.133246	
0.151695	
0.150906	
-0.0372473	
-0.0427289	
-0.0561724	
-0.0586301	
0.0453628	
0.0717112	
0.0844574	
0.161231	
0.136372	
0.173754	
0.179528	
0.173683	
0.156884	
0.247455	
0.236224	
0.209528	
0.223298	
0.219508	
0.224863	
-0.0475855	
-0.0529516	
-0.0350134	
-0.0400953	
0.138642	
0.112501	
0.148318	
0.14609	
0.0233539	
0.0344298	
0.0290184	
0.0144614	
0.0198434	
0.223347	
0.242577	
-0.00545709	
-0.0308456	
0.245943	
0.244224	
0.227846	
0.25071	
0.244207	
0.247085	
-0.0404717	
0.217953	
0.216359	
0.164661	
0.0381502	
0.0209522	
0.00523645	
0.00629009	
0.123904	
0.128397	
0.204738	
0.243827	
0.250862	
0.246409	
0.135952	
0.129203	
0.0797261	
0.0885098	
0.210769	
0.20067	
0.000593815	
0.0241288	
0.0904013	
0.0704781	
0.104608	
0.127201	
0.0776235	
0.089154	
0.0966588	
0.0523277	
0.00815276	
0.035746	
0.0662843	
0.0477867	
0.240172	
0.261372	
-0.025643	
0.112041	
0.0816081	
0.245689	
0.241487	
0.012568	
0.0154002	
0.0529896	
0.0236526	
0.0368706	
0.0436324	
-0.0144161	
0.0153883	
0.0752563	
0.0645856	
0.115357	
0.105065	
0.0506573	
0.0266087	
0.0651523	
0.0353755	
0.194541	
0.196835	
0.135445	
0.151061	
0.108946	
0.0970156	
0.0350632	
0.00458128	
-0.0517683	
-0.0551273	
-0.0415574	
0.00793082	
-0.0182348	
0.126337	
-0.0263692	
0.134219	
0.135676	
-0.022985	
-0.0482006	
-0.0402422	
-0.0470129	
0.10927	
0.117009	
0.0287003	
-0.0234686	
-0.0261016	
0.153117	
0.12088	
0.257394	
0.246534	
0.0588667	
0.0561701	
0.0452515	
0.0452105	
0.056142	
0.0797912	
0.0744448	
0.10346	
0.103793	
0.0249099	
0.0262933	
0.00335884	
-0.00465749	
0.0804256	
0.0569592	
0.0596333	
0.0366219	
0.0455664	
0.0461816	
0.029727	
0.0270259	
0.0334784	
0.0851601	
0.0525107	
0.264872	
0.256439	
0.259425	
0.258128	
0.0408024	
0.0413272	
0.031113	
0.0364704	
0.0322839	
0.0371638	
0.0303165	
-0.0179695	
-0.0012587	
-0.0109306	
0.00780358	
0.0266789	
0.0388217	
0.0172155	
0.0164098	
-0.0144432	
-0.005453	
0.00309455	
0.0329844	
0.0191313	
0.0225502	
0.0115551	
0.00948394	
0.0199321	
0.00224837	
0.0117744	
-0.0114203	
-0.0175402	
-0.0139705	
-0.00578177	
0.026813	
0.0245683	
0.018148	
0.0100738	
-0.0152865	
-0.0109779	
-0.00491009	
0.00173804	
0.0330622	
-0.0647763	
-0.0499305	
0.0047919	
0.0336023	
-0.0261052	
-0.0316018	
-0.00891311	
0.0305626	
0.0241237	
0.00327108	
-0.0529406	
0.00219193	
-0.0294889	
-0.0735478	
-0.0558337	
0.0318051	
0.0159423	
-0.00501253	
-0.0673308	
-0.0424603	
-0.0179467	
0.0250301	
0.137648	
0.176079	
0.174516	
0.117644	
0.143326	
-0.0334212	
0.0725348	
0.14237	
0.0541099	
0.0965275	
0.129093	
0.046104	
0.0367742	
0.118713	
0.119929	
0.0938594	
0.094907	
0.078517	
0.104004	
0.127504	
0.1746	
0.176997	
-0.0635516	
-0.0698892	
-0.0550853	
-0.0577558	
-0.000959741	
0.0211116	
0.0101789	
0.166153	
0.151462	
0.155778	
0.0447291	
0.163789	
0.155508	
0.172445	
0.173614	
0.170043	
0.164401	
0.171086	
0.171968	
-0.0606134	
-0.0497643	
0.14538	
0.15132	
0.136267	
0.161318	
0.160332	
0.166582	
0.159739	
0.148131	
0.147761	
0.171852	
0.157012	
0.175794	
0.177602	
0.104151	
0.110661	
0.130144	
0.176452	
0.177725	
-0.042405	
-0.0254838	
0.00710156	
-0.00590832	
-0.0300199	
-0.00811112	
-0.0293618	
0.056601	
0.0352487	
0.0788275	
0.0747471	
0.119352	
0.137487	
0.113221	
0.1326	
0.103867	
0.163221	
0.167078	
0.129541	
0.0954065	
-0.1489	
-0.0289941	
0.033502	
0.0683418	
-0.0246806	
0.0350551	
0.0474729	
-0.0284919	
0.0617179	
0.0352312	
-0.000945716	
-0.00395561	
0.00910162	
0.0366423	
0.0462834	
0.137308	
0.158593	
-0.148903	
-0.168271	
-0.125351	
-0.128431	
-0.108618	
-0.0906969	
-0.0825311	
0.0867904	
0.115635	
0.0945882	
-0.0650637	
-0.0766198	
0.130178	
0.121464	
0.141811	
0.130055	
0.131559	
0.141347	
0.134712	
0.126941	
-0.156952	
-0.161102	
0.074204	
0.0890941	
0.105479	
0.108435	
0.0852573	
0.0893163	
0.112937	
0.118216	
0.155094	
0.153886	
0.161395	
0.165756	
0.0479051	
0.101659	
0.0739869	
0.166421	
0.161292	
-0.142675	
-0.141924	
-0.117042	
-0.113044	
-0.108483	
-0.14217	
-0.120946	
-0.0175461	
-0.0634378	
-0.0352848	
-0.0654132	
0.038986	
0.0716301	
0.01731	
0.07159	
0.0431412	
-0.0586093	
0.0707492	
0.174352	
0.221131	
0.215941	
0.21536	
0.197389	
0.211509	
0.202096	
0.192746	
0.21184	
0.20603	
0.209433	
0.194408	
0.20221	
0.197456	
0.175388	
0.164829	
0.176779	
0.186233	
0.18192	
0.216129	
0.182026	
0.207797	
0.206239	
0.192163	
0.212679	
0.202753	
0.210062	
0.100803	
0.0990096	
-0.0779422	
-0.00298836	
0.204463	
0.176189	
0.216533	
0.163419	
0.194139	
0.0950302	
0.179296	
0.189558	
0.216071	
-0.1849	
0.182766	
0.210271	
0.194009	
0.19952	
0.119017	
0.110633	
0.155735	
0.110202	
0.139337	
-0.00739098	
-0.303722	
0.0185633	
0.118532	
0.126556	
-0.078862	
-0.0323789	
0.0179294	
0.0511367	
-0.232359	
-0.278269	
-0.286328	
-0.308541	
-0.170188	
0.0114453	
-0.0134823	
-0.212857	
-0.245672	
-0.132956	
-0.0031709	
-0.235303	
-0.266706	
-0.299302	
-0.301912	
-0.16249	
0.0102641	
-0.0746446	
-0.311545	
-0.306779	
-0.0607259	
0.177835	
0.0943043	
0.172872	
-0.291574	
-0.0243183	
0.142231	
-0.0128293	
0.0143926	
0.155577	
-0.191697	
-0.000186585	
-0.0680689	
-0.109942	
-0.193474	
-0.038026	
0.159631	
-0.073949	
0.100512	
-0.0660983	
0.119102	
0.0855586	
0.046649	
0.084886	
-0.215865	
-0.198641	
0.0902144	
0.0119805	
-0.0711337	
-0.0134548	
-0.102876	
-0.0718589	
-0.22438	
-0.0634943	
-0.064351	
-0.118889	
0.159679	
-0.120891	
-0.266737	
0.13116	
-0.265421	
-0.266411	
0.0167953	
0.0636368	
-0.265148	
-0.10004	
-0.152963	
-0.107673	
0.200486	
0.117946	
0.123184	
0.122708	