<VTKFile type="UnstructuredGrid" version="0.1" byte_order="LittleEndian">
	<UnstructuredGrid>
		<Piece NumberOfPoints="3959" NumberOfCells="7450">
			<CellData Scalars="scalars">
				<DataArray type="Float64" Name="Doublet Strengths" NumberOfComponents="1" Format="ascii">
-0.0690477	
-0.0536185	
0.00255296	
0.0324123	
-0.0291439	
-0.0376914	
-0.0140331	
0.0280839	
0.0206615	
-0.00117869	
-0.0600439	
0.0033872	
-0.0275151	
-0.0704313	
-0.0532383	
0.0319574	
0.0183418	
-0.00164463	
-0.0613797	
-0.037497	
-0.0139248	
0.0264595	
0.136182	
0.174121	
0.172522	
0.115272	
0.137757	
-0.0856648	
0.0484633	
0.12994	
0.0408597	
0.0891488	
0.116369	
0.0243294	
0.0108554	
0.101689	
0.105191	
0.0755317	
0.0750479	
0.0676056	
0.0908694	
0.115333	
0.168616	
0.173903	
-0.0843175	
-0.0951523	
-0.0878653	
-0.124113	
-0.0374359	
-0.0127648	
-0.00846987	
0.158852	
0.141571	
0.146148	
0.0171453	
0.156636	
0.150965	
0.165515	
0.167857	
0.1626	
0.162744	
0.164172	
0.166383	
-0.108446	
-0.145319	
0.133062	
0.13949	
0.122189	
0.151703	
0.15084	
0.161504	
0.154065	
0.139166	
0.139798	
0.169005	
0.154567	
0.173505	
0.174335	
0.0944107	
0.105132	
0.125456	
0.174483	
0.174697	
-0.0724403	
-0.0679423	
-0.0228296	
-0.0290113	
-0.051258	
-0.0367078	
-0.0648804	
0.0413154	
0.0165905	
0.0630742	
0.0558384	
0.107067	
0.128432	
0.102987	
0.124423	
0.105121	
0.163939	
0.167666	
0.12986	
0.0989284	
-0.0986765	
-0.00656733	
0.0467696	
0.0793118	
-0.0127651	
0.0435277	
0.0587786	
-0.0110951	
0.0742763	
0.0507022	
0.0173205	
0.0128395	
0.0187302	
0.0475486	
0.057061	
0.141912	
0.160383	
-0.117525	
-0.104079	
-0.105829	
-0.10435	
-0.0803548	
-0.0585622	
-0.0653207	
0.0952979	
0.121608	
0.102817	
-0.0391731	
-0.0523379	
0.133988	
0.124792	
0.146113	
0.136009	
0.137066	
0.142599	
0.138973	
0.132487	
-0.11052	
-0.0672118	
0.0850436	
0.09942	
0.113514	
0.116565	
0.0928978	
0.0959896	
0.11878	
0.122637	
0.155531	
0.155478	
0.163232	
0.16657	
0.0540887	
0.10602	
0.078355	
0.167066	
0.162967	
-0.102101	
-0.108042	
-0.0823846	
-0.0932121	
-0.0868729	
-0.113605	
-0.0939403	
-0.00322714	
-0.0432078	
-0.0213975	
-0.0482186	
0.0479262	
0.0785444	
0.0290627	
0.0793464	
0.0123457	
-0.150246	
0.0454219	
0.172211	
0.219362	
0.212371	
0.212292	
0.195132	
0.20812	
0.198317	
0.189088	
0.209569	
0.203623	
0.205596	
0.188618	
0.198455	
0.19426	
0.172976	
0.166067	
0.174341	
0.183378	
0.179018	
0.212782	
0.179983	
0.203067	
0.202675	
0.188502	
0.208506	
0.198845	
0.208306	
0.116134	
0.108417	
-0.03256	
0.0119351	
0.200564	
0.178493	
0.214327	
0.167612	
0.191117	
0.0732607	
0.180273	
0.188345	
0.212419	
-0.22202	
0.181733	
0.206614	
0.192961	
0.198466	
0.134755	
0.127015	
0.160113	
0.124926	
0.147186	
-0.0510576	
-0.265319	
-0.0193954	
0.100944	
0.109105	
-0.198262	
-0.086011	
-0.0176471	
0.0190709	
-0.32417	
-0.171944	
-0.213467	
-0.342178	
-0.194411	
-0.00964702	
-0.0596868	
-0.266006	
-0.306195	
-0.173012	
-0.0461467	
-0.280792	
-0.316413	
-0.348445	
-0.354597	
-0.266493	
-0.0291487	
-0.115022	
-0.350282	
-0.341891	
-0.0782546	
0.170029	
0.103287	
0.161902	
-0.217773	
0.0112717	
0.127929	
0.0268958	
0.0261113	
0.140932	
-0.0840084	
0.0414373	
-0.086554	
-0.130398	
-0.260999	
-0.0262764	
0.146041	
-0.0521731	
0.0778933	
-0.0123952	
0.0996403	
0.0601512	
0.0377113	
0.0788157	
-0.251978	
-0.230818	
0.0714768	
0.0375898	
-0.0166815	
0.0290412	
-0.0727426	
-0.023931	
-0.2571	
-0.101172	
-0.100019	
-0.0749344	
0.151642	
-0.0610307	
-0.147737	
0.115257	
-0.163981	
-0.171634	
0.050601	
0.0836905	
-0.215767	
-0.119322	
-0.173575	
-0.0412558	
0.193292	
0.100252	
0.103189	
0.102535	
0.0283114	
0.0283479	
-0.00570346	
0.0447002	
-0.26443	
-0.173597	
0.162322	
0.141195	
0.130365	
0.141367	
-0.0754641	
-0.0706835	
-0.0717251	
-0.0101902	
-0.0188924	
0.00980424	
0.16975	
0.0619692	
0.0937339	
0.179406	
0.175688	
0.0894172	
-0.221689	
0.1959	
0.121706	
-0.0483244	
-0.115456	
0.184533	
0.203493	
0.0643786	
0.158458	
-0.252449	
-0.170625	
0.115534	
0.112329	
0.134882	
0.0391218	
0.197813	
0.176142	
0.159599	
0.162085	
0.147887	
0.166728	
0.189163	
0.184619	
0.165033	
-0.0134726	
0.0442698	
0.149762	
0.164732	
0.156615	
0.184821	
0.195942	
0.0678756	
0.176063	
0.0826626	
0.0630778	
0.0543773	
0.077473	
0.132452	
0.194407	
0.107341	
0.0813435	
0.0563467	
0.0636172	
0.118055	
0.120287	
0.139299	
0.140342	
0.0666424	
0.0143104	
0.0244895	
-0.0262064	
0.194031	
0.211458	
0.19299	
0.187273	
0.199708	
0.0992926	
0.102124	
0.19019	
0.116763	
-0.173434	
0.0909674	
0.0240465	
0.0831605	
0.0956176	
0.18154	
0.0268963	
-0.0750316	
-0.0469746	
0.0598648	
0.0613802	
0.0243795	
0.15098	
0.187405	
0.115036	
0.109456	
0.191754	
0.154061	
0.107275	
0.0529376	
0.0455267	
0.0769265	
0.079854	
0.0315603	
0.1509	
0.155746	
-0.308948	
-0.268827	
-0.16644	
-0.12884	
-0.0687461	
0.128986	
0.120986	
0.139274	
0.169416	
0.158509	
0.136926	
0.188989	
-0.154477	
-0.163389	
-0.326251	
-0.297903	
0.0642951	
-0.0700609	
0.046636	
-0.295837	
-0.320819	
0.00335505	
-0.0114655	
0.0107288	
0.00126549	
-0.0847907	
-0.0468453	
-0.0396574	
-0.00895611	
0.0212628	
0.0177845	
0.0810059	
0.0998375	
0.109817	
-0.00993401	
-0.040803	
-0.00988352	
-0.027122	
-0.00764722	
0.0363513	
0.112164	
0.122923	
0.106396	
0.0415516	
0.0207758	
-0.0636571	
0.144424	
0.108012	
0.0192337	
0.00591183	
0.198001	
-0.197988	
0.0755857	
-0.019965	
-0.0316803	
0.21507	
0.19744	
0.208226	
-0.190452	
-0.145274	
-0.0882565	
0.00593048	
-0.111489	
-0.06225	
0.203583	
0.190084	
0.150611	
0.12818	
0.0825552	
-0.0606085	
-0.119058	
-0.0735057	
0.181191	
0.0475263	
-0.347474	
-0.35112	
-0.349343	
-0.18658	
0.0669385	
0.00820321	
0.0047568	
0.0161469	
0.0159485	
0.0377807	
0.00592524	
0.125629	
0.121199	
-0.131651	
-0.0639864	
-0.184974	
-0.1053	
-0.0279954	
-0.137609	
-0.0524081	
0.0476487	
-0.234976	
-0.217843	
0.147707	
0.0783578	
0.120876	
-0.0168697	
0.000577229	
0.162391	
0.163158	
0.148337	
0.163522	
0.153326	
0.0911792	
0.0697912	
0.148823	
0.062607	
0.20106	
0.192207	
-0.0988121	
-0.227463	
0.184245	
0.182138	
0.193446	
0.0261327	
0.195991	
0.205941	
0.193747	
0.202316	
0.211082	
0.197565	
-0.201983	
-0.228959	
0.21109	
0.194596	
0.199592	
0.187734	
-0.324624	
0.0547982	
0.0285051	
0.0413611	
0.193487	
0.177702	
0.162734	
0.183226	
0.0791678	
0.0811108	
0.0342453	
0.0372289	
0.137752	
-0.128515	
0.0409271	
0.0827887	
-0.0443723	
0.148618	
0.157529	
0.136839	
0.10571	
0.207802	
0.0461639	
0.0905954	
-0.0111987	
0.00227046	
0.117123	
0.139584	
0.147402	
0.0658229	
-0.0420792	
-0.0190441	
-0.00114071	
0.0375006	
0.0669738	
0.0953197	
-0.0110332	
0.0489794	
0.00126804	
0.200783	
0.18704	
0.066526	
0.00959612	
0.0988639	
0.149243	
0.0122405	
-0.0959722	
0.00917404	
-0.09847	
0.114717	
-0.0347088	
-0.0383097	
-0.0230139	
0.12414	
0.108459	
0.105166	
0.0335276	
0.0945656	
0.0561566	
0.00544539	
0.00895011	
0.0290351	
0.028245	
0.0134993	
-0.0323957	
-0.078442	
0.11634	
0.038152	
0.036805	
0.0239033	
0.132608	
0.0325202	
0.00445987	
0.0805897	
0.0914797	
0.116744	
-0.310997	
-0.00361665	
-0.0272685	
0.0628441	
0.0705403	
0.159051	
0.106389	
0.0957019	
0.0880037	
-0.0973479	
-0.0582209	
0.0531423	
0.0285801	
-0.00122713	
-0.0442543	
0.110654	
0.0673048	
0.0604158	
0.0634763	
-0.030543	
0.0299486	
-0.216903	
-0.20194	
-0.121921	
-0.109684	
0.152691	
-0.0264999	
-0.143818	
0.140641	
-0.0786384	
0.0297613	
-0.133887	
-0.204895	
-0.0659968	
-0.033808	
0.0232712	
-0.00950873	
-0.0888774	
-0.146511	
-0.0778781	
-0.0301941	
-0.019649	
0.00247105	
-0.120052	
0.141422	
0.018465	
0.0446697	
0.0801174	
-0.0898803	
-0.0568389	
-0.0700357	
-0.123178	
-0.195012	
0.133736	
0.122713	
-0.0150107	
0.03649	
-0.10286	
-0.125325	
0.119209	
0.0445323	
0.0753224	
-0.0208186	
-0.00366961	
-0.10861	
-0.0703446	
-0.276718	
-0.311475	
0.06476	
-0.214564	
0.0466355	
0.0244307	
-0.11329	
0.145239	
-0.0958559	
-0.0802346	
0.00733664	
-0.0358214	
0.186769	
0.110539	
0.155043	
0.0964181	
0.115277	
0.207729	
0.197178	
-0.0333248	
-0.0264028	
0.06085	
0.0770812	
-0.324844	
-0.123177	
-0.152409	
-0.344446	
-0.0055002	
0.0604334	
-0.0155954	
-0.0247794	
-0.117697	
-0.0932653	
0.052023	
-0.00991044	
0.00394074	
0.199427	
0.185193	
0.0682318	
0.00758464	
-0.0313124	
0.0990952	
0.128414	
0.043075	
0.0726355	
0.0278109	
-0.0516833	
0.196337	
0.2123	
0.209661	
0.19922	
-0.187682	
0.189179	
0.16913	
0.00623187	
-0.0898257	
0.033418	
0.159966	
0.178164	
0.159484	
0.178416	
0.164833	
0.143151	
0.0661602	
0.0517518	
0.000815724	
0.00632567	
0.119014	
0.125551	
-0.123184	
-0.330403	
-0.308603	
0.0400295	
0.027996	
0.202099	
0.185075	
0.216517	
0.202052	
0.15756	
0.127634	
-0.0609734	
0.121547	
0.150481	
0.127596	
0.143464	
0.147049	
0.164577	
0.158544	
0.139216	
-0.192587	
-0.214863	
0.179301	
0.165326	
0.102372	
0.0630771	
0.147738	
0.146607	
0.208173	
0.196569	
-0.0179993	
-0.0748807	
-0.138346	
-0.066655	
0.0332661	
0.11452	
0.0603408	
0.114784	
-0.0605235	
-0.0495204	
-0.222098	
0.11538	
0.11194	
0.173022	
0.195724	
-0.0555373	
0.0465419	
-0.0281254	
0.0266505	
-0.0395147	
-0.000347458	
0.0687798	
0.0707876	
0.11763	
-0.0238731	
-0.024605	
-0.0177816	
-0.0221385	
0.208099	
0.180814	
0.183019	
-0.0810315	
-0.12591	
0.0739639	
0.00292993	
0.0681483	
-0.0276193	
0.0683343	
0.0594647	
-0.0810443	
-0.0899422	
0.0914418	
-0.00120813	
0.00638805	
-0.26251	
-0.00332407	
0.0415803	
0.0848794	
0.0881236	
-0.133122	
-0.143946	
-0.20995	
0.00208949	
0.0223906	
0.168579	
0.156489	
0.0167714	
0.0724972	
0.0954601	
0.100924	
0.0161887	
-0.0224214	
-0.0738468	
-0.0752529	
0.197038	
0.186633	
0.189834	
0.0606623	
0.0636383	
0.114309	
0.058645	
-0.130636	
-0.128133	
-0.184456	
-0.0865734	
-0.0793242	
-0.00878364	
0.112695	
0.113999	
0.0788018	
0.0405202	
-0.147772	
-0.148354	
0.00985516	
-0.00821933	
-0.213042	
-0.186568	
-0.257425	
-0.112234	
0.17558	
0.162857	
0.141469	
0.196782	
0.213603	
-0.0585749	
0.000132871	
-0.0527695	
0.0751993	
0.1179	
0.036504	
0.0803271	
0.112179	
0.137402	
0.115596	
0.139568	
-0.0373292	
-0.0223943	
0.153065	
0.152075	
-0.132825	
-0.108543	
-0.183431	
0.189705	
0.19611	
0.189535	
0.150214	
0.117457	
0.165425	
0.12136	
0.162779	
0.0812785	
0.137556	
0.134524	
0.167085	
-0.0554895	
-0.0449592	
-0.0471336	
0.147257	
-0.0554375	
-0.0751878	
-0.143446	
0.0570953	
0.0319074	
-0.207659	
-0.214569	
-0.0522273	
-0.0590859	
0.130795	
0.0818991	
-0.127665	
-0.272887	
-0.239336	
0.179423	
0.179567	
0.166112	
0.177884	
0.176948	
0.0639779	
0.103055	
0.0489378	
0.0555232	
0.192967	
-0.0180501	
-0.190441	
-0.0413021	
0.0235294	
-0.0134847	
-0.0191508	
0.0209243	
-0.326314	
0.0567264	
0.0658767	
0.14447	
0.112051	
0.158595	
0.127526	
0.153052	
0.144153	
0.132863	
0.0267762	
0.0581451	
0.0509614	
0.0775379	
0.131385	
0.110791	
0.0447643	
0.150743	
0.163446	
0.119582	
0.135586	
0.126287	
0.148599	
0.118334	
0.115806	
0.053887	
0.0562992	
0.129732	
0.111796	
0.119727	
0.0748048	
-0.0634446	
-0.065659	
-0.026459	
0.00415669	
-0.0717082	
-0.0106701	
0.0881412	
0.0709049	
0.115205	
0.159227	
0.126902	
0.140005	
0.0888067	
0.0285899	
0.00872357	
0.0601058	
-0.011431	
0.0207742	
-0.0245448	
0.0709874	
0.183334	
0.183732	
-0.303301	
-0.264741	
0.134052	
0.125291	
0.0110289	
-0.00312327	
0.141825	
-0.0634322	
-0.0471434	
0.178139	
0.166605	
0.195124	
0.211974	
0.0741626	
0.0526359	
0.143413	
0.128051	
0.184985	
0.0293465	
0.0680436	
0.135379	
0.09263	
0.113743	
0.0858546	
0.11207	
0.210601	
0.0338956	
0.0341626	
0.188371	
0.0501791	
0.104094	
0.10259	
0.0434903	
0.0195451	
0.11715	
0.12307	
0.156727	
0.190984	
0.196486	
0.204687	
-0.189371	
0.134476	
0.0868936	
-0.0598849	
0.0393601	
0.0754515	
0.152654	
0.150744	
0.200054	
0.193077	
0.16387	
0.156066	
-0.196816	
-0.0982492	
-0.066113	
-0.0817703	
0.0834514	
0.0645564	
0.0715894	
-0.0854877	
-0.0572373	
-0.231211	
-0.0811082	
-0.0723054	
-0.126822	
-0.262454	
-0.202929	
-0.142977	
-0.13151	
-0.116542	
-0.0984779	
0.147983	
0.136556	
0.0731728	
-0.0618386	
-0.0506675	
-0.11648	
-0.117536	
-0.179186	
-0.178455	
-0.0521702	
-0.0702764	
-0.316978	
-0.0249651	
-0.183244	
0.0879897	
0.0922713	
0.065517	
0.0675201	
0.175118	
0.17443	
-0.0325708	
-0.0735332	
0.00101764	
-0.00229317	
0.0474657	
0.0280098	
0.0438157	
0.0269589	
-0.182448	
-0.207894	
-0.135876	
-0.021165	
0.145815	
0.134085	
0.0748225	
0.0558649	
-0.213321	
-0.196029	
-0.063145	
-0.160602	
-0.220503	
-0.180873	
-0.230468	
0.205671	
0.19039	
-0.0248388	
-0.0782994	
-0.0566739	
-0.051425	
-0.077169	
-0.174173	
-0.158146	
0.0698892	
0.0281011	
-0.152812	
-0.0311033	
-0.244812	
-0.23632	
-0.146192	
-0.127592	
-0.13413	
-0.121694	
-0.144276	
-0.142916	
-0.0983505	
-0.0977891	
0.149173	
0.0782064	
0.134593	
0.114965	
0.112291	
0.115913	
0.0824497	
-0.214622	
-0.170755	
-0.188226	
-0.199547	
-0.192152	
-0.246383	
-0.255802	
-0.301449	
-0.148451	
-0.0912299	
-0.184411	
-0.160118	
-0.253503	
-0.297239	
-0.296023	
-0.328873	
-0.0351391	
-0.0376108	
-0.0401201	
-0.0476706	
-0.203212	
-0.210531	
-0.162591	
-0.153253	
-0.1149	
-0.123939	
-0.0680179	
-0.288246	
-0.0130336	
0.00108858	
-0.285535	
-0.244482	
-0.0131171	
-0.023251	
-0.0283272	
-0.129386	
-0.12511	
-0.00346081	
-0.0116805	
-0.053264	
-0.0600888	
-0.166915	
-0.158351	
0.100922	
0.0379645	
0.0189838	
-0.00523485	
0.10931	
0.0639106	
-0.0935385	
-0.0707258	
-0.117399	
-0.0178647	
-0.269469	
-0.290982	
-0.0929395	
-0.108539	
0.201899	
0.133883	
0.213462	
0.187993	
-0.339679	
-0.332559	
0.0629139	
0.022068	
-0.294343	
-0.243098	
-0.293217	
-0.261726	
-0.270535	
-0.281813	
-0.209448	
-0.180375	
-0.28158	
-0.339947	
-0.337931	
-0.313227	
-0.310395	
-0.153277	
-0.102363	
-0.078575	
-0.278834	
-0.305494	
-0.331521	
-0.210245	
0.195226	
0.166052	
0.212782	
0.198353	
-0.308607	
-0.281358	
-0.186267	
-0.174985	
-0.162447	
-0.00668256	
-0.00741754	
-0.286588	
-0.286278	
-0.318916	
-0.288865	
-0.311377	
-0.0569535	
-0.0674991	
-0.0802042	
-0.102478	
-0.184297	
-0.223766	
-0.184979	
-0.209486	
-0.236954	
-0.267926	
0.212375	
0.191198	
0.189533	
0.153068	
-0.24171	
-0.107304	
-0.096157	
-0.108147	
0.18365	
0.143118	
0.164732	
0.0872291	
-0.324196	
0.0835224	
0.126998	
0.116183	
0.136433	
-0.310962	
-0.327788	
-0.31558	
-0.318545	
-0.309774	
-0.317805	
-0.277447	
-0.107783	
-0.0986788	
-0.0966469	
-0.0970002	
0.147285	
0.201289	
0.144109	
0.199278	
0.129539	
0.120909	
0.12378	
0.0748782	
-0.244373	
-0.264917	
-0.244983	
-0.23101	
-0.325461	
-0.340265	
-0.327587	
-0.334676	
0.0802702	
0.138396	
0.0843891	
0.139838	
0.165325	
0.133387	
0.153455	
0.0971878	
0.112704	
0.0889361	
0.111914	
0.0881644	
0.173991	
0.201251	
0.204815	
0.209541	
0.219843	
0.121897	
0.230359	
0.226792	
0.235352	
0.243103	
0.247402	
0.252469	
0.227019	
0.190332	
0.168675	
0.0327735	
0.254455	
-0.0260973	
-0.0309034	
-0.0538214	
0.18254	
0.247963	
0.232149	
0.262947	
0.259327	
0.265603	
0.254393	
0.260629	
0.251656	
0.244325	
0.154759	
0.216248	
0.195928	
0.216809	
0.188017	
0.148589	
0.21562	
0.157475	
0.101167	
0.255142	
0.233887	
0.233152	
0.0939399	
-0.0444121	
0.247541	
-0.0265002	
-0.0685624	
-0.00141588	
0.0559788	
0.0260046	
-0.0647341	
0.0268166	
-0.0166305	
0.055557	
-0.0813594	
-0.00646128	
0.0538295	
0.0560296	
0.00767942	
-0.0245475	
-0.0677315	
0.191456	
-0.0339637	
0.160512	
0.0656301	
0.0916305	
0.0663076	
0.0174557	
0.0220223	
0.0314166	
0.0505851	
-0.0159876	
0.0341517	
-0.0171865	
0.00957134	
-0.0114119	
0.0156464	
0.0209307	
0.0324495	
0.0443593	
0.014546	
0.0233119	
0.0264658	
0.0582764	
0.00926705	
-0.0547279	
-0.0528238	
-0.00388602	
-0.02971	
-0.0419698	
0.00740244	
0.0250163	
0.018223	
-0.0277851	
-0.0507574	
-0.0528599	
-0.034372	
0.0104606	
-0.086195	
-0.0700112	
-0.0643468	
0.156852	
0.174715	
0.171943	
0.215312	
0.00790289	
0.0933651	
0.148156	
0.155352	
0.185356	
-0.000320739	
0.138787	
0.113228	
-0.0579859	
-0.0380631	
-0.0340642	
0.102932	
-0.0321349	
0.140085	
-0.00493596	
0.195636	
0.201663	
-0.0700012	
0.073878	
0.0376066	
0.00158782	
0.0695549	
0.0138498	
0.240923	
0.222983	
0.215963	
-0.0494513	
0.0717543	
0.207305	
-0.0144336	
-0.0176369	
0.192654	
0.218709	
0.00552349	
0.047114	
0.18359	
0.131955	
-0.0623974	
-0.0504898	
0.0935721	
-0.0231532	
-0.018127	
-0.008281	
-0.00198679	
0.247394	
0.201936	
0.199633	
0.101811	
0.140694	
0.229476	
0.269532	
0.251658	
0.0534681	
0.158154	
0.240166	
0.187618	
0.101435	
0.124564	
0.131121	
0.152445	
0.00425641	
0.104762	
0.064702	
0.0819257	
0.0458274	
0.108057	
0.107204	
0.173889	
0.132618	
0.180004	
0.111688	
0.150529	
0.120393	
0.153938	
0.101529	
0.108793	
0.129447	
0.203727	
0.136503	
0.147459	
0.156364	
0.155177	
0.136451	
0.255444	
0.259202	
0.273531	
0.258333	
0.276706	
0.239746	
0.0856516	
-0.0246617	
0.0222397	
0.0276004	
0.103454	
0.222326	
0.169435	
0.107124	
0.181434	
0.161467	
0.114062	
0.228996	
0.265945	
0.270945	
0.220741	
0.241495	
0.252438	
0.273311	
0.257946	
0.244007	
0.273126	
0.253497	
0.252585	
0.265759	
0.240983	
0.234121	
0.258937	
0.258609	
0.270414	
0.102216	
0.274301	
0.223448	
0.231117	
0.196236	
0.224161	
0.261045	
0.266704	
0.270242	
0.202273	
0.190827	
0.221814	
0.201027	
0.215666	
0.201491	
0.193519	
-0.0470953	
-0.0521522	
0.227396	
0.211468	
0.242965	
0.214467	
0.199621	
0.176546	
0.198805	
0.246076	
0.21636	
0.216085	
0.236442	
0.165091	
0.207637	
0.0709429	
0.258954	
0.245913	
0.0927046	
0.183993	
0.157756	
0.229036	
0.123528	
0.128981	
0.191493	
0.146031	
0.269533	
0.124313	
0.122527	
0.153116	
0.220036	
0.189942	
0.176461	
0.260161	
0.0459375	
0.105856	
0.0395685	
0.0753678	
0.175497	
0.165729	
0.147117	
0.172661	
-0.0247597	
0.246115	
0.226048	
-0.0049057	
0.00505116	
-0.0198059	
0.000595545	
0.105447	
0.0761663	
0.154425	
0.141867	
0.168461	
0.126263	
0.168782	
0.00604788	
0.135906	
0.105054	
0.15315	
-0.0378437	
-0.0513071	
-0.0428444	
-0.0511522	
0.107457	
0.10429	
0.137394	
0.126616	
0.137449	
0.0782301	
0.0863566	
0.183187	
0.171425	
0.196345	
0.209258	
0.153706	
0.100371	
0.0882221	
0.0889304	
0.063411	
0.27545	
0.158836	
0.188532	
0.139112	
0.15747	
0.0881226	
0.134698	
0.101244	
0.145719	
0.129825	
0.0154489	
0.196485	
0.206671	
0.155624	
0.230501	
0.229305	
0.142535	
0.170581	
0.116753	
0.121027	
-0.0537663	
-0.0382047	
-0.0630388	
-0.0617059	
0.0966054	
0.19459	
0.229008	
0.197186	
0.180854	
0.193944	
0.150004	
0.212218	
0.206992	
0.206396	
0.194183	
0.0383772	
0.0969352	
0.25408	
0.226951	
0.258758	
0.18349	
0.172997	
0.258785	
0.257217	
0.220493	
0.234765	
0.251904	
0.183501	
0.213594	
0.159722	
0.169511	
0.180588	
0.242619	
0.227722	
0.24348	
0.213427	
0.25365	
0.214519	
0.237671	
-0.00457048	
0.170114	
0.182975	
0.146515	
0.230434	
0.230411	
0.221604	
0.214717	
0.23439	
0.246673	
0.0970965	
0.128877	
0.115527	
0.134248	
-0.0560959	
0.197825	
0.15905	
0.163445	
0.0934119	
0.122122	
0.125971	
0.149512	
0.150412	
0.160459	
-0.044828	
-0.0336116	
-0.0485322	
-0.0310011	
0.229918	
0.186524	
0.230086	
0.19064	
0.0506326	
0.205296	
0.215623	
0.211774	
0.240698	
0.221387	
0.253627	
0.130337	
0.114816	
0.21026	
0.204062	
0.214199	
0.180968	
0.185714	
0.023648	
0.068649	
0.256371	
0.211622	
-0.0237375	
0.182995	
0.212232	
0.209186	
0.210701	
0.19054	
0.199922	
0.196598	
0.248204	
0.252099	
0.24304	
0.146201	
0.25893	
0.262792	
0.0346704	
0.0630447	
0.0599208	
0.207241	
0.220087	
0.219315	
0.255186	
-0.0679964	
-0.0622044	
0.253012	
0.249967	
0.235675	
0.207906	
-0.0629725	
-0.057376	
0.150716	
0.138033	
0.0987462	
0.101688	
0.205399	
0.050332	
0.0659065	
0.151352	
0.152265	
0.165119	
0.163621	
0.262019	
0.256946	
0.000610302	
0.0155655	
0.0737772	
0.0399998	
0.0718365	
0.104141	
0.133475	
0.175327	
0.171702	
0.159329	
0.151798	
0.270429	
0.259423	
0.221425	
0.239511	
0.257152	
0.0769507	
0.0700391	
0.188103	
0.187007	
0.188476	
0.186972	
0.0163958	
0.0369945	
0.25955	
0.257599	
0.196502	
0.193973	
0.140435	
0.101417	
0.149604	
0.0940072	
0.222262	
0.226989	
0.204644	
0.204928	
0.210227	
0.209707	
0.20144	
0.184495	
0.258506	
0.258615	
0.23863	
0.169858	
0.171446	
0.179372	
0.175139	
0.138241	
0.145632	
0.235566	
0.239815	
0.134688	
0.153802	
0.259317	
0.262279	
0.175499	
0.225384	
0.231493	
0.198892	
0.165726	
0.208399	
0.267305	
0.261295	
0.233172	
0.235805	
0.223285	
0.234234	
0.124418	
0.1837	
0.120783	
0.261867	
0.271092	
0.257461	
0.253317	
0.0848457	
0.0530872	
0.0579748	
0.0378098	
0.259213	
0.254808	
0.26398	
0.269551	
-0.00160322	
0.255534	
0.263445	
0.260182	
0.253639	
0.117013	
0.156697	
0.264166	
0.271207	
0.263374	
0.112761	
0.12658	
0.132134	
0.142164	
0.1945	
0.189827	
0.178997	
0.183505	
0.266032	
0.166376	
0.162424	
0.213087	
0.21207	
-0.0352066	
-0.0430159	
0.245586	
0.259127	
0.259417	
0.183529	
-0.0104431	
0.230828	
0.22739	
0.237399	
0.237837	
0.171558	
0.260938	
0.261016	
0.037484	
0.00815484	
0.183236	
-0.0661375	
-0.0594355	
-0.0653126	
0.176792	
0.0645648	
0.0253784	
0.0493956	
0.0242843	
0.237461	
0.0964846	
0.141529	
0.252679	
0.234262	
0.252898	
0.26068	
0.263132	
-0.00508692	
-0.026254	
0.225631	
0.207319	
0.263807	
0.256207	
0.0206919	
0.171992	
0.153849	
0.119451	
0.202562	
0.173778	
0.223161	
0.215613	
0.119099	
0.110605	
0.261611	
0.269842	
0.065195	
0.0538918	
0.232621	
0.242283	
0.25923	
0.257142	
0.269234	
0.263415	
-0.0592861	
-0.0616794	
0.0982138	
0.0978411	
0.00742955	
-6.90806e-05	
0.00634801	
0.233926	
0.234925	
0.202689	
0.215148	
0.194265	
0.202347	
0.269661	
0.177087	
0.256614	
0.241191	
0.237417	
0.124174	
0.0674531	
0.267129	
0.259873	
-0.0385921	
-0.00779433	
0.00909762	
0.0551853	
0.211634	
0.142128	
0.244452	
0.238613	
0.0497401	
0.0723478	
0.0262343	
0.231332	
0.151798	
0.155935	
0.251388	
0.250293	
0.0829	
0.0617416	
-0.0144185	
-0.0161454	
0.19079	
0.195646	
0.175016	
0.18479	
0.238865	
0.187395	
0.160449	
0.224075	
0.217502	
0.197451	
0.00862152	
0.0561472	
0.0497178	
0.109041	
0.0669273	
0.160771	
0.193891	
0.250777	
0.077217	
0.0765528	
0.206555	
0.194335	
0.24146	
0.0978663	
0.0992618	
0.0625653	
0.0108175	
0.0162214	
0.0436272	
0.0154625	
0.042028	
0.161345	
0.193112	
0.190257	
0.2054	
0.056387	
0.0400913	
0.0816577	
0.0649364	
0.161366	
0.160813	
0.175423	
0.17301	
0.160184	
0.178088	
0.179314	
-0.0697781	
-0.0264572	
-0.064457	
-0.0502687	
-0.0292801	
0.129217	
0.131615	
-0.0652756	
0.110072	
0.0940079	
0.060156	
0.0976691	
0.0835394	
0.0321785	
-0.0409616	
0.0627208	
0.124372	
-0.0695756	
0.108835	
-0.0629703	
-0.0697833	
-0.068535	
0.0344748	
0.0706964	
0.252111	
0.225814	
0.258104	
0.228051	
0.261057	
0.261076	
0.123025	
0.0742587	
0.270879	
0.260493	
0.145726	
0.191119	
0.140629	
0.180149	
0.0433463	
0.0592557	
0.196657	
0.0886363	
0.0822459	
-0.0659826	
0.152743	
0.0886245	
0.0886069	
0.0536053	
0.156978	
0.25606	
0.264907	
0.183573	
0.016455	
0.010273	
0.161376	
0.18727	
0.222452	
0.21226	
-0.0530967	
-0.0390984	
0.260235	
0.252907	
0.236124	
-0.0360693	
0.257736	
0.182913	
0.184676	
0.197165	
0.184459	
0.128186	
0.0804139	
0.259688	
0.243198	
0.165274	
0.167687	
0.231764	
0.241868	
0.209107	
0.0536088	
0.0655766	
0.227695	
0.255271	
0.22636	
0.076493	
0.202698	
0.20624	
0.0939089	
0.211347	
0.244757	
-0.0710725	
0.217218	
0.21444	
0.208073	
0.254092	
0.235701	
0.118808	
0.264602	
0.116659	
0.163905	
0.138605	
0.14058	
0.113271	
0.271359	
0.2471	
0.258137	
0.271254	
0.257404	
0.261834	
0.245959	
0.244581	
0.237127	
0.233626	
0.190607	
0.209268	
0.251892	
0.24807	
0.0358273	
0.0469149	
0.238801	
0.250715	
0.26738	
0.250172	
0.262798	
0.0602395	
0.0717607	
0.0691595	
0.0533981	
0.263541	
0.259296	
0.183831	
0.21767	
0.215094	
0.113548	
0.113919	
-0.0662286	
-0.0631675	
0.105697	
0.0895662	
0.0828735	
0.112497	
0.109068	
0.108668	
0.0837728	
0.249647	
-0.0533339	
-0.0541153	
-0.0689989	
-0.070732	
0.191755	
0.139215	
0.139095	
0.246374	
-0.0716838	
-0.0671127	
-0.050781	
-0.0542357	
-0.0692578	
-0.0695762	
0.212748	
0.214047	
0.199976	
0.195174	
-0.0306262	
-0.0131401	
-0.0375152	
-0.0218267	
0.118906	
0.122238	
0.0777254	
0.186249	
0.213156	
0.248907	
0.239256	
0.239524	
0.238467	
0.23768	
0.234673	
0.225378	
0.23196	
0.191522	
0.185571	
0.212092	
0.207154	
0.0676644	
0.0566777	
0.0703724	
0.0327125	
-0.0109548	
0.0946956	
0.0623172	
-0.0606473	
-0.0429543	
-0.0672383	
0.0539497	
0.156482	
0.101482	
0.0987054	
0.0574119	
0.0432151	
-0.0264187	
-0.0464442	
0.208806	
0.208205	
0.058469	
0.104556	
0.0596395	
0.238807	
0.247628	
0.225186	
0.230811	
0.249014	
0.216047	
0.213698	
0.0814936	
0.068565	
0.119266	
0.0997416	
0.105083	
0.0948854	
-0.0080142	
0.0175807	
0.101526	
0.106027	
0.162353	
0.16409	
0.0928546	
0.0807684	
0.0528314	
0.0481956	
0.174328	
0.171857	
0.159589	
0.123341	
0.159053	
0.165064	
0.21873	
0.233279	
0.144393	
0.133541	
0.0953316	
0.142212	
0.169177	
-0.0259865	
0.0224857	
-0.0299069	
0.237415	
0.235841	
0.215927	
0.198252	
0.167254	
0.145002	
0.162311	
0.161234	
-0.0379182	
-0.0433866	
-0.0572218	
-0.0596676	
0.0452799	
0.0716669	
0.084393	
0.164068	
0.139814	
0.177117	
0.182845	
0.186433	
0.168124	
0.249803	
0.241165	
0.215225	
0.227181	
0.224638	
0.228273	
-0.0481245	
-0.0539631	
-0.0352809	
-0.0405247	
0.153547	
0.12971	
0.155292	
0.15359	
0.0271028	
0.059086	
0.0557245	
0.0443836	
0.0497771	
0.231369	
0.248288	
0.0217297	
-0.00689605	
0.252729	
0.251104	
0.23616	
0.256065	
0.250667	
0.253295	
-0.0172253	
0.226139	
0.22462	
0.178009	
0.0600706	
0.0464245	
0.0317695	
0.0343215	
0.131923	
0.136291	
0.214346	
0.244792	
0.252931	
0.251004	
0.151501	
0.145682	
0.0813654	
0.0902588	
0.219717	
0.210134	
0.0248759	
0.0452221	
0.104891	
0.0852114	
0.113518	
0.135392	
0.0883757	
0.0996032	
0.105543	
0.0648105	
0.0105648	
0.0380643	
0.0787859	
0.0607667	
0.244826	
0.26415	
-0.0220156	
0.122157	
0.0930496	
0.251762	
0.248529	
0.0343257	
0.040156	
0.0737077	
0.0473033	
0.0568301	
0.0617192	
0.0037291	
0.0331882	
0.0799937	
0.0686278	
0.123483	
0.113651	
0.0606794	
0.0367983	
0.0747683	
0.0461955	
0.206016	
0.208204	
0.148222	
0.163556	
0.124672	
0.113907	
0.0370499	
0.00637604	
-0.0511942	
-0.0302933	
-0.0154328	
0.0124694	
-0.0139032	
0.14193	
-0.0247838	
0.134709	
0.136226	
-0.0211841	
-0.0473348	
-0.0388121	
-0.0464741	
0.109394	
0.117198	
0.0340739	
0.00446337	
0.00136121	
0.167377	
0.137393	
0.260116	
0.251602	
0.0780981	
0.068213	
0.0577286	
0.0569551	
0.0683595	
0.098869	
0.0945345	
0.121795	
0.121729	
0.0405513	
0.0422279	
0.00939453	
0.00077033	
0.0807449	
0.0571077	
0.0599676	
0.0368058	
0.0682792	
0.0694069	
0.0557175	
0.0510824	
0.0587537	
0.085215	
0.052384	
0.267157	
0.261098	
0.261389	
0.262474	
0.0657658	
0.0687266	
0.0573009	
0.062375	
0.0598024	
0.0628867	
0.058476	
-0.0159472	
0.00132368	
-0.00715854	
0.00959408	
0.027035	
0.0385061	
0.0182856	
0.00965117	
-0.012142	
-0.00356068	
0.00436506	
0.0338459	
0.0199684	
0.0241984	
0.0125742	
0.00533318	
0.0203936	
0.00285771	
0.0122958	
-0.0102725	
-0.0174677	
-0.0134307	
-0.00460917	
0.027202	
0.0251183	
0.0187787	
0.0108066	
-0.014499	
-0.00990993	
-0.00409501	
0.00262622	
0.0333961	
-0.0644627	
-0.0498985	
0.00434748	
0.0330162	
-0.0263231	
-0.0316394	
-0.00920185	
0.0299876	
0.0235893	
0.00287333	
-0.0526287	
0.00176213	
-0.0297758	
-0.0736427	
-0.0560169	
0.0312377	
0.0154623	
-0.00540674	
-0.0676143	
-0.0427547	
-0.0182962	
0.0245035	
0.136904	
0.175291	
0.173721	
0.116918	
0.142609	
-0.0308539	
0.0726584	
0.141825	
0.0539041	
0.0959124	
0.128606	
0.0463768	
0.0373001	
0.118365	
0.119533	
0.0936957	
0.0947716	
0.0781028	
0.103634	
0.127016	
0.17384	
0.176204	
-0.0620791	
-0.0680755	
-0.0530937	
-0.0540564	
0.000364231	
0.0220232	
0.0105541	
0.165424	
0.150824	
0.155121	
0.0451994	
0.163062	
0.154756	
0.171705	
0.172858	
0.169318	
0.163615	
0.170345	
0.1712	
-0.0577103	
-0.0449079	
0.144819	
0.150722	
0.135776	
0.160648	
0.159661	
0.165811	
0.15899	
0.14748	
0.14709	
0.171059	
0.156236	
0.175016	
0.176823	
0.103624	
0.109977	
0.129426	
0.175659	
0.176935	
-0.040788	
-0.0235351	
0.00807269	
-0.00512653	
-0.0290755	
-0.00702677	
-0.0276383	
0.0565157	
0.0354518	
0.0786591	
0.0747315	
0.118897	
0.136874	
0.112702	
0.131965	
0.103196	
0.162452	
0.166306	
0.128823	
0.0947845	
-0.151399	
-0.0298289	
0.0328797	
0.0677059	
-0.0251584	
0.0345489	
0.0468725	
-0.0291662	
0.0610614	
0.034552	
-0.00166252	
-0.00462762	
0.0086316	
0.0360736	
0.0456979	
0.136594	
0.157837	
-0.150623	
-0.171627	
-0.126432	
-0.129765	
-0.109833	
-0.0919803	
-0.0832098	
0.0861573	
0.114968	
0.0939385	
-0.0660509	
-0.0775867	
0.129483	
0.120787	
0.141088	
0.129351	
0.130854	
0.140617	
0.134004	
0.126248	
-0.159469	
-0.165561	
0.0735573	
0.0884267	
0.104806	
0.107756	
0.0846431	
0.0887034	
0.112278	
0.11755	
0.154333	
0.153137	
0.160639	
0.164993	
0.0473868	
0.101034	
0.0734121	
0.165649	
0.160531	
-0.144632	
-0.1436	
-0.118567	
-0.113971	
-0.109415	
-0.143641	
-0.122159	
-0.018133	
-0.0642283	
-0.0358254	
-0.0660769	
0.0384581	
0.0710582	
0.016753	
0.07101	
0.0435829	
-0.053891	
0.0708548	
0.17049	
0.219817	
0.214449	
0.213717	
0.194552	
0.209553	
0.199307	
0.189441	
0.209968	
0.20378	
0.207616	
0.193606	
0.201419	
0.196699	
0.174615	
0.160031	
0.176011	
0.185486	
0.181164	
0.215042	
0.179232	
0.20686	
0.205404	
0.191412	
0.211677	
0.20044	
0.208063	
0.0967163	
0.100449	
-0.0837308	
-0.0114023	
0.20364	
0.173955	
0.214921	
0.160717	
0.193388	
0.0948635	
0.175914	
0.187114	
0.214721	
-0.194622	
0.179259	
0.209365	
0.191222	
0.197508	
0.116065	
0.107976	
0.151768	
0.105618	
0.135862	
-0.00594877	
-0.329144	
0.0186611	
0.118172	
0.126103	
-0.073722	
-0.0300419	
0.0188382	
0.0507002	
-0.239079	
-0.298051	
-0.308525	
-0.324756	
-0.18141	
0.00562395	
-0.0124575	
-0.221479	
-0.25529	
-0.140163	
-0.00296231	
-0.246113	
-0.278551	
-0.314373	
-0.315949	
-0.163146	
0.010116	
-0.079305	
-0.326947	
-0.323094	
-0.0697082	
0.177088	
0.0927153	
0.171996	
-0.316828	
-0.0354208	
0.141677	
-0.0220033	
0.00612596	
0.1547	
-0.219183	
-0.013196	
-0.0771787	
-0.119602	
-0.19912	
-0.049273	
0.158882	
-0.0858177	
0.0988237	
-0.0820836	
0.118644	
0.085213	
0.0386827	
0.0790431	
-0.226865	
-0.20954	
0.0867043	
0.00357938	
-0.0858324	
-0.0249745	
-0.118194	
-0.0863895	
-0.236389	
-0.0682438	
-0.0696045	
-0.138523	
0.15655	
-0.134034	
-0.294423	
0.128702	
-0.29162	
-0.290074	
0.00835288	
0.0617034	
-0.28901	
-0.110125	
-0.164569	
-0.121044	
0.199383	
0.115228	
0.122231	
0.121818	
0.0544673	
0.0549999	
0.000956702	