<VTKFile type="UnstructuredGrid" version="0.1" byte_order="LittleEndian">
	<UnstructuredGrid>
		<Piece NumberOfPoints="3959" NumberOfCells="7450">
			<CellData Scalars="scalars">
				<DataArray type="Float64" Name="Doublet Strengths" NumberOfComponents="1" Format="ascii">
-0.0705661	
-0.0554883	
0.0007799	
0.0310311	
-0.0310365	
-0.0407545	
-0.0169428	
0.02605	
0.0181769	
-0.00393582	
-0.0629483	
0.00324128	
-0.0273007	
-0.0690311	
-0.0525187	
0.0312833	
0.0188946	
-0.000638248	
-0.0590476	
-0.0357844	
-0.0126535	
0.0264909	
0.134001	
0.171346	
0.169717	
0.112668	
0.132772	
-0.107515	
0.0326845	
0.120112	
0.0323161	
0.0836424	
0.10657	
0.0107135	
-0.00459756	
0.0890962	
0.0942478	
0.0627814	
0.0612404	
0.0601509	
0.0813183	
0.105938	
0.16285	
0.1703	
-0.0926345	
-0.103768	
-0.10127	
-0.144869	
-0.0563093	
-0.0317548	
-0.0192414	
0.152301	
0.133417	
0.13807	
0.000434417	
0.150239	
0.14649	
0.159125	
0.162283	
0.15584	
0.160259	
0.157847	
0.160972	
-0.124285	
-0.168758	
0.123195	
0.129826	
0.111275	
0.143487	
0.142752	
0.15653	
0.148796	
0.131723	
0.13304	
0.165623	
0.151587	
0.170489	
0.170601	
0.0871933	
0.100651	
0.121204	
0.171692	
0.171133	
-0.0861228	
-0.0875437	
-0.039131	
-0.0415491	
-0.0617859	
-0.0517603	
-0.0813876	
0.0313305	
0.00508988	
0.0522647	
0.0432088	
0.0977724	
0.121087	
0.0951842	
0.117754	
0.105006	
0.1633	
0.166942	
0.129028	
0.10058	
-0.0760314	
0.00819394	
0.0558599	
0.0868703	
-0.00520174	
0.0489638	
0.066528	
0.000546761	
0.0829388	
0.0613842	
0.0297261	
0.0242605	
0.0247472	
0.0549537	
0.0644521	
0.14448	
0.160568	
-0.103333	
-0.0823883	
-0.0968722	
-0.0949932	
-0.0638233	
-0.0396119	
-0.0547724	
0.100937	
0.125247	
0.108271	
-0.0228764	
-0.0371249	
0.135865	
0.126287	
0.148425	
0.139667	
0.140333	
0.142395	
0.14123	
0.135771	
-0.0937948	
-0.0427989	
0.0925317	
0.1065	
0.118827	
0.121953	
0.0978381	
0.100195	
0.122323	
0.12498	
0.154694	
0.155508	
0.163497	
0.166072	
0.0576297	
0.1083	
0.0805276	
0.166372	
0.163077	
-0.0817786	
-0.0908376	
-0.0631741	
-0.0824664	
-0.0741317	
-0.0992982	
-0.0785095	
0.00641544	
-0.0300704	
-0.0123169	
-0.0371842	
0.0538385	
0.0829096	
0.0369792	
0.0843698	
-0.00633926	
-0.17699	
0.0288255	
0.167551	
0.215755	
0.207505	
0.207658	
0.190818	
0.202987	
0.193028	
0.183758	
0.205598	
0.19944	
0.200185	
0.183045	
0.194266	
0.190481	
0.169873	
0.162939	
0.171211	
0.17992	
0.175524	
0.208434	
0.174938	
0.197889	
0.1985	
0.184408	
0.203697	
0.193209	
0.204933	
0.115464	
0.108095	
-0.0322008	
0.011347	
0.196196	
0.175993	
0.210551	
0.165193	
0.187463	
0.0581214	
0.178227	
0.184527	
0.207684	
-0.251329	
0.178388	
0.202244	
0.189971	
0.19502	
0.133333	
0.126063	
0.157878	
0.1241	
0.145529	
-0.0732731	
-0.275753	
-0.0416144	
0.0878893	
0.0961345	
-0.23029	
-0.109681	
-0.037637	
-0.0011232	
-0.364572	
-0.17663	
-0.220505	
-0.37426	
-0.219204	
-0.0291692	
-0.0838649	
-0.299825	
-0.342034	
-0.201857	
-0.0702702	
-0.313216	
-0.350363	
-0.382702	
-0.389716	
-0.30386	
-0.0522232	
-0.142449	
-0.383314	
-0.372698	
-0.0978621	
0.163108	
0.103014	
0.152856	
-0.225044	
0.0100521	
0.116714	
0.0258566	
0.0196196	
0.129576	
-0.0851223	
0.0395868	
-0.106803	
-0.152544	
-0.297131	
-0.0340326	
0.135378	
-0.0526097	
0.0613422	
-0.0141941	
0.0856257	
0.0431759	
0.0258218	
0.0690671	
-0.281768	
-0.2591	
0.0552001	
0.0367195	
-0.0187143	
0.0272723	
-0.0792432	
-0.0249183	
-0.286175	
-0.127564	
-0.12592	
-0.0805212	
0.142104	
-0.0642009	
-0.15141	
0.10149	
-0.168563	
-0.176657	
0.049649	
0.0829777	
-0.224678	
-0.140449	
-0.195983	
-0.0410512	
0.186409	
0.0852761	
0.0886919	
0.0879631	
0.00852028	
0.00852547	
-0.0222003	
0.0302831	
-0.300223	
-0.204199	
0.153446	
0.129935	
0.12794	
0.139548	
-0.0993574	
-0.0752241	
-0.0769783	
-0.0319432	
-0.0202555	
0.00854056	
0.164211	
0.0524734	
0.0831421	
0.17265	
0.16788	
0.0775065	
-0.246362	
0.189013	
0.109578	
-0.0548939	
-0.122991	
0.178644	
0.199371	
0.0563494	
0.15336	
-0.277202	
-0.191413	
0.114869	
0.111485	
0.125187	
0.0242367	
0.19404	
0.170494	
0.150976	
0.154021	
0.137982	
0.161451	
0.185601	
0.181694	
0.16063	
-0.0319321	
0.03836	
0.146496	
0.162439	
0.147207	
0.179354	
0.189212	
0.0571169	
0.169969	
0.082016	
0.0623426	
0.0535671	
0.0610601	
0.1201	
0.187	
0.106865	
0.0807283	
0.0554779	
0.0627568	
0.116932	
0.119391	
0.137202	
0.136114	
0.0610006	
0.00719946	
0.0220269	
-0.0275158	
0.187875	
0.207098	
0.188525	
0.181798	
0.193573	
0.0989865	
0.101773	
0.183206	
0.105159	
-0.204367	
0.0855264	
0.0182935	
0.0712597	
0.0845654	
0.174968	
0.026035	
-0.0998717	
-0.0695242	
0.0578456	
0.0594559	
0.0220789	
0.149006	
0.179225	
0.10169	
0.0956063	
0.184727	
0.143561	
0.0942078	
0.0369783	
0.0289692	
0.0615476	
0.0646236	
0.0133338	
0.141529	
0.147123	
-0.336925	
-0.295163	
-0.191924	
-0.152366	
-0.0897756	
0.117965	
0.109426	
0.129416	
0.162254	
0.14949	
0.125744	
0.1822	
-0.182642	
-0.192383	
-0.357858	
-0.327544	
0.0466786	
-0.0882036	
0.0331507	
-0.324604	
-0.350593	
0.00239631	
-0.0123519	
0.00986886	
0.000436322	
-0.109385	
-0.0696748	
-0.0619216	
-0.0147647	
0.0178612	
-0.00261049	
0.0648157	
0.0851165	
0.108742	
-0.0111045	
-0.0419627	
-0.0109771	
-0.0293391	
-0.0100775	
0.0338879	
0.110285	
0.111014	
0.0926866	
0.0239196	
0.00184661	
-0.0734687	
0.135256	
0.0964524	
0.0186653	
0.00532037	
0.191386	
-0.213363	
0.0621112	
-0.0205952	
-0.0323194	
0.210712	
0.190725	
0.202847	
-0.213198	
-0.166063	
-0.111212	
-0.00191713	
-0.12193	
-0.0717828	
0.198857	
0.184129	
0.139657	
0.115229	
0.0663723	
-0.0634766	
-0.134756	
-0.0875107	
0.178899	
0.0294105	
-0.384848	
-0.387681	
-0.385975	
-0.214472	
0.0603971	
2.83816e-05	
-0.00361555	
0.0155577	
0.0151454	
0.0232967	
-0.0141185	
0.12465	
0.11994	
-0.139651	
-0.0711994	
-0.193834	
-0.129741	
-0.0488188	
-0.163946	
-0.0747082	
0.0425576	
-0.261958	
-0.24453	
0.136572	
0.0618205	
0.107272	
-0.0393956	
-0.00295755	
0.155279	
0.15646	
0.137837	
0.154902	
0.142601	
0.07558	
0.0532394	
0.137971	
0.0456767	
0.196232	
0.185941	
-0.114341	
-0.246634	
0.181079	
0.177767	
0.187789	
0.0192021	
0.18951	
0.200955	
0.187418	
0.197213	
0.206072	
0.190895	
-0.226166	
-0.254853	
0.206339	
0.18805	
0.193863	
0.181145	
-0.354118	
0.0373201	
0.00916341	
0.0228069	
0.189799	
0.172663	
0.157522	
0.179724	
0.0629039	
0.0650206	
0.0150601	
0.0182719	
0.132227	
-0.140846	
0.0287835	
0.0724512	
-0.0596266	
0.144749	
0.154037	
0.125813	
0.0924053	
0.202185	
0.0360427	
0.0819586	
-0.0232504	
-0.00975184	
0.104371	
0.128817	
0.13607	
0.0484115	
-0.0653098	
-0.0407799	
-0.0221757	
0.0188604	
0.0548692	
0.0845781	
-0.0264022	
0.035793	
-0.0201708	
0.19682	
0.181871	
0.0665554	
-0.00754267	
0.0866558	
0.14763	
-0.00421802	
-0.117362	
-0.00728856	
-0.119628	
0.103544	
-0.035394	
-0.0392553	
-0.0238999	
0.122731	
0.0945191	
0.0908669	
0.0330146	
0.0942658	
0.0555261	
0.00438006	
0.00802574	
0.0281358	
0.0228365	
0.00759518	
-0.0388367	
-0.0857968	
0.115449	
0.0375303	
0.0358718	
0.022836	
0.128786	
0.0263014	
-0.0127999	
0.0671856	
0.0784165	
0.105495	
-0.34234	
-0.0101086	
-0.0341235	
0.0577923	
0.0657651	
0.151039	
0.0924249	
0.0808696	
0.0724877	
-0.111937	
-0.0713988	
0.0368429	
0.0106604	
-0.0204578	
-0.0658177	
0.0965721	
0.0645363	
0.0574913	
0.0597209	
-0.0462771	
0.0286983	
-0.247789	
-0.231396	
-0.147995	
-0.134863	
0.143908	
-0.0450102	
-0.16763	
0.129087	
-0.0921563	
0.0265835	
-0.144091	
-0.216221	
-0.067859	
-0.0357365	
0.0160291	
-0.0174439	
-0.0984172	
-0.158932	
-0.0885053	
-0.0402296	
-0.0237185	
-0.00141763	
-0.148054	
0.130892	
0.00869613	
0.0356605	
0.0741116	
-0.106306	
-0.07186	
-0.0853055	
-0.13995	
-0.213914	
0.121301	
0.109307	
-0.0206849	
0.0318307	
-0.112036	
-0.134737	
0.110373	
0.036962	
0.068383	
-0.0301312	
-0.0127885	
-0.119628	
-0.080642	
-0.309517	
-0.346772	
0.0484389	
-0.246591	
0.045112	
0.00455164	
-0.140998	
0.133807	
-0.0988741	
-0.0878935	
-0.0127673	
-0.0584118	
0.182927	
0.0970791	
0.145661	
0.0818993	
0.102271	
0.202918	
0.190567	
-0.0516551	
-0.0442119	
0.0469665	
0.0642807	
-0.341148	
-0.135881	
-0.165543	
-0.382749	
-0.0184252	
0.0497747	
-0.0317608	
-0.0416379	
-0.137937	
-0.112893	
0.0337063	
-0.010799	
0.00313182	
0.193877	
0.178501	
0.0645962	
0.00284488	
-0.0366471	
0.0862405	
0.117481	
0.0390656	
0.0709179	
0.0256055	
-0.0543747	
0.189554	
0.207444	
0.204586	
0.192674	
-0.195059	
0.185375	
0.16408	
-0.00289407	
-0.0911994	
0.0171494	
0.156066	
0.175264	
0.154574	
0.174717	
0.162802	
0.140027	
0.0645204	
0.0498777	
-0.0013557	
0.00411993	
0.11762	
0.124343	
-0.130505	
-0.363762	
-0.341329	
0.0393183	
0.0272225	
0.197527	
0.179144	
0.212264	
0.19613	
0.148519	
0.116226	
-0.0728997	
0.108306	
0.139699	
0.125765	
0.142294	
0.143396	
0.161773	
0.156394	
0.136011	
-0.207293	
-0.229668	
0.176952	
0.162063	
0.0971747	
0.0565784	
0.143498	
0.142271	
0.203112	
0.189776	
-0.0338917	
-0.093091	
-0.158311	
-0.0727844	
0.0154487	
0.101679	
0.0443701	
0.112721	
-0.0856826	
-0.073939	
-0.25227	
0.114554	
0.110976	
0.166831	
0.191258	
-0.0725878	
0.0369256	
-0.0398721	
0.0169148	
-0.0513624	
-0.0143492	
0.0576132	
0.059384	
0.108886	
-0.0266557	
-0.0273302	
-0.0384127	
-0.0431931	
0.202677	
0.175862	
0.179105	
-0.103871	
-0.151099	
0.0641571	
-0.00949821	
0.0584037	
-0.0409834	
0.0617189	
0.0526566	
-0.0829977	
-0.09156	
0.0759715	
-0.00449727	
0.00356464	
-0.297041	
-0.00850159	
0.0371921	
0.0770976	
0.0802344	
-0.157463	
-0.169235	
-0.23825	
-0.0192728	
0.0195086	
0.164625	
0.151906	
0.00794805	
0.0653148	
0.0868038	
0.0922642	
-0.00401814	
-0.0450092	
-0.0990533	
-0.100671	
0.192531	
0.181487	
0.18579	
0.0600745	
0.0626251	
0.113767	
0.0573097	
-0.139433	
-0.136637	
-0.19358	
-0.0947659	
-0.0876245	
-0.0157897	
0.112078	
0.113546	
0.077871	
0.0391271	
-0.177436	
-0.178537	
-0.0109512	
-0.0302399	
-0.222839	
-0.19627	
-0.268107	
-0.118392	
0.171133	
0.155744	
0.130353	
0.189973	
0.209276	
-0.0746595	
-0.0139035	
-0.069028	
0.0638794	
0.108776	
0.0234506	
0.0690931	
0.0993335	
0.126713	
0.103137	
0.12925	
-0.0370933	
-0.0227297	
0.14224	
0.141108	
-0.16073	
-0.134708	
-0.20341	
0.184236	
0.19185	
0.183543	
0.139515	
0.104008	
0.156528	
0.108199	
0.153776	
0.0764756	
0.134044	
0.130902	
0.165181	
-0.0557162	
-0.0455823	
-0.0479021	
0.136582	
-0.0565367	
-0.0759896	
-0.173781	
0.055703	
0.0303024	
-0.240819	
-0.248012	
-0.0524702	
-0.0595874	
0.117912	
0.06559	
-0.130314	
-0.297735	
-0.262302	
0.176314	
0.174888	
0.159059	
0.174237	
0.172217	
0.0466303	
0.0883416	
0.0304925	
0.037602	
0.185581	
-0.0403891	
-0.200665	
-0.0410571	
0.0192667	
-0.0179193	
-0.0261219	
0.0147861	
-0.342716	
0.0521569	
0.0613746	
0.141696	
0.110942	
0.156754	
0.124415	
0.142886	
0.13305	
0.130263	
0.025402	
0.0570957	
0.0497263	
0.0765165	
0.130089	
0.108828	
0.0268449	
0.139857	
0.154151	
0.106142	
0.123411	
0.113136	
0.137613	
0.117478	
0.114699	
0.0522522	
0.0546633	
0.12866	
0.109965	
0.118084	
0.0725645	
-0.0640353	
-0.0660705	
-0.0490373	
-0.0162194	
-0.0969431	
-0.0318001	
0.0731134	
0.0547853	
0.102117	
0.157729	
0.123898	
0.137384	
0.0851858	
0.00895511	
-0.0122666	
0.0565104	
-0.0162867	
0.0165406	
-0.0294685	
0.0540024	
0.17868	
0.178393	
-0.319998	
-0.2804	
0.122542	
0.113055	
-0.00839671	
-0.0231756	
0.130182	
-0.0747509	
-0.0583423	
0.173785	
0.159824	
0.188465	
0.207024	
0.0588388	
0.0356786	
0.141205	
0.125137	
0.176514	
0.0186486	
0.0589878	
0.122875	
0.0770911	
0.113198	
0.0851829	
0.111723	
0.206218	
0.0309494	
0.0311614	
0.180423	
0.049786	
0.103637	
0.102208	
0.0294287	
0.00454015	
0.106914	
0.113286	
0.146867	
0.185085	
0.190196	
0.199851	
-0.206928	
0.121931	
0.0709131	
-0.059728	
0.0305492	
0.0679572	
0.144267	
0.142031	
0.196075	
0.18756	
0.15472	
0.145944	
-0.203017	
-0.125798	
-0.0915696	
-0.108292	
0.0832006	
0.064168	
0.0711193	
-0.0899803	
-0.0613324	
-0.266508	
-0.0822587	
-0.0731355	
-0.131217	
-0.277374	
-0.216358	
-0.147612	
-0.136352	
-0.120087	
-0.101687	
0.146749	
0.134838	
0.0703864	
-0.063047	
-0.0521552	
-0.143662	
-0.143725	
-0.209946	
-0.206776	
-0.0537938	
-0.0719308	
-0.338048	
-0.0480855	
-0.195817	
0.0878916	
0.0920056	
0.0648382	
0.0668068	
0.170498	
0.169826	
-0.0524076	
-0.0951308	
-0.000543198	
-0.00380873	
0.0469414	
0.0274388	
0.0433177	
0.0264083	
-0.199417	
-0.225192	
-0.16565	
-0.0229113	
0.13436	
0.121514	
0.0581716	
0.0377544	
-0.245929	
-0.227214	
-0.0881049	
-0.190978	
-0.232634	
-0.213132	
-0.265899	
0.200248	
0.1836	
-0.0263484	
-0.0824197	
-0.0604645	
-0.0546777	
-0.0808257	
-0.189933	
-0.173633	
0.0551778	
0.0109132	
-0.158013	
-0.0511407	
-0.25655	
-0.247345	
-0.149974	
-0.130391	
-0.13811	
-0.124988	
-0.149969	
-0.148333	
-0.103688	
-0.102823	
0.147974	
0.0751933	
0.132497	
0.114457	
0.111575	
0.115311	
0.0815287	
-0.23475	
-0.189841	
-0.19525	
-0.205952	
-0.198302	
-0.263859	
-0.272887	
-0.319028	
-0.178173	
-0.117792	
-0.216506	
-0.190891	
-0.289636	
-0.33431	
-0.333876	
-0.369569	
-0.0353296	
-0.0379292	
-0.0399932	
-0.0476998	
-0.211431	
-0.218159	
-0.170305	
-0.160292	
-0.128818	
-0.137836	
-0.0933675	
-0.30895	
-0.0354234	
-0.0203668	
-0.308702	
-0.266687	
-0.0136607	
-0.0235303	
-0.0285571	
-0.148053	
-0.14396	
-0.0250313	
-0.033846	
-0.0776296	
-0.0848206	
-0.173187	
-0.164904	
0.0880905	
0.0218276	
0.00173448	
-0.00579692	
0.0970214	
0.0489176	
-0.120583	
-0.0964527	
-0.119935	
-0.0183983	
-0.283259	
-0.330469	
-0.0990955	
-0.115085	
0.195924	
0.122111	
0.209075	
0.180187	
-0.378259	
-0.371831	
0.0454576	
0.00212247	
-0.313368	
-0.278895	
-0.332801	
-0.299072	
-0.283566	
-0.294183	
-0.222187	
-0.192161	
-0.319351	
-0.359522	
-0.358827	
-0.353427	
-0.351357	
-0.183939	
-0.130101	
-0.104835	
-0.301008	
-0.32774	
-0.354563	
-0.244301	
0.188087	
0.156517	
0.208977	
0.191742	
-0.32895	
-0.300494	
-0.219091	
-0.207275	
-0.193834	
-0.00727765	
-0.00792449	
-0.298959	
-0.298417	
-0.334063	
-0.303597	
-0.326146	
-0.0593172	
-0.0701048	
-0.0824564	
-0.104412	
-0.217023	
-0.258472	
-0.217784	
-0.243726	
-0.272404	
-0.304023	
0.20823	
0.183647	
0.181831	
0.142608	
-0.250584	
-0.135006	
-0.123271	
-0.136132	
0.18113	
0.138113	
0.160935	
0.0808637	
-0.351982	
0.0812277	
0.12542	
0.114322	
0.135497	
-0.336953	
-0.35561	
-0.339956	
-0.343838	
-0.334808	
-0.341347	
-0.3	
-0.110563	
-0.100658	
-0.0992343	
-0.0992813	
0.137198	
0.195259	
0.133764	
0.192861	
0.128922	
0.119785	
0.12278	
0.073236	
-0.254334	
-0.275231	
-0.254075	
-0.239528	
-0.344751	
-0.359462	
-0.346139	
-0.352484	
0.0773905	
0.136607	
0.081575	
0.138145	
0.163446	
0.12988	
0.150725	
0.092987	
0.112266	
0.0883068	
0.111509	
0.0875678	
0.173196	
0.20141	
0.2047	
0.20947	
0.220354	
0.141769	
0.230902	
0.235306	
0.236004	
0.244157	
0.248546	
0.254051	
0.228213	
0.190415	
0.168731	
0.0471498	
0.255808	
-0.00762319	
-0.00146039	
-0.0336025	
0.182471	
0.248563	
0.233772	
0.265313	
0.261369	
0.268299	
0.256068	
0.263137	
0.253728	
0.246267	
0.170497	
0.216819	
0.195989	
0.218482	
0.189201	
0.149524	
0.217039	
0.158865	
0.101715	
0.257069	
0.235929	
0.234677	
0.0943678	
-0.0442698	
0.248064	
-0.0270334	
-0.0408372	
0.0140976	
0.0706004	
0.0428961	
-0.034592	
0.0406273	
0.00244883	
0.0708304	
-0.0536473	
0.0166372	
0.0650614	
0.084229	
0.0416097	
-0.00313413	
-0.044157	
0.208756	
-0.0292176	
0.177111	
0.106512	
0.10934	
0.0865565	
0.0483248	
0.0549174	
0.0732592	
0.0817725	
0.0207385	
0.0597286	
0.014071	
0.0401014	
0.0214036	
0.0322691	
0.0316503	
0.0452849	
0.0877433	
0.0531587	
0.0577643	
0.0690999	
0.0893707	
0.0468541	
-0.0221141	
-0.0258583	
0.0218535	
-0.00161489	
-0.00726913	
0.0349093	
0.0648428	
0.0600127	
0.00564781	
-0.0190885	
-0.0284848	
-0.00808346	
0.033203	
-0.0612596	
-0.0398231	
-0.0638195	
0.167679	
0.188558	
0.185514	
0.224082	
0.0107848	
0.10059	
0.153912	
0.161312	
0.190113	
0.000274968	
0.151663	
0.129286	
-0.0579309	
-0.0385814	
-0.0291378	
0.134305	
-0.0311797	
0.14352	
-0.00327411	
0.204323	
0.207883	
-0.0688147	
0.0764662	
0.0403201	
0.00274978	
0.0747829	
0.0161071	
0.246071	
0.230305	
0.223625	
-0.0498915	
0.084191	
0.217947	
-0.0133881	
-0.016515	
0.208504	
0.230262	
0.00753081	
0.0489656	
0.199101	
0.140581	
-0.0616015	
-0.0495476	
0.111138	
-0.0224402	
-0.0173659	
-0.00760409	
-0.00126902	
0.250913	
0.208502	
0.214112	
0.13246	
0.167389	
0.244598	
0.273418	
0.255141	
0.058592	
0.169539	
0.243418	
0.194304	
0.108727	
0.129998	
0.142605	
0.160661	
0.00602884	
0.120495	
0.0853348	
0.0989311	
0.0675421	
0.120258	
0.118025	
0.189119	
0.150605	
0.194697	
0.116186	
0.156393	
0.129386	
0.167725	
0.117827	
0.125284	
0.158055	
0.206132	
0.141019	
0.151401	
0.159108	
0.158845	
0.141743	
0.266314	
0.268233	
0.277937	
0.265467	
0.281725	
0.250143	
0.116795	
-0.0243724	
0.0226314	
0.0278887	
0.124913	
0.232655	
0.1791	
0.110791	
0.183533	
0.170719	
0.124094	
0.236859	
0.270237	
0.275512	
0.230848	
0.249883	
0.259718	
0.278046	
0.262193	
0.252715	
0.277609	
0.262379	
0.261989	
0.26997	
0.244244	
0.242391	
0.268765	
0.268486	
0.274391	
0.104031	
0.278818	
0.225735	
0.246781	
0.200428	
0.226489	
0.269314	
0.270362	
0.274333	
0.204094	
0.196396	
0.224317	
0.208795	
0.217756	
0.221068	
0.195409	
-0.0463284	
-0.051504	
0.239303	
0.226927	
0.251653	
0.229632	
0.201551	
0.182488	
0.200743	
0.258569	
0.234054	
0.233963	
0.240591	
0.166289	
0.20934	
0.0850192	
0.261598	
0.248995	
0.0932956	
0.18573	
0.162919	
0.23184	
0.124741	
0.130052	
0.2069	
0.147284	
0.273416	
0.134363	
0.132194	
0.160202	
0.222481	
0.194063	
0.181226	
0.26719	
0.0484285	
0.107757	
0.0419558	
0.0774151	
0.195447	
0.187005	
0.154919	
0.184702	
-0.0213674	
0.258822	
0.241286	
-0.00438333	
0.00547767	
-0.01929	
0.000916418	
0.116748	
0.089336	
0.15896	
0.165815	
0.189043	
0.152827	
0.189938	
0.00686686	
0.160309	
0.133031	
0.174862	
-0.0381893	
-0.0516068	
-0.0428408	
-0.0510585	
0.116375	
0.113019	
0.143074	
0.133221	
0.151754	
0.0877904	
0.0957475	
0.200349	
0.177778	
0.201732	
0.21339	
0.155344	
0.102574	
0.0904378	
0.0992829	
0.0719527	
0.280755	
0.173091	
0.200644	
0.154228	
0.171397	
0.121027	
0.147436	
0.116724	
0.156526	
0.142092	
0.0161317	
0.206004	
0.214002	
0.180808	
0.239187	
0.23779	
0.150152	
0.17655	
0.124812	
0.128467	
-0.0539483	
-0.0386644	
-0.0629794	
-0.0616075	
0.102479	
0.208638	
0.240653	
0.211325	
0.199059	
0.210308	
0.171383	
0.218335	
0.215912	
0.214496	
0.204933	
0.0483761	
0.106546	
0.265735	
0.242622	
0.268132	
0.204816	
0.195121	
0.265473	
0.266895	
0.232331	
0.245265	
0.260163	
0.204785	
0.231425	
0.174336	
0.17734	
0.186828	
0.248933	
0.236047	
0.249927	
0.223065	
0.264816	
0.232223	
0.252058	
0.00146237	
0.186592	
0.197872	
0.166356	
0.237894	
0.239945	
0.232342	
0.22725	
0.245934	
0.256341	
0.107484	
0.13589	
0.124637	
0.141009	
-0.0535633	
0.218024	
0.184169	
0.187884	
0.117999	
0.150319	
0.154074	
0.174746	
0.157016	
0.165855	
-0.0441218	
-0.0329131	
-0.0480343	
-0.0304426	
0.245606	
0.208349	
0.245645	
0.211848	
0.0859196	
0.216874	
0.224078	
0.222127	
0.249838	
0.232684	
0.260817	
0.150557	
0.136417	
0.218621	
0.214595	
0.22243	
0.182394	
0.185942	
0.0242143	
0.0689793	
0.266414	
0.227824	
-0.0205586	
0.19216	
0.219435	
0.228042	
0.229305	
0.211707	
0.200485	
0.198431	
0.25837	
0.260697	
0.253581	
0.151506	
0.261865	
0.266572	
0.0615358	
0.0851319	
0.0846231	
0.224357	
0.220989	
0.221854	
0.266505	
-0.0674814	
-0.0615981	
0.256509	
0.251854	
0.244237	
0.222468	
-0.0622594	
-0.056656	
0.16697	
0.154232	
0.117667	
0.119483	
0.223145	
0.0773271	
0.0916483	
0.152721	
0.153462	
0.171127	
0.169431	
0.26582	
0.258911	
0.00203308	
0.0170968	
0.077413	
0.0433745	
0.107617	
0.107623	
0.136332	
0.180382	
0.178234	
0.166879	
0.160685	
0.27445	
0.261363	
0.238082	
0.253446	
0.267401	
0.0858695	
0.0796486	
0.207087	
0.205707	
0.1888	
0.188574	
0.0269179	
0.0477638	
0.266236	
0.267268	
0.209504	
0.206712	
0.146716	
0.108693	
0.156135	
0.10177	
0.222905	
0.229769	
0.205078	
0.206538	
0.211947	
0.210191	
0.206805	
0.191033	
0.267061	
0.26864	
0.252777	
0.170443	
0.17136	
0.201932	
0.198342	
0.165813	
0.172118	
0.236523	
0.242362	
0.162554	
0.179316	
0.261372	
0.265523	
0.186363	
0.226004	
0.234629	
0.218812	
0.189323	
0.22699	
0.271275	
0.264336	
0.242276	
0.24219	
0.234654	
0.24308	
0.130751	
0.187908	
0.126973	
0.264533	
0.275283	
0.261224	
0.255453	
0.100596	
0.0729642	
0.0757422	
0.05813	
0.261814	
0.256123	
0.266543	
0.273417	
0.00717751	
0.256927	
0.26657	
0.263737	
0.25635	
0.127394	
0.165812	
0.26718	
0.275263	
0.265721	
0.119833	
0.132107	
0.137685	
0.146025	
0.195135	
0.191713	
0.18659	
0.189704	
0.269485	
0.165965	
0.163364	
0.213377	
0.213653	
-0.00206163	
-0.0114767	
0.248189	
0.262782	
0.26265	
0.195053	
-0.00852232	
0.233316	
0.229377	
0.238916	
0.240789	
0.179568	
0.270429	
0.268569	
0.0406279	
0.0112663	
0.185079	
-0.0656494	
-0.058855	
-0.0650123	
0.176175	
0.0653908	
0.0263748	
0.0503821	
0.0253477	
0.24006	
0.126848	
0.166413	
0.263793	
0.249302	
0.264522	
0.262662	
0.266303	
-0.00381741	
-0.0247708	
0.2377	
0.222562	
0.266951	
0.257735	
0.0213949	
0.183435	
0.168837	
0.137768	
0.20451	
0.175207	
0.225621	
0.217356	
0.130765	
0.123779	
0.263886	
0.273717	
0.0653506	
0.0541005	
0.247998	
0.255743	
0.268035	
0.26761	
0.273098	
0.265908	
-0.0589117	
-0.0614698	
0.098701	
0.098475	
0.0280298	
0.02003	
0.00996909	
0.245236	
0.246472	
0.220204	
0.230763	
0.214171	
0.220732	
0.273215	
0.198254	
0.259293	
0.243704	
0.238303	
0.125117	
0.0690723	
0.270824	
0.262276	
-0.0364403	
-0.00561065	
0.0115353	
0.0662941	
0.213408	
0.143164	
0.247676	
0.241051	
0.0617525	
0.0847235	
0.0381924	
0.246195	
0.160402	
0.164052	
0.254626	
0.252851	
0.0931752	
0.0741344	
-0.0140073	
-0.0158305	
0.196975	
0.200491	
0.184103	
0.192743	
0.241117	
0.208081	
0.184012	
0.226207	
0.219085	
0.199069	
0.00960869	
0.0569361	
0.0506003	
0.132718	
0.0743778	
0.185001	
0.214569	
0.261754	
0.103332	
0.10379	
0.210442	
0.199037	
0.251992	
0.129715	
0.131297	
0.100141	
0.0362193	
0.0171053	
0.0444205	
0.016298	
0.0427431	
0.164306	
0.195042	
0.191892	
0.22033	
0.0735633	
0.0579954	
0.0960691	
0.0802613	
0.164367	
0.163252	
0.175912	
0.173178	
0.164167	
0.179026	
0.178916	
-0.0688943	
-0.0237296	
-0.0631439	
-0.048735	
-0.0276812	
0.131954	
0.135238	
-0.0644435	
0.110735	
0.127293	
0.0984936	
0.130215	
0.118	
0.0327667	
-0.0391011	
0.0781661	
0.138271	
-0.0689235	
0.111526	
-0.0627994	
-0.0691342	
-0.0681588	
0.0348967	
0.0708466	
0.263636	
0.240847	
0.267467	
0.242826	
0.269085	
0.269081	
0.137902	
0.0908848	
0.274995	
0.262592	
0.148867	
0.193196	
0.143771	
0.192319	
0.0447796	
0.0605037	
0.213963	
0.0929425	
0.0868471	
-0.0650425	
0.174018	
0.0890692	
0.0891218	
0.0542883	
0.181569	
0.258563	
0.268518	
0.193036	
0.0178923	
0.0115605	
0.165347	
0.195679	
0.228199	
0.219256	
-0.0520409	
-0.0379555	
0.269023	
0.264515	
0.250713	
-0.0358358	
0.266508	
0.184466	
0.186888	
0.203262	
0.19315	
0.129548	
0.0823064	
0.269313	
0.256633	
0.166744	
0.169653	
0.233904	
0.245255	
0.214676	
0.0556364	
0.0673948	
0.233768	
0.258616	
0.232298	
0.0807587	
0.204499	
0.208734	
0.126663	
0.216892	
0.247994	
-0.0692593	
0.219651	
0.217237	
0.209915	
0.264945	
0.249103	
0.142551	
0.26693	
0.140077	
0.166926	
0.142174	
0.144553	
0.117496	
0.27576	
0.249058	
0.265411	
0.276318	
0.265887	
0.265415	
0.247875	
0.251233	
0.245139	
0.242038	
0.202669	
0.219816	
0.255409	
0.249949	
0.0783828	
0.048175	
0.240708	
0.254053	
0.270845	
0.250993	
0.270486	
0.0616299	
0.0721489	
0.0696097	
0.0967147	
0.267814	
0.261806	
0.203691	
0.223446	
0.220873	
0.144085	
0.144484	
-0.0661268	
-0.0632016	
0.132891	
0.118323	
0.116006	
0.113094	
0.109855	
0.109605	
0.0848192	
0.259909	
-0.0534366	
-0.0541295	
-0.0686283	
-0.0702766	
0.212735	
0.162453	
0.161448	
0.248372	
-0.0709493	
-0.0661336	
-0.048889	
-0.0526387	
-0.0677867	
-0.0684034	
0.215047	
0.216801	
0.205964	
0.202857	
-0.0297176	
-0.0122868	
-0.0366971	
-0.0210293	
0.119952	
0.123146	
0.0991704	
0.19441	
0.219711	
0.252404	
0.240006	
0.24781	
0.251189	
0.251354	
0.237933	
0.225426	
0.233804	
0.2067	
0.201245	
0.223565	
0.219141	
0.106924	
0.096588	
0.106666	
0.0411987	
-0.00360364	
0.100196	
0.0680117	
-0.0581697	
-0.0401237	
-0.06537	
0.0759099	
0.174276	
0.122722	
0.119658	
0.0584011	
0.0443548	
-0.0238859	
-0.0441764	
0.227343	
0.226596	
0.0595731	
0.105361	
0.0921879	
0.250626	
0.256085	
0.239983	
0.245988	
0.260819	
0.229582	
0.227298	
0.0841119	
0.071435	
0.121473	
0.102417	
0.131269	
0.121793	
-0.00255057	
0.022831	
0.102243	
0.10663	
0.173337	
0.176255	
0.124888	
0.114948	
0.0903869	
0.0874735	
0.176307	
0.173517	
0.161205	
0.125584	
0.160224	
0.16674	
0.234979	
0.247738	
0.162237	
0.152522	
0.126445	
0.167597	
0.191226	
-0.0201917	
0.0287654	
-0.0285868	
0.24916	
0.2487	
0.231674	
0.217128	
0.185081	
0.163949	
0.181286	
0.179773	
-0.0365228	
-0.0421437	
-0.0559335	
-0.0584915	
0.0458899	
0.0720978	
0.0846783	
0.168262	
0.144975	
0.181405	
0.18696	
0.207892	
0.186466	
0.253104	
0.249369	
0.225224	
0.233687	
0.233549	
0.233901	
-0.0478267	
-0.0535755	
-0.0349084	
-0.0400243	
0.178567	
0.157916	
0.1683	
0.167503	
0.033949	
0.0965222	
0.0947681	
0.0864791	
0.0911249	
0.244926	
0.257656	
0.0597029	
0.0298612	
0.263208	
0.261951	
0.24922	
0.264343	
0.260755	
0.263249	
0.01874	
0.239413	
0.237868	
0.198943	
0.0948075	
0.0847452	
0.0709402	
0.0750949	
0.1427	
0.147324	
0.229757	
0.245519	
0.255605	
0.258354	
0.177229	
0.172483	
0.0845358	
0.0934981	
0.234214	
0.225529	
0.0620592	
0.0790143	
0.127597	
0.107889	
0.130242	
0.150672	
0.108298	
0.118956	
0.11933	
0.082233	
0.0153457	
0.0424889	
0.0988518	
0.080655	
0.251579	
0.267874	
-0.0158935	
0.140765	
0.114018	
0.261669	
0.260123	
0.0632699	
0.0712283	
0.103691	
0.079267	
0.0850073	
0.0879001	
0.027907	
0.0582859	
0.0868721	
0.0752651	
0.135916	
0.125971	
0.0745866	
0.0507579	
0.0892782	
0.0613072	
0.224504	
0.226249	
0.168593	
0.183393	
0.148868	
0.139655	
0.0410579	
0.0103016	
-0.0480141	
0.00632438	
0.0222629	
0.0199057	
-0.00682958	
0.166124	
-0.0207059	
0.135843	
0.137586	
-0.0166545	
-0.0436656	
-0.0343334	
-0.0430083	
0.110403	
0.117989	
0.0419822	
0.0443335	
0.0404217	
0.189937	
0.16269	
0.263874	
0.259721	
0.106316	
0.0857489	
0.0763231	
0.0739478	
0.0865999	
0.127507	
0.124306	
0.149747	
0.149207	
0.062979	
0.0659288	
0.0186766	
0.00921575	
0.0820948	
0.058583	
0.0615745	
0.0384739	
0.100675	
0.102709	
0.090924	
0.0842947	
0.0929141	
0.085666	
0.0529955	
0.270676	
0.268864	
0.264237	
0.269654	
0.10129	
0.10537	
0.093334	
0.0989105	
0.0971744	
0.0998669	
0.0969942	
-0.0158779	
0.0012526	
-0.00711184	
0.0094399	
0.0267508	
0.0380639	
0.0180623	
0.00797446	
-0.0121073	
-0.00362613	
0.00423575	
0.0337866	
0.0198368	
0.0242463	
0.0124257	
0.00413664	
0.0203118	
0.00277634	
0.0122138	
-0.010393	
-0.0176803	
-0.0136179	
-0.00472083	
0.0271197	
0.0249969	
0.0186522	
0.0106812	
-0.0146011	
-0.00998373	
-0.00417403	
0.00249923	
0.0332786	
-0.0635119	
-0.0492124	
0.00441653	
0.0326732	
-0.0258652	
-0.0311782	
-0.00904937	
0.0296433	
0.0233137	
0.0028643	
-0.0518351	
0.00205014	
-0.0291624	
-0.0726868	
-0.0551952	
0.0309504	
0.0154706	
-0.0050228	
-0.0667268	
-0.0420449	
-0.0177454	
0.0243437	
0.134836	
0.173093	
0.171439	
0.11526	
0.14086	
-0.0286553	
0.0725806	
0.140623	
0.0535448	
0.0948369	
0.127557	
0.0465515	
0.0377445	
0.117566	
0.118661	
0.0932244	
0.0943298	
0.0773732	
0.102825	
0.125942	
0.171863	
0.173979	
-0.0602761	
-0.0660577	
-0.05102	
-0.0512019	
0.00160338	
0.0228539	
0.0110014	
0.163589	
0.149382	
0.153624	
0.0455686	
0.161227	
0.152788	
0.169815	
0.170908	
0.1675	
0.161351	
0.168441	
0.169185	
-0.0551909	
-0.0417407	
0.143579	
0.149377	
0.134692	
0.159037	
0.158047	
0.163781	
0.157069	
0.146002	
0.145546	
0.16882	
0.154088	
0.172903	
0.174708	
0.102606	
0.10865	
0.127773	
0.17341	
0.174743	
-0.0390132	
-0.0217027	
0.00903756	
-0.00423073	
-0.0279263	
-0.00586985	
-0.0258907	
0.0562781	
0.0356119	
0.0782199	
0.0744772	
0.117901	
0.135517	
0.111651	
0.130592	
0.101444	
0.16013	
0.164093	
0.126722	
0.0930344	
-0.151445	
-0.0303017	
0.0318226	
0.0662739	
-0.0251307	
0.033642	
0.0456654	
-0.0295132	
0.0597379	
0.0334939	
-0.00238093	
-0.00529793	
0.00817762	
0.0350241	
0.0445051	
0.134533	
0.155573	
-0.150049	
-0.171899	
-0.125647	
-0.129233	
-0.109584	
-0.0920661	
-0.0826794	
0.0844949	
0.112976	
0.092236	
-0.0662308	
-0.0775606	
0.127308	
0.11869	
0.139062	
0.127436	
0.128869	
0.138328	
0.131908	
0.124247	
-0.159365	
-0.16628	
0.0720852	
0.086864	
0.103056	
0.106007	
0.0829784	
0.0869876	
0.11028	
0.115484	
0.151952	
0.150765	
0.15848	
0.162851	
0.0463851	
0.0991817	
0.0720148	
0.163382	
0.158314	
-0.144445	
-0.143187	
-0.118445	
-0.113212	
-0.108814	
-0.143004	
-0.121707	
-0.01844	
-0.064198	
-0.0357725	
-0.0658193	
0.0374702	
0.0695899	
0.0159971	
0.0695261	
0.0438769	
-0.0507434	
0.0707486	
0.165181	
0.217737	
0.211942	
0.211093	
0.190783	
0.206526	
0.195575	
0.18521	
0.207273	
0.200591	
0.204686	
0.191879	
0.199739	
0.19509	
0.172539	
0.154766	
0.173973	
0.183705	
0.179174	
0.213056	
0.174408	
0.204966	
0.203692	
0.189725	
0.209736	
0.196935	
0.205348	
0.091324	
0.0978703	
-0.0957534	
-0.0181797	
0.20191	
0.170349	
0.212525	
0.156216	
0.191765	
0.0943546	
0.172457	
0.183008	
0.212392	
-0.208348	
0.175031	
0.207577	
0.187766	
0.19417	
0.109981	
0.102444	
0.147038	
0.100155	
0.131054	
-0.00462906	
-0.36161	
0.0181221	
0.117367	
0.125094	
-0.0711394	
-0.0280115	
0.0196754	
0.0493793	
-0.248001	
-0.32844	
-0.338813	
-0.344614	
-0.197035	
-0.00351221	
-0.0118146	
-0.233355	
-0.268017	
-0.150964	
-0.00351805	
-0.260625	
-0.293985	
-0.331847	
-0.333011	
-0.165712	
0.00910312	
-0.0866934	
-0.346018	
-0.344198	
-0.0826026	
0.175419	
0.0896091	
0.170104	
-0.347942	
-0.0483862	
0.140475	
-0.0350854	
-0.00718015	
0.152779	
-0.246471	
-0.0274864	
-0.0901662	
-0.133573	
-0.207165	
-0.0652214	
0.157233	
-0.0956424	
0.095599	
-0.0995489	
0.117609	
0.0842935	
0.0277339	
0.0699001	
-0.242012	
-0.224645	
0.08068	
-0.00600889	
-0.103306	
-0.0391601	
-0.137375	
-0.102411	
-0.252585	
-0.0758149	
-0.0778678	
-0.159926	
0.151481	
-0.153764	
-0.326353	
0.124385	
-0.322422	
-0.320049	
-0.00306618	
0.0551424	
-0.318272	
-0.124372	
-0.180805	
-0.139257	
0.197208	
0.110503	
0.12011	
0.119803	
0.0506816	
0.0513833	
-0.00993788	
0.0410748	
-0.215511	
-0.138406	
0.170437	
0.153028	