<VTKFile type="UnstructuredGrid" version="0.1" byte_order="LittleEndian">
	<UnstructuredGrid>
		<Piece NumberOfPoints="3959" NumberOfCells="7450">
			<CellData Scalars="scalars">
				<DataArray type="Float64" Name="Doublet Strengths" NumberOfComponents="1" Format="ascii">
-0.0701525	
-0.0548597	
0.00128385	
0.0314195	
-0.030503	
-0.0402146	
-0.0164784	
0.0264902	
0.0186414	
-0.00344364	
-0.0624552	
0.00362831	
-0.0267718	
-0.0686799	
-0.0519609	
0.0316323	
0.0191869	
-0.000318915	
-0.0586484	
-0.0353212	
-0.0122683	
0.026787	
0.134398	
0.171754	
0.170156	
0.113078	
0.13322	
-0.106959	
0.0334766	
0.120762	
0.0327633	
0.0840671	
0.107178	
0.0113342	
-0.00399963	
0.089885	
0.094931	
0.0635054	
0.0620225	
0.0605877	
0.0818609	
0.10652	
0.163386	
0.170768	
-0.0924218	
-0.103608	
-0.100931	
-0.14446	
-0.0557247	
-0.0310822	
-0.0187635	
0.152835	
0.133985	
0.138652	
0.00110728	
0.150755	
0.146962	
0.159672	
0.162809	
0.156398	
0.160681	
0.15838	
0.161489	
-0.123992	
-0.168273	
0.123882	
0.130529	
0.112012	
0.144113	
0.143362	
0.157034	
0.149275	
0.132264	
0.133552	
0.166092	
0.152032	
0.170898	
0.171051	
0.087648	
0.101064	
0.121616	
0.172117	
0.171588	
-0.0856996	
-0.0870441	
-0.0386146	
-0.0411159	
-0.0613595	
-0.0512997	
-0.0809129	
0.0318651	
0.00562407	
0.0528577	
0.0438806	
0.0983331	
0.121602	
0.0956767	
0.11824	
0.105285	
0.163614	
0.167217	
0.129357	
0.100738	
-0.0769203	
0.00770203	
0.0556528	
0.086654	
-0.00532833	
0.0489111	
0.0663933	
0.000230529	
0.0826887	
0.0610489	
0.0293185	
0.0239236	
0.024692	
0.0548421	
0.0643174	
0.144541	
0.160812	
-0.103738	
-0.0830496	
-0.0970678	
-0.0952312	
-0.0644298	
-0.0402622	
-0.0550498	
0.100857	
0.125273	
0.108177	
-0.0234326	
-0.0376433	
0.136004	
0.12646	
0.148493	
0.139647	
0.140348	
0.142686	
0.141328	
0.135797	
-0.0942622	
-0.0434678	
0.0923109	
0.106294	
0.118714	
0.121834	
0.0978083	
0.100205	
0.122358	
0.125094	
0.155023	
0.15578	
0.163702	
0.166319	
0.05768	
0.108421	
0.0806551	
0.166673	
0.163309	
-0.0826068	
-0.0915271	
-0.0638672	
-0.082775	
-0.0746169	
-0.0997621	
-0.0791296	
0.00620953	
-0.0304925	
-0.0124935	
-0.0374724	
0.0537695	
0.0829131	
0.0368545	
0.0843427	
-0.00555564	
-0.176121	
0.0296277	
0.167697	
0.216053	
0.207836	
0.208016	
0.191122	
0.203333	
0.193255	
0.184042	
0.205809	
0.199658	
0.200559	
0.18354	
0.194665	
0.190907	
0.170274	
0.162986	
0.171601	
0.18033	
0.175924	
0.208775	
0.175239	
0.198333	
0.198903	
0.184857	
0.204112	
0.193533	
0.205165	
0.115478	
0.108124	
-0.0322437	
0.0112772	
0.196598	
0.176071	
0.210803	
0.165183	
0.187878	
0.0589826	
0.178309	
0.184696	
0.208004	
-0.250326	
0.178496	
0.202653	
0.190114	
0.195266	
0.133315	
0.126077	
0.157867	
0.124123	
0.145568	
-0.072524	
-0.276463	
-0.0406522	
0.0887178	
0.0969741	
-0.229361	
-0.108974	
-0.0368977	
-0.000134356	
-0.36364	
-0.177165	
-0.221113	
-0.373276	
-0.218241	
-0.0282725	
-0.0829764	
-0.298858	
-0.341021	
-0.200945	
-0.069233	
-0.312184	
-0.349304	
-0.381613	
-0.388628	
-0.302917	
-0.0511987	
-0.141637	
-0.382219	
-0.371705	
-0.0971179	
0.163704	
0.103049	
0.153477	
-0.225667	
0.00990015	
0.1175	
0.0257197	
0.019307	
0.130289	
-0.0853007	
0.039395	
-0.106032	
-0.1517	
-0.296405	
-0.0344196	
0.136137	
-0.0526948	
0.0619274	
-0.0144221	
0.086477	
0.0440823	
0.0263113	
0.0694868	
-0.280656	
-0.257937	
0.0559548	
0.0366184	
-0.0189823	
0.0270765	
-0.0797534	
-0.0250662	
-0.284988	
-0.126732	
-0.125064	
-0.081021	
0.142646	
-0.0646382	
-0.151868	
0.102268	
-0.16912	
-0.177232	
0.0495393	
0.0829232	
-0.22536	
-0.139652	
-0.195109	
-0.0411189	
0.186906	
0.0860775	
0.0894291	
0.0887608	
0.00912637	
0.00912323	
-0.0215604	
0.0308654	
-0.299396	
-0.203425	
0.15408	
0.130662	
0.127889	
0.139564	
-0.0984652	
-0.0758204	
-0.0775367	
-0.0311095	
-0.0204169	
0.0083778	
0.164412	
0.0526808	
0.0835379	
0.17292	
0.168252	
0.0779982	
-0.24541	
0.189425	
0.110215	
-0.0553664	
-0.123553	
0.178922	
0.199606	
0.0563596	
0.153453	
-0.276226	
-0.190582	
0.114876	
0.111467	
0.125626	
0.0248369	
0.194315	
0.170828	
0.151657	
0.154673	
0.13872	
0.161624	
0.185738	
0.181803	
0.160717	
-0.0311221	
0.0380761	
0.146421	
0.162422	
0.147903	
0.179871	
0.189719	
0.0575954	
0.170327	
0.0819825	
0.0622643	
0.0534815	
0.0619257	
0.120807	
0.1875	
0.106887	
0.0806836	
0.0553785	
0.0626648	
0.116909	
0.119399	
0.137179	
0.136062	
0.0607867	
0.0068957	
0.0217467	
-0.0276716	
0.188326	
0.207383	
0.188957	
0.182272	
0.193978	
0.0990092	
0.101786	
0.183627	
0.105762	
-0.203649	
0.0854137	
0.0179815	
0.0717151	
0.0849872	
0.175243	
0.0259364	
-0.0990174	
-0.0687306	
0.0576533	
0.0592768	
0.0218168	
0.148965	
0.179705	
0.10236	
0.0963009	
0.185204	
0.144104	
0.0948864	
0.0377739	
0.0297789	
0.0622559	
0.0653257	
0.0141234	
0.142235	
0.147799	
-0.335853	
-0.29413	
-0.190851	
-0.151361	
-0.0888553	
0.11874	
0.110215	
0.13014	
0.162861	
0.150185	
0.126537	
0.182589	
-0.181748	
-0.191482	
-0.356719	
-0.326372	
0.0474243	
-0.087519	
0.0336511	
-0.323481	
-0.349439	
0.00227144	
-0.0124748	
0.00976214	
0.000332157	
-0.108519	
-0.0688296	
-0.0610615	
-0.015174	
0.0174913	
-0.00169526	
0.065603	
0.0858469	
0.10871	
-0.0112625	
-0.0421094	
-0.0111303	
-0.0296374	
-0.0103799	
0.0336265	
0.110186	
0.111648	
0.0933448	
0.0246932	
0.00265223	
-0.0737933	
0.135685	
0.0969643	
0.018606	
0.00524251	
0.191872	
-0.213382	
0.0626989	
-0.0207051	
-0.0324306	
0.211033	
0.191166	
0.203226	
-0.212268	
-0.165232	
-0.110203	
-0.00216245	
-0.122377	
-0.0721392	
0.199078	
0.184395	
0.140343	
0.115993	
0.0669617	
-0.0638672	
-0.134463	
-0.0872617	
0.178984	
0.0302332	
-0.38376	
-0.386597	
-0.384893	
-0.213502	
0.0602741	
-0.000178435	
-0.00381392	
0.0154818	
0.0150585	
0.0238634	
-0.0132814	
0.124656	
0.119905	
-0.140228	
-0.0716645	
-0.19447	
-0.128796	
-0.0479541	
-0.163025	
-0.0738206	
0.0422844	
-0.260841	
-0.243405	
0.137186	
0.0624389	
0.107875	
-0.0384719	
-0.00337214	
0.155868	
0.157027	
0.138561	
0.155533	
0.143278	
0.0764128	
0.0540203	
0.138589	
0.046457	
0.196648	
0.186391	
-0.114012	
-0.246286	
0.181475	
0.178227	
0.188224	
0.0189304	
0.190004	
0.201393	
0.187872	
0.197641	
0.206402	
0.191291	
-0.225239	
-0.253863	
0.206684	
0.188472	
0.194171	
0.181483	
-0.353198	
0.0382462	
0.0101192	
0.0237619	
0.189988	
0.172893	
0.157641	
0.179849	
0.0637771	
0.0659181	
0.0160003	
0.0192281	
0.132248	
-0.141102	
0.0293107	
0.0729161	
-0.0590026	
0.144725	
0.154036	
0.126383	
0.0930775	
0.202612	
0.0362582	
0.0821859	
-0.0230132	
-0.00948345	
0.105211	
0.129592	
0.136762	
0.0492272	
-0.0644845	
-0.0399613	
-0.0213483	
0.0196785	
0.0553161	
0.0849785	
-0.0258245	
0.0362808	
-0.0193609	
0.197109	
0.182187	
0.0665788	
-0.00679342	
0.0872124	
0.147634	
-0.00354369	
-0.116496	
-0.00661741	
-0.118805	
0.104048	
-0.0355131	
-0.0393999	
-0.0240303	
0.122693	
0.0953982	
0.0917424	
0.0329727	
0.0942734	
0.055468	
0.00423603	
0.00789399	
0.0280197	
0.0225182	
0.00725834	
-0.0392646	
-0.0862905	
0.115448	
0.0374679	
0.0357481	
0.0227019	
0.128666	
0.0260028	
-0.0120601	
0.0677882	
0.0790581	
0.106061	
-0.341196	
-0.0104695	
-0.0345242	
0.0575535	
0.0655434	
0.151684	
0.0933143	
0.0817654	
0.0733957	
-0.111695	
-0.0711864	
0.0375998	
0.011449	
-0.0196065	
-0.0649235	
0.0972248	
0.0643038	
0.0572182	
0.0594425	
-0.0456639	
0.0285503	
-0.246844	
-0.230451	
-0.147099	
-0.133938	
0.14459	
-0.0442514	
-0.166628	
0.129743	
-0.0919745	
0.0262418	
-0.144632	
-0.216864	
-0.0681384	
-0.0360053	
0.0158016	
-0.0177579	
-0.0988626	
-0.159249	
-0.0887778	
-0.0403985	
-0.0242076	
-0.00184591	
-0.147336	
0.131471	
0.00870215	
0.0356961	
0.0740073	
-0.105691	
-0.0713212	
-0.0848589	
-0.139534	
-0.21348	
0.121874	
0.109886	
-0.0210986	
0.0315155	
-0.112549	
-0.135287	
0.110776	
0.0368409	
0.0683213	
-0.0303243	
-0.0129423	
-0.119993	
-0.0809284	
-0.308509	
-0.345735	
0.0492772	
-0.245636	
0.0449598	
0.00538761	
-0.140331	
0.134508	
-0.0993025	
-0.0883792	
-0.0119302	
-0.0575787	
0.183363	
0.0979487	
0.146373	
0.0827926	
0.103126	
0.203342	
0.191067	
-0.050929	
-0.0435136	
0.0475448	
0.0648155	
-0.34146	
-0.136046	
-0.165774	
-0.381667	
-0.0180194	
0.0501912	
-0.0311503	
-0.040997	
-0.137154	
-0.112151	
0.0343365	
-0.010913	
0.0030337	
0.194152	
0.178807	
0.0643558	
0.00244809	
-0.0370643	
0.0868943	
0.118081	
0.0387754	
0.0707774	
0.0253636	
-0.0547403	
0.189967	
0.207775	
0.204975	
0.19312	
-0.195715	
0.185547	
0.164255	
-0.00299931	
-0.0914204	
0.0179186	
0.156101	
0.175342	
0.154657	
0.174821	
0.162808	
0.139947	
0.0643798	
0.0496973	
-0.00162221	
0.00385183	
0.117576	
0.124329	
-0.131086	
-0.36263	
-0.340248	
0.0392503	
0.0271413	
0.197731	
0.179395	
0.212585	
0.196524	
0.149041	
0.116843	
-0.0729383	
0.10903	
0.140327	
0.125701	
0.142333	
0.143327	
0.161775	
0.156378	
0.135921	
-0.207377	
-0.229829	
0.177033	
0.162108	
0.0971046	
0.0564397	
0.143509	
0.14227	
0.203532	
0.190277	
-0.0333003	
-0.092403	
-0.15749	
-0.0732812	
0.0162286	
0.102309	
0.045105	
0.112602	
-0.0846134	
-0.0728811	
-0.2513	
0.114561	
0.110964	
0.167191	
0.191569	
-0.0719211	
0.0370873	
-0.0397217	
0.0169735	
-0.0512557	
-0.0137879	
0.058096	
0.0598505	
0.109297	
-0.027028	
-0.0276862	
-0.0375634	
-0.0423408	
0.203036	
0.176353	
0.179538	
-0.102883	
-0.150118	
0.0644716	
-0.00914435	
0.058661	
-0.0406701	
0.0616191	
0.0525391	
-0.0832815	
-0.0917979	
0.0767214	
-0.00487865	
0.00323411	
-0.296088	
-0.0088983	
0.0368678	
0.0771898	
0.080345	
-0.156426	
-0.168185	
-0.237162	
-0.0184164	
0.0191953	
0.1647	
0.151963	
0.00784255	
0.0652813	
0.0870743	
0.0926176	
-0.00313445	
-0.0441252	
-0.0982471	
-0.0998933	
0.192946	
0.181978	
0.186236	
0.0600301	
0.062527	
0.113781	
0.0572059	
-0.139994	
-0.137193	
-0.194219	
-0.0952575	
-0.0881054	
-0.0161584	
0.112073	
0.113572	
0.0778	
0.0389972	
-0.176565	
-0.17756	
-0.0102797	
-0.0296219	
-0.223512	
-0.196909	
-0.268833	
-0.118927	
0.171592	
0.156344	
0.13092	
0.190382	
0.209585	
-0.0739938	
-0.0133482	
-0.068371	
0.0643263	
0.109138	
0.0239119	
0.0695105	
0.100166	
0.127475	
0.103962	
0.129997	
-0.0371494	
-0.0228131	
0.142883	
0.141772	
-0.159874	
-0.133837	
-0.20273	
0.18472	
0.192275	
0.184018	
0.140131	
0.104699	
0.157064	
0.108855	
0.154375	
0.0762719	
0.133942	
0.130808	
0.165191	
-0.0558122	
-0.0456988	
-0.0480172	
0.137133	
-0.0566858	
-0.0761206	
-0.172677	
0.0555882	
0.0301337	
-0.240376	
-0.247344	
-0.0525439	
-0.0596844	
0.118638	
0.066359	
-0.1308	
-0.296868	
-0.26151	
0.176677	
0.175349	
0.159648	
0.174652	
0.172674	
0.0475119	
0.0891554	
0.0312914	
0.0384108	
0.186101	
-0.0395215	
-0.20131	
-0.0411104	
0.0189141	
-0.0183875	
-0.02651	
0.0144704	
-0.342992	
0.0518802	
0.0611294	
0.141625	
0.110909	
0.156755	
0.124274	
0.143496	
0.133704	
0.130155	
0.0252463	
0.0569864	
0.0496029	
0.0764377	
0.130078	
0.108715	
0.0277322	
0.140411	
0.154674	
0.106736	
0.123998	
0.113751	
0.138189	
0.117487	
0.114676	
0.0520997	
0.0545111	
0.128675	
0.109883	
0.11801	
0.0723813	
-0.0641486	
-0.0661603	
-0.0480942	
-0.01532	
-0.0959919	
-0.0309324	
0.0738312	
0.0555378	
0.102758	
0.157753	
0.123773	
0.137287	
0.0849746	
0.00987503	
-0.0112604	
0.0562603	
-0.0166916	
0.0161851	
-0.0299053	
0.0546595	
0.179154	
0.178907	
-0.320176	
-0.280632	
0.123122	
0.113658	
-0.00759759	
-0.022399	
0.130779	
-0.0748863	
-0.0584454	
0.174217	
0.160396	
0.18891	
0.207387	
0.0597119	
0.0365033	
0.141133	
0.124991	
0.176995	
0.0188622	
0.0591682	
0.123616	
0.0779108	
0.113208	
0.0851368	
0.111759	
0.206597	
0.030644	
0.0308461	
0.180874	
0.0497639	
0.103628	
0.102211	
0.0299785	
0.00511907	
0.107326	
0.113675	
0.147464	
0.185543	
0.19068	
0.200286	
-0.206617	
0.122602	
0.071617	
-0.0598124	
0.0305155	
0.067944	
0.144926	
0.142709	
0.196464	
0.187996	
0.155249	
0.146507	
-0.203593	
-0.124798	
-0.0905776	
-0.10721	
0.0832204	
0.0641582	
0.071094	
-0.0906069	
-0.0618987	
-0.265736	
-0.0824476	
-0.0732676	
-0.131877	
-0.277724	
-0.216773	
-0.148285	
-0.137027	
-0.120669	
-0.102165	
0.146794	
0.134817	
0.0701638	
-0.0632141	
-0.0523421	
-0.142825	
-0.142946	
-0.209064	
-0.205865	
-0.0540085	
-0.0721756	
-0.33779	
-0.047256	
-0.196285	
0.0879229	
0.0920182	
0.0647767	
0.0667554	
0.170976	
0.170302	
-0.0514845	
-0.0941738	
-0.000719586	
-0.00397959	
0.0468974	
0.0273768	
0.0432834	
0.0263558	
-0.199149	
-0.224964	
-0.164527	
-0.0231146	
0.135069	
0.122262	
0.0589	
0.0384871	
-0.245106	
-0.226331	
-0.0873074	
-0.190543	
-0.233259	
-0.212307	
-0.264916	
0.200579	
0.183976	
-0.0265213	
-0.0830166	
-0.0609551	
-0.0551089	
-0.081333	
-0.189813	
-0.173467	
0.0559153	
0.011753	
-0.158627	
-0.0502079	
-0.257261	
-0.248045	
-0.150497	
-0.130893	
-0.138734	
-0.12555	
-0.15056	
-0.148941	
-0.104254	
-0.10344	
0.148037	
0.0749676	
0.132479	
0.114484	
0.111573	
0.11532	
0.0814632	
-0.234241	
-0.189235	
-0.195881	
-0.206559	
-0.198915	
-0.263757	
-0.272859	
-0.319078	
-0.177757	
-0.117228	
-0.216032	
-0.190245	
-0.289158	
-0.333355	
-0.332946	
-0.368584	
-0.0354294	
-0.0380366	
-0.0400707	
-0.0477955	
-0.212087	
-0.218811	
-0.170931	
-0.160913	
-0.128734	
-0.137806	
-0.0927724	
-0.308617	
-0.0347893	
-0.0196997	
-0.308103	
-0.265992	
-0.013749	
-0.0236189	
-0.0286513	
-0.147311	
-0.143188	
-0.0242164	
-0.0330857	
-0.0768508	
-0.084167	
-0.173789	
-0.165498	
0.0887646	
0.022605	
0.0025645	
-0.00588566	
0.0976671	
0.049666	
-0.119961	
-0.0957856	
-0.120309	
-0.0185057	
-0.283879	
-0.329545	
-0.0996065	
-0.115639	
0.196295	
0.122699	
0.209383	
0.180629	
-0.377222	
-0.370861	
0.0463174	
0.00299692	
-0.313244	
-0.278399	
-0.331982	
-0.298373	
-0.284231	
-0.294742	
-0.222732	
-0.192699	
-0.318788	
-0.35959	
-0.358673	
-0.352741	
-0.350629	
-0.18303	
-0.129231	
-0.103922	
-0.300497	
-0.327322	
-0.354176	
-0.243246	
0.188595	
0.157122	
0.209316	
0.192213	
-0.328723	
-0.300298	
-0.218075	
-0.206155	
-0.192738	
-0.00736529	
-0.00802321	
-0.299695	
-0.299178	
-0.334482	
-0.304046	
-0.326587	
-0.0596528	
-0.0704569	
-0.0827732	
-0.1047	
-0.216004	
-0.257375	
-0.216737	
-0.242623	
-0.271316	
-0.303057	
0.208533	
0.1841	
0.182284	
0.143164	
-0.251282	
-0.134023	
-0.122239	
-0.135045	
0.181231	
0.138149	
0.160989	
0.0808124	
-0.351005	
0.0810532	
0.125366	
0.114239	
0.135531	
-0.336114	
-0.354703	
-0.339344	
-0.343114	
-0.334085	
-0.340844	
-0.299448	
-0.110953	
-0.100939	
-0.0995912	
-0.0996016	
0.137757	
0.195651	
0.134333	
0.193262	
0.128978	
0.119777	
0.12278	
0.0731094	
-0.255043	
-0.275959	
-0.254776	
-0.240181	
-0.344728	
-0.359533	
-0.346231	
-0.352664	
0.0771783	
0.136583	
0.0813706	
0.138135	
0.163461	
0.129781	
0.150683	
0.0928215	
0.112284	
0.0882718	
0.111525	
0.0875303	
0.173444	
0.201685	
0.204976	
0.209756	
0.220658	
0.141375	
0.231049	
0.235115	
0.236119	
0.244245	
0.248628	
0.254085	
0.228432	
0.190649	
0.168934	
0.046754	
0.255899	
-0.00823538	
-0.00260079	
-0.0342923	
0.182688	
0.248675	
0.233935	
0.265326	
0.261388	
0.268315	
0.256151	
0.263239	
0.253892	
0.246502	
0.170315	
0.217125	
0.196225	
0.21885	
0.189557	
0.149799	
0.217317	
0.159204	
0.101885	
0.257181	
0.236199	
0.234909	
0.0945192	
-0.044314	
0.248161	
-0.0270988	
-0.0418864	
0.0136122	
0.0701943	
0.0423741	
-0.0357474	
0.0402371	
0.00181493	
0.0711363	
-0.054642	
0.0158521	
0.0647334	
0.0832587	
0.0402155	
-0.00387959	
-0.0449869	
0.208197	
-0.0289482	
0.176891	
0.105113	
0.109256	
0.0864321	
0.0470246	
0.0537052	
0.0719178	
0.0808244	
0.0192018	
0.0586953	
0.0127355	
0.0387773	
0.0199762	
0.0317552	
0.0322893	
0.0458438	
0.0865695	
0.0520908	
0.0565981	
0.0678675	
0.0885857	
0.0457024	
-0.0234613	
-0.0268579	
0.0209074	
-0.00271659	
-0.00867224	
0.0337759	
0.0638631	
0.0587549	
0.00438232	
-0.0202185	
-0.0293656	
-0.00906069	
0.0324122	
-0.062093	
-0.0409413	
-0.0638703	
0.167534	
0.188454	
0.185426	
0.224491	
0.0110876	
0.101185	
0.154497	
0.161868	
0.190643	
0.000348535	
0.151372	
0.128804	
-0.0579789	
-0.0386511	
-0.0288369	
0.133069	
-0.031096	
0.143514	
-0.0031132	
0.204413	
0.208033	
-0.0688076	
0.0768408	
0.040648	
0.00289967	
0.0753286	
0.0163647	
0.246413	
0.230699	
0.224045	
-0.0499617	
0.0838902	
0.218272	
-0.0132657	
-0.0163925	
0.208002	
0.229933	
0.00775185	
0.0492268	
0.198952	
0.141181	
-0.061587	
-0.0494958	
0.110585	
-0.0223831	
-0.0172844	
-0.00752735	
-0.00117244	
0.250888	
0.209	
0.213953	
0.131221	
0.166283	
0.244059	
0.273405	
0.25548	
0.0591551	
0.169393	
0.243801	
0.194832	
0.108518	
0.129881	
0.142332	
0.160556	
0.00622184	
0.120017	
0.0845934	
0.0983849	
0.0667652	
0.119969	
0.117815	
0.188917	
0.150389	
0.194632	
0.116759	
0.156345	
0.129252	
0.168062	
0.118007	
0.125327	
0.157091	
0.20666	
0.141595	
0.151968	
0.159159	
0.158863	
0.141655	
0.266051	
0.268028	
0.277893	
0.265222	
0.281762	
0.250116	
0.115961	
-0.0244036	
0.0226944	
0.0279334	
0.124321	
0.232859	
0.179627	
0.111304	
0.183978	
0.171279	
0.124706	
0.237237	
0.270553	
0.27576	
0.231074	
0.250083	
0.259881	
0.278268	
0.262161	
0.252516	
0.277655	
0.262216	
0.261648	
0.269872	
0.244251	
0.242189	
0.268506	
0.26822	
0.274347	
0.104358	
0.278788	
0.225986	
0.246131	
0.200904	
0.226898	
0.269078	
0.270346	
0.274381	
0.204336	
0.196508	
0.224582	
0.208921	
0.218021	
0.220231	
0.195567	
-0.0462899	
-0.0515078	
0.23899	
0.22648	
0.251453	
0.229228	
0.201732	
0.1825	
0.201201	
0.258062	
0.233347	
0.233218	
0.240645	
0.166428	
0.209578	
0.0846482	
0.261584	
0.249317	
0.0934664	
0.185882	
0.162898	
0.23199	
0.12502	
0.13032	
0.206659	
0.147591	
0.273445	
0.134169	
0.132031	
0.160143	
0.222939	
0.194595	
0.181787	
0.266983	
0.0487563	
0.108098	
0.0422663	
0.0777344	
0.194719	
0.186244	
0.1555	
0.184666	
-0.0209929	
0.258298	
0.240846	
-0.00434038	
0.00551619	
-0.0192749	
0.000920794	
0.117361	
0.0899222	
0.158966	
0.165116	
0.188423	
0.152045	
0.189304	
0.00699386	
0.159625	
0.132308	
0.174192	
-0.0382517	
-0.0516691	
-0.0428895	
-0.0511039	
0.116203	
0.112842	
0.142998	
0.133088	
0.151463	
0.0875297	
0.0955091	
0.199812	
0.178317	
0.202225	
0.213823	
0.155712	
0.10294	
0.0907922	
0.099906	
0.0725211	
0.280844	
0.173151	
0.200894	
0.154305	
0.171595	
0.119727	
0.147122	
0.116257	
0.15632	
0.141788	
0.016246	
0.206074	
0.214129	
0.179731	
0.239512	
0.238132	
0.150733	
0.177081	
0.125401	
0.129044	
-0.0540091	
-0.0387295	
-0.0630396	
-0.0616722	
0.103034	
0.208583	
0.240625	
0.211242	
0.198468	
0.209772	
0.170738	
0.218474	
0.21595	
0.214594	
0.204928	
0.0489691	
0.10716	
0.26539	
0.242069	
0.26788	
0.204173	
0.194473	
0.26525	
0.266521	
0.232348	
0.24529	
0.260235	
0.2039	
0.230711	
0.174341	
0.177284	
0.186869	
0.24926	
0.236417	
0.250243	
0.223438	
0.264489	
0.231514	
0.251568	
0.00181276	
0.186322	
0.197543	
0.165953	
0.237732	
0.239691	
0.232043	
0.226871	
0.245851	
0.256257	
0.107264	
0.135769	
0.124479	
0.140912	
-0.0533312	
0.217272	
0.183258	
0.187036	
0.11716	
0.149449	
0.153187	
0.173967	
0.156968	
0.165865	
-0.0441033	
-0.0328835	
-0.0480512	
-0.0304326	
0.244937	
0.207415	
0.244991	
0.210957	
0.0851847	
0.216646	
0.223989	
0.221913	
0.250006	
0.232744	
0.26095	
0.150189	
0.135959	
0.218659	
0.214492	
0.222369	
0.182542	
0.186158	
0.0243142	
0.0690934	
0.266168	
0.227308	
-0.0202578	
0.192643	
0.219874	
0.227221	
0.228485	
0.210767	
0.200706	
0.198592	
0.258173	
0.260579	
0.25343	
0.152092	
0.26212	
0.266852	
0.0604259	
0.0843131	
0.083687	
0.223797	
0.221291	
0.222113	
0.266187	
-0.0675095	
-0.0616126	
0.256505	
0.251913	
0.244024	
0.222012	
-0.0622492	
-0.0566365	
0.166851	
0.154152	
0.117445	
0.119335	
0.222651	
0.07632	
0.0907725	
0.153054	
0.153774	
0.171123	
0.169429	
0.265749	
0.258917	
0.00217967	
0.0172688	
0.0778946	
0.0437802	
0.106307	
0.108115	
0.136788	
0.180418	
0.178212	
0.166809	
0.16055	
0.274405	
0.261388	
0.237469	
0.252986	
0.26711	
0.0864602	
0.0802512	
0.206514	
0.205153	
0.189019	
0.188739	
0.0275122	
0.0483767	
0.266023	
0.266897	
0.20952	
0.206772	
0.147298	
0.109274	
0.156692	
0.102348	
0.223173	
0.229954	
0.205358	
0.206797	
0.212199	
0.210456	
0.207287	
0.191566	
0.26679	
0.268303	
0.252197	
0.17062	
0.171573	
0.201074	
0.197419	
0.164765	
0.171055	
0.236629	
0.242396	
0.161423	
0.178259	
0.261373	
0.265472	
0.186806	
0.226199	
0.234736	
0.217972	
0.188305	
0.226224	
0.271457	
0.26453	
0.242045	
0.242068	
0.234325	
0.242854	
0.131348	
0.18847	
0.127568	
0.264627	
0.275328	
0.261207	
0.255501	
0.100109	
0.0722592	
0.0751855	
0.0574538	
0.261829	
0.256195	
0.266584	
0.273424	
0.00769587	
0.257013	
0.266587	
0.264018	
0.256616	
0.128001	
0.166388	
0.267272	
0.275215	
0.265732	
0.119657	
0.131993	
0.137578	
0.146003	
0.195343	
0.191864	
0.186608	
0.189769	
0.269701	
0.166199	
0.163515	
0.213683	
0.213917	
-0.00344377	
-0.0127972	
0.248484	
0.263096	
0.262944	
0.195444	
-0.00833576	
0.233659	
0.22968	
0.239004	
0.240841	
0.18012	
0.270147	
0.268384	
0.0410024	
0.011599	
0.185492	
-0.0656822	
-0.0588732	
-0.0650619	
0.176417	
0.0655674	
0.0265367	
0.0505648	
0.0255139	
0.240394	
0.12598	
0.16565	
0.263352	
0.248664	
0.26406	
0.262723	
0.266297	
-0.00367158	
-0.0246599	
0.237355	
0.222122	
0.266968	
0.257817	
0.0215208	
0.183402	
0.168674	
0.137352	
0.205001	
0.175566	
0.226066	
0.217746	
0.130486	
0.123421	
0.263906	
0.273693	
0.0654313	
0.0541679	
0.247421	
0.255229	
0.267816	
0.267333	
0.273143	
0.265996	
-0.0589474	
-0.0615186	
0.0988581	
0.0986544	
0.0273329	
0.019347	
0.0103784	
0.244964	
0.246204	
0.219727	
0.230355	
0.213568	
0.220207	
0.273296	
0.197646	
0.259521	
0.243734	
0.238399	
0.125358	
0.0693303	
0.270878	
0.262379	
-0.0362924	
-0.00540295	
0.011796	
0.0669215	
0.213802	
0.143442	
0.248015	
0.241351	
0.0623813	
0.0853317	
0.0388352	
0.245706	
0.160987	
0.16463	
0.254921	
0.253135	
0.0929363	
0.0738277	
-0.0140076	
-0.01585	
0.197076	
0.200643	
0.184074	
0.192779	
0.241393	
0.207226	
0.183031	
0.226553	
0.219422	
0.199503	
0.00975288	
0.0571025	
0.0507713	
0.132201	
0.0749506	
0.183957	
0.213678	
0.261323	
0.10254	
0.10304	
0.210873	
0.199518	
0.251727	
0.12865	
0.130187	
0.0988033	
0.035242	
0.0172509	
0.0445811	
0.0164378	
0.0428932	
0.164805	
0.195473	
0.192301	
0.219924	
0.0730357	
0.0574347	
0.0956794	
0.0798329	
0.164439	
0.163325	
0.176109	
0.173376	
0.164197	
0.179191	
0.179148	
-0.0689249	
-0.0234902	
-0.0631253	
-0.0486597	
-0.0275641	
0.132394	
0.135768	
-0.0644696	
0.11093	
0.126084	
0.0971574	
0.129048	
0.116771	
0.0328822	
-0.0389849	
0.078472	
0.138731	
-0.0689541	
0.111951	
-0.0628756	
-0.0691851	
-0.0682208	
0.0349885	
0.0709394	
0.26333	
0.240395	
0.267256	
0.242382	
0.268936	
0.268941	
0.138269	
0.0910706	
0.274946	
0.262619	
0.14936	
0.193652	
0.144262	
0.192675	
0.0449752	
0.0607018	
0.213339	
0.093522	
0.0874343	
-0.0650459	
0.173207	
0.0892145	
0.0892851	
0.0544449	
0.180513	
0.258695	
0.268664	
0.193501	
0.0180586	
0.0117257	
0.165921	
0.196188	
0.228613	
0.219706	
-0.0519909	
-0.0378737	
0.2688	
0.264162	
0.250197	
-0.035873	
0.266329	
0.184845	
0.187334	
0.203389	
0.193174	
0.12985	
0.0826151	
0.269043	
0.256169	
0.167106	
0.170075	
0.234191	
0.245625	
0.215149	
0.0559248	
0.0676759	
0.234155	
0.258935	
0.232693	
0.0813319	
0.204956	
0.209258	
0.125447	
0.217352	
0.248346	
-0.0692036	
0.220114	
0.217739	
0.21032	
0.264671	
0.248715	
0.141687	
0.266982	
0.139578	
0.167443	
0.142723	
0.145123	
0.118079	
0.275831	
0.249158	
0.265433	
0.276389	
0.265724	
0.265663	
0.248092	
0.251508	
0.2454	
0.242315	
0.202883	
0.220105	
0.25538	
0.249983	
0.0772019	
0.048372	
0.240969	
0.254373	
0.270853	
0.251086	
0.270304	
0.0618405	
0.0722709	
0.0697455	
0.0953264	
0.267749	
0.261817	
0.202999	
0.223891	
0.221328	
0.142943	
0.143365	
-0.0662158	
-0.0632883	
0.132232	
0.117779	
0.115018	
0.113279	
0.110058	
0.109833	
0.0850295	
0.259583	
-0.0535081	
-0.0542069	
-0.0686759	
-0.0703387	
0.212022	
0.161767	
0.160818	
0.248404	
-0.0709824	
-0.0661441	
-0.0487884	
-0.0525705	
-0.0677609	
-0.0684075	
0.215521	
0.217329	
0.206107	
0.202954	
-0.029633	
-0.0121801	
-0.0366343	
-0.0209484	
0.120185	
0.123368	
0.09881	
0.19493	
0.22018	
0.252375	
0.240096	
0.247606	
0.250796	
0.250915	
0.238017	
0.225615	
0.233902	
0.206245	
0.200798	
0.223261	
0.218846	
0.105561	
0.0952104	
0.105375	
0.0417382	
-0.00315924	
0.10072	
0.0684976	
-0.0580264	
-0.0399144	
-0.0653009	
0.0755611	
0.173939	
0.122243	
0.119279	
0.0585897	
0.0445449	
-0.0236658	
-0.0440299	
0.226739	
0.226016	
0.0597722	
0.10557	
0.0915926	
0.250305	
0.255877	
0.239574	
0.245397	
0.260359	
0.229262	
0.22704	
0.0844961	
0.0718202	
0.12186	
0.102832	
0.130682	
0.121175	
-0.00214571	
0.0233056	
0.102439	
0.106814	
0.173818	
0.176689	
0.123882	
0.113796	
0.0892155	
0.0862014	
0.176723	
0.173905	
0.161565	
0.12598	
0.160539	
0.167127	
0.234454	
0.247279	
0.162007	
0.152219	
0.125202	
0.166836	
0.190582	
-0.0199085	
0.0292102	
-0.0284913	
0.24888	
0.248374	
0.231262	
0.216597	
0.184581	
0.163505	
0.180751	
0.179295	
-0.0364442	
-0.0420814	
-0.0558995	
-0.0584705	
0.0460272	
0.0722314	
0.0848033	
0.168848	
0.145587	
0.181985	
0.187528	
0.207218	
0.185889	
0.253079	
0.249134	
0.224993	
0.23361	
0.233345	
0.233849	
-0.047861	
-0.0536072	
-0.0349357	
-0.0400367	
0.177781	
0.156985	
0.168139	
0.167327	
0.0343988	
0.0952417	
0.0934063	
0.0851052	
0.0897696	
0.244527	
0.257407	
0.0582603	
0.0283336	
0.262948	
0.261677	
0.248836	
0.264188	
0.26053	
0.263014	
0.0171945	
0.239023	
0.2375	
0.198188	
0.0938866	
0.0835853	
0.0699757	
0.0738996	
0.143309	
0.147892	
0.229234	
0.245612	
0.255624	
0.258177	
0.176374	
0.17156	
0.0849703	
0.0939471	
0.233742	
0.225035	
0.0612082	
0.0783087	
0.126879	
0.107324	
0.129759	
0.150373	
0.107636	
0.118392	
0.119857	
0.0823292	
0.0158663	
0.0430457	
0.0985938	
0.0805119	
0.251872	
0.268134	
-0.0155855	
0.140362	
0.113385	
0.26133	
0.259705	
0.062221	
0.0701594	
0.102494	
0.0781481	
0.0839378	
0.0870193	
0.0272362	
0.0576331	
0.0874405	
0.0758055	
0.136448	
0.126538	
0.0751472	
0.0511709	
0.0897838	
0.0616194	
0.223817	
0.225604	
0.167913	
0.182654	
0.147941	
0.138627	
0.0415774	
0.0107803	
-0.0477123	
0.00475491	
0.0206794	
0.0203845	
-0.00641051	
0.165211	
-0.0203003	
0.136125	
0.137893	
-0.0162817	
-0.0434091	
-0.0340491	
-0.0428107	
0.110623	
0.1182	
0.0425105	
0.0429749	
0.0390026	
0.189029	
0.161699	
0.263837	
0.259508	
0.105232	
0.0859391	
0.0763162	
0.0741212	
0.0865551	
0.126384	
0.123137	
0.148576	
0.148083	
0.0625709	
0.0653999	
0.019225	
0.00972053	
0.0823296	
0.0587993	
0.0618217	
0.0386967	
0.0995267	
0.101431	
0.0896157	
0.0831231	
0.0917427	
0.0858143	
0.0531404	
0.270651	
0.268676	
0.264242	
0.269492	
0.099928	
0.104054	
0.0919953	
0.0975644	
0.0958251	
0.0985298	
0.0956266	
-0.0159493	
0.00115041	
-0.00720898	
0.00933826	
0.0266687	
0.0379972	
0.017967	
0.00784587	
-0.0121935	
-0.00372597	
0.00413261	
0.0337546	
0.0197504	
0.0241878	
0.0123263	
0.0040177	
0.020244	
0.00268478	
0.012131	
-0.0104829	
-0.0177469	
-0.013694	
-0.00481965	
0.0270742	
0.0249319	
0.0185666	
0.010584	
-0.0146774	
-0.0100709	
-0.00426582	
0.00239768	
0.0332466	
-0.0634107	
-0.0489886	
0.00467445	
0.0329067	
-0.0256078	
-0.0310266	
-0.00888116	
0.0298596	
0.0235279	
0.003065	
-0.051743	
0.00242183	
-0.028724	
-0.0724912	
-0.0547843	
0.0312041	
0.0158355	
-0.00460321	
-0.0663337	
-0.0415696	
-0.0173123	
0.0246508	
0.134952	
0.173089	
0.171445	
0.115258	
0.140738	
-0.0298515	
0.0716716	
0.140136	
0.0531461	
0.0946789	
0.127077	
0.0457648	
0.0368345	
0.116892	
0.118083	
0.092513	
0.0935645	
0.0770771	
0.102345	
0.125489	
0.171662	
0.173934	
-0.0607341	
-0.066545	
-0.0517515	
-0.0522961	
0.000520716	
0.0217518	
0.0104635	
0.163358	
0.149015	
0.153264	
0.0445913	
0.161	
0.152704	
0.169569	
0.17071	
0.167223	
0.161366	
0.168209	
0.169026	
-0.0560482	
-0.0429175	
0.1431	
0.148909	
0.134132	
0.158669	
0.157686	
0.163667	
0.156931	
0.145699	
0.145292	
0.168797	
0.154116	
0.172859	
0.174622	
0.102321	
0.108557	
0.127696	
0.17341	
0.174696	
-0.0397616	
-0.0228157	
0.00809601	
-0.00487823	
-0.0284215	
-0.0066884	
-0.0268162	
0.05577	
0.0349826	
0.0776484	
0.073757	
0.117452	
0.135221	
0.111334	
0.130344	
0.101736	
0.160234	
0.164207	
0.126968	
0.0934536	
-0.150254	
-0.0292927	
0.0325656	
0.0669005	
-0.02456	
0.0341491	
0.0463254	
-0.0286243	
0.0604517	
0.0343162	
-0.00147659	
-0.00442369	
0.0086734	
0.0356492	
0.0451374	
0.134821	
0.155712	
-0.149265	
-0.170804	
-0.125246	
-0.128709	
-0.108554	
-0.0908613	
-0.0818824	
0.0850408	
0.113432	
0.0927435	
-0.0651561	
-0.0765437	
0.12769	
0.119084	
0.13936	
0.127829	
0.129238	
0.138611	
0.132209	
0.124594	
-0.158477	
-0.165102	
0.0727189	
0.0874786	
0.103545	
0.106516	
0.0835125	
0.0874933	
0.110741	
0.115912	
0.152162	
0.151003	
0.15865	
0.162966	
0.0468203	
0.0996249	
0.0724236	
0.163495	
0.158476	
-0.143317	
-0.14219	
-0.117281	
-0.112517	
-0.107984	
-0.14217	
-0.12074	
-0.0177036	
-0.063238	
-0.0350786	
-0.064961	
0.0380226	
0.0700951	
0.0166371	
0.0700656	
0.0428227	
-0.0520471	
0.0698183	
0.165532	
0.217741	
0.211918	
0.211099	
0.191015	
0.206616	
0.195763	
0.185436	
0.207411	
0.200771	
0.204691	
0.191723	
0.199645	
0.195001	
0.172483	
0.155157	
0.173913	
0.183657	
0.179095	
0.212983	
0.174718	
0.204843	
0.203606	
0.189651	
0.209641	
0.197069	
0.20551	
0.0913946	
0.0978791	
-0.0955002	
-0.0181138	
0.201827	
0.170686	
0.212634	
0.156543	
0.191697	
0.0935571	
0.17275	
0.183303	
0.212338	
-0.208406	
0.175408	
0.207481	
0.188025	
0.194427	
0.110204	
0.10256	
0.147357	
0.100273	
0.131328	
-0.00591414	
-0.360408	
0.0169912	
0.116692	
0.124441	
-0.0724816	
-0.0293392	
0.0185309	
0.0485039	
-0.249027	
-0.327521	
-0.337774	
-0.344533	
-0.196715	
-0.00354256	
-0.0131435	
-0.233824	
-0.268475	
-0.151236	
-0.00469368	
-0.260812	
-0.294167	
-0.332071	
-0.333247	
-0.167145	
0.00804085	
-0.0873222	
-0.345949	
-0.343854	
-0.082244	
0.17516	
0.0896743	
0.169837	
-0.346885	
-0.0482798	
0.139923	
-0.0349606	
-0.00647981	
0.152423	
-0.245851	
-0.0272498	
-0.0898236	
-0.133248	
-0.208105	
-0.0644004	
0.156801	
-0.0955112	
0.0951976	
-0.0993199	
0.116887	
0.0834322	
0.0282315	
0.0703432	
-0.241994	
-0.224551	
0.0804895	
-0.00593474	
-0.103067	
-0.0389713	
-0.136601	
-0.102206	
-0.252443	
-0.0764129	
-0.0783449	
-0.159214	
0.151511	
-0.15337	
-0.325373	
0.124089	
-0.321426	
-0.319163	
-0.00297506	
0.0551607	
-0.317152	
-0.123981	
-0.180335	
-0.138868	
0.197034	
0.110181	
0.119698	
0.119356	
0.0501948	
0.0508813	
-0.00960253	
0.0413792	