<VTKFile type="UnstructuredGrid" version="0.1" byte_order="LittleEndian">
	<UnstructuredGrid>
		<Piece NumberOfPoints="3959" NumberOfCells="7450">
			<CellData Scalars="scalars">
				<DataArray type="Float64" Name="Doublet Strengths" NumberOfComponents="1" Format="ascii">
-0.0705469	
-0.0554342	
0.000844518	
0.0310836	
-0.0309741	
-0.0406614	
-0.0169189	
0.0260983	
0.0182159	
-0.00390266	
-0.062928	
0.00331752	
-0.0272155	
-0.0689825	
-0.0524422	
0.0313456	
0.0189801	
-0.000553181	
-0.0589737	
-0.0356932	
-0.012564	
0.0265643	
0.13405	
0.171401	
0.16977	
0.1127	
0.132727	
-0.107753	
0.032504	
0.12002	
0.0322324	
0.0836069	
0.106474	
0.0105551	
-0.00478214	
0.0889657	
0.0941353	
0.0626395	
0.0610873	
0.0600856	
0.0812207	
0.105846	
0.162836	
0.170337	
-0.0927184	
-0.103859	
-0.101404	
-0.145082	
-0.0565294	
-0.0319772	
-0.0193543	
0.152268	
0.133352	
0.138008	
0.000235921	
0.150205	
0.146486	
0.159086	
0.162277	
0.155794	
0.160313	
0.157805	
0.160966	
-0.124449	
-0.168978	
0.123105	
0.129745	
0.111171	
0.143428	
0.142692	
0.156527	
0.148763	
0.131666	
0.13299	
0.165662	
0.151626	
0.17054	
0.170638	
0.0871343	
0.100628	
0.121168	
0.171747	
0.171172	
-0.0862715	
-0.087767	
-0.0393245	
-0.0416897	
-0.0618926	
-0.0519358	
-0.0815749	
0.0312264	
0.00496394	
0.0521465	
0.0430659	
0.0976801	
0.121027	
0.0951146	
0.1177	
0.105085	
0.16339	
0.167031	
0.129104	
0.100686	
-0.0758334	
0.0084453	
0.0560574	
0.0870541	
-0.00506729	
0.0490964	
0.0667438	
0.000737213	
0.0831342	
0.0615968	
0.0299454	
0.0244625	
0.0248684	
0.0551259	
0.0646365	
0.144614	
0.160671	
-0.103213	
-0.0822352	
-0.0967981	
-0.0949433	
-0.0636267	
-0.0393844	
-0.0545862	
0.101106	
0.125393	
0.108436	
-0.022651	
-0.0369188	
0.135987	
0.1264	
0.148556	
0.139814	
0.140476	
0.142486	
0.141359	
0.135913	
-0.0936749	
-0.0426547	
0.0927157	
0.106682	
0.118989	
0.122118	
0.0979937	
0.100339	
0.122466	
0.125105	
0.154778	
0.155607	
0.163602	
0.166166	
0.0577419	
0.108419	
0.0806315	
0.166462	
0.16318	
-0.081586	
-0.0906688	
-0.0629654	
-0.0823383	
-0.0739656	
-0.0991597	
-0.0783301	
0.00658686	
-0.029881	
-0.0121613	
-0.0370113	
0.0539843	
0.0830469	
0.0371458	
0.0845188	
-0.00655089	
-0.177261	
0.0286391	
0.167585	
0.21584	
0.207594	
0.207739	
0.190881	
0.203065	
0.193081	
0.183823	
0.205632	
0.19951	
0.200266	
0.183089	
0.194328	
0.190546	
0.169923	
0.162952	
0.171264	
0.17997	
0.175565	
0.208533	
0.174994	
0.197977	
0.198591	
0.184465	
0.203792	
0.193275	
0.205006	
0.115462	
0.108101	
-0.0322164	
0.0113363	
0.196279	
0.176025	
0.210616	
0.165196	
0.187531	
0.0579623	
0.17825	
0.184575	
0.207778	
-0.251423	
0.178425	
0.202344	
0.190019	
0.195084	
0.133329	
0.126063	
0.157879	
0.124099	
0.145535	
-0.0735189	
-0.27597	
-0.0418204	
0.0877586	
0.0960176	
-0.230591	
-0.109937	
-0.0378654	
-0.0012968	
-0.364745	
-0.176755	
-0.220669	
-0.374462	
-0.21927	
-0.0291758	
-0.0841186	
-0.299947	
-0.342155	
-0.201951	
-0.0704645	
-0.313342	
-0.350488	
-0.382844	
-0.389854	
-0.30409	
-0.0524236	
-0.142549	
-0.383471	
-0.372907	
-0.0978688	
0.163112	
0.10302	
0.152845	
-0.225193	
0.01002	
0.116623	
0.025825	
0.0195365	
0.129532	
-0.0851788	
0.0395401	
-0.106812	
-0.152579	
-0.297322	
-0.0341407	
0.135333	
-0.0526321	
0.061283	
-0.0142697	
0.0854973	
0.0430375	
0.0258023	
0.0690682	
-0.281864	
-0.259182	
0.0552071	
0.0367014	
-0.0187821	
0.0272203	
-0.0793553	
-0.0249456	
-0.286267	
-0.127666	
-0.126008	
-0.0806229	
0.142166	
-0.0642952	
-0.15151	
0.101517	
-0.168651	
-0.176779	
0.0496256	
0.0829681	
-0.224866	
-0.140475	
-0.196061	
-0.0410702	
0.186482	
0.0852932	
0.0885775	
0.0878684	
0.00842607	
0.00842453	
-0.0221853	
0.0303132	
-0.300396	
-0.204342	
0.153439	
0.129892	
0.12793	
0.139555	
-0.0994164	
-0.0753307	
-0.0770903	
-0.0319984	
-0.0202979	
0.0085001	
0.164249	
0.0524493	
0.0831708	
0.172705	
0.167928	
0.0775389	
-0.246465	
0.189102	
0.109632	
-0.0550118	
-0.123133	
0.178707	
0.199449	
0.0563151	
0.153379	
-0.277363	
-0.19152	
0.114866	
0.111475	
0.125235	
0.0242666	
0.194105	
0.170546	
0.150954	
0.154005	
0.137945	
0.161482	
0.185648	
0.181733	
0.160654	
-0.0319182	
0.0382849	
0.146482	
0.162443	
0.147184	
0.179393	
0.189294	
0.0571126	
0.17002	
0.0820109	
0.0623278	
0.0535496	
0.0610555	
0.120139	
0.187082	
0.106872	
0.0807202	
0.0554595	
0.0627397	
0.116922	
0.119387	
0.1372	
0.136103	
0.0609427	
0.00711425	
0.0219684	
-0.0275543	
0.187945	
0.20717	
0.188583	
0.181842	
0.193651	
0.0989903	
0.101775	
0.18328	
0.105213	
-0.20453	
0.0854895	
0.0182053	
0.0712703	
0.084578	
0.175017	
0.0260128	
-0.100133	
-0.0697704	
0.0578048	
0.0594167	
0.0220216	
0.14901	
0.179302	
0.101722	
0.0956333	
0.184795	
0.14358	
0.0942541	
0.0370027	
0.0289884	
0.0615689	
0.0646446	
0.0133283	
0.141486	
0.147082	
-0.337114	
-0.295324	
-0.191978	
-0.152402	
-0.0897834	
0.117873	
0.109321	
0.129336	
0.162257	
0.149469	
0.125685	
0.182271	
-0.18273	
-0.192479	
-0.357991	
-0.327665	
0.0466272	
-0.0882234	
0.0331524	
-0.324736	
-0.350775	
0.00237509	
-0.0123737	
0.00984904	
0.000418683	
-0.109454	
-0.0697347	
-0.0619725	
-0.0148624	
0.0177925	
-0.00275924	
0.0647041	
0.0850338	
0.108723	
-0.0111377	
-0.0420004	
-0.0110058	
-0.0294133	
-0.0101466	
0.0338333	
0.110261	
0.111066	
0.0927192	
0.0239173	
0.00183059	
-0.0735887	
0.135309	
0.0964985	
0.0186569	
0.00531002	
0.191473	
-0.213522	
0.0621511	
-0.0206148	
-0.0323394	
0.2108	
0.190809	
0.202941	
-0.213313	
-0.166144	
-0.111244	
-0.00200049	
-0.122073	
-0.0719016	
0.19891	
0.184161	
0.139707	
0.11526	
0.0663125	
-0.063568	
-0.13486	
-0.0875989	
0.178932	
0.0293981	
-0.38497	
-0.387804	
-0.386098	
-0.214556	
0.0603498	
-5.18003e-05	
-0.00369698	
0.0155443	
0.0151316	
0.0233188	
-0.0141484	
0.124647	
0.119929	
-0.139805	
-0.0713268	
-0.194013	
-0.129796	
-0.0488447	
-0.164019	
-0.0747486	
0.0424856	
-0.262042	
-0.244605	
0.136594	
0.0617724	
0.107263	
-0.0395657	
-0.00303561	
0.155254	
0.15642	
0.137801	
0.154896	
0.142641	
0.0755744	
0.0532407	
0.138023	
0.0456754	
0.196314	
0.186004	
-0.114433	
-0.24678	
0.181139	
0.177808	
0.187852	
0.0191253	
0.189593	
0.20105	
0.187488	
0.197299	
0.206165	
0.19098	
-0.226246	
-0.254943	
0.206419	
0.188126	
0.193919	
0.181203	
-0.354329	
0.0371679	
0.00898867	
0.0226434	
0.189857	
0.172711	
0.157544	
0.179762	
0.0627881	
0.0649034	
0.0149063	
0.0181157	
0.132227	
-0.140993	
0.0287673	
0.0724558	
-0.0596752	
0.144739	
0.154035	
0.125873	
0.0924608	
0.202279	
0.0360106	
0.0819536	
-0.0233092	
-0.00980139	
0.104287	
0.128761	
0.136105	
0.0483736	
-0.0653795	
-0.0408338	
-0.0222193	
0.0188438	
0.0548875	
0.0846041	
-0.0264126	
0.0357946	
-0.0203176	
0.196886	
0.181929	
0.0665563	
-0.00751908	
0.0867025	
0.147641	
-0.00419339	
-0.117376	
-0.007265	
-0.119642	
0.103593	
-0.0354169	
-0.0392842	
-0.0239235	
0.122721	
0.0944229	
0.0907745	
0.0330083	
0.0942654	
0.0555123	
0.00435424	
0.00800251	
0.0281152	
0.022755	
0.00750194	
-0.0389493	
-0.0859294	
0.115439	
0.0375187	
0.0358465	
0.0228106	
0.128758	
0.026218	
-0.0127755	
0.067228	
0.0784626	
0.105548	
-0.34246	
-0.0102116	
-0.0342385	
0.0577258	
0.0657047	
0.151004	
0.092322	
0.0807557	
0.0723397	
-0.112038	
-0.0714855	
0.0368629	
0.0106603	
-0.0204648	
-0.0658469	
0.0965226	
0.0644915	
0.0574446	
0.0596801	
-0.0463051	
0.0286637	
-0.24789	
-0.231493	
-0.148069	
-0.134928	
0.143859	
-0.0449974	
-0.167671	
0.129047	
-0.0922553	
0.0265198	
-0.144251	
-0.216406	
-0.0679314	
-0.0358113	
0.0159552	
-0.017533	
-0.0985507	
-0.15909	
-0.0886295	
-0.0403261	
-0.0238063	
-0.00149463	
-0.148211	
0.130951	
0.00863692	
0.035613	
0.0740723	
-0.106364	
-0.0719203	
-0.0853761	
-0.140038	
-0.214035	
0.121302	
0.109293	
-0.0207789	
0.0317696	
-0.112183	
-0.134897	
0.110399	
0.0369048	
0.068348	
-0.0302236	
-0.0128704	
-0.11977	
-0.0807629	
-0.309635	
-0.346889	
0.0482324	
-0.246712	
0.0450615	
0.00448275	
-0.141171	
0.133855	
-0.098967	
-0.0880302	
-0.0127993	
-0.058471	
0.182983	
0.0969849	
0.145631	
0.0817868	
0.102177	
0.203016	
0.19065	
-0.0516447	
-0.0441996	
0.047	
0.0643168	
-0.341375	
-0.136019	
-0.165699	
-0.382826	
-0.0184695	
0.0497683	
-0.0317606	
-0.0416346	
-0.137973	
-0.112911	
0.0336142	
-0.0108175	
0.0031166	
0.19391	
0.178526	
0.0645531	
0.00277752	
-0.0367394	
0.0862879	
0.117536	
0.0390095	
0.0708849	
0.0255512	
-0.0544614	
0.189638	
0.207536	
0.204682	
0.192761	
-0.195164	
0.185426	
0.164115	
-0.00296704	
-0.0912586	
0.0171775	
0.156081	
0.175295	
0.154594	
0.174747	
0.162808	
0.140009	
0.064486	
0.0498352	
-0.00141918	
0.0040585	
0.117608	
0.124337	
-0.130641	
-0.36389	
-0.34145	
0.0393053	
0.027207	
0.197593	
0.179206	
0.21235	
0.196212	
0.148583	
0.11628	
-0.0730025	
0.108338	
0.139751	
0.125751	
0.142299	
0.143381	
0.161775	
0.156396	
0.135991	
-0.207457	
-0.229847	
0.176981	
0.162079	
0.0971464	
0.0565277	
0.143505	
0.142274	
0.203209	
0.18986	
-0.0339039	
-0.0931224	
-0.158394	
-0.0728869	
0.0154475	
0.101725	
0.0443886	
0.112698	
-0.0858988	
-0.0741483	
-0.252371	
0.114547	
0.110963	
0.16688	
0.191321	
-0.07263	
0.0368876	
-0.0399493	
0.0168607	
-0.0514479	
-0.0143797	
0.057611	
0.0593897	
0.108909	
-0.0267335	
-0.0274076	
-0.0384399	
-0.0432261	
0.202771	
0.175893	
0.179149	
-0.103905	
-0.151157	
0.0641544	
-0.00954081	
0.0583887	
-0.0410449	
0.0616763	
0.0526082	
-0.0830693	
-0.0916257	
0.0758881	
-0.00457407	
0.00349642	
-0.297175	
-0.00857651	
0.0371391	
0.0770785	
0.080218	
-0.157506	
-0.169287	
-0.23833	
-0.0194244	
0.0194438	
0.16465	
0.151921	
0.00787947	
0.0652838	
0.0868075	
0.0923002	
-0.00406121	
-0.0450737	
-0.0991396	
-0.100787	
0.192565	
0.181534	
0.185849	
0.0600632	
0.0626053	
0.113769	
0.0572759	
-0.139595	
-0.136796	
-0.193763	
-0.0949066	
-0.0877618	
-0.0158927	
0.112076	
0.113549	
0.0778547	
0.0390869	
-0.177736	
-0.178832	
-0.0110498	
-0.0303602	
-0.223037	
-0.196457	
-0.268327	
-0.118517	
0.171164	
0.155722	
0.130407	
0.19006	
0.209373	
-0.0747063	
-0.0139316	
-0.0690689	
0.0638895	
0.108811	
0.0234525	
0.0691158	
0.0992245	
0.126645	
0.103032	
0.129182	
-0.0371094	
-0.022743	
0.142275	
0.141151	
-0.160837	
-0.134793	
-0.203517	
0.184272	
0.191886	
0.183556	
0.139499	
0.103949	
0.15654	
0.108156	
0.153754	
0.0764202	
0.134021	
0.130881	
0.165191	
-0.0557408	
-0.0456057	
-0.0479184	
0.13664	
-0.0565792	
-0.0760472	
-0.174018	
0.0556646	
0.0302447	
-0.241023	
-0.248199	
-0.0524969	
-0.0596184	
0.117936	
0.0655607	
-0.130405	
-0.297919	
-0.262467	
0.176349	
0.174915	
0.159049	
0.17428	
0.172226	
0.0466206	
0.0883597	
0.0303786	
0.0374881	
0.185662	
-0.040472	
-0.200855	
-0.0410731	
0.0191991	
-0.0180063	
-0.0262318	
0.0146972	
-0.342945	
0.0520953	
0.0613162	
0.141685	
0.110927	
0.156762	
0.124393	
0.142852	
0.132997	
0.130259	
0.0253631	
0.0570716	
0.0496944	
0.0764963	
0.130085	
0.108803	
0.0266667	
0.139869	
0.15418	
0.10612	
0.123403	
0.113113	
0.137615	
0.117473	
0.114687	
0.052212	
0.0546255	
0.128661	
0.109946	
0.118067	
0.0725257	
-0.0640726	
-0.0661118	
-0.0492582	
-0.0164268	
-0.0971937	
-0.032024	
0.0731317	
0.0547956	
0.102153	
0.157743	
0.123881	
0.137374	
0.0851495	
0.00881111	
-0.0124352	
0.0564661	
-0.0163689	
0.0164857	
-0.0295537	
0.0539234	
0.178722	
0.17843	
-0.32019	
-0.280602	
0.122596	
0.113103	
-0.00860917	
-0.0233978	
0.13017	
-0.0748587	
-0.0584403	
0.1738	
0.159812	
0.188541	
0.207106	
0.0586819	
0.0354947	
0.141207	
0.125124	
0.176592	
0.0186051	
0.0589636	
0.1229	
0.0770843	
0.113199	
0.0851722	
0.111729	
0.206318	
0.0308886	
0.0310999	
0.180504	
0.0497793	
0.103635	
0.102207	
0.0294471	
0.0045541	
0.106932	
0.113302	
0.146855	
0.185123	
0.190281	
0.199946	
-0.207054	
0.121941	
0.070878	
-0.0597517	
0.0304993	
0.0679273	
0.144212	
0.141977	
0.196152	
0.187615	
0.154737	
0.145945	
-0.203164	
-0.126025	
-0.0917676	
-0.108517	
0.0832037	
0.0641648	
0.0711138	
-0.0900908	
-0.0614327	
-0.266765	
-0.0823338	
-0.0731859	
-0.131322	
-0.277584	
-0.216544	
-0.147716	
-0.136462	
-0.120182	
-0.101784	
0.146756	
0.13483	
0.0703439	
-0.0630971	
-0.0522094	
-0.143944	
-0.143999	
-0.210282	
-0.207089	
-0.0538571	
-0.0720087	
-0.338283	
-0.0482489	
-0.195995	
0.0878951	
0.0920062	
0.0648267	
0.066798	
0.170525	
0.16985	
-0.0524081	
-0.0951459	
-0.000599226	
-0.00386102	
0.0469321	
0.0274276	
0.0433114	
0.0263999	
-0.199542	
-0.22533	
-0.16591	
-0.0229721	
0.134402	
0.121543	
0.0580866	
0.037656	
-0.246074	
-0.227317	
-0.0882455	
-0.191187	
-0.232788	
-0.213401	
-0.266163	
0.200323	
0.183669	
-0.0263965	
-0.0825265	
-0.0605626	
-0.0547681	
-0.0809283	
-0.190076	
-0.173768	
0.0552104	
0.0109294	
-0.158128	
-0.0511473	
-0.256764	
-0.247555	
-0.150085	
-0.130485	
-0.138218	
-0.125088	
-0.150092	
-0.148452	
-0.103808	
-0.102941	
0.147989	
0.0751585	
0.132514	
0.11446	
0.11157	
0.11531	
0.0815125	
-0.234879	
-0.189912	
-0.195386	
-0.206103	
-0.198437	
-0.264009	
-0.273037	
-0.319201	
-0.178393	
-0.117989	
-0.216737	
-0.191138	
-0.289856	
-0.33446	
-0.334045	
-0.369711	
-0.0353492	
-0.0379503	
-0.0400124	
-0.0477219	
-0.211597	
-0.218303	
-0.170446	
-0.160412	
-0.128943	
-0.137964	
-0.0935359	
-0.309154	
-0.035563	
-0.020502	
-0.308905	
-0.266858	
-0.0136723	
-0.0235456	
-0.0285749	
-0.148129	
-0.144036	
-0.0251338	
-0.0339596	
-0.077767	
-0.0849794	
-0.173306	
-0.165038	
0.0881366	
0.0218552	
0.00175307	
-0.00580949	
0.0970692	
0.0489503	
-0.120776	
-0.0966365	
-0.120021	
-0.0184159	
-0.283473	
-0.330667	
-0.0992136	
-0.115198	
0.196013	
0.122162	
0.209171	
0.180266	
-0.378344	
-0.371968	
0.0454359	
0.002077	
-0.313524	
-0.279127	
-0.333026	
-0.299312	
-0.283773	
-0.294372	
-0.222375	
-0.192331	
-0.319559	
-0.35977	
-0.359071	
-0.353623	
-0.351551	
-0.184209	
-0.130321	
-0.105041	
-0.301203	
-0.327959	
-0.354803	
-0.244606	
0.188171	
0.156579	
0.20908	
0.191828	
-0.329169	
-0.300684	
-0.219383	
-0.20758	
-0.194113	
-0.00728874	
-0.00794177	
-0.299178	
-0.298648	
-0.334306	
-0.303818	
-0.326355	
-0.0593989	
-0.0701861	
-0.0825333	
-0.104487	
-0.217359	
-0.258764	
-0.218107	
-0.244023	
-0.272698	
-0.304298	
0.208329	
0.183728	
0.18191	
0.142665	
-0.250778	
-0.135271	
-0.123504	
-0.136347	
0.181168	
0.138122	
0.160955	
0.0808364	
-0.352193	
0.0811926	
0.125408	
0.114305	
0.135504	
-0.337164	
-0.355824	
-0.340177	
-0.344053	
-0.334996	
-0.341573	
-0.300194	
-0.110652	
-0.10073	
-0.0993122	
-0.0993596	
0.137259	
0.195341	
0.133825	
0.192945	
0.128929	
0.119779	
0.122775	
0.0732054	
-0.254544	
-0.27545	
-0.254274	
-0.239717	
-0.344968	
-0.359703	
-0.346359	
-0.352718	
0.0773515	
0.136602	
0.0815414	
0.138145	
0.163456	
0.129858	
0.150717	
0.0929437	
0.112269	
0.0882991	
0.111512	
0.08756	
0.173285	
0.201527	
0.204784	
0.209587	
0.220494	
0.141972	
0.231032	
0.235467	
0.236133	
0.244279	
0.248664	
0.254158	
0.228352	
0.190529	
0.168835	
0.0474219	
0.255894	
-0.00737855	
-0.00122745	
-0.0333641	
0.182557	
0.248654	
0.233916	
0.265357	
0.261445	
0.26839	
0.256171	
0.263246	
0.253826	
0.24636	
0.170702	
0.216957	
0.196105	
0.218562	
0.189265	
0.149576	
0.217114	
0.15893	
0.101745	
0.257175	
0.236015	
0.234761	
0.094393	
-0.044283	
0.24816	
-0.0270424	
-0.040617	
0.0143503	
0.0708479	
0.0431474	
-0.034365	
0.0408929	
0.00269828	
0.0709588	
-0.0534282	
0.0168804	
0.0652885	
0.084425	
0.0418157	
-0.00289381	
-0.0439241	
0.208898	
-0.0291593	
0.177311	
0.106455	
0.10943	
0.0867006	
0.0485285	
0.055125	
0.0733208	
0.0819695	
0.0209273	
0.0599457	
0.0142662	
0.0403096	
0.0216288	
0.0325252	
0.0317772	
0.0453554	
0.0877801	
0.0532658	
0.0579541	
0.0691517	
0.0895635	
0.0469885	
-0.0218916	
-0.0256248	
0.022083	
-0.0013887	
-0.00701851	
0.0350972	
0.0649168	
0.0600833	
0.00591331	
-0.0188257	
-0.028248	
-0.0078493	
0.0334412	
-0.061039	
-0.0395944	
-0.0638085	
0.167888	
0.188759	
0.185715	
0.224221	
0.0108552	
0.100724	
0.15404	
0.161445	
0.190235	
0.000288625	
0.151885	
0.129518	
-0.0579433	
-0.0385916	
-0.0290717	
0.134262	
-0.031169	
0.143665	
-0.00322897	
0.204511	
0.208057	
-0.0688053	
0.0765436	
0.0403931	
0.0027788	
0.0748621	
0.0161646	
0.246189	
0.230436	
0.22376	
-0.0499023	
0.0844434	
0.218087	
-0.0133636	
-0.0164891	
0.208665	
0.230423	
0.0075818	
0.0490225	
0.199222	
0.140732	
-0.0616067	
-0.0495439	
0.111388	
-0.0224336	
-0.0173525	
-0.00759039	
-0.00125201	
0.251053	
0.208639	
0.214235	
0.132457	
0.1674	
0.244678	
0.273497	
0.255248	
0.0586887	
0.16975	
0.243528	
0.194445	
0.108914	
0.130166	
0.142822	
0.160861	
0.00608349	
0.12073	
0.0855691	
0.0991583	
0.0677718	
0.12048	
0.118256	
0.189314	
0.150703	
0.194827	
0.116269	
0.156566	
0.129603	
0.167866	
0.117954	
0.125407	
0.158101	
0.206223	
0.14112	
0.151498	
0.159247	
0.158995	
0.141913	
0.266349	
0.2683	
0.278026	
0.265562	
0.281849	
0.250275	
0.116911	
-0.024381	
0.0226412	
0.0278957	
0.125115	
0.232788	
0.179246	
0.110891	
0.183619	
0.170856	
0.124206	
0.236993	
0.270354	
0.27563	
0.230978	
0.250013	
0.259846	
0.278164	
0.262324	
0.252848	
0.277732	
0.262503	
0.26208	
0.270075	
0.244387	
0.242543	
0.268831	
0.268548	
0.274465	
0.104096	
0.278926	
0.225889	
0.246833	
0.200544	
0.226582	
0.269393	
0.270454	
0.274451	
0.20423	
0.196566	
0.224479	
0.208981	
0.217908	
0.221101	
0.195549	
-0.0463287	
-0.0515102	
0.239446	
0.227062	
0.251788	
0.229767	
0.201691	
0.182668	
0.200826	
0.25865	
0.234113	
0.234021	
0.240748	
0.16641	
0.209444	
0.0852604	
0.261695	
0.249097	
0.093324	
0.185864	
0.163075	
0.231989	
0.124798	
0.130104	
0.207013	
0.147343	
0.273529	
0.134564	
0.132404	
0.160395	
0.222575	
0.194176	
0.181346	
0.267278	
0.0484984	
0.107825	
0.0420224	
0.0774802	
0.195533	
0.187089	
0.15507	
0.184899	
-0.0213035	
0.258897	
0.241436	
-0.00437682	
0.00548584	
-0.0192899	
0.000916113	
0.116886	
0.0894717	
0.159119	
0.165923	
0.189169	
0.152924	
0.190059	
0.00688657	
0.160444	
0.133173	
0.175014	
-0.0382006	
-0.0516182	
-0.042854	
-0.0510717	
0.116585	
0.113227	
0.143247	
0.133406	
0.151977	
0.0880022	
0.0959603	
0.200504	
0.177918	
0.201863	
0.213506	
0.155415	
0.102647	
0.0905097	
0.0994213	
0.0720877	
0.280882	
0.17322	
0.200782	
0.154358	
0.171537	
0.121014	
0.147658	
0.116954	
0.156738	
0.142313	
0.0161495	
0.206198	
0.214186	
0.180824	
0.239322	
0.237926	
0.150301	
0.176685	
0.124961	
0.128611	
-0.0539597	
-0.0386722	
-0.0629917	
-0.0616197	
0.102581	
0.208769	
0.240787	
0.211454	
0.199215	
0.210458	
0.171548	
0.218508	
0.216098	
0.214683	
0.205125	
0.0485127	
0.106693	
0.265791	
0.24266	
0.268177	
0.204915	
0.19523	
0.265567	
0.266983	
0.232466	
0.245399	
0.260293	
0.204807	
0.231457	
0.174465	
0.177535	
0.187009	
0.249058	
0.236182	
0.250052	
0.223204	
0.26487	
0.232255	
0.252099	
0.00149452	
0.186786	
0.198059	
0.166545	
0.238045	
0.240098	
0.2325	
0.227405	
0.246064	
0.256466	
0.107708	
0.136078	
0.124849	
0.141194	
-0.0535236	
0.218056	
0.184202	
0.18793	
0.118121	
0.150401	
0.154145	
0.174834	
0.157195	
0.166056	
-0.0441238	
-0.0329116	
-0.0480418	
-0.0304438	
0.245669	
0.208384	
0.245713	
0.211887	
0.0860162	
0.217054	
0.224253	
0.222291	
0.249971	
0.23282	
0.260943	
0.150757	
0.13662	
0.218804	
0.214783	
0.222606	
0.182504	
0.18605	
0.0242297	
0.0689975	
0.266521	
0.227928	
-0.0204968	
0.192304	
0.219571	
0.228088	
0.22935	
0.211737	
0.200609	
0.198568	
0.258494	
0.260818	
0.253693	
0.151616	
0.261971	
0.266686	
0.0617514	
0.0853612	
0.0848392	
0.224451	
0.221133	
0.222009	
0.266572	
-0.067492	
-0.0616064	
0.256639	
0.251979	
0.244385	
0.222611	
-0.0622655	
-0.0566601	
0.16709	
0.154353	
0.117765	
0.119578	
0.223261	
0.0775358	
0.0918527	
0.152785	
0.153521	
0.171309	
0.169612	
0.265926	
0.259015	
0.00206972	
0.0171396	
0.0775079	
0.0434585	
0.107606	
0.107722	
0.136423	
0.180552	
0.178418	
0.167074	
0.160887	
0.274515	
0.261429	
0.238114	
0.253485	
0.267444	
0.0860115	
0.0797921	
0.20721	
0.205833	
0.188916	
0.188708	
0.0270478	
0.0479022	
0.266326	
0.267355	
0.209638	
0.206847	
0.14685	
0.10883	
0.156274	
0.101911	
0.223046	
0.229924	
0.205193	
0.206665	
0.212073	
0.210285	
0.206935	
0.191175	
0.267142	
0.268717	
0.252839	
0.170555	
0.171462	
0.20195	
0.198373	
0.165833	
0.172136	
0.236655	
0.242501	
0.162559	
0.179333	
0.261474	
0.265625	
0.186506	
0.226136	
0.234777	
0.218838	
0.189338	
0.227023	
0.271388	
0.264442	
0.24243	
0.242337	
0.234802	
0.24323	
0.13088	
0.188021	
0.127094	
0.264644	
0.275401	
0.261352	
0.255578	
0.10081	
0.0731769	
0.0759791	
0.0583649	
0.261909	
0.256218	
0.266649	
0.27353	
0.00728669	
0.257016	
0.266658	
0.263846	
0.256451	
0.127506	
0.165952	
0.267305	
0.275336	
0.265794	
0.12002	
0.132278	
0.137857	
0.146176	
0.195259	
0.19185	
0.186782	
0.189886	
0.269588	
0.166059	
0.163479	
0.21353	
0.213793	
-0.00182946	
-0.0112589	
0.248284	
0.262896	
0.262758	
0.195195	
-0.00847628	
0.233412	
0.229464	
0.239051	
0.240932	
0.179711	
0.270505	
0.268645	
0.040708	
0.0113388	
0.185158	
-0.0656601	
-0.0588637	
-0.0650246	
0.176264	
0.0654217	
0.0264032	
0.050415	
0.0253781	
0.240158	
0.126949	
0.166525	
0.263871	
0.249366	
0.264599	
0.262754	
0.266395	
-0.00378648	
-0.0247342	
0.237846	
0.222701	
0.267035	
0.257817	
0.0214144	
0.183622	
0.169033	
0.137985	
0.204592	
0.175276	
0.225715	
0.217438	
0.130984	
0.124001	
0.263967	
0.273797	
0.0653638	
0.0541109	
0.248044	
0.255803	
0.268101	
0.26768	
0.273215	
0.266019	
-0.0589221	
-0.0614816	
0.0987276	
0.0985063	
0.0282774	
0.020278	
0.0100487	
0.245373	
0.24661	
0.220331	
0.230893	
0.214273	
0.220844	
0.273331	
0.198372	
0.259395	
0.243841	
0.238432	
0.125172	
0.0691293	
0.270939	
0.262384	
-0.0364031	
-0.0055605	
0.0115966	
0.0664329	
0.213488	
0.143216	
0.24778	
0.241145	
0.0618869	
0.0848528	
0.0383124	
0.246256	
0.160546	
0.1642	
0.254727	
0.252947	
0.0934008	
0.0743919	
-0.0140098	
-0.0158364	
0.197149	
0.200644	
0.184297	
0.192926	
0.241206	
0.208107	
0.184046	
0.226295	
0.219164	
0.199154	
0.00963386	
0.056964	
0.0506296	
0.132911	
0.0745041	
0.185018	
0.214597	
0.261842	
0.103527	
0.103983	
0.210555	
0.19916	
0.252123	
0.129747	
0.131322	
0.100123	
0.0364402	
0.0171292	
0.0444468	
0.01632	
0.0427669	
0.164396	
0.19512	
0.191966	
0.220445	
0.0738031	
0.0582402	
0.0963033	
0.080504	
0.164507	
0.163387	
0.176016	
0.173281	
0.164316	
0.179119	
0.178994	
-0.068882	
-0.0236668	
-0.0631271	
-0.0487034	
-0.0276404	
0.132043	
0.135337	
-0.064441	
0.11077	
0.127304	
0.0984751	
0.130235	
0.118004	
0.0327843	
-0.0390697	
0.0782602	
0.138413	
-0.0689438	
0.11161	
-0.0628032	
-0.0691318	
-0.0681658	
0.0349111	
0.0708624	
0.263728	
0.240942	
0.267542	
0.24291	
0.269202	
0.2692	
0.138041	
0.0909815	
0.275038	
0.262634	
0.148961	
0.193279	
0.143866	
0.19246	
0.0448231	
0.0605349	
0.214054	
0.093045	
0.086948	
-0.0650413	
0.174108	
0.0890924	
0.0891489	
0.0543137	
0.181588	
0.258666	
0.26863	
0.193179	
0.0179312	
0.0115947	
0.165443	
0.195821	
0.228325	
0.219392	
-0.0520349	
-0.0379408	
0.269091	
0.264573	
0.250759	
-0.0358474	
0.266631	
0.184537	
0.186973	
0.203412	
0.193338	
0.129608	
0.082369	
0.269383	
0.256691	
0.166812	
0.169734	
0.233992	
0.245363	
0.214807	
0.0556969	
0.0674534	
0.233893	
0.258721	
0.232423	
0.0808616	
0.204576	
0.208822	
0.126657	
0.217021	
0.248101	
-0.0692376	
0.219742	
0.217325	
0.20999	
0.265062	
0.249217	
0.14266	
0.267008	
0.140264	
0.167011	
0.142271	
0.144641	
0.117593	
0.275881	
0.249156	
0.265536	
0.276437	
0.266011	
0.265527	
0.247969	
0.251357	
0.245264	
0.242169	
0.202803	
0.219953	
0.255542	
0.250078	
0.0784015	
0.0482125	
0.240793	
0.254157	
0.270918	
0.251059	
0.270538	
0.0616765	
0.0721675	
0.0696311	
0.0967025	
0.26793	
0.261922	
0.203768	
0.223574	
0.221003	
0.144097	
0.144503	
-0.0661403	
-0.0632113	
0.133049	
0.118486	
0.116073	
0.113126	
0.109892	
0.109644	
0.084856	
0.26001	
-0.0534472	
-0.0541403	
-0.0686418	
-0.0703005	
0.212796	
0.162613	
0.161622	
0.248507	
-0.0709565	
-0.0661291	
-0.0488613	
-0.0526148	
-0.0677726	
-0.0683954	
0.215129	
0.216892	
0.206116	
0.203034	
-0.0297082	
-0.0122691	
-0.0366925	
-0.0210192	
0.120001	
0.123193	
0.0992897	
0.194548	
0.219844	
0.252542	
0.240131	
0.24795	
0.251308	
0.251461	
0.238085	
0.225555	
0.233942	
0.206862	
0.201418	
0.223735	
0.219305	
0.10691	
0.0965633	
0.106652	
0.0413209	
-0.00350688	
0.100299	
0.0681068	
-0.0581324	
-0.0400731	
-0.0653459	
0.0760418	
0.174367	
0.122828	
0.119729	
0.0584353	
0.0443907	
-0.0238268	
-0.0441381	
0.227422	
0.226686	
0.0596101	
0.105399	
0.0923296	
0.250753	
0.256211	
0.240106	
0.246064	
0.260906	
0.229697	
0.227398	
0.0841905	
0.0715161	
0.121549	
0.1025	
0.131439	
0.121971	
-0.00248394	
0.0229263	
0.102278	
0.106662	
0.173483	
0.176401	
0.124947	
0.114972	
0.090423	
0.0874781	
0.176388	
0.173591	
0.161275	
0.125662	
0.160283	
0.166814	
0.235056	
0.247805	
0.162331	
0.152607	
0.12645	
0.1677	
0.19134	
-0.0201667	
0.0288505	
-0.0285586	
0.249293	
0.248829	
0.231801	
0.217244	
0.185174	
0.164039	
0.181467	
0.179957	
-0.0364975	
-0.0421273	
-0.0559168	
-0.0584804	
0.0459114	
0.0721192	
0.0846987	
0.168359	
0.14508	
0.181514	
0.18707	
0.207978	
0.186558	
0.253235	
0.249491	
0.225391	
0.233846	
0.233714	
0.234057	
-0.0478388	
-0.0535858	
-0.0349174	
-0.0400307	
0.178647	
0.15797	
0.168511	
0.167714	
0.0340324	
0.0964916	
0.0947162	
0.0864634	
0.0910939	
0.245053	
0.257782	
0.0598523	
0.0300117	
0.263329	
0.262075	
0.249337	
0.264466	
0.260881	
0.263375	
0.0189433	
0.239534	
0.237989	
0.199015	
0.0948944	
0.0847914	
0.0710057	
0.0751319	
0.142844	
0.14747	
0.229868	
0.245632	
0.255725	
0.258477	
0.177287	
0.172527	
0.0846248	
0.0935892	
0.234331	
0.225645	
0.062167	
0.0791537	
0.12771	
0.108007	
0.130473	
0.150895	
0.108528	
0.119182	
0.119469	
0.0823269	
0.0154429	
0.0425873	
0.098975	
0.0807882	
0.251705	
0.267985	
-0.0158252	
0.140977	
0.114241	
0.26175	
0.260198	
0.0633859	
0.0713328	
0.103782	
0.079357	
0.085129	
0.088051	
0.028019	
0.058442	
0.0869843	
0.0753668	
0.13606	
0.126116	
0.0747098	
0.0508394	
0.089403	
0.061398	
0.224544	
0.226298	
0.168679	
0.183481	
0.148973	
0.139768	
0.041151	
0.0103851	
-0.0479625	
0.00650394	
0.0224289	
0.0199879	
-0.00675157	
0.166221	
-0.0206331	
0.135896	
0.137645	
-0.0165773	
-0.0436068	
-0.0342678	
-0.0429565	
0.110437	
0.118028	
0.0420962	
0.0444531	
0.0405541	
0.18998	
0.162774	
0.263992	
0.259841	
0.106422	
0.0858755	
0.0764473	
0.0740677	
0.0866888	
0.127579	
0.12434	
0.149761	
0.149232	
0.0631053	
0.0660583	
0.0187958	
0.00932336	
0.0821518	
0.0586347	
0.0616366	
0.0385336	
0.100707	
0.10272	
0.0909356	
0.0843693	
0.0929889	
0.0856899	
0.0530184	
0.270721	
0.268909	
0.264289	
0.269701	
0.101273	
0.105329	
0.0933242	
0.0988908	
0.0971504	
0.0998479	
0.0969686	
-0.0158954	
0.00123178	
-0.00713356	
0.00942066	
0.0267379	
0.0380585	
0.0180456	
0.00797085	
-0.0121269	
-0.00364656	
0.00421616	
0.0337804	
0.0198213	
0.0242363	
0.0124077	
0.00412811	
0.0203009	
0.00275959	
0.0121994	
-0.010411	
-0.017693	
-0.0136326	
-0.0047402	
0.0271134	
0.0249889	
0.0186378	
0.0106641	
-0.0146169	
-0.0100016	
-0.00419198	
0.00248037	
0.033274	
-0.0634885	
-0.0491759	
0.00445619	
0.0327147	
-0.0258245	
-0.031168	
-0.00903704	
0.0296688	
0.0233304	
0.00287902	
-0.0518315	
0.00212621	
-0.0290745	
-0.0726069	
-0.0551083	
0.0310048	
0.0155517	
-0.00492722	
-0.0666254	
-0.0419407	
-0.0176392	
0.0244131	
0.134849	
0.173102	
0.171449	
0.11526	
0.140807	
-0.0290183	
0.0723218	
0.140479	
0.0534085	
0.0947715	
0.127408	
0.0463189	
0.0374822	
0.117369	
0.118489	
0.0930145	
0.0941051	
0.0772624	
0.102675	
0.1258	
0.171813	
0.173969	
-0.0604077	
-0.0661939	
-0.0512458	
-0.0515415	
0.00131525	
0.0225498	
0.0108204	
0.163516	
0.149272	
0.153519	
0.0452912	
0.161155	
0.152755	
0.169751	
0.170861	
0.167434	
0.161368	
0.168386	
0.169142	
-0.0554451	
-0.0420998	
0.143438	
0.149248	
0.13453	
0.158938	
0.157946	
0.163741	
0.15702	
0.145904	
0.145461	
0.168817	
0.15409	
0.172906	
0.174698	
0.102502	
0.108609	
0.127739	
0.17342	
0.174737	
-0.0392466	
-0.0220314	
0.00876277	
-0.00444607	
-0.0280991	
-0.00612854	
-0.0261739	
0.0561133	
0.0354164	
0.0780416	
0.0742655	
0.117758	
0.135417	
0.111538	
0.130505	
0.101511	
0.160185	
0.16414	
0.126775	
0.0931453	
-0.15106	
-0.0300128	
0.0320392	
0.0664621	
-0.0249618	
0.0337915	
0.0458627	
-0.0292639	
0.0599418	
0.0337276	
-0.00212252	
-0.00504811	
0.00832951	
0.0352122	
0.0446946	
0.13464	
0.155642	
-0.149814	
-0.171554	
-0.125493	
-0.129081	
-0.109293	
-0.0917066	
-0.0824814	
0.0846531	
0.113106	
0.0923908	
-0.0659381	
-0.077293	
0.12741	
0.118788	
0.139155	
0.127549	
0.128981	
0.138394	
0.132013	
0.124367	
-0.159099	
-0.165904	
0.0722737	
0.0870399	
0.103203	
0.106154	
0.0831294	
0.0871273	
0.110409	
0.115595	
0.152011	
0.150835	
0.158542	
0.162898	
0.0465106	
0.0992954	
0.0721197	
0.163433	
0.158378	
-0.1441	
-0.142896	
-0.118105	
-0.113017	
-0.108609	
-0.142761	
-0.121441	
-0.01822	
-0.0639477	
-0.0355769	
-0.0656035	
0.0376326	
0.0697307	
0.0161899	
0.0696784	
0.0435841	
-0.0511566	
0.0704828	
0.165153	
0.217734	
0.211927	
0.21108	
0.190766	
0.206509	
0.195553	
0.185186	
0.207263	
0.200577	
0.204667	
0.191772	
0.199651	
0.194998	
0.172537	
0.154739	
0.173964	
0.183668	
0.179138	
0.213034	
0.174386	
0.204907	
0.203638	
0.189671	
0.209709	
0.196915	
0.205339	
0.0913016	
0.097815	
-0.0958169	
-0.0182256	
0.201843	
0.170337	
0.212518	
0.156203	
0.191694	
0.0941167	
0.172448	
0.182999	
0.212377	
-0.208552	
0.175006	
0.207535	
0.187755	
0.19416	
0.109966	
0.102432	
0.147027	
0.100143	
0.131045	
-0.00498712	
-0.361781	
0.017746	
0.117167	
0.124898	
-0.0716183	
-0.0283984	
0.0193812	
0.0490635	
-0.248389	
-0.328569	
-0.338953	
-0.344716	
-0.19721	
-0.00365236	
-0.0122099	
-0.233607	
-0.268296	
-0.151069	
-0.00392764	
-0.260839	
-0.294184	
-0.332084	
-0.333241	
-0.166261	
0.00872903	
-0.0869692	
-0.346141	
-0.344361	
-0.0827395	
0.175316	
0.089577	
0.169972	
-0.348084	
-0.0484991	
0.140314	
-0.0351972	
-0.00725145	
0.152635	
-0.246588	
-0.0275401	
-0.0903088	
-0.133729	
-0.207555	
-0.0653118	
0.157071	
-0.0957107	
0.0953854	
-0.0996474	
0.117387	
0.0840052	
0.0276496	
0.0698354	
-0.242207	
-0.224841	
0.08058	
-0.00608201	
-0.103392	
-0.0392275	
-0.13746	
-0.102513	
-0.252784	
-0.0760569	
-0.078043	
-0.160012	
0.151426	
-0.153838	
-0.326464	
0.124325	
-0.322536	
-0.320168	
-0.0031833	
0.0550504	
-0.318409	
-0.12452	
-0.180965	
-0.139352	
0.197129	
0.110435	
0.119955	
0.119638	
0.0504344	
0.0511322	
-0.0100501	
0.0409798	
-0.215886	
-0.138727	
0.170311	