<VTKFile type="UnstructuredGrid" version="0.1" byte_order="LittleEndian">
	<UnstructuredGrid>
		<Piece NumberOfPoints="3959" NumberOfCells="7450">
			<CellData Scalars="scalars">
				<DataArray type="Float64" Name="Doublet Strengths" NumberOfComponents="1" Format="ascii">
-0.0701913	
-0.0546527	
0.00173958	
0.0319026	
-0.0300945	
-0.039683	
-0.0158635	
0.0270576	
0.0192637	
-0.00284385	
-0.0621747	
0.00388139	
-0.0266978	
-0.0692035	
-0.0521811	
0.0319973	
0.0193265	
-0.000291192	
-0.0592431	
-0.0356127	
-0.0123366	
0.0270361	
0.135421	
0.173014	
0.171419	
0.11409	
0.134834	
-0.104284	
0.0361861	
0.123105	
0.0345493	
0.0855516	
0.109523	
0.0137014	
-0.00149058	
0.0924299	
0.0973298	
0.0659901	
0.0646211	
0.0623477	
0.0840964	
0.108817	
0.165183	
0.172186	
-0.0916041	
-0.102834	
-0.0994359	
-0.142132	
-0.0531043	
-0.0283152	
-0.016973	
0.154781	
0.136133	
0.14078	
0.00378246	
0.152673	
0.148516	
0.161555	
0.164541	
0.158303	
0.161854	
0.160272	
0.163235	
-0.12223	
-0.165533	
0.126216	
0.132797	
0.114421	
0.146214	
0.145458	
0.158701	
0.150992	
0.134312	
0.135498	
0.167457	
0.153277	
0.172194	
0.172479	
0.0895218	
0.102417	
0.123033	
0.173383	
0.172995	
-0.0840418	
-0.084514	
-0.0361857	
-0.0392236	
-0.0599722	
-0.049115	
-0.0788032	
0.0338676	
0.00768726	
0.0550958	
0.0462749	
0.100591	
0.123621	
0.0977119	
0.120122	
0.105756	
0.164419	
0.168086	
0.130065	
0.10082	
-0.0807931	
0.00514738	
0.0541218	
0.0856036	
-0.00690041	
0.0479661	
0.065123	
-0.00202805	
0.0814774	
0.0594046	
0.0272061	
0.0218667	
0.023545	
0.0535485	
0.0630852	
0.144693	
0.161465	
-0.106586	
-0.0868238	
-0.0990417	
-0.0972283	
-0.0676397	
-0.0436694	
-0.0572898	
0.100174	
0.12509	
0.107595	
-0.026394	
-0.0405516	
0.136203	
0.126681	
0.148735	
0.139615	
0.140366	
0.143319	
0.141499	
0.135762	
-0.097403	
-0.0475777	
0.0913283	
0.105496	
0.118261	
0.121401	
0.0972169	
0.0997587	
0.122164	
0.125146	
0.155832	
0.156423	
0.164383	
0.167152	
0.0571959	
0.108411	
0.0805573	
0.167512	
0.164002	
-0.0862642	
-0.0947932	
-0.0674099	
-0.0850064	
-0.0772238	
-0.102619	
-0.0821615	
0.00428312	
-0.0330991	
-0.0143936	
-0.0397935	
0.052754	
0.082345	
0.0353772	
0.0836553	
-0.00271068	
-0.173341	
0.0324172	
0.168869	
0.217257	
0.209232	
0.209258	
0.192105	
0.204605	
0.194486	
0.185212	
0.206879	
0.200688	
0.201923	
0.18514	
0.196117	
0.192299	
0.171575	
0.163849	
0.17291	
0.181712	
0.177298	
0.210273	
0.17638	
0.199906	
0.200372	
0.18632	
0.20565	
0.194823	
0.20601	
0.115497	
0.108075	
-0.0321443	
0.0114239	
0.198081	
0.176766	
0.211878	
0.165902	
0.189282	
0.061693	
0.178852	
0.185701	
0.209451	
-0.248249	
0.179348	
0.204147	
0.190904	
0.196101	
0.13363	
0.126197	
0.158537	
0.124188	
0.145986	
-0.0696661	
-0.273145	
-0.0379069	
0.091305	
0.0994973	
-0.226323	
-0.10614	
-0.0340448	
0.00246027	
-0.361394	
-0.175285	
-0.218648	
-0.371345	
-0.216	
-0.0262582	
-0.0801027	
-0.296625	
-0.338825	
-0.198685	
-0.0664701	
-0.310153	
-0.347338	
-0.379897	
-0.386808	
-0.300127	
-0.0485125	
-0.139378	
-0.380374	
-0.369587	
-0.094806	
0.165464	
0.102997	
0.155367	
-0.222996	
0.0101624	
0.119884	
0.0259384	
0.021405	
0.13236	
-0.0848922	
0.0398892	
-0.103738	
-0.149445	
-0.294112	
-0.0319459	
0.138209	
-0.05251	
0.0641343	
-0.0139189	
0.0890107	
0.0466706	
0.0285078	
0.0714211	
-0.278664	
-0.255949	
0.0579955	
0.0367876	
-0.0183785	
0.0275444	
-0.0773613	
-0.0248089	
-0.282998	
-0.124496	
-0.122842	
-0.0789392	
0.144255	
-0.0635164	
-0.150407	
0.10423	
-0.167285	
-0.175221	
0.0497069	
0.0829951	
-0.222217	
-0.137263	
-0.192625	
-0.0409827	
0.188608	
0.0880928	
0.0916694	
0.0910055	
0.0113886	
0.0114438	
-0.0193854	
0.0329025	
-0.297177	
-0.201146	
0.155964	
0.132723	
0.128597	
0.14003	
-0.0962289	
-0.074044	
-0.0755521	
-0.0289623	
-0.0200719	
0.00866926	
0.165678	
0.0548543	
0.0853803	
0.174343	
0.169773	
0.0798505	
-0.242939	
0.191012	
0.112004	
-0.0530152	
-0.120848	
0.180192	
0.200611	
0.0583545	
0.154744	
-0.273626	
-0.187935	
0.11489	
0.111545	
0.127281	
0.0268902	
0.195211	
0.172059	
0.153604	
0.156569	
0.140821	
0.162948	
0.186684	
0.182555	
0.161834	
-0.0291018	
0.0399986	
0.147436	
0.163118	
0.149851	
0.181478	
0.191405	
0.0596037	
0.171607	
0.0820295	
0.0623742	
0.0536149	
0.0639602	
0.122717	
0.189224	
0.106842	
0.0807419	
0.0555183	
0.0627945	
0.117075	
0.119487	
0.13779	
0.137303	
0.0625524	
0.00911794	
0.0225212	
-0.0273474	
0.189978	
0.208549	
0.190466	
0.183879	
0.195387	
0.0989842	
0.101775	
0.185051	
0.107466	
-0.201339	
0.0870244	
0.0199223	
0.073613	
0.0868179	
0.176654	
0.0261117	
-0.0961074	
-0.0658542	
0.0582287	
0.059807	
0.0225159	
0.149574	
0.181454	
0.104301	
0.0982599	
0.186923	
0.146004	
0.0967147	
0.0396828	
0.0317164	
0.0642358	
0.0673101	
0.0162406	
0.144291	
0.149816	
-0.333464	
-0.291601	
-0.188803	
-0.149289	
-0.0868106	
0.121123	
0.112663	
0.132423	
0.164638	
0.15212	
0.128681	
0.184025	
-0.179479	
-0.189216	
-0.354785	
-0.324316	
0.0495816	
-0.0851527	
0.0357061	
-0.321275	
-0.347172	
0.0024859	
-0.0122478	
0.00996103	
0.00052966	
-0.106261	
-0.0666229	
-0.0588327	
-0.0130928	
0.0187034	
0.000746466	
0.0678967	
0.0880531	
0.108861	
-0.0109781	
-0.0417956	
-0.010871	
-0.0289511	
-0.00962864	
0.0343888	
0.110629	
0.113413	
0.0953094	
0.0267904	
0.00478807	
-0.0709507	
0.137282	
0.098753	
0.0187383	
0.00539383	
0.193536	
-0.209627	
0.0645928	
-0.0204987	
-0.0322283	
0.212346	
0.192834	
0.204798	
-0.209683	
-0.162644	
-0.10816	
0.000157465	
-0.119264	
-0.0693218	
0.200233	
0.185708	
0.142199	
0.11794	
0.0691897	
-0.062898	
-0.131342	
-0.0843088	
0.179606	
0.0323068	
-0.381677	
-0.384603	
-0.382908	
-0.211405	
0.0621509	
0.00216163	
-0.00143877	
0.0156465	
0.0152313	
0.0259358	
-0.0111614	
0.124777	
0.120133	
-0.137401	
-0.0691696	
-0.191392	
-0.126677	
-0.0458652	
-0.160826	
-0.0716722	
0.0440124	
-0.258744	
-0.241358	
0.139098	
0.0645796	
0.109929	
-0.0359577	
-0.00211273	
0.157775	
0.158903	
0.140594	
0.1574	
0.145142	
0.0784482	
0.0560548	
0.140432	
0.0485041	
0.198185	
0.188057	
-0.111024	
-0.242871	
0.182816	
0.17972	
0.189828	
0.0210734	
0.191663	
0.202948	
0.189522	
0.199201	
0.207857	
0.192878	
-0.222841	
-0.251518	
0.207921	
0.189868	
0.195472	
0.182878	
-0.350987	
0.0408207	
0.012756	
0.0263072	
0.190876	
0.174037	
0.158931	
0.180777	
0.0660808	
0.0682302	
0.0184288	
0.021723	
0.133707	
-0.137817	
0.0314818	
0.0748388	
-0.0565541	
0.145859	
0.155041	
0.128146	
0.0949328	
0.204232	
0.0385436	
0.0840775	
-0.0204011	
-0.0070023	
0.107609	
0.131721	
0.138673	
0.0513362	
-0.0623191	
-0.0378313	
-0.0192189	
0.0217644	
0.0573029	
0.0868029	
-0.0235567	
0.0383274	
-0.016871	
0.198059	
0.183333	
0.066572	
-0.00479829	
0.0890144	
0.148085	
-0.00150335	
-0.114351	
-0.00455317	
-0.116603	
0.1058	
-0.0352855	
-0.0391263	
-0.0237882	
0.122982	
0.0976005	
0.0939623	
0.0330801	
0.0942773	
0.0555737	
0.0044691	
0.0081174	
0.0282054	
0.0243838	
0.00927006	
-0.0370014	
-0.0837232	
0.115538	
0.0376105	
0.0359342	
0.0229141	
0.129882	
0.028016	
-0.0100388	
0.0696504	
0.0808568	
0.107754	
-0.339279	
-0.00829639	
-0.0322101	
0.0592222	
0.0671237	
0.153641	
0.0955798	
0.0841847	
0.0757253	
-0.108582	
-0.0682667	
0.0395518	
0.0134765	
-0.0175853	
-0.0628407	
0.0994549	
0.0652079	
0.0582206	
0.0607886	
-0.0432732	
0.0288102	
-0.244603	
-0.22825	
-0.144855	
-0.131728	
0.146684	
-0.0421592	
-0.164521	
0.131787	
-0.0889164	
0.0273495	
-0.141448	
-0.213339	
-0.0675237	
-0.0354158	
0.0179665	
-0.0153338	
-0.0959414	
-0.155865	
-0.0858355	
-0.0377205	
-0.0226806	
-0.000418886	
-0.145107	
0.13316	
0.0110831	
0.0378747	
0.0757413	
-0.103041	
-0.0687165	
-0.0821492	
-0.136606	
-0.21034	
0.123874	
0.111945	
-0.0190464	
0.0331815	
-0.109613	
-0.132248	
0.112469	
0.0389414	
0.0701955	
-0.0277626	
-0.0104805	
-0.116848	
-0.0780388	
-0.306384	
-0.343592	
0.0519488	
-0.243411	
0.0453338	
0.00752485	
-0.138095	
0.136385	
-0.0982386	
-0.0857611	
-0.00982106	
-0.0554246	
0.184794	
0.100262	
0.148352	
0.0852652	
0.105521	
0.204884	
0.192737	
-0.0487736	
-0.0413412	
0.0494863	
0.0667021	
-0.337273	
-0.132784	
-0.162327	
-0.37951	
-0.0155831	
0.052261	
-0.0289182	
-0.0387485	
-0.134744	
-0.109784	
0.0367756	
-0.0107041	
0.00322037	
0.195426	
0.180203	
0.0656147	
0.00420464	
-0.0351076	
0.0886699	
0.119742	
0.0401852	
0.0712073	
0.026005	
-0.053856	
0.191525	
0.209202	
0.206545	
0.194792	
-0.192897	
0.186497	
0.165564	
-0.00059905	
-0.0908977	
0.0198341	
0.157187	
0.176132	
0.155889	
0.175768	
0.163402	
0.140937	
0.0647815	
0.0501913	
-0.000978577	
0.00451502	
0.117848	
0.124538	
-0.128408	
-0.360742	
-0.338308	
0.039391	
0.0273032	
0.198853	
0.180707	
0.213869	
0.197946	
0.150625	
0.118573	
-0.0700261	
0.110981	
0.142171	
0.126181	
0.142544	
0.144431	
0.162584	
0.157016	
0.136936	
-0.203686	
-0.225994	
0.177666	
0.163014	
0.098606	
0.0583293	
0.144696	
0.143508	
0.205087	
0.191954	
-0.0310241	
-0.0899919	
-0.154915	
-0.0709979	
0.0182744	
0.104173	
0.0470602	
0.113176	
-0.081905	
-0.0702343	
-0.249128	
0.114625	
0.11106	
0.168491	
0.192575	
-0.0694678	
0.0393541	
-0.0369712	
0.0193208	
-0.048429	
-0.0114789	
0.0601144	
0.0618753	
0.11099	
-0.0260717	
-0.0267839	
-0.0354156	
-0.0401596	
0.204587	
0.177928	
0.180984	
-0.100832	
-0.148019	
0.0664721	
-0.00672308	
0.0607255	
-0.038036	
0.0634869	
0.0544687	
-0.0826348	
-0.0912406	
0.0789693	
-0.00375623	
0.00416574	
-0.293835	
-0.00699827	
0.0384558	
0.0790735	
0.0822496	
-0.154382	
-0.166126	
-0.235107	
-0.0159499	
0.0201333	
0.16573	
0.153174	
0.0101679	
0.0671758	
0.0889008	
0.0943809	
-0.00102272	
-0.0419698	
-0.0960617	
-0.0977089	
0.194427	
0.183546	
0.187687	
0.0601259	
0.0626762	
0.113754	
0.057468	
-0.137046	
-0.134304	
-0.191099	
-0.0925332	
-0.0853799	
-0.0138666	
0.112088	
0.113536	
0.0779222	
0.0393012	
-0.173606	
-0.174676	
-0.00805734	
-0.027326	
-0.22022	
-0.193696	
-0.265388	
-0.116604	
0.173106	
0.158231	
0.13276	
0.192027	
0.21102	
-0.0715148	
-0.0110429	
-0.0659158	
0.0663259	
0.110839	
0.0260713	
0.0714417	
0.102623	
0.129712	
0.106411	
0.132217	
-0.0370377	
-0.0226719	
0.144774	
0.143672	
-0.15763	
-0.131601	
-0.199922	
0.186287	
0.193726	
0.185652	
0.142118	
0.106842	
0.158925	
0.111011	
0.15626	
0.0778272	
0.135059	
0.131927	
0.165746	
-0.0556191	
-0.0454672	
-0.0477542	
0.138939	
-0.0563557	
-0.0758103	
-0.169874	
0.0558829	
0.03053	
-0.237918	
-0.244987	
-0.0523427	
-0.0594379	
0.120631	
0.0684572	
-0.129701	
-0.294182	
-0.258757	
0.177997	
0.176885	
0.161455	
0.176049	
0.174228	
0.0495741	
0.0911486	
0.0336811	
0.0407707	
0.187806	
-0.0373699	
-0.197993	
-0.0410062	
0.020374	
-0.0167543	
-0.0241877	
0.0164933	
-0.338642	
0.053476	
0.0626693	
0.142489	
0.111076	
0.157285	
0.125313	
0.145456	
0.135741	
0.130995	
0.0255415	
0.0571686	
0.0498477	
0.0765941	
0.130331	
0.10923	
0.0304101	
0.142343	
0.156512	
0.108819	
0.126046	
0.115928	
0.140236	
0.117566	
0.114835	
0.0524952	
0.0549139	
0.128838	
0.110312	
0.118402	
0.0730274	
-0.0638849	
-0.0659326	
-0.0452992	
-0.0125639	
-0.0931332	
-0.0281069	
0.0758305	
0.0575821	
0.104695	
0.15816	
0.124748	
0.138137	
0.0862192	
0.01228	
-0.00874798	
0.0574959	
-0.0149175	
0.0176902	
-0.0280969	
0.0570302	
0.180676	
0.180507	
-0.315846	
-0.276461	
0.124935	
0.115514	
-0.00476647	
-0.019525	
0.132873	
-0.0719759	
-0.055618	
0.175712	
0.162178	
0.190332	
0.208695	
0.0624014	
0.0392569	
0.141834	
0.125971	
0.17878	
0.0212727	
0.0612748	
0.125577	
0.0799556	
0.113184	
0.0852066	
0.111698	
0.208086	
0.0316098	
0.0318526	
0.182574	
0.0498328	
0.103637	
0.102194	
0.0320256	
0.00724212	
0.109055	
0.115367	
0.149381	
0.187168	
0.192328	
0.201823	
-0.203269	
0.124584	
0.0737189	
-0.0596457	
0.0327463	
0.0698631	
0.147011	
0.144832	
0.197896	
0.189583	
0.15714	
0.148474	
-0.201266	
-0.122034	
-0.087899	
-0.104514	
0.0832092	
0.0642003	
0.0711523	
-0.0888391	
-0.0603298	
-0.262846	
-0.0820311	
-0.0729528	
-0.130142	
-0.273577	
-0.213021	
-0.146423	
-0.135086	
-0.119254	
-0.100982	
0.147022	
0.13523	
0.0710692	
-0.0628397	
-0.0519171	
-0.139888	
-0.140055	
-0.206062	
-0.202943	
-0.053521	
-0.0716474	
-0.33438	
-0.0447057	
-0.19268	
0.0878954	
0.0920122	
0.0648756	
0.0668362	
0.172534	
0.171866	
-0.0495042	
-0.0921455	
-0.000319472	
-0.00360685	
0.0470091	
0.0275206	
0.0433774	
0.0264807	
-0.195687	
-0.221326	
-0.161742	
-0.0226421	
0.136961	
0.124209	
0.061222	
0.0408842	
-0.242859	
-0.224123	
-0.0851063	
-0.188204	
-0.229578	
-0.209469	
-0.262073	
0.201877	
0.185398	
-0.0261337	
-0.0814307	
-0.0595862	
-0.053961	
-0.0799949	
-0.186205	
-0.169999	
0.0577779	
0.0136934	
-0.156545	
-0.0482156	
-0.253584	
-0.244532	
-0.149011	
-0.129758	
-0.137142	
-0.124232	
-0.148346	
-0.146806	
-0.102211	
-0.101475	
0.148252	
0.0759713	
0.133035	
0.114451	
0.111596	
0.115317	
0.0815864	
-0.231151	
-0.186366	
-0.193178	
-0.204093	
-0.196522	
-0.259775	
-0.26877	
-0.314792	
-0.175361	
-0.114901	
-0.213324	
-0.187507	
-0.286426	
-0.331135	
-0.330754	
-0.366256	
-0.0352487	
-0.0378393	
-0.039922	
-0.0476161	
-0.209096	
-0.215964	
-0.168091	
-0.158233	
-0.125439	
-0.134474	
-0.0903669	
-0.304997	
-0.0322194	
-0.0171417	
-0.305117	
-0.263134	
-0.0135991	
-0.0234612	
-0.0284786	
-0.144665	
-0.14059	
-0.0220399	
-0.0308631	
-0.0746474	
-0.0819233	
-0.171376	
-0.162994	
0.0905361	
0.0245065	
0.0044974	
-0.00572317	
0.0994204	
0.0515387	
-0.117288	
-0.0931178	
-0.119387	
-0.0183102	
-0.279812	
-0.32655	
-0.0973035	
-0.113172	
0.197852	
0.124558	
0.21081	
0.182316	
-0.375016	
-0.368607	
0.0483885	
0.00511334	
-0.309179	
-0.275433	
-0.329019	
-0.295368	
-0.280315	
-0.290999	
-0.219003	
-0.189198	
-0.316413	
-0.355336	
-0.354721	
-0.350326	
-0.347844	
-0.180231	
-0.126567	
-0.101297	
-0.297295	
-0.323843	
-0.350752	
-0.240285	
0.190297	
0.158914	
0.210771	
0.193871	
-0.324841	
-0.296425	
-0.215216	
-0.20333	
-0.189939	
-0.00721153	
-0.00782925	
-0.295869	
-0.295391	
-0.330214	
-0.299823	
-0.32235	
-0.0588817	
-0.0695986	
-0.0820318	
-0.10399	
-0.213099	
-0.254484	
-0.213853	
-0.23979	
-0.268534	
-0.300367	
0.209972	
0.185815	
0.184003	
0.144991	
-0.248245	
-0.131196	
-0.119469	
-0.132283	
0.181889	
0.139462	
0.162017	
0.0825469	
-0.348555	
0.0817312	
0.125741	
0.114706	
0.135665	
-0.333466	
-0.352312	
-0.336435	
-0.340388	
-0.331727	
-0.33793	
-0.297294	
-0.109977	
-0.100233	
-0.0987083	
-0.0988165	
0.139423	
0.1971	
0.136017	
0.194763	
0.128973	
0.11993	
0.122908	
0.0735008	
-0.251749	
-0.272625	
-0.251711	
-0.237335	
-0.340495	
-0.355248	
-0.341855	
-0.348388	
0.078106	
0.137028	
0.082285	
0.13855	
0.164	
0.13088	
0.151518	
0.0941816	
0.112251	
0.0883199	
0.111494	
0.087581	
0.174402	
0.202632	
0.205959	
0.210745	
0.221709	
0.139512	
0.232158	
0.235336	
0.237219	
0.245234	
0.249575	
0.254953	
0.229448	
0.191601	
0.169716	
0.0446105	
0.256512	
-0.0112801	
-0.00694897	
-0.0377494	
0.183614	
0.249463	
0.234933	
0.265601	
0.261576	
0.268262	
0.256128	
0.262912	
0.253497	
0.245924	
0.169129	
0.218128	
0.197203	
0.218017	
0.188834	
0.149281	
0.216656	
0.15851	
0.101632	
0.257014	
0.235421	
0.234396	
0.0943148	
-0.0442295	
0.249026	
-0.0270011	
-0.0461571	
0.0110565	
0.0682544	
0.0399592	
-0.040031	
0.0380848	
-0.00118885	
0.0667795	
-0.0589456	
0.012656	
0.0630713	
0.0802019	
0.0362274	
-0.00715692	
-0.0488381	
0.207263	
-0.0304943	
0.175798	
0.10131	
0.104892	
0.0818478	
0.043421	
0.0498537	
0.067146	
0.0774045	
0.0146567	
0.0558161	
0.00890779	
0.0351641	
0.0159981	
0.0292576	
0.0288857	
0.0419613	
0.0820675	
0.0475002	
0.0525625	
0.0632342	
0.0852347	
0.0412466	
-0.0277738	
-0.0307675	
0.0176255	
-0.00638842	
-0.013221	
0.0305066	
0.0594043	
0.0539746	
-0.000192983	
-0.0247782	
-0.0331319	
-0.0127098	
0.029462	
-0.0662023	
-0.0453604	
-0.0638847	
0.167008	
0.187752	
0.184697	
0.221929	
0.0102493	
0.0985097	
0.152255	
0.159605	
0.188752	
0.000272685	
0.150553	
0.127533	
-0.0579118	
-0.0385534	
-0.0304666	
0.130217	
-0.0312059	
0.143559	
-0.00349458	
0.204308	
0.20824	
-0.0690001	
0.0759326	
0.0398014	
0.00267321	
0.0733408	
0.0157348	
0.244842	
0.228504	
0.221709	
-0.0498743	
0.0823019	
0.215413	
-0.0134249	
-0.0165696	
0.207252	
0.229778	
0.007228	
0.0486612	
0.195665	
0.138204	
-0.0616317	
-0.0495772	
0.108987	
-0.0224507	
-0.0173782	
-0.00760895	
-0.00128011	
0.251718	
0.206744	
0.211031	
0.128368	
0.163891	
0.243274	
0.273668	
0.254272	
0.0572368	
0.168818	
0.242521	
0.192473	
0.107721	
0.12952	
0.141572	
0.160276	
0.00578409	
0.118676	
0.0824233	
0.0966146	
0.0642894	
0.118822	
0.116746	
0.188102	
0.146434	
0.191263	
0.114952	
0.15627	
0.128494	
0.164333	
0.113632	
0.121107	
0.154499	
0.20544	
0.139741	
0.150296	
0.159485	
0.159071	
0.141443	
0.264726	
0.267085	
0.277614	
0.265412	
0.280834	
0.247939	
0.113033	
-0.0243355	
0.0226404	
0.0279052	
0.122256	
0.230336	
0.176602	
0.109876	
0.18295	
0.168284	
0.121387	
0.234965	
0.269279	
0.27462	
0.228556	
0.24809	
0.258227	
0.277178	
0.262808	
0.252594	
0.276888	
0.260665	
0.261595	
0.270461	
0.245116	
0.242451	
0.267657	
0.267402	
0.274345	
0.103658	
0.278374	
0.226858	
0.245084	
0.199232	
0.225841	
0.268909	
0.270781	
0.273783	
0.205076	
0.19674	
0.225427	
0.20903	
0.218824	
0.21868	
0.196312	
-0.0463433	
-0.0515093	
0.238749	
0.225739	
0.251548	
0.228479	
0.202478	
0.18266	
0.20017	
0.257589	
0.23222	
0.232053	
0.241402	
0.167015	
0.210348	
0.0829184	
0.262254	
0.248213	
0.0932331	
0.186584	
0.162984	
0.232844	
0.12449	
0.129818	
0.20371	
0.146996	
0.273014	
0.133428	
0.131294	
0.159976	
0.221794	
0.192894	
0.179859	
0.267071	
0.0479573	
0.10736	
0.0415186	
0.0770255	
0.191985	
0.183391	
0.152753	
0.184024	
-0.0220486	
0.257749	
0.240037	
-0.00438727	
0.00548793	
-0.0192883	
0.000942241	
0.113776	
0.0859467	
0.159069	
0.163261	
0.187019	
0.149814	
0.187811	
0.00684801	
0.157706	
0.129861	
0.172647	
-0.0381542	
-0.0515861	
-0.0427998	
-0.0510259	
0.115312	
0.111934	
0.142797	
0.132634	
0.150465	
0.0862695	
0.0943498	
0.19888	
0.175991	
0.200221	
0.212231	
0.154947	
0.102108	
0.0899857	
0.0964868	
0.0695082	
0.279735	
0.169613	
0.197753	
0.15047	
0.167949	
0.116689	
0.146295	
0.114874	
0.155747	
0.14095	
0.0161166	
0.205976	
0.214353	
0.177575	
0.237157	
0.235791	
0.148018	
0.174856	
0.122542	
0.126353	
-0.0539364	
-0.038661	
-0.0629749	
-0.0616131	
0.100772	
0.205419	
0.238094	
0.208145	
0.197409	
0.208962	
0.169213	
0.218863	
0.216003	
0.21473	
0.204699	
0.0456459	
0.103899	
0.264361	
0.240497	
0.267202	
0.202453	
0.192669	
0.265471	
0.266387	
0.229649	
0.242941	
0.258407	
0.201828	
0.229094	
0.170801	
0.17718	
0.186988	
0.247473	
0.234056	
0.248449	
0.220746	
0.263689	
0.229967	
0.250314	
-0.000285833	
0.185362	
0.19684	
0.164488	
0.238075	
0.239801	
0.231987	
0.226578	
0.243513	
0.254363	
0.106121	
0.135309	
0.123652	
0.140567	
-0.0540453	
0.215811	
0.181168	
0.185008	
0.113795	
0.146867	
0.150611	
0.171745	
0.156824	
0.165953	
-0.0441349	
-0.0329236	
-0.0480298	
-0.0304445	
0.244017	
0.205711	
0.244113	
0.209346	
0.081617	
0.216425	
0.224164	
0.221855	
0.247877	
0.230115	
0.259345	
0.148387	
0.133869	
0.218801	
0.214372	
0.222559	
0.183267	
0.187067	
0.0242057	
0.0689599	
0.264807	
0.224976	
-0.0211701	
0.18981	
0.21759	
0.22588	
0.227154	
0.209099	
0.201628	
0.199354	
0.256342	
0.258997	
0.251425	
0.149974	
0.261296	
0.265781	
0.0573892	
0.0820012	
0.0810333	
0.221406	
0.222303	
0.222924	
0.265096	
-0.0675021	
-0.0616078	
0.25724	
0.252807	
0.244232	
0.221438	
-0.062281	
-0.0566715	
0.163122	
0.150288	
0.113208	
0.115076	
0.221459	
0.0732892	
0.0880322	
0.152389	
0.153158	
0.171187	
0.169499	
0.266396	
0.259737	
0.00187367	
0.0168919	
0.0765507	
0.0426515	
0.102948	
0.106762	
0.135607	
0.180672	
0.17827	
0.166667	
0.160213	
0.274444	
0.261681	
0.235839	
0.251735	
0.26635	
0.0833448	
0.0769786	
0.205286	
0.203988	
0.189931	
0.18948	
0.0241861	
0.0449368	
0.266192	
0.266745	
0.206456	
0.203715	
0.144911	
0.106606	
0.154275	
0.0995528	
0.224222	
0.230794	
0.206276	
0.207572	
0.212974	
0.21138	
0.205315	
0.189223	
0.266638	
0.267959	
0.251368	
0.171343	
0.1724	
0.199303	
0.195566	
0.162395	
0.168815	
0.237704	
0.24332	
0.159	
0.176094	
0.262161	
0.266124	
0.183652	
0.22727	
0.235564	
0.216225	
0.186129	
0.224689	
0.270619	
0.263888	
0.242208	
0.242534	
0.23418	
0.243032	
0.128925	
0.186716	
0.125182	
0.264238	
0.274671	
0.261902	
0.256365	
0.0984502	
0.0699884	
0.0730577	
0.0549434	
0.26245	
0.256965	
0.266455	
0.273054	
0.00485233	
0.257654	
0.26703	
0.262991	
0.255801	
0.124625	
0.163393	
0.266768	
0.275155	
0.265933	
0.119006	
0.131647	
0.137282	
0.146024	
0.196248	
0.192585	
0.186552	
0.1899	
0.268886	
0.167033	
0.164113	
0.214659	
0.214717	
-0.00758539	
-0.0168492	
0.247564	
0.261956	
0.261947	
0.192238	
-0.00878974	
0.232624	
0.228832	
0.24004	
0.241727	
0.17742	
0.269804	
0.26823	
0.0399786	
0.0106636	
0.184559	
-0.0656574	
-0.0588588	
-0.0650082	
0.17737	
0.0653137	
0.0263149	
0.050293	
0.025273	
0.239355	
0.123169	
0.163631	
0.262972	
0.247765	
0.263604	
0.26335	
0.266823	
-0.00391598	
-0.0249338	
0.23711	
0.221448	
0.267367	
0.258371	
0.0213796	
0.182831	
0.167575	
0.135765	
0.203946	
0.174794	
0.224933	
0.216868	
0.129567	
0.122291	
0.263986	
0.273568	
0.0653447	
0.0541079	
0.246258	
0.2544	
0.267026	
0.266244	
0.272646	
0.265749	
-0.0589054	
-0.0614595	
0.0986356	
0.0983934	
0.0244555	
0.016423	
0.00920286	
0.244739	
0.245928	
0.218625	
0.229503	
0.212047	
0.218902	
0.272635	
0.196017	
0.258828	
0.244658	
0.239475	
0.124912	
0.0687998	
0.270385	
0.262101	
-0.0367682	
-0.00594885	
0.0111194	
0.063383	
0.212912	
0.142918	
0.246845	
0.240422	
0.0586598	
0.0815244	
0.0351349	
0.244074	
0.158073	
0.161833	
0.253895	
0.252279	
0.0916542	
0.0721403	
-0.0139902	
-0.015799	
0.19724	
0.200985	
0.183835	
0.192712	
0.240564	
0.20515	
0.18055	
0.225621	
0.21865	
0.198591	
0.00956715	
0.0568801	
0.0505366	
0.12992	
0.0722268	
0.181791	
0.211967	
0.261055	
0.0998289	
0.100179	
0.209344	
0.197701	
0.251554	
0.12566	
0.12721	
0.0952518	
0.0321758	
0.0170704	
0.044375	
0.0162716	
0.042711	
0.163495	
0.194496	
0.19142	
0.217344	
0.070926	
0.0550927	
0.0940557	
0.0779412	
0.164792	
0.163739	
0.1769	
0.174192	
0.164432	
0.179949	
0.180093	
-0.0689948	
-0.0242043	
-0.0632867	
-0.0489185	
-0.0278733	
0.13127	
0.134291	
-0.0645596	
0.110615	
0.122996	
0.0935104	
0.126029	
0.113545	
0.0327513	
-0.0393532	
0.0740778	
0.134753	
-0.0689705	
0.110893	
-0.0628283	
-0.0691931	
-0.0681905	
0.0348907	
0.070833	
0.261801	
0.238348	
0.266098	
0.24044	
0.267823	
0.26779	
0.134152	
0.086531	
0.275028	
0.262974	
0.148043	
0.192613	
0.142957	
0.189363	
0.0445682	
0.0603229	
0.210829	
0.0918443	
0.085653	
-0.0651041	
0.170263	
0.0890268	
0.0890693	
0.0542466	
0.178157	
0.258226	
0.267926	
0.190634	
0.0177145	
0.0114407	
0.164221	
0.193489	
0.226714	
0.217446	
-0.0520874	
-0.0380191	
0.268396	
0.263356	
0.249035	
-0.035795	
0.264976	
0.184013	
0.186286	
0.203574	
0.193021	
0.129266	
0.0819487	
0.268595	
0.255264	
0.166339	
0.169132	
0.233346	
0.244348	
0.213161	
0.0552823	
0.0670751	
0.232251	
0.257828	
0.230796	
0.0796963	
0.203982	
0.208025	
0.122432	
0.215399	
0.247139	
-0.0695647	
0.218969	
0.216452	
0.209396	
0.263134	
0.246778	
0.138505	
0.267394	
0.137524	
0.166084	
0.141223	
0.143448	
0.116369	
0.274973	
0.248841	
0.263939	
0.275356	
0.264374	
0.264718	
0.247571	
0.249756	
0.243367	
0.240126	
0.199832	
0.217333	
0.25616	
0.250946	
0.0731778	
0.0480168	
0.240286	
0.253249	
0.271101	
0.251626	
0.269965	
0.0614077	
0.0721241	
0.0695805	
0.0913279	
0.268367	
0.262626	
0.200402	
0.221928	
0.21934	
0.140213	
0.140597	
-0.066155	
-0.0632366	
0.129869	
0.115127	
0.111839	
0.112967	
0.109725	
0.109422	
0.0846543	
0.259443	
-0.0534412	
-0.0541477	
-0.0686522	
-0.0703175	
0.210455	
0.159997	
0.159118	
0.249392	
-0.0709917	
-0.0662112	
-0.0491598	
-0.0528427	
-0.0679951	
-0.0685602	
0.214392	
0.216012	
0.206317	
0.20294	
-0.0297378	
-0.0123023	
-0.0367174	
-0.0210477	
0.11974	
0.122949	
0.0945377	
0.192265	
0.217993	
0.253201	
0.241166	
0.247826	
0.250335	
0.250328	
0.238861	
0.226743	
0.234882	
0.205563	
0.200032	
0.223085	
0.218587	
0.102015	
0.0914554	
0.101928	
0.0387684	
-0.0055692	
0.0986018	
0.0663772	
-0.0586106	
-0.040637	
-0.0656725	
0.0712334	
0.170679	
0.118636	
0.115293	
0.0583003	
0.044237	
-0.0243087	
-0.0445367	
0.225492	
0.224762	
0.0594392	
0.105235	
0.0883377	
0.249953	
0.255962	
0.238801	
0.244604	
0.260006	
0.226821	
0.224497	
0.0835579	
0.0708248	
0.120965	
0.101806	
0.128367	
0.11866	
-0.00405428	
0.0214307	
0.102138	
0.106528	
0.170554	
0.173233	
0.120836	
0.110569	
0.0855799	
0.0824574	
0.175782	
0.173061	
0.160807	
0.125055	
0.1599	
0.166294	
0.23237	
0.24561	
0.158242	
0.148494	
0.122233	
0.164651	
0.188864	
-0.0218647	
0.0269427	
-0.0287009	
0.248558	
0.247893	
0.23038	
0.215264	
0.181644	
0.160276	
0.179524	
0.178086	
-0.0366667	
-0.0422403	
-0.0560648	
-0.0585928	
0.0458677	
0.072078	
0.084649	
0.167072	
0.143498	
0.180188	
0.185796	
0.205509	
0.183031	
0.253901	
0.249351	
0.224994	
0.234058	
0.233512	
0.234396	
-0.0477967	
-0.0535626	
-0.0348814	
-0.0400157	
0.17557	
0.154419	
0.167351	
0.166415	
0.031936	
0.0916857	
0.089718	
0.081153	
0.0858595	
0.24393	
0.257392	
0.0538756	
0.0239891	
0.261375	
0.26	
0.246882	
0.262827	
0.258807	
0.261399	
0.0128554	
0.236847	
0.235251	
0.195571	
0.0904849	
0.079875	
0.0659926	
0.069952	
0.139882	
0.144464	
0.226947	
0.24658	
0.256413	
0.258408	
0.174135	
0.169242	
0.0838076	
0.0927342	
0.231535	
0.222634	
0.0568171	
0.0745875	
0.12352	
0.103729	
0.12842	
0.149244	
0.105781	
0.116634	
0.115813	
0.0777292	
0.0141575	
0.0414156	
0.0942158	
0.0759499	
0.250056	
0.267125	
-0.0176285	
0.138729	
0.11139	
0.261232	
0.259392	
0.0589265	
0.0669816	
0.099162	
0.0748421	
0.0805925	
0.0835763	
0.0243162	
0.0540731	
0.0848757	
0.0733279	
0.13272	
0.122777	
0.0710035	
0.047063	
0.0855412	
0.0572846	
0.221812	
0.223553	
0.164881	
0.179799	
0.144778	
0.135426	
0.0401218	
0.00943113	
-0.0486632	
0.000227181	
0.0161585	
0.017733	
-0.00884181	
0.16221	
-0.021648	
0.135592	
0.137297	
-0.0178002	
-0.0445214	
-0.0355088	
-0.0438758	
0.110214	
0.117824	
0.0396889	
0.0382474	
0.0344579	
0.186547	
0.158725	
0.264515	
0.259645	
0.101893	
0.0813415	
0.0717709	
0.0695222	
0.0820871	
0.123134	
0.119984	
0.145817	
0.14523	
0.0585995	
0.0616026	
0.0161908	
0.00685951	
0.0818633	
0.0583499	
0.0613126	
0.038224	
0.096191	
0.0982327	
0.0863681	
0.0798496	
0.0885775	
0.0856265	
0.0529659	
0.270852	
0.268277	
0.264535	
0.269195	
0.0966566	
0.10092	
0.0887426	
0.0942137	
0.0924883	
0.0950836	
0.0921099	
-0.0157804	
0.001397	
-0.00697603	
0.00958635	
0.0268767	
0.038169	
0.0182022	
0.00801775	
-0.0119893	
-0.00348854	
0.00438132	
0.0338725	
0.019975	
0.0243739	
0.0125715	
0.00420619	
0.0204275	
0.00290289	
0.0123378	
-0.0102817	
-0.0176166	
-0.0135347	
-0.00459035	
0.0272183	
0.0251178	
0.0187852	
0.0108204	
-0.0145114	
-0.00987221	
-0.00405122	
0.00263861	
0.0333591	
-0.0644406	
-0.0501735	
0.00386598	
0.0325408	
-0.0267475	
-0.0317391	
-0.00940934	
0.0296207	
0.0232954	
0.00261413	
-0.0524981	
0.0010104	
-0.0305896	
-0.0741911	
-0.0567704	
0.0306529	
0.0146987	
-0.00626953	
-0.0684815	
-0.0437233	
-0.0192523	
0.0238499	
0.136867	
0.175487	
0.173915	
0.116932	
0.143203	
-0.0263297	
0.0754508	
0.143483	
0.0552101	
0.0965484	
0.130258	
0.0488522	
0.0401826	
0.120513	
0.121417	
0.0959489	
0.0972009	
0.0791588	
0.105201	
0.128577	
0.174647	
0.176563	
-0.0601675	
-0.0659686	
-0.0501115	
-0.0493827	
0.00402233	
0.0255584	
0.0124459	
0.166397	
0.152132	
0.156409	
0.0482615	
0.164011	
0.155259	
0.172629	
0.173604	
0.170295	
0.163713	
0.171272	
0.171934	
-0.0540691	
-0.0395434	
0.146467	
0.152281	
0.137606	
0.161925	
0.160931	
0.166454	
0.159686	
0.148624	
0.148078	
0.171362	
0.156414	
0.175254	
0.177205	
0.104665	
0.110404	
0.129845	
0.175854	
0.177285	
-0.0378783	
-0.0195281	
0.0112239	
-0.00273607	
-0.0270316	
-0.00406024	
-0.0241902	
0.0581651	
0.0374716	
0.0804958	
0.0769662	
0.120424	
0.137973	
0.11388	
0.132911	
0.102573	
0.162173	
0.166091	
0.128462	
0.0937368	
-0.155916	
-0.0326132	
0.0309134	
0.0659659	
-0.0265925	
0.0331791	
0.0450753	
-0.0314328	
0.0591592	
0.0323619	
-0.00409612	
-0.00689705	
0.00730924	
0.034363	
0.0439695	
0.135711	
0.157403	
-0.153635	
-0.176207	
-0.128314	
-0.13171	
-0.112935	
-0.0954966	
-0.0851831	
0.0846823	
0.113774	
0.0924979	
-0.0690829	
-0.0804161	
0.128573	
0.119809	
0.1403	
0.128335	
0.129827	
0.140158	
0.1331	
0.125186	
-0.16302	
-0.170762	
0.0718112	
0.0867869	
0.10343	
0.106384	
0.0832316	
0.087347	
0.111104	
0.116502	
0.154056	
0.152696	
0.160249	
0.164746	
0.0462236	
0.0998685	
0.0723483	
0.16541	
0.160146	
-0.148655	
-0.147075	
-0.122231	
-0.116174	
-0.111834	
-0.146634	
-0.125111	
-0.0200661	
-0.0666855	
-0.0375869	
-0.0681417	
0.0369544	
0.0696645	
0.0150193	
0.0695374	
0.0467517	
-0.0481908	
0.0736757	
0.16611	
0.218719	
0.213141	
0.212168	
0.191624	
0.207659	
0.196618	
0.186218	
0.208157	
0.201467	
0.205909	
0.193829	
0.201457	
0.196797	
0.174869	
0.1555	
0.176259	
0.185699	
0.181451	
0.214382	
0.175361	
0.206665	
0.20531	
0.191637	
0.211274	
0.198088	
0.206099	
0.0916554	
0.0980287	
-0.094694	
-0.0176904	
0.203618	
0.170882	
0.213433	
0.156807	
0.193522	
0.0973093	
0.172937	
0.183807	
0.213633	
-0.204466	
0.175746	
0.209121	
0.188403	
0.194899	
0.110464	
0.102812	
0.147563	
0.100504	
0.131451	
-0.00193812	
-0.357436	
0.0210601	
0.120307	
0.127974	
-0.0679712	
-0.0254148	
0.0224294	
0.052368	
-0.2439	
-0.325216	
-0.335207	
-0.340161	
-0.193745	
-0.000649287	
-0.00900288	
-0.229339	
-0.263832	
-0.147125	
-0.000506631	
-0.256403	
-0.289594	
-0.327352	
-0.328491	
-0.162183	
0.0121356	
-0.0833427	
-0.3416	
-0.340091	
-0.0798774	
0.177709	
0.0898612	
0.172432	
-0.344312	
-0.0475265	
0.143312	
-0.0341818	
-0.00539222	
0.155325	
-0.244131	
-0.0265189	
-0.0873507	
-0.130548	
-0.203375	
-0.063062	
0.159765	
-0.0948921	
0.0983552	
-0.0983676	
0.120438	
0.0871016	
0.0295827	
0.0714675	
-0.238084	
-0.220938	
0.0833797	
-0.00533695	
-0.102143	
-0.0382264	
-0.13535	
-0.101251	
-0.248804	
-0.0724911	
-0.07447	
-0.157929	
0.153203	
-0.152289	
-0.32319	
0.12679	
-0.319486	
-0.317135	
-0.00230135	
0.0555451	
-0.314758	
-0.121492	
-0.177829	
-0.1376	
0.199077	
0.113021	
0.122922	
0.122623	
0.0535894	
0.0543403	
-0.00754412	
0.0432386	