<VTKFile type="UnstructuredGrid" version="0.1" byte_order="LittleEndian">
	<UnstructuredGrid>
		<Piece NumberOfPoints="3959" NumberOfCells="7450">
			<CellData Scalars="scalars">
				<DataArray type="Float64" Name="Doublet Strengths" NumberOfComponents="1" Format="ascii">
-0.0705552	
-0.055426	
0.000660531	
0.0309189	
-0.0311266	
-0.0406727	
-0.0169995	
0.0260135	
0.0181601	
-0.00399517	
-0.0628798	
0.00303702	
-0.0274235	
-0.0691733	
-0.0525825	
0.0311214	
0.0186759	
-0.00086752	
-0.059214	
-0.0359307	
-0.012839	
0.0262866	
0.134108	
0.171508	
0.169879	
0.112789	
0.133057	
-0.10639	
0.033689	
0.120814	
0.032921	
0.0839674	
0.107266	
0.0116167	
-0.00368841	
0.0899651	
0.0950241	
0.0636718	
0.0621783	
0.0606682	
0.0820114	
0.106619	
0.163236	
0.170522	
-0.0922637	
-0.103412	
-0.100642	
-0.143987	
-0.0552864	
-0.0307127	
-0.0185273	
0.152728	
0.133984	
0.138634	
0.00139739	
0.150662	
0.146769	
0.159539	
0.16265	
0.156277	
0.160391	
0.158262	
0.161329	
-0.123606	
-0.16783	
0.123889	
0.13049	
0.112035	
0.144033	
0.143295	
0.156858	
0.149122	
0.132241	
0.133503	
0.165834	
0.15176	
0.170672	
0.170832	
0.0876784	
0.100883	
0.121422	
0.171854	
0.171353	
-0.085389	
-0.0864869	
-0.0381994	
-0.0407701	
-0.0611765	
-0.0508647	
-0.0804787	
0.0320429	
0.00586785	
0.0530426	
0.0440869	
0.0984491	
0.121596	
0.0957271	
0.118192	
0.104928	
0.163289	
0.166949	
0.129012	
0.100388	
-0.077349	
0.00746832	
0.0553388	
0.0863812	
-0.00567966	
0.048573	
0.0660539	
-8.30864e-05	
0.082436	
0.0608106	
0.029084	
0.0236525	
0.0243478	
0.0544956	
0.0639773	
0.144258	
0.160501	
-0.104137	
-0.0833947	
-0.0974084	
-0.0954679	
-0.0647839	
-0.0405945	
-0.0554323	
0.100539	
0.124944	
0.107877	
-0.0237071	
-0.0379191	
0.135671	
0.126105	
0.148229	
0.139391	
0.140071	
0.142338	
0.141023	
0.135504	
-0.0945807	
-0.043844	
0.0920381	
0.10604	
0.118449	
0.121572	
0.0974663	
0.0998567	
0.122032	
0.124752	
0.15469	
0.155447	
0.16344	
0.166069	
0.0573465	
0.108067	
0.0803228	
0.166371	
0.163023	
-0.0829657	
-0.0918483	
-0.06427	
-0.0830979	
-0.0749436	
-0.100112	
-0.0794443	
0.00586153	
-0.0307862	
-0.0128685	
-0.0378386	
0.0534052	
0.0825629	
0.0365013	
0.0839874	
-0.00531189	
-0.175795	
0.0297919	
0.167718	
0.215972	
0.207781	
0.207947	
0.191152	
0.203317	
0.193309	
0.18413	
0.20584	
0.19971	
0.200494	
0.183386	
0.194451	
0.190711	
0.170066	
0.163023	
0.171399	
0.180106	
0.175723	
0.208702	
0.17527	
0.198133	
0.198707	
0.184684	
0.203991	
0.193564	
0.205222	
0.115445	
0.108103	
-0.0321539	
0.0112888	
0.196402	
0.176097	
0.210813	
0.165233	
0.187732	
0.0590735	
0.178333	
0.184708	
0.207944	
-0.250089	
0.178502	
0.202501	
0.190114	
0.195271	
0.133287	
0.126033	
0.157933	
0.124073	
0.145614	
-0.0721949	
-0.276156	
-0.0405321	
0.0887582	
0.0969725	
-0.229196	
-0.108576	
-0.0365776	
-5.45528e-05	
-0.363595	
-0.176965	
-0.220841	
-0.372884	
-0.217857	
-0.0281932	
-0.082774	
-0.298744	
-0.340877	
-0.200857	
-0.0691131	
-0.311966	
-0.349052	
-0.381231	
-0.388289	
-0.302737	
-0.051083	
-0.141673	
-0.381839	
-0.371374	
-0.096846	
0.163571	
0.103025	
0.153368	
-0.225369	
0.00991229	
0.117451	
0.0257356	
0.0194552	
0.13025	
-0.0853203	
0.0393605	
-0.105693	
-0.151322	
-0.296334	
-0.0342467	
0.136123	
-0.0526632	
0.061837	
-0.0144468	
0.0865338	
0.0441466	
0.0264181	
0.0695902	
-0.280394	
-0.257666	
0.0558817	
0.0366341	
-0.0190153	
0.0270385	
-0.0794775	
-0.0250379	
-0.284694	
-0.126748	
-0.125064	
-0.0807536	
0.142643	
-0.0645996	
-0.151709	
0.102147	
-0.168904	
-0.176999	
0.0495456	
0.0829193	
-0.225063	
-0.139382	
-0.194965	
-0.041041	
0.186711	
0.0859597	
0.0894047	
0.0887822	
0.00905642	
0.00909061	
-0.0213498	
0.0310453	
-0.299356	
-0.203399	
0.154016	
0.130637	
0.127973	
0.139616	
-0.0984155	
-0.0756057	
-0.0772924	
-0.0312131	
-0.0204021	
0.00838998	
0.164455	
0.0528086	
0.0836155	
0.172988	
0.168323	
0.0781358	
-0.24519	
0.189377	
0.110212	
-0.0551182	
-0.12328	
0.179012	
0.199685	
0.056423	
0.153492	
-0.27603	
-0.190507	
0.114844	
0.11144	
0.125736	
0.0250437	
0.194335	
0.170875	
0.151556	
0.154555	
0.138639	
0.161669	
0.185757	
0.181818	
0.160744	
-0.0308987	
0.0382129	
0.146493	
0.162474	
0.147863	
0.179743	
0.18958	
0.0577016	
0.170392	
0.0819681	
0.0622729	
0.0534889	
0.0617773	
0.120701	
0.187399	
0.106854	
0.0806817	
0.0553883	
0.0626702	
0.116858	
0.119346	
0.137251	
0.136126	
0.0609055	
0.00704419	
0.0217562	
-0.0276554	
0.188137	
0.207391	
0.188821	
0.182164	
0.193931	
0.0989892	
0.10177	
0.183623	
0.105829	
-0.203624	
0.0854962	
0.0181583	
0.0718394	
0.0850952	
0.175308	
0.0259504	
-0.0987702	
-0.0684519	
0.0576462	
0.0592629	
0.0218172	
0.149024	
0.179626	
0.102275	
0.0962167	
0.185012	
0.143951	
0.0948923	
0.0378271	
0.0298331	
0.0622419	
0.0653027	
0.0141089	
0.142141	
0.147679	
-0.335602	
-0.293861	
-0.190578	
-0.151083	
-0.0886183	
0.1187	
0.110201	
0.130081	
0.16274	
0.150137	
0.126526	
0.182634	
-0.181685	
-0.19144	
-0.356372	
-0.326022	
0.0472936	
-0.087351	
0.0337836	
-0.323084	
-0.349104	
0.00228945	
-0.0124561	
0.00978295	
0.000345527	
-0.10848	
-0.0688663	
-0.0610626	
-0.0149472	
0.0175966	
-0.00162662	
0.0655838	
0.0857753	
0.108671	
-0.01124	
-0.0420859	
-0.0111067	
-0.029662	
-0.0103816	
0.033643	
0.110157	
0.111661	
0.0932891	
0.0246658	
0.00262145	
-0.0736258	
0.135782	
0.0971021	
0.0186111	
0.00525819	
0.191748	
-0.213092	
0.0628809	
-0.0206734	
-0.0324037	
0.210963	
0.191091	
0.203156	
-0.212134	
-0.165097	
-0.110054	
-0.00203294	
-0.122164	
-0.071959	
0.199125	
0.18445	
0.140206	
0.115845	
0.0668908	
-0.0638535	
-0.13434	
-0.0870912	
0.179009	
0.030128	
-0.383561	
-0.386338	
-0.384591	
-0.213328	
0.0603656	
-5.68656e-05	
-0.00369181	
0.0155023	
0.0150654	
0.0240396	
-0.0133421	
0.12461	
0.119864	
-0.139965	
-0.0714357	
-0.194227	
-0.128681	
-0.0478895	
-0.16291	
-0.0737537	
0.0424492	
-0.260514	
-0.243101	
0.137022	
0.0623182	
0.10772	
-0.0383803	
-0.00327349	
0.155728	
0.156886	
0.138535	
0.155476	
0.143129	
0.0762569	
0.0539278	
0.138498	
0.0463712	
0.196452	
0.186212	
-0.113901	
-0.24616	
0.181265	
0.17803	
0.18805	
0.01907	
0.189861	
0.201255	
0.187691	
0.197449	
0.206346	
0.191239	
-0.224914	
-0.253477	
0.20663	
0.188438	
0.194215	
0.181548	
-0.352894	
0.0383066	
0.0102001	
0.0238293	
0.189998	
0.172924	
0.157689	
0.17987	
0.0638048	
0.0659441	
0.0160606	
0.0192941	
0.132307	
-0.140894	
0.0294199	
0.0730384	
-0.0589549	
0.144783	
0.154086	
0.126363	
0.0930832	
0.202518	
0.036393	
0.0822945	
-0.0228586	
-0.00933817	
0.105236	
0.129553	
0.136615	
0.049075	
-0.0645493	
-0.0400283	
-0.0214491	
0.0195853	
0.0553909	
0.0850735	
-0.0257193	
0.0364009	
-0.0192915	
0.197152	
0.182255	
0.0665843	
-0.00657416	
0.0873629	
0.147675	
-0.00328473	
-0.116169	
-0.0063679	
-0.118452	
0.104187	
-0.0354834	
-0.0393676	
-0.024008	
0.122667	
0.0953985	
0.0917431	
0.0329726	
0.0942647	
0.0554742	
0.00425768	
0.00792238	
0.0280414	
0.0227011	
0.00744578	
-0.0390404	
-0.086049	
0.115406	
0.0374813	
0.035769	
0.0227167	
0.128756	
0.0261463	
-0.011825	
0.0679583	
0.0791663	
0.106149	
-0.340875	
-0.0102838	
-0.0343224	
0.0577014	
0.065688	
0.151559	
0.093327	
0.081816	
0.0734171	
-0.111517	
-0.0710082	
0.0376292	
0.0114801	
-0.0195398	
-0.0648426	
0.0971962	
0.0643655	
0.0573286	
0.0596021	
-0.0455402	
0.0285536	
-0.246731	
-0.230318	
-0.147016	
-0.133848	
0.144482	
-0.043967	
-0.166326	
0.129608	
-0.0917631	
0.026318	
-0.14441	
-0.216636	
-0.0681579	
-0.0360323	
0.0159223	
-0.0176012	
-0.098663	
-0.159025	
-0.0886073	
-0.0402575	
-0.0240348	
-0.00167912	
-0.147396	
0.131471	
0.00880517	
0.0357907	
0.0740897	
-0.105649	
-0.0712596	
-0.0847896	
-0.139456	
-0.213399	
0.121719	
0.10975	
-0.0208673	
0.0317037	
-0.112341	
-0.135073	
0.110891	
0.0369417	
0.068406	
-0.0301907	
-0.0128192	
-0.119797	
-0.0807634	
-0.308324	
-0.34556	
0.0493974	
-0.245625	
0.0449276	
0.00524253	
-0.140406	
0.134371	
-0.0992768	
-0.0881504	
-0.0119949	
-0.0576308	
0.183173	
0.0979856	
0.146333	
0.08284	
0.103147	
0.203214	
0.190933	
-0.0506294	
-0.0432494	
0.0477319	
0.0649816	
-0.341072	
-0.135838	
-0.165537	
-0.381479	
-0.0179071	
0.0502979	
-0.0309896	
-0.0408154	
-0.136977	
-0.111935	
0.0343558	
-0.0109022	
0.0030449	
0.194192	
0.178857	
0.0645153	
0.00266171	
-0.0368162	
0.0869798	
0.118119	
0.0389554	
0.0707543	
0.0253557	
-0.0547337	
0.189922	
0.20772	
0.204889	
0.193031	
-0.195376	
0.185561	
0.164295	
-0.00288153	
-0.0914443	
0.0180684	
0.156148	
0.175374	
0.154677	
0.174828	
0.162868	
0.140043	
0.0643411	
0.0496681	
-0.00164737	
0.00383768	
0.117538	
0.124291	
-0.130796	
-0.362316	
-0.339973	
0.0392615	
0.0271505	
0.19778	
0.179457	
0.212509	
0.196462	
0.149031	
0.116856	
-0.0727885	
0.108928	
0.140234	
0.125694	
0.142304	
0.143398	
0.161816	
0.156432	
0.136017	
-0.207106	
-0.229509	
0.177059	
0.162146	
0.0971763	
0.0565325	
0.143558	
0.142326	
0.203414	
0.190149	
-0.0331543	
-0.0922751	
-0.157397	
-0.0730095	
0.0162484	
0.102295	
0.0451238	
0.112597	
-0.0845027	
-0.0727574	
-0.251142	
0.114524	
0.110927	
0.167251	
0.191607	
-0.0717935	
0.0372187	
-0.0395398	
0.017091	
-0.0510716	
-0.013683	
0.0582279	
0.0599579	
0.109413	
-0.0270045	
-0.0276699	
-0.037524	
-0.0423099	
0.202965	
0.176154	
0.179314	
-0.102751	
-0.14998	
0.0645862	
-0.00901594	
0.0587845	
-0.0405305	
0.0617063	
0.0526297	
-0.0833256	
-0.0918357	
0.0766846	
-0.00480908	
0.00327449	
-0.296018	
-0.00867042	
0.0370504	
0.0772714	
0.0804398	
-0.156186	
-0.167959	
-0.236909	
-0.0183527	
0.019237	
0.164734	
0.152004	
0.00795375	
0.06536	
0.0871776	
0.0927096	
-0.00325695	
-0.0442521	
-0.0983239	
-0.0999784	
0.192735	
0.181852	
0.18609	
0.0600356	
0.0625188	
0.113749	
0.0571905	
-0.139774	
-0.136956	
-0.19399	
-0.0950529	
-0.087908	
-0.0159919	
0.11205	
0.113543	
0.0777868	
0.0389905	
-0.176389	
-0.177458	
-0.0103853	
-0.0296731	
-0.22326	
-0.196704	
-0.268546	
-0.118634	
0.17141	
0.156189	
0.130864	
0.190309	
0.209518	
-0.0739404	
-0.0132313	
-0.0682708	
0.0644382	
0.109239	
0.0240405	
0.0695989	
0.100164	
0.12741	
0.103941	
0.129921	
-0.0370588	
-0.022755	
0.142732	
0.141621	
-0.159858	
-0.133855	
-0.202669	
0.184537	
0.192071	
0.183827	
0.139987	
0.104633	
0.15692	
0.10881	
0.154243	
0.0763907	
0.134036	
0.130888	
0.165236	
-0.0557612	
-0.0456641	
-0.0479777	
0.137079	
-0.0566631	
-0.0761282	
-0.172504	
0.0555715	
0.0301155	
-0.240301	
-0.247288	
-0.0524927	
-0.0596414	
0.118491	
0.0662163	
-0.130719	
-0.296718	
-0.261407	
0.176469	
0.175151	
0.159502	
0.174455	
0.172489	
0.0473721	
0.0890231	
0.0313276	
0.0384442	
0.185987	
-0.0396538	
-0.201102	
-0.0410266	
0.0191006	
-0.0181923	
-0.0263195	
0.0146244	
-0.342648	
0.0520462	
0.0612852	
0.1417	
0.110861	
0.156798	
0.124376	
0.143361	
0.133599	
0.130242	
0.0252464	
0.056984	
0.0495978	
0.0764244	
0.130053	
0.108713	
0.0278276	
0.140271	
0.154522	
0.106621	
0.123877	
0.113657	
0.138073	
0.117436	
0.114622	
0.0520577	
0.0544727	
0.128645	
0.109867	
0.117996	
0.0723915	
-0.0641077	
-0.0661386	
-0.0479517	
-0.0151853	
-0.0958246	
-0.0307551	
0.0737421	
0.0554581	
0.102693	
0.157782	
0.123864	
0.137374	
0.0851062	
0.00996799	
-0.0112059	
0.0564221	
-0.0164633	
0.0163768	
-0.0296723	
0.0546604	
0.178979	
0.178752	
-0.319815	
-0.280242	
0.123093	
0.113631	
-0.00738033	
-0.0221412	
0.130706	
-0.0747227	
-0.0582959	
0.174025	
0.160249	
0.188852	
0.207318	
0.0597889	
0.0366574	
0.141205	
0.125099	
0.176914	
0.0189884	
0.0592787	
0.123461	
0.0777562	
0.113179	
0.0851317	
0.11173	
0.206491	
0.0306951	
0.030904	
0.180812	
0.0497608	
0.10362	
0.1022	
0.0301365	
0.00528187	
0.107433	
0.113773	
0.147305	
0.18534	
0.190515	
0.200098	
-0.206493	
0.122452	
0.0714834	
-0.0597347	
0.0306084	
0.0680221	
0.144812	
0.142601	
0.196266	
0.187799	
0.155136	
0.146405	
-0.203302	
-0.124582	
-0.090386	
-0.10705	
0.0832052	
0.0641528	
0.0710936	
-0.0903917	
-0.0617227	
-0.265522	
-0.0824664	
-0.0732712	
-0.131648	
-0.277332	
-0.216475	
-0.148041	
-0.136781	
-0.120499	
-0.102112	
0.14678	
0.134813	
0.0702324	
-0.0632137	
-0.052352	
-0.142561	
-0.142607	
-0.208917	
-0.205584	
-0.0540258	
-0.0721937	
-0.337569	
-0.0471792	
-0.19602	
0.0879154	
0.0920097	
0.0647792	
0.0667463	
0.170785	
0.170122	
-0.0513304	
-0.0939616	
-0.000721524	
-0.00397548	
0.0469055	
0.0273905	
0.043282	
0.0263605	
-0.198991	
-0.224776	
-0.164337	
-0.0231361	
0.134922	
0.122112	
0.0588942	
0.0384883	
-0.245063	
-0.226296	
-0.0874192	
-0.190561	
-0.232981	
-0.212112	
-0.264643	
0.200598	
0.18402	
-0.0265155	
-0.0828341	
-0.0608525	
-0.0550556	
-0.0812385	
-0.189531	
-0.173213	
0.0559859	
0.0118325	
-0.158391	
-0.0500817	
-0.256977	
-0.247779	
-0.150358	
-0.13079	
-0.138536	
-0.125426	
-0.150285	
-0.148676	
-0.104001	
-0.103196	
0.148037	
0.0750902	
0.132537	
0.11445	
0.11154	
0.115291	
0.0814496	
-0.234164	
-0.18918	
-0.195541	
-0.206245	
-0.198639	
-0.263449	
-0.272571	
-0.318777	
-0.177739	
-0.117265	
-0.215815	
-0.190005	
-0.288993	
-0.333323	
-0.33298	
-0.368492	
-0.0353617	
-0.0379793	
-0.0399888	
-0.0477217	
-0.211783	
-0.218501	
-0.170648	
-0.160626	
-0.128493	
-0.137568	
-0.0927445	
-0.308463	
-0.0346906	
-0.0196097	
-0.307966	
-0.265897	
-0.0137241	
-0.0235644	
-0.0285917	
-0.147263	
-0.143125	
-0.0243504	
-0.0332026	
-0.076963	
-0.0842597	
-0.173523	
-0.165204	
0.0888278	
0.0227395	
0.00270069	
-0.00586052	
0.0977161	
0.0497494	
-0.119759	
-0.0955798	
-0.120292	
-0.0184635	
-0.283499	
-0.329239	
-0.0993153	
-0.115341	
0.196232	
0.122652	
0.209321	
0.180581	
-0.377074	
-0.37075	
0.046166	
0.00284989	
-0.312995	
-0.278085	
-0.331744	
-0.2981	
-0.283891	
-0.294346	
-0.222471	
-0.192446	
-0.318669	
-0.359235	
-0.35841	
-0.352626	
-0.350335	
-0.182842	
-0.129087	
-0.103793	
-0.300376	
-0.327168	
-0.353974	
-0.243132	
0.188471	
0.157008	
0.209223	
0.19212	
-0.328516	
-0.300084	
-0.217793	
-0.205937	
-0.192509	
-0.00734566	
-0.00798148	
-0.29931	
-0.29884	
-0.334044	
-0.303624	
-0.326154	
-0.0596704	
-0.0704664	
-0.0828082	
-0.104709	
-0.215837	
-0.257291	
-0.216547	
-0.242427	
-0.271176	
-0.302957	
0.208472	
0.184013	
0.182216	
0.143081	
-0.250968	
-0.133912	
-0.122134	
-0.134907	
0.181255	
0.138197	
0.161033	
0.0808895	
-0.350773	
0.0810648	
0.125349	
0.114217	
0.135494	
-0.335891	
-0.354439	
-0.339114	
-0.342865	
-0.333826	
-0.340586	
-0.299169	
-0.110946	
-0.100941	
-0.099601	
-0.0996187	
0.137747	
0.195594	
0.134322	
0.193212	
0.12893	
0.119727	
0.122736	
0.0730804	
-0.254763	
-0.275657	
-0.25447	
-0.239902	
-0.344434	
-0.359194	
-0.345899	
-0.352302	
0.0772617	
0.136599	
0.0814707	
0.138156	
0.163515	
0.129876	
0.150764	
0.0929423	
0.11226	
0.0882622	
0.111505	
0.0875261	
0.173216	
0.201444	
0.204735	
0.209507	
0.220448	
0.141122	
0.230965	
0.235092	
0.236054	
0.244203	
0.248563	
0.254009	
0.228245	
0.190406	
0.168698	
0.0464487	
0.255759	
-0.00854749	
-0.00283506	
-0.0346378	
0.182426	
0.248545	
0.233818	
0.265267	
0.261343	
0.268303	
0.256106	
0.263139	
0.253841	
0.246477	
0.170036	
0.216899	
0.196014	
0.218734	
0.189444	
0.149742	
0.21726	
0.159135	
0.101847	
0.257095	
0.236156	
0.23489	
0.0944791	
-0.0442712	
0.24805	
-0.0271114	
-0.0421884	
0.0133374	
0.069887	
0.0420676	
-0.0358897	
0.039948	
0.00149696	
0.0708032	
-0.0550626	
0.0155864	
0.0644659	
0.0831563	
0.040168	
-0.00421566	
-0.0453898	
0.208262	
-0.029035	
0.176757	
0.105036	
0.109046	
0.0863486	
0.0469305	
0.053606	
0.0718534	
0.0807781	
0.0193215	
0.0585065	
0.012636	
0.0386814	
0.0199154	
0.031449	
0.031971	
0.0455002	
0.0864967	
0.0520591	
0.0565799	
0.0678824	
0.0885065	
0.0457277	
-0.0234535	
-0.0270658	
0.0207653	
-0.00279666	
-0.0086403	
0.0336084	
0.0637999	
0.0587756	
0.00430648	
-0.020463	
-0.0296983	
-0.0092345	
0.032191	
-0.0626089	
-0.0411619	
-0.0637838	
0.167222	
0.188275	
0.185208	
0.224376	
0.0111418	
0.100955	
0.154251	
0.161651	
0.190438	
0.000355608	
0.151067	
0.12856	
-0.0579457	
-0.0386647	
-0.0289528	
0.132944	
-0.0310736	
0.143259	
-0.00305387	
0.204161	
0.207775	
-0.0687041	
0.0768251	
0.0406777	
0.00290832	
0.0750876	
0.0164313	
0.246348	
0.230604	
0.22394	
-0.049956	
0.0835824	
0.218136	
-0.0132516	
-0.0163739	
0.208041	
0.229942	
0.00782453	
0.049264	
0.198791	
0.140997	
-0.0615415	
-0.0494596	
0.11033	
-0.0223634	
-0.0172721	
-0.00751656	
-0.00116909	
0.250857	
0.208855	
0.213785	
0.131065	
0.166135	
0.24397	
0.27327	
0.255421	
0.058946	
0.169101	
0.243707	
0.194671	
0.108253	
0.129622	
0.142008	
0.160234	
0.00628392	
0.119731	
0.0843893	
0.0980845	
0.0665539	
0.119653	
0.117504	
0.188811	
0.150324	
0.194458	
0.116526	
0.156043	
0.12894	
0.167873	
0.117726	
0.125115	
0.157062	
0.206473	
0.141351	
0.151739	
0.158903	
0.158578	
0.141381	
0.265966	
0.268003	
0.277869	
0.265115	
0.281622	
0.249934	
0.116033	
-0.024352	
0.0226954	
0.0279377	
0.1241	
0.232718	
0.179455	
0.111195	
0.183855	
0.171089	
0.12448	
0.237139	
0.270503	
0.275693	
0.230968	
0.249976	
0.259779	
0.278205	
0.26211	
0.252494	
0.277532	
0.262089	
0.261552	
0.269779	
0.244191	
0.242185	
0.268415	
0.268119	
0.27429	
0.104333	
0.278713	
0.22578	
0.245957	
0.200736	
0.226766	
0.26888	
0.270177	
0.274265	
0.204076	
0.196235	
0.224362	
0.208686	
0.217782	
0.220058	
0.195321	
-0.0462572	
-0.051453	
0.239058	
0.226572	
0.251445	
0.229275	
0.201475	
0.182213	
0.201045	
0.257949	
0.233246	
0.233107	
0.240547	
0.16618	
0.209327	
0.0843408	
0.261474	
0.249258	
0.0934284	
0.185596	
0.162589	
0.231811	
0.124986	
0.130292	
0.206526	
0.147545	
0.273352	
0.133855	
0.131716	
0.159828	
0.222777	
0.194394	
0.181558	
0.266826	
0.0487723	
0.108066	
0.0422911	
0.0777346	
0.19464	
0.186108	
0.155308	
0.18436	
-0.0210088	
0.25817	
0.240791	
-0.00432625	
0.00553037	
-0.01924	
0.000952007	
0.117119	
0.0896252	
0.15867	
0.165226	
0.188521	
0.152192	
0.189441	
0.00698733	
0.15973	
0.132404	
0.174279	
-0.0382556	
-0.0516586	
-0.0428596	
-0.0510672	
0.115896	
0.112541	
0.142702	
0.132792	
0.151167	
0.0872616	
0.0952312	
0.199847	
0.178127	
0.202064	
0.213689	
0.155644	
0.102907	
0.0907716	
0.0996666	
0.072275	
0.280704	
0.172965	
0.200743	
0.154144	
0.171401	
0.119576	
0.146821	
0.115953	
0.155998	
0.141466	
0.0162385	
0.205847	
0.213917	
0.17959	
0.239404	
0.238029	
0.150533	
0.176888	
0.125199	
0.128824	
-0.0539852	
-0.0387247	
-0.0629955	
-0.0616226	
0.102777	
0.208396	
0.240436	
0.211058	
0.198536	
0.209833	
0.170787	
0.218278	
0.215777	
0.214388	
0.204747	
0.0487199	
0.106934	
0.265266	
0.241917	
0.26775	
0.204134	
0.194473	
0.265135	
0.266406	
0.232165	
0.24511	
0.260081	
0.20372	
0.230506	
0.17415	
0.17698	
0.186562	
0.249186	
0.236316	
0.250168	
0.223317	
0.264264	
0.231306	
0.251342	
0.00159116	
0.186239	
0.197469	
0.165915	
0.237714	
0.239698	
0.232046	
0.226897	
0.245671	
0.256089	
0.106956	
0.135467	
0.124174	
0.140608	
-0.0532765	
0.217176	
0.183179	
0.186961	
0.117156	
0.149487	
0.153202	
0.173964	
0.156654	
0.165556	
-0.0440654	
-0.0328521	
-0.0479979	
-0.0303923	
0.244811	
0.207291	
0.244876	
0.210846	
0.0852244	
0.216551	
0.223859	
0.221825	
0.249876	
0.232578	
0.260841	
0.150074	
0.135759	
0.218484	
0.214342	
0.222228	
0.182263	
0.185887	
0.0243068	
0.069063	
0.26605	
0.227205	
-0.020212	
0.192499	
0.219766	
0.227093	
0.228344	
0.210635	
0.200474	
0.198359	
0.258039	
0.26044	
0.253272	
0.151838	
0.262075	
0.266801	
0.0602481	
0.0840867	
0.0834691	
0.223686	
0.221072	
0.221886	
0.26611	
-0.0674534	
-0.0615542	
0.256467	
0.251861	
0.244027	
0.222061	
-0.0622054	
-0.0565962	
0.166686	
0.153991	
0.117365	
0.119159	
0.222635	
0.0761129	
0.0906055	
0.152992	
0.15371	
0.170811	
0.169121	
0.265668	
0.258835	
0.00220057	
0.0172918	
0.0778202	
0.0437678	
0.106196	
0.108025	
0.136699	
0.180138	
0.177922	
0.166488	
0.160229	
0.274336	
0.26134	
0.237288	
0.252773	
0.266958	
0.0862282	
0.0800145	
0.206626	
0.205278	
0.188759	
0.188467	
0.02724	
0.0481141	
0.265893	
0.26677	
0.209345	
0.206589	
0.147061	
0.109062	
0.156481	
0.102135	
0.222974	
0.229766	
0.205109	
0.206537	
0.211933	
0.210202	
0.207142	
0.1914	
0.266612	
0.268111	
0.252032	
0.170372	
0.171335	
0.200981	
0.197318	
0.164706	
0.170974	
0.236559	
0.242339	
0.161303	
0.178129	
0.261278	
0.265364	
0.186647	
0.226035	
0.234597	
0.217786	
0.188127	
0.226025	
0.27139	
0.26448	
0.242041	
0.242048	
0.234344	
0.242859	
0.131092	
0.188251	
0.127306	
0.264527	
0.275215	
0.261141	
0.25544	
0.0997879	
0.0720085	
0.0748613	
0.0571705	
0.261686	
0.256066	
0.266531	
0.273346	
0.00745862	
0.256868	
0.266419	
0.263978	
0.256585	
0.127775	
0.166192	
0.267154	
0.275153	
0.265683	
0.119387	
0.131725	
0.137315	
0.145747	
0.195112	
0.191607	
0.186291	
0.189457	
0.269659	
0.165962	
0.163273	
0.213448	
0.21366	
-0.0034637	
-0.0128531	
0.248444	
0.263045	
0.262904	
0.195287	
-0.00825204	
0.233575	
0.229616	
0.238933	
0.240781	
0.179942	
0.269929	
0.268173	
0.0410105	
0.0116348	
0.185373	
-0.0656207	
-0.0588131	
-0.0650029	
0.17618	
0.0655426	
0.0265293	
0.0505473	
0.0255093	
0.240324	
0.126093	
0.165788	
0.263214	
0.248515	
0.26391	
0.262573	
0.26615	
-0.00365499	
-0.0246139	
0.237401	
0.222187	
0.266809	
0.257708	
0.0215081	
0.183092	
0.168372	
0.137063	
0.204826	
0.175465	
0.225912	
0.217616	
0.130164	
0.123092	
0.263868	
0.273629	
0.0654075	
0.0541564	
0.24719	
0.255034	
0.267757	
0.267317	
0.273028	
0.265904	
-0.0588925	
-0.0614692	
0.0988219	
0.0986169	
0.027019	
0.0190476	
0.0103597	
0.24499	
0.24621	
0.219761	
0.230372	
0.213514	
0.220173	
0.273161	
0.197681	
0.259466	
0.243685	
0.238343	
0.125321	
0.069347	
0.27077	
0.262282	
-0.0361743	
-0.00530689	
0.011862	
0.0666608	
0.213668	
0.143404	
0.247946	
0.241296	
0.0620955	
0.0850534	
0.0385063	
0.24569	
0.160791	
0.164442	
0.254885	
0.253103	
0.092632	
0.0735229	
-0.0139682	
-0.0158041	
0.196805	
0.200386	
0.183816	
0.192533	
0.241354	
0.207063	
0.182874	
0.226464	
0.219326	
0.199361	
0.00975285	
0.057079	
0.0507524	
0.132142	
0.0747158	
0.1838	
0.213507	
0.261215	
0.10243	
0.102916	
0.210736	
0.199352	
0.251698	
0.128687	
0.130227	
0.0988454	
0.0351068	
0.017241	
0.0445584	
0.0164265	
0.0428692	
0.164647	
0.195342	
0.192173	
0.219868	
0.0727176	
0.0571156	
0.095371	
0.079521	
0.164154	
0.163063	
0.175848	
0.173136	
0.163902	
0.178921	
0.178893	
-0.0688179	
-0.0234064	
-0.0630203	
-0.0485595	
-0.0274884	
0.132319	
0.135624	
-0.0643676	
0.110888	
0.126074	
0.097103	
0.129062	
0.116814	
0.0328683	
-0.0388683	
0.0781209	
0.138464	
-0.0689041	
0.111892	
-0.0628128	
-0.0690951	
-0.0681691	
0.0349755	
0.0709081	
0.26323	
0.240288	
0.267167	
0.242284	
0.268808	
0.268803	
0.138009	
0.090753	
0.274865	
0.262554	
0.149235	
0.193512	
0.144147	
0.192513	
0.0449765	
0.0606882	
0.213306	
0.0933427	
0.0872342	
-0.0649919	
0.173196	
0.0891784	
0.0892428	
0.054416	
0.180347	
0.258633	
0.268596	
0.19336	
0.0180716	
0.0117345	
0.165691	
0.196032	
0.228516	
0.219591	
-0.0519476	
-0.03784	
0.268558	
0.263916	
0.249945	
-0.0358252	
0.266196	
0.184727	
0.18721	
0.203115	
0.192915	
0.129831	
0.0826224	
0.268805	
0.255926	
0.167023	
0.169984	
0.234137	
0.245541	
0.215014	
0.0559583	
0.0676992	
0.234073	
0.258888	
0.232608	
0.0811698	
0.204797	
0.20907	
0.125349	
0.217225	
0.248269	
-0.0690898	
0.219948	
0.217555	
0.210179	
0.264556	
0.248605	
0.141643	
0.266866	
0.139554	
0.167257	
0.142544	
0.144897	
0.117866	
0.275686	
0.249072	
0.265276	
0.276264	
0.265589	
0.265596	
0.248054	
0.25142	
0.245305	
0.24221	
0.202737	
0.219976	
0.255368	
0.249973	
0.0772748	
0.0483631	
0.240942	
0.254327	
0.270734	
0.251026	
0.270149	
0.0618333	
0.0722411	
0.0697118	
0.0954065	
0.267665	
0.261745	
0.202855	
0.223773	
0.221204	
0.142894	
0.143339	
-0.0661646	
-0.0632545	
0.132321	
0.117854	
0.115099	
0.113238	
0.110022	
0.109789	
0.0850016	
0.259506	
-0.0534698	
-0.0541667	
-0.0686209	
-0.0702779	
0.211937	
0.161838	
0.160855	
0.248361	
-0.0709256	
-0.0660794	
-0.0486621	
-0.0524516	
-0.0676315	
-0.0682862	
0.21535	
0.217133	
0.205812	
0.202653	
-0.0296157	
-0.0121751	
-0.0366123	
-0.020936	
0.120149	
0.12333	
0.0988321	
0.194767	
0.22005	
0.252341	
0.240054	
0.247648	
0.250734	
0.250838	
0.237915	
0.225513	
0.233821	
0.206242	
0.200778	
0.223245	
0.218781	
0.105373	
0.0951107	
0.105308	
0.0414801	
-0.00338525	
0.100463	
0.0682461	
-0.0579147	
-0.0398186	
-0.0651825	
0.0755807	
0.173908	
0.122306	
0.119297	
0.0585701	
0.0445338	
-0.0235762	
-0.0439148	
0.226652	
0.225942	
0.0597543	
0.10553	
0.091652	
0.250263	
0.255828	
0.239536	
0.245299	
0.260259	
0.229147	
0.226903	
0.0844725	
0.071809	
0.121807	
0.102783	
0.130732	
0.121194	
-0.00232618	
0.0231347	
0.102399	
0.106773	
0.173642	
0.176503	
0.123942	
0.113877	
0.0893377	
0.0863121	
0.176632	
0.173815	
0.161499	
0.125921	
0.160467	
0.167043	
0.23436	
0.247267	
0.161938	
0.152188	
0.125035	
0.166892	
0.190644	
-0.020096	
0.0289634	
-0.0284563	
0.248867	
0.248345	
0.231264	
0.216597	
0.184584	
0.163524	
0.180744	
0.179268	
-0.0363956	
-0.0420392	
-0.0558307	
-0.0584105	
0.0460029	
0.0721991	
0.0847652	
0.168614	
0.14533	
0.181755	
0.187307	
0.207155	
0.185902	
0.253081	
0.249169	
0.22495	
0.233547	
0.233325	
0.233793	
-0.0478123	
-0.0535532	
-0.0348818	
-0.0399848	
0.177757	
0.15697	
0.167861	
0.167039	
0.0341777	
0.0953371	
0.0934728	
0.0851886	
0.0897759	
0.24448	
0.257351	
0.0583886	
0.0283507	
0.262817	
0.261547	
0.248737	
0.264067	
0.260408	
0.262892	
0.0172102	
0.238928	
0.237399	
0.198039	
0.0939539	
0.0837279	
0.0700192	
0.0739399	
0.143093	
0.147703	
0.229191	
0.245547	
0.255556	
0.258117	
0.176323	
0.1715	
0.0849283	
0.0938916	
0.233692	
0.224996	
0.0610874	
0.0782357	
0.126947	
0.107456	
0.129514	
0.150075	
0.107379	
0.118086	
0.119547	
0.0820649	
0.0157097	
0.0428918	
0.0985428	
0.0804039	
0.251784	
0.26808	
-0.0157625	
0.140078	
0.113083	
0.261243	
0.259613	
0.0621533	
0.0700162	
0.102383	
0.0779649	
0.0839018	
0.0870062	
0.0271595	
0.0576297	
0.0872036	
0.0755733	
0.136204	
0.126288	
0.0748006	
0.0508199	
0.0894336	
0.061264	
0.22369	
0.225538	
0.167943	
0.182655	
0.14783	
0.138513	
0.0414643	
0.0106939	
-0.0476913	
0.00483427	
0.020764	
0.0201251	
-0.0066434	
0.165042	
-0.0203619	
0.136098	
0.13787	
-0.0163786	
-0.0434148	
-0.0341356	
-0.0428339	
0.110587	
0.118159	
0.042259	
0.0429412	
0.0390761	
0.188945	
0.161535	
0.263775	
0.259441	
0.105125	
0.08569	
0.0761375	
0.0738845	
0.0863826	
0.126204	
0.123019	
0.148412	
0.147911	
0.0626114	
0.0654527	
0.0189718	
0.00946209	
0.0823183	
0.058802	
0.0618389	
0.0387302	
0.0993472	
0.101259	
0.0894826	
0.0829757	
0.0915124	
0.0857755	
0.0531124	
0.270569	
0.26854	
0.264163	
0.269351	
0.0997566	
0.103818	
0.0917968	
0.0973939	
0.0956238	
0.0983837	
0.0954562	
-0.0158795	
0.00124087	
-0.00710988	
0.00942055	
0.0267247	
0.0380316	
0.0180383	
0.00780016	
-0.0121101	
-0.00364062	
0.00421484	
0.0337939	
0.0198216	
0.0242585	
0.0124051	
0.00400888	
0.0203038	
0.00275929	
0.0122002	
-0.010413	
-0.0177095	
-0.0136453	
-0.00474167	
0.0271204	
0.0249906	
0.0186367	
0.0106616	
-0.0146197	
-0.0100002	
-0.00419196	
0.00247711	
0.0332795	
-0.0633669	
-0.0489339	
0.0046468	
0.0328271	
-0.0255867	
-0.0309338	
-0.0088239	
0.0298301	
0.0235089	
0.00308296	
-0.0516143	
0.00226973	
-0.0287824	
-0.072567	
-0.0549119	
0.031103	
0.0156519	
-0.00480205	
-0.0665476	
-0.041693	
-0.0174894	
0.0245075	
0.135012	
0.173108	
0.171544	
0.115335	
0.140957	
-0.0288504	
0.0724116	
0.140506	
0.0535203	
0.0948997	
0.127441	
0.0464257	
0.0375794	
0.117427	
0.118533	
0.0930758	
0.0941766	
0.0773744	
0.102735	
0.125837	
0.171863	
0.174068	
-0.0603432	
-0.0661711	
-0.0511425	
-0.0513686	
0.00141983	
0.0226616	
0.0109955	
0.16361	
0.149253	
0.153494	
0.0453908	
0.16126	
0.152895	
0.169788	
0.170883	
0.167457	
0.161438	
0.168435	
0.169238	
-0.0553545	
-0.0418811	
0.143471	
0.149237	
0.13457	
0.158964	
0.157982	
0.163871	
0.157152	
0.145965	
0.145509	
0.168937	
0.154174	
0.172894	
0.174696	
0.102613	
0.108674	
0.127873	
0.173467	
0.174785	
-0.0391208	
-0.0218896	
0.00888136	
-0.00424716	
-0.0279059	
-0.00596158	
-0.0260508	
0.0562261	
0.0355501	
0.0781161	
0.074346	
0.117806	
0.135494	
0.111637	
0.130619	
0.101675	
0.16017	
0.164105	
0.126958	
0.0932496	
-0.151296	
-0.030123	
0.0319704	
0.0663823	
-0.0250604	
0.0337275	
0.0457924	
-0.0293397	
0.059871	
0.0336453	
-0.0022125	
-0.00511268	
0.00825404	
0.0351218	
0.044611	
0.13453	
0.155557	
-0.150024	
-0.171793	
-0.125722	
-0.129177	
-0.109431	
-0.091837	
-0.0825171	
0.0845974	
0.113059	
0.0923119	
-0.0660313	
-0.0773745	
0.127417	
0.118876	
0.139115	
0.127512	
0.128892	
0.138553	
0.131918	
0.124252	
-0.159269	
-0.16618	
0.0722008	
0.0869807	
0.103124	
0.106099	
0.0830764	
0.0870814	
0.110365	
0.115611	
0.152141	
0.150898	
0.158508	
0.16287	
0.0464932	
0.0993389	
0.0721976	
0.163355	
0.158284	
-0.144309	
-0.143097	
-0.118277	
-0.113162	
-0.108756	
-0.142974	
-0.121603	
-0.0183359	
-0.064002	
-0.0356841	
-0.0656633	
0.0375635	
0.0696834	
0.0160918	
0.0696143	
0.0437106	
-0.0508603	
0.0705951	
0.165492	
0.217876	
0.212091	
0.211247	
0.191064	
0.206704	
0.195823	
0.185491	
0.207473	
0.200819	
0.204869	
0.191862	
0.199726	
0.195047	
0.17253	
0.155093	
0.173967	
0.183705	
0.179179	
0.213099	
0.174751	
0.204969	
0.20369	
0.189721	
0.209741	
0.197172	
0.205565	
0.091547	
0.0979756	
-0.0952745	
-0.0179287	
0.201918	
0.170628	
0.212704	
0.156522	
0.191739	
0.0942174	
0.172704	
0.183289	
0.212508	
-0.20766	
0.175358	
0.207565	
0.187982	
0.194449	
0.110349	
0.10272	
0.147379	
0.100401	
0.131372	
-0.00487204	
-0.360363	
0.0180756	
0.117236	
0.124956	
-0.0710179	
-0.0282366	
0.0194837	
0.0494416	
-0.247261	
-0.327254	
-0.337706	
-0.343645	
-0.196226	
-0.00302814	
-0.0119933	
-0.232761	
-0.267358	
-0.150318	
-0.00350507	
-0.259943	
-0.293267	
-0.331034	
-0.332168	
-0.16528	
0.00917229	
-0.0861647	
-0.345052	
-0.343198	
-0.0819315	
0.175386	
0.0897586	
0.170161	
-0.346761	
-0.0479223	
0.140347	
-0.0346065	
-0.00654209	
0.152867	
-0.245424	
-0.0269391	
-0.0894714	
-0.132825	
-0.206481	
-0.0644846	
0.157226	
-0.0952807	
0.0959133	
-0.0989101	
0.11748	
0.0841852	
0.0282945	
0.0703964	
-0.24127	
-0.223886	
0.0810795	
-0.0056534	
-0.10265	
-0.0386231	
-0.136456	
-0.101817	
-0.251712	
-0.0753023	
-0.0773858	
-0.158962	
0.151777	
-0.152936	
-0.325097	
0.124598	
-0.321101	
-0.318848	
-0.00266259	
0.0553759	
-0.317082	
-0.123663	
-0.180079	
-0.138547	
0.197242	
0.110752	
0.12032	
0.119983	
0.0510646	
0.0517797	
-0.00935256	
0.041608	
-0.214859	