<VTKFile type="UnstructuredGrid" version="0.1" byte_order="LittleEndian">
	<UnstructuredGrid>
		<Piece NumberOfPoints="3959" NumberOfCells="7450">
			<CellData Scalars="scalars">
				<DataArray type="Float64" Name="Doublet Strengths" NumberOfComponents="1" Format="ascii">
-0.0704148	
-0.0552018	
0.00101221	
0.0311732	
-0.03074	
-0.0404009	
-0.0166791	
0.0262442	
0.018393	
-0.00367963	
-0.0627501	
0.00338591	
-0.0271027	
-0.0689517	
-0.0523226	
0.0313878	
0.018981	
-0.000538237	
-0.0589601	
-0.035651	
-0.0125455	
0.0265777	
0.134071	
0.171497	
0.169849	
0.112751	
0.132856	
-0.106911	
0.0329418	
0.120291	
0.0324042	
0.0837368	
0.106703	
0.0109273	
-0.00431791	
0.0893198	
0.09442	
0.0629742	
0.0614657	
0.0602333	
0.0814299	
0.106061	
0.163025	
0.170453	
-0.0923753	
-0.103515	
-0.10093	
-0.144365	
-0.0558672	
-0.0313839	
-0.0190201	
0.152439	
0.133562	
0.138234	
0.000727579	
0.150361	
0.146608	
0.159296	
0.162466	
0.156016	
0.16034	
0.158003	
0.16113	
-0.123878	
-0.168152	
0.123386	
0.130033	
0.111483	
0.14368	
0.142936	
0.156669	
0.148911	
0.13185	
0.133161	
0.165762	
0.151677	
0.170648	
0.17077	
0.0872676	
0.100718	
0.121249	
0.171836	
0.171295	
-0.0857346	
-0.0870129	
-0.0387347	
-0.04122	
-0.0614474	
-0.0513678	
-0.0809389	
0.0314341	
0.00527034	
0.0523864	
0.0433749	
0.0978886	
0.121201	
0.0952664	
0.117852	
0.105028	
0.16334	
0.167045	
0.129061	
0.100559	
-0.0767434	
0.00783183	
0.0556379	
0.0866906	
-0.00537452	
0.0488555	
0.066376	
0.000240561	
0.0827681	
0.0611308	
0.0294091	
0.0239613	
0.0246156	
0.0548093	
0.0642912	
0.144444	
0.160591	
-0.103605	
-0.0828485	
-0.0970012	
-0.0951091	
-0.0643452	
-0.0401226	
-0.0550298	
0.100807	
0.12516	
0.108146	
-0.0233186	
-0.0375869	
0.135821	
0.126253	
0.148443	
0.139651	
0.140286	
0.142406	
0.141185	
0.135703	
-0.0940868	
-0.0434352	
0.092363	
0.106363	
0.118721	
0.121859	
0.0977247	
0.1001	
0.122234	
0.124923	
0.154724	
0.155518	
0.16358	
0.166179	
0.0575784	
0.108256	
0.0805008	
0.166458	
0.163148	
-0.0824125	
-0.0913204	
-0.0637682	
-0.0826752	
-0.0744827	
-0.0996038	
-0.0789612	
0.00619025	
-0.0304208	
-0.0125253	
-0.0374764	
0.0537216	
0.0828242	
0.0368075	
0.0842669	
-0.00600174	
-0.176072	
0.0290691	
0.167801	
0.215994	
0.207794	
0.207929	
0.191073	
0.203256	
0.193251	
0.184041	
0.205763	
0.199637	
0.200506	
0.183301	
0.194445	
0.190684	
0.170032	
0.163097	
0.171374	
0.180111	
0.175688	
0.208614	
0.175229	
0.198118	
0.198687	
0.184621	
0.203908	
0.193493	
0.205116	
0.115504	
0.108121	
-0.0321921	
0.0113962	
0.196393	
0.176137	
0.210746	
0.165303	
0.187666	
0.0583998	
0.178355	
0.18478	
0.207928	
-0.250162	
0.178567	
0.202444	
0.190146	
0.195215	
0.133399	
0.126102	
0.158009	
0.124142	
0.1457	
-0.0728228	
-0.275541	
-0.0410104	
0.0881387	
0.0964254	
-0.22917	
-0.109045	
-0.0372488	
-0.000481546	
-0.363061	
-0.176396	
-0.220304	
-0.37291	
-0.218086	
-0.0283158	
-0.083302	
-0.298607	
-0.340717	
-0.200823	
-0.0695635	
-0.311972	
-0.349043	
-0.381176	
-0.388249	
-0.302696	
-0.0515224	
-0.141435	
-0.381855	
-0.371446	
-0.0969332	
0.163377	
0.10304	
0.153199	
-0.224782	
0.0100909	
0.116975	
0.0258891	
0.0197704	
0.129985	
-0.0850721	
0.0396403	
-0.105852	
-0.15153	
-0.295822	
-0.0338651	
0.135753	
-0.0525785	
0.0618502	
-0.0141261	
0.0859456	
0.0435986	
0.0264677	
0.0696154	
-0.280503	
-0.257861	
0.0557728	
0.0367695	
-0.0186625	
0.0273266	
-0.0789259	
-0.0248741	
-0.284884	
-0.126603	
-0.125006	
-0.0802068	
0.142602	
-0.0641676	
-0.151213	
0.102029	
-0.168322	
-0.176387	
0.0496777	
0.0830059	
-0.224468	
-0.139452	
-0.19493	
-0.0410343	
0.186699	
0.085838	
0.0891473	
0.0884565	
0.00911381	
0.0091329	
-0.0214108	
0.0309766	
-0.298863	
-0.203056	
0.153782	
0.13034	
0.128141	
0.139716	
-0.0984981	
-0.0750912	
-0.0767492	
-0.0311152	
-0.020192	
0.00857785	
0.164537	
0.0530219	
0.0836189	
0.172942	
0.168251	
0.0780754	
-0.245226	
0.189355	
0.11015	
-0.0546186	
-0.1227	
0.178931	
0.199586	
0.0566576	
0.153581	
-0.276087	
-0.190456	
0.114904	
0.111529	
0.125656	
0.0249511	
0.194263	
0.170823	
0.151273	
0.154295	
0.138281	
0.161771	
0.185809	
0.181864	
0.160846	
-0.0310839	
0.0385028	
0.146622	
0.162547	
0.147556	
0.179607	
0.189514	
0.0577144	
0.170316	
0.0820432	
0.0623771	
0.0536081	
0.0617695	
0.120562	
0.187283	
0.10689	
0.0807598	
0.0555112	
0.0627867	
0.116981	
0.119435	
0.137391	
0.136271	
0.0611537	
0.00737198	
0.0220649	
-0.027453	
0.188117	
0.207325	
0.188749	
0.18205	
0.193925	
0.0990149	
0.101803	
0.183557	
0.105711	
-0.203251	
0.0857036	
0.0185143	
0.0718095	
0.0850708	
0.175262	
0.0260905	
-0.0992973	
-0.0690721	
0.0578849	
0.0594961	
0.0221214	
0.149143	
0.179537	
0.102163	
0.0960828	
0.184995	
0.143912	
0.0948281	
0.0377279	
0.029729	
0.0621368	
0.0651964	
0.0139968	
0.141801	
0.147371	
-0.335756	
-0.293979	
-0.190793	
-0.151304	
-0.0888207	
0.118212	
0.10967	
0.129635	
0.162535	
0.149821	
0.126107	
0.182544	
-0.181637	
-0.191341	
-0.356453	
-0.326222	
0.0473376	
-0.0873382	
0.0337757	
-0.323337	
-0.349304	
0.00244153	
-0.0122983	
0.00992972	
0.000498734	
-0.108506	
-0.0688676	
-0.0611113	
-0.0144996	
0.0179596	
-0.00184208	
0.0653557	
0.0855975	
0.108796	
-0.0110589	
-0.0418999	
-0.0109342	
-0.0292921	
-0.0100309	
0.0339363	
0.110348	
0.111607	
0.0931985	
0.0245556	
0.0025237	
-0.0732135	
0.135702	
0.0970084	
0.0186987	
0.00535433	
0.191667	
-0.212621	
0.0627491	
-0.0205382	
-0.0322799	
0.210986	
0.19099	
0.203066	
-0.212131	
-0.165075	
-0.110205	
-0.0017043	
-0.121693	
-0.0715457	
0.199056	
0.184392	
0.140139	
0.115801	
0.0668916	
-0.0634385	
-0.133968	
-0.0867757	
0.17904	
0.030038	
-0.383415	
-0.38625	
-0.384503	
-0.213381	
0.0606085	
0.000265795	
-0.00336848	
0.0156261	
0.0152113	
0.0239902	
-0.0134274	
0.124689	
0.119983	
-0.13939	
-0.0709496	
-0.193656	
-0.128793	
-0.0480206	
-0.162957	
-0.0738772	
0.0427755	
-0.260739	
-0.243326	
0.137	
0.062346	
0.107712	
-0.0385598	
-0.00287144	
0.155469	
0.15664	
0.138216	
0.155222	
0.143078	
0.0762504	
0.0537957	
0.138376	
0.0462542	
0.196431	
0.186188	
-0.113561	
-0.245786	
0.18127	
0.177983	
0.188029	
0.0193777	
0.189799	
0.201183	
0.187661	
0.197423	
0.206334	
0.191212	
-0.225052	
-0.25369	
0.206597	
0.18839	
0.194139	
0.181467	
-0.352972	
0.0378181	
0.00972942	
0.0233841	
0.189983	
0.172914	
0.157772	
0.179904	
0.0634648	
0.0655702	
0.015704	
0.0189	
0.13246	
-0.140439	
0.0294414	
0.0730221	
-0.058873	
0.144905	
0.154189	
0.126297	
0.0930064	
0.202398	
0.0366144	
0.0824577	
-0.022595	
-0.00910188	
0.104709	
0.129156	
0.136569	
0.0491125	
-0.0645082	
-0.0400463	
-0.021427	
0.0194938	
0.0554226	
0.0850649	
-0.0256741	
0.0364016	
-0.01934	
0.197051	
0.182162	
0.0665774	
-0.00675719	
0.0872359	
0.147801	
-0.00345368	
-0.11639	
-0.00651199	
-0.11866	
0.104082	
-0.0353474	
-0.0392064	
-0.0238485	
0.122785	
0.0949898	
0.0913584	
0.0330485	
0.0943008	
0.0555738	
0.00441994	
0.00807223	
0.028181	
0.0230692	
0.00782641	
-0.0385769	
-0.085533	
0.115496	
0.0376018	
0.0359115	
0.0228747	
0.128934	
0.0264601	
-0.0120081	
0.0678113	
0.0790275	
0.106027	
-0.340958	
-0.00989281	
-0.0338956	
0.0579882	
0.0659622	
0.151269	
0.092873	
0.0813178	
0.0729653	
-0.111183	
-0.0706996	
0.0375281	
0.0113574	
-0.0196611	
-0.0649664	
0.0971058	
0.0646358	
0.0576009	
0.059959	
-0.0455229	
0.0287294	
-0.24667	
-0.230303	
-0.147054	
-0.133938	
0.144143	
-0.0441629	
-0.166549	
0.129485	
-0.0914507	
0.0266653	
-0.143902	
-0.216061	
-0.067794	
-0.0356767	
0.0162271	
-0.0172476	
-0.0982161	
-0.158544	
-0.0881954	
-0.0399023	
-0.0235952	
-0.00128266	
-0.147091	
0.131433	
0.00907581	
0.0360183	
0.0743105	
-0.105514	
-0.0711323	
-0.0846135	
-0.13917	
-0.213072	
0.121695	
0.109723	
-0.0204099	
0.0320785	
-0.111867	
-0.134568	
0.110843	
0.0372102	
0.0686325	
-0.0298453	
-0.0124948	
-0.119337	
-0.0803534	
-0.308281	
-0.345448	
0.0487395	
-0.245401	
0.0451703	
0.00533609	
-0.140102	
0.134302	
-0.0988308	
-0.0876595	
-0.0120845	
-0.0576461	
0.183138	
0.0974842	
0.145991	
0.0822972	
0.102632	
0.203134	
0.190861	
-0.050795	
-0.0433681	
0.0476283	
0.0648946	
-0.340509	
-0.135396	
-0.165065	
-0.381263	
-0.0177703	
0.05036	
-0.0309908	
-0.0408324	
-0.136976	
-0.11196	
0.0343655	
-0.0107419	
0.00319502	
0.194119	
0.178791	
0.0648333	
0.00311814	
-0.0363229	
0.0868503	
0.118024	
0.0393091	
0.0709653	
0.0256516	
-0.0543315	
0.189909	
0.207715	
0.204789	
0.192935	
-0.194702	
0.185622	
0.164403	
-0.00257856	
-0.0911587	
0.0179088	
0.156249	
0.175426	
0.154795	
0.174884	
0.162923	
0.140186	
0.0645692	
0.0499284	
-0.00130496	
0.00416454	
0.117665	
0.124389	
-0.130197	
-0.362338	
-0.340006	
0.0393823	
0.0272874	
0.197717	
0.179404	
0.212534	
0.196474	
0.148999	
0.116805	
-0.0724246	
0.108793	
0.140104	
0.12585	
0.142365	
0.143525	
0.161889	
0.156513	
0.136178	
-0.206609	
-0.228978	
0.177094	
0.162225	
0.0973611	
0.0567829	
0.143682	
0.142454	
0.203329	
0.190075	
-0.0331404	
-0.0922253	
-0.157365	
-0.0724482	
0.0161261	
0.102211	
0.0450135	
0.112794	
-0.0848903	
-0.0731259	
-0.251131	
0.114605	
0.111033	
0.167188	
0.191519	
-0.0717696	
0.0374301	
-0.0392656	
0.0173282	
-0.0507789	
-0.0136527	
0.0582136	
0.059958	
0.109365	
-0.0266287	
-0.0272941	
-0.0376488	
-0.0424268	
0.202919	
0.176078	
0.179279	
-0.102893	
-0.150093	
0.064674	
-0.00883236	
0.0589515	
-0.040281	
0.0619395	
0.0528765	
-0.0829441	
-0.0915039	
0.0765463	
-0.00442247	
0.00361608	
-0.295789	
-0.00818955	
0.0374406	
0.0774397	
0.0806057	
-0.156389	
-0.168143	
-0.237064	
-0.0184621	
0.0195741	
0.164822	
0.152118	
0.00824937	
0.0655827	
0.087261	
0.0927461	
-0.00318801	
-0.0441042	
-0.0981194	
-0.0997508	
0.192721	
0.181732	
0.186005	
0.060135	
0.0626511	
0.113793	
0.0573687	
-0.139262	
-0.136445	
-0.193432	
-0.0945865	
-0.0874549	
-0.0156199	
0.112107	
0.113573	
0.0778985	
0.0391862	
-0.176699	
-0.177756	
-0.0102934	
-0.0295838	
-0.222673	
-0.196142	
-0.267918	
-0.118036	
0.171312	
0.155939	
0.130784	
0.190268	
0.209489	
-0.0738747	
-0.0132173	
-0.0682426	
0.0644189	
0.109196	
0.0240363	
0.0695848	
0.0996404	
0.127001	
0.103432	
0.129523	
-0.0370874	
-0.0227171	
0.142692	
0.141581	
-0.159725	
-0.13378	
-0.202544	
0.18448	
0.192048	
0.183785	
0.139919	
0.104514	
0.156877	
0.108706	
0.154105	
0.0766482	
0.134199	
0.131052	
0.165285	
-0.0556904	
-0.045538	
-0.047839	
0.137003	
-0.0564749	
-0.0759363	
-0.17287	
0.0557693	
0.0303685	
-0.23986	
-0.246837	
-0.0524184	
-0.0595301	
0.11846	
0.0662239	
-0.130316	
-0.29671	
-0.261346	
0.176459	
0.175064	
0.159287	
0.174405	
0.172389	
0.0473685	
0.0889614	
0.0312017	
0.0382729	
0.185878	
-0.0395072	
-0.200533	
-0.0410573	
0.0194856	
-0.0177433	
-0.0259089	
0.0149748	
-0.342025	
0.0523705	
0.0615842	
0.141837	
0.110994	
0.156865	
0.124567	
0.14324	
0.13343	
0.13048	
0.0254384	
0.0571236	
0.0497648	
0.0765504	
0.130148	
0.108897	
0.0272346	
0.140224	
0.154482	
0.106591	
0.12384	
0.113635	
0.138045	
0.117524	
0.114752	
0.0523065	
0.0547139	
0.128713	
0.110033	
0.118144	
0.0726281	
-0.0639846	
-0.0660304	
-0.0484599	
-0.0157574	
-0.0963151	
-0.0313561	
0.0736535	
0.0553744	
0.102613	
0.157835	
0.124049	
0.137539	
0.0853691	
0.00968073	
-0.0115203	
0.0567317	
-0.0160137	
0.0167678	
-0.0292072	
0.0546474	
0.178908	
0.178645	
-0.319207	
-0.279657	
0.123018	
0.113548	
-0.00804464	
-0.0228206	
0.130639	
-0.0743361	
-0.0579289	
0.173953	
0.16004	
0.188833	
0.207321	
0.0591457	
0.0360032	
0.1414	
0.125351	
0.176858	
0.0192385	
0.0594864	
0.123425	
0.0777512	
0.113227	
0.0852116	
0.111748	
0.206392	
0.0310237	
0.0312374	
0.180774	
0.0498164	
0.103665	
0.102238	
0.0300981	
0.00525635	
0.107385	
0.113731	
0.147223	
0.185317	
0.190475	
0.200074	
-0.206119	
0.122428	
0.0715078	
-0.0597225	
0.0308861	
0.0682513	
0.144475	
0.142249	
0.196258	
0.187785	
0.155084	
0.146341	
-0.202755	
-0.124788	
-0.0906499	
-0.107392	
0.0832291	
0.064206	
0.0711688	
-0.0898617	
-0.0612387	
-0.265286	
-0.082207	
-0.0730854	
-0.131097	
-0.276733	
-0.215929	
-0.147462	
-0.136191	
-0.120026	
-0.101652	
0.146836	
0.134932	
0.0704958	
-0.0629863	
-0.0520841	
-0.142995	
-0.142948	
-0.208988	
-0.205784	
-0.0537122	
-0.071863	
-0.337231	
-0.0471927	
-0.195483	
0.0879256	
0.092049	
0.0648751	
0.0668411	
0.17068	
0.170003	
-0.0515048	
-0.0941562	
-0.000477213	
-0.00374665	
0.0470069	
0.0275047	
0.0433643	
0.0264555	
-0.198621	
-0.224388	
-0.164684	
-0.0228268	
0.13487	
0.122073	
0.0588163	
0.0384559	
-0.244683	
-0.226013	
-0.0872075	
-0.190187	
-0.232396	
-0.211918	
-0.264631	
0.200528	
0.183941	
-0.0262797	
-0.0823312	
-0.0603867	
-0.0546333	
-0.080765	
-0.189146	
-0.172858	
0.0558883	
0.0117169	
-0.157753	
-0.0502298	
-0.256351	
-0.247169	
-0.149835	
-0.130357	
-0.13801	
-0.124947	
-0.149671	
-0.148058	
-0.103434	
-0.102636	
0.148078	
0.0753486	
0.132668	
0.114485	
0.111611	
0.115341	
0.0815599	
-0.233882	
-0.189003	
-0.194879	
-0.205632	
-0.197971	
-0.262999	
-0.27204	
-0.318242	
-0.177409	
-0.117053	
-0.215481	
-0.189772	
-0.28851	
-0.332911	
-0.332434	
-0.368001	
-0.0352984	
-0.0378969	
-0.0399721	
-0.0476808	
-0.211192	
-0.217891	
-0.169991	
-0.15995	
-0.128131	
-0.137175	
-0.0926194	
-0.308079	
-0.0346381	
-0.0195832	
-0.307813	
-0.265784	
-0.0136533	
-0.023508	
-0.0285266	
-0.147177	
-0.143068	
-0.0242228	
-0.0330783	
-0.0767706	
-0.0840694	
-0.172857	
-0.164532	
0.0887217	
0.022586	
0.00254501	
-0.00576822	
0.0976339	
0.0496417	
-0.119664	
-0.0955341	
-0.119887	
-0.0183454	
-0.28287	
-0.328994	
-0.0987369	
-0.114722	
0.196198	
0.122573	
0.209298	
0.180528	
-0.376816	
-0.370326	
0.0461845	
0.00294273	
-0.312545	
-0.277654	
-0.331324	
-0.29771	
-0.283262	
-0.293699	
-0.221902	
-0.191905	
-0.318149	
-0.358717	
-0.357983	
-0.352106	
-0.349839	
-0.182796	
-0.129045	
-0.103827	
-0.300102	
-0.326838	
-0.353662	
-0.243277	
0.188368	
0.156889	
0.209117	
0.191995	
-0.328104	
-0.299656	
-0.217898	
-0.206232	
-0.19275	
-0.00726593	
-0.00786	
-0.298664	
-0.298174	
-0.333374	
-0.302985	
-0.32548	
-0.0592699	
-0.0700572	
-0.0824056	
-0.104358	
-0.216137	
-0.257376	
-0.216871	
-0.242657	
-0.271301	
-0.302956	
0.208412	
0.183944	
0.182146	
0.143006	
-0.250373	
-0.134333	
-0.122527	
-0.135303	
0.181286	
0.138332	
0.161121	
0.0810959	
-0.350875	
0.0812996	
0.125484	
0.114391	
0.135546	
-0.335923	
-0.354524	
-0.339035	
-0.342854	
-0.333833	
-0.340435	
-0.299115	
-0.11051	
-0.100611	
-0.0991812	
-0.0992253	
0.137712	
0.195604	
0.134282	
0.19322	
0.128957	
0.11983	
0.122825	
0.0732847	
-0.254158	
-0.275031	
-0.253882	
-0.239314	
-0.343958	
-0.35869	
-0.345364	
-0.351774	
0.0775219	
0.136715	
0.0817134	
0.138256	
0.163556	
0.130036	
0.150867	
0.093161	
0.112293	
0.0883325	
0.111537	
0.0875951	
0.173317	
0.201503	
0.204771	
0.209525	
0.220433	
0.141004	
0.23085	
0.234859	
0.235957	
0.244143	
0.248583	
0.254061	
0.228212	
0.190514	
0.168835	
0.0468688	
0.255778	
-0.00807776	
-0.00254021	
-0.0341308	
0.182584	
0.2486	
0.233716	
0.265162	
0.261222	
0.268164	
0.255966	
0.26299	
0.253715	
0.246316	
0.169951	
0.216892	
0.19608	
0.218491	
0.189216	
0.149527	
0.217049	
0.158861	
0.101729	
0.256953	
0.235937	
0.234738	
0.094381	
-0.0443178	
0.248114	
-0.0270564	
-0.041779	
0.0137423	
0.0702836	
0.0424942	
-0.0355289	
0.0403466	
0.0019571	
0.0700611	
-0.054604	
0.0160485	
0.0648109	
0.082984	
0.0402	
-0.00371461	
-0.0448433	
0.207916	
-0.0295638	
0.176578	
0.104803	
0.108433	
0.0856704	
0.0470255	
0.0535202	
0.0715959	
0.0804479	
0.0193933	
0.0588111	
0.0129221	
0.0388526	
0.0201165	
0.0318966	
0.0313241	
0.0447981	
0.0859923	
0.0516349	
0.0563197	
0.067383	
0.0881254	
0.0454368	
-0.0232029	
-0.0265948	
0.0211413	
-0.00241294	
-0.00851065	
0.0339564	
0.063301	
0.0583359	
0.00432762	
-0.0202263	
-0.0291792	
-0.00880155	
0.0326238	
-0.0620424	
-0.0408854	
-0.0639205	
0.167397	
0.188156	
0.185116	
0.223918	
0.010714	
0.100283	
0.15369	
0.161107	
0.18997	
0.00023079	
0.151299	
0.128814	
-0.0579951	
-0.0386148	
-0.0294988	
0.132914	
-0.0312385	
0.143524	
-0.00336893	
0.204074	
0.20771	
-0.0689176	
0.0764177	
0.0402606	
0.00271295	
0.0745196	
0.0160402	
0.246034	
0.230198	
0.223511	
-0.0499396	
0.0839868	
0.217651	
-0.0134296	
-0.0165618	
0.207699	
0.229662	
0.0074538	
0.0489057	
0.198334	
0.140385	
-0.0616831	
-0.0496205	
0.110633	
-0.0225014	
-0.017415	
-0.00765215	
-0.00130672	
0.250763	
0.208405	
0.213391	
0.131066	
0.166177	
0.24405	
0.273261	
0.255152	
0.0583627	
0.169241	
0.243365	
0.194174	
0.108609	
0.129948	
0.142304	
0.160492	
0.0059433	
0.120035	
0.0847158	
0.0984503	
0.0669071	
0.119985	
0.117844	
0.188625	
0.149764	
0.193971	
0.116007	
0.156381	
0.129291	
0.167245	
0.117041	
0.124477	
0.15695	
0.20612	
0.140831	
0.151265	
0.159154	
0.158881	
0.141723	
0.265779	
0.267792	
0.277718	
0.265209	
0.281439	
0.249612	
0.115572	
-0.0244371	
0.0225958	
0.0278589	
0.12405	
0.232311	
0.178921	
0.110706	
0.18352	
0.170548	
0.12388	
0.236724	
0.270229	
0.275432	
0.230533	
0.249635	
0.25949	
0.277962	
0.262103	
0.252451	
0.277355	
0.261877	
0.261645	
0.269862	
0.244054	
0.241965	
0.268278	
0.267998	
0.274155	
0.104002	
0.278558	
0.225735	
0.246096	
0.200315	
0.226473	
0.268978	
0.270243	
0.274098	
0.204155	
0.196299	
0.224325	
0.208621	
0.217754	
0.220188	
0.195447	
-0.0463994	
-0.0515897	
0.238842	
0.22633	
0.251372	
0.229076	
0.201577	
0.18239	
0.200737	
0.258053	
0.233324	
0.233195	
0.24039	
0.16637	
0.209365	
0.0847176	
0.261547	
0.248998	
0.0933061	
0.1858	
0.16291	
0.231742	
0.124718	
0.130038	
0.206172	
0.147278	
0.273192	
0.134162	
0.132034	
0.160098	
0.222462	
0.193962	
0.181067	
0.266922	
0.0483746	
0.107729	
0.0419007	
0.0773733	
0.194501	
0.186008	
0.154731	
0.184313	
-0.0214776	
0.258279	
0.240808	
-0.00444262	
0.00542661	
-0.0193631	
0.000864218	
0.116499	
0.0889565	
0.158998	
0.164809	
0.188139	
0.151735	
0.189047	
0.00683548	
0.159309	
0.131968	
0.173879	
-0.0382208	
-0.0516579	
-0.0428789	
-0.0511102	
0.116278	
0.112921	
0.143064	
0.133172	
0.151342	
0.0875967	
0.0955914	
0.199502	
0.177592	
0.201588	
0.21329	
0.155334	
0.102538	
0.090399	
0.0990424	
0.0716779	
0.28051	
0.172436	
0.200218	
0.153549	
0.170809	
0.119549	
0.14708	
0.116284	
0.156257	
0.141761	
0.0161065	
0.205776	
0.213852	
0.17967	
0.23899	
0.237612	
0.149936	
0.176367	
0.124586	
0.128226	
-0.0539997	
-0.0387067	
-0.0630531	
-0.0616838	
0.102132	
0.20794	
0.240067	
0.210616	
0.198164	
0.209485	
0.17042	
0.218208	
0.215676	
0.214315	
0.204646	
0.0480835	
0.106312	
0.265169	
0.241872	
0.267672	
0.204039	
0.19431	
0.265229	
0.266507	
0.231762	
0.244756	
0.259788	
0.203812	
0.230604	
0.173639	
0.177178	
0.186717	
0.248844	
0.23589	
0.249827	
0.222847	
0.264303	
0.231421	
0.251387	
0.00100774	
0.186025	
0.197259	
0.165645	
0.237498	
0.239452	
0.231782	
0.226611	
0.24534	
0.255829	
0.107341	
0.13585	
0.124538	
0.140983	
-0.0536545	
0.217223	
0.183142	
0.18692	
0.117036	
0.14922	
0.152999	
0.173801	
0.156945	
0.165837	
-0.0442022	
-0.0329899	
-0.0481202	
-0.0305219	
0.244919	
0.20737	
0.244977	
0.210911	
0.0847458	
0.216369	
0.223719	
0.22164	
0.249525	
0.232182	
0.260564	
0.149794	
0.135561	
0.218386	
0.214213	
0.222101	
0.182472	
0.186051	
0.0241858	
0.0689686	
0.265866	
0.227034	
-0.0206566	
0.191994	
0.219338	
0.227197	
0.228469	
0.210753	
0.200552	
0.198464	
0.257805	
0.260218	
0.253011	
0.151255	
0.261884	
0.266568	
0.0604997	
0.084388	
0.08366	
0.223526	
0.221062	
0.221852	
0.265953	
-0.067573	
-0.0616847	
0.256428	
0.251839	
0.243863	
0.22177	
-0.0623408	
-0.0567335	
0.166165	
0.153429	
0.116786	
0.118581	
0.222535	
0.0762185	
0.0905646	
0.152714	
0.15346	
0.171047	
0.169387	
0.265734	
0.258899	
0.00196237	
0.0170219	
0.0773308	
0.0432989	
0.106123	
0.107551	
0.136287	
0.180316	
0.178116	
0.166731	
0.160485	
0.274216	
0.261226	
0.237292	
0.252787	
0.266907	
0.0856117	
0.0793848	
0.206346	
0.204963	
0.18891	
0.188639	
0.0265998	
0.0474645	
0.265982	
0.266876	
0.208895	
0.206141	
0.146483	
0.108413	
0.155921	
0.101513	
0.222952	
0.229707	
0.205164	
0.2066	
0.211964	
0.210234	
0.206673	
0.190875	
0.266716	
0.268225	
0.252167	
0.170542	
0.171472	
0.200981	
0.197327	
0.164655	
0.170952	
0.236444	
0.242224	
0.161302	
0.178167	
0.261356	
0.265452	
0.186109	
0.225983	
0.234492	
0.217917	
0.188261	
0.22616	
0.271199	
0.264304	
0.241826	
0.241921	
0.234118	
0.242689	
0.130476	
0.187794	
0.126675	
0.264378	
0.275043	
0.261166	
0.255451	
0.100163	
0.0723972	
0.0752815	
0.0575971	
0.26176	
0.256132	
0.266388	
0.273193	
0.00685018	
0.256905	
0.266468	
0.263744	
0.256384	
0.127176	
0.165644	
0.267007	
0.275016	
0.265559	
0.119747	
0.132064	
0.137651	
0.146032	
0.195213	
0.191755	
0.18643	
0.189596	
0.269443	
0.166072	
0.163442	
0.213442	
0.213667	
-0.00321477	
-0.0125114	
0.248223	
0.262796	
0.262674	
0.194746	
-0.00861328	
0.233283	
0.229363	
0.238811	
0.240637	
0.17943	
0.270034	
0.268251	
0.0405594	
0.0111889	
0.18507	
-0.0657358	
-0.0589419	
-0.0650924	
0.176296	
0.0653876	
0.0263538	
0.0503705	
0.0253249	
0.240031	
0.125614	
0.165379	
0.263324	
0.248643	
0.264033	
0.262627	
0.266217	
-0.00386531	
-0.0248636	
0.237194	
0.221932	
0.266836	
0.257689	
0.0213732	
0.183072	
0.168321	
0.137119	
0.204522	
0.17521	
0.225602	
0.217366	
0.13048	
0.12343	
0.263744	
0.273503	
0.0653428	
0.0540877	
0.247317	
0.255162	
0.267591	
0.267103	
0.272872	
0.265756	
-0.0589989	
-0.0615506	
0.0987149	
0.0984867	
0.0274877	
0.019501	
0.00987065	
0.244813	
0.246074	
0.219579	
0.230223	
0.213455	
0.220093	
0.273024	
0.197488	
0.25929	
0.243586	
0.238256	
0.1251	
0.0690201	
0.27061	
0.262134	
-0.0365392	
-0.00568993	
0.0114688	
0.0660144	
0.213415	
0.143161	
0.247652	
0.241041	
0.0614358	
0.0843959	
0.0378468	
0.245492	
0.160236	
0.163889	
0.254648	
0.252895	
0.0930248	
0.0739339	
-0.0140748	
-0.0158945	
0.196858	
0.200415	
0.18388	
0.192553	
0.241144	
0.207115	
0.182923	
0.226196	
0.219095	
0.199088	
0.00958002	
0.0569315	
0.0505908	
0.131768	
0.0740433	
0.183902	
0.213636	
0.261318	
0.102183	
0.102604	
0.210348	
0.198905	
0.251681	
0.128475	
0.130052	
0.0986511	
0.0354368	
0.0170806	
0.0444092	
0.0162723	
0.0427318	
0.164244	
0.195028	
0.191888	
0.219563	
0.0731308	
0.0575473	
0.0957324	
0.079908	
0.164436	
0.16331	
0.176024	
0.173282	
0.16421	
0.179117	
0.179033	
-0.0690052	
-0.0238095	
-0.0632665	
-0.0488509	
-0.0277867	
0.131915	
0.135148	
-0.064548	
0.110746	
0.125954	
0.0969392	
0.128933	
0.116647	
0.0327461	
-0.0392112	
0.0774064	
0.137829	
-0.0690265	
0.111485	
-0.0628856	
-0.0692346	
-0.0682542	
0.0348691	
0.0708408	
0.263045	
0.240114	
0.266974	
0.242112	
0.268631	
0.268632	
0.137354	
0.0900208	
0.274771	
0.262466	
0.148802	
0.193177	
0.143709	
0.191958	
0.0447195	
0.0604651	
0.213122	
0.092809	
0.0866843	
-0.0651468	
0.173045	
0.0890798	
0.0891297	
0.0542824	
0.180461	
0.258497	
0.268427	
0.192854	
0.0178271	
0.0115176	
0.165213	
0.195541	
0.228141	
0.219164	
-0.0521205	
-0.0380269	
0.268636	
0.26399	
0.250053	
-0.0358891	
0.266016	
0.184462	
0.186866	
0.203098	
0.192917	
0.129527	
0.0822662	
0.268895	
0.256049	
0.166745	
0.169644	
0.233891	
0.245204	
0.214568	
0.0555836	
0.0673458	
0.233706	
0.25864	
0.23224	
0.0806322	
0.204519	
0.208718	
0.125272	
0.216808	
0.24796	
-0.0693662	
0.219633	
0.217208	
0.209932	
0.264354	
0.248421	
0.141563	
0.266842	
0.139221	
0.166855	
0.142082	
0.144416	
0.117358	
0.275534	
0.248979	
0.265036	
0.276074	
0.265407	
0.265388	
0.247909	
0.251081	
0.244926	
0.241808	
0.202237	
0.219495	
0.255295	
0.249892	
0.0768014	
0.0481418	
0.240762	
0.254073	
0.270698	
0.250961	
0.270126	
0.0615704	
0.0721479	
0.0696065	
0.0949698	
0.267732	
0.261797	
0.202747	
0.22338	
0.220802	
0.142817	
0.143248	
-0.06622	
-0.0632976	
0.1319	
0.117431	
0.114651	
0.113103	
0.109861	
0.1096	
0.0848042	
0.259583	
-0.0535036	
-0.0542089	
-0.0687226	
-0.0703818	
0.211941	
0.161445	
0.160493	
0.24829	
-0.0710529	
-0.0662423	
-0.0489993	
-0.0527543	
-0.0679019	
-0.0685165	
0.215046	
0.216776	
0.205796	
0.202625	
-0.0297754	
-0.0123304	
-0.0367615	
-0.0210835	
0.11992	
0.123121	
0.0982529	
0.194276	
0.219627	
0.252269	
0.23999	
0.247504	
0.250788	
0.250903	
0.237764	
0.225405	
0.233691	
0.205959	
0.200517	
0.222989	
0.218569	
0.105277	
0.0949442	
0.105182	
0.040887	
-0.00394392	
0.0998728	
0.0676552	
-0.0582796	
-0.0402287	
-0.0654792	
0.0749931	
0.173479	
0.121847	
0.118758	
0.0583916	
0.0443337	
-0.0239644	
-0.0442732	
0.2267	
0.225944	
0.0595559	
0.105369	
0.0911976	
0.250264	
0.255846	
0.239497	
0.245386	
0.260356	
0.228868	
0.226608	
0.0840653	
0.0713806	
0.121443	
0.102374	
0.130345	
0.120826	
-0.00290904	
0.0225276	
0.102254	
0.106644	
0.173086	
0.175927	
0.123566	
0.11359	
0.0888648	
0.0858713	
0.176299	
0.173517	
0.161197	
0.125556	
0.160227	
0.166735	
0.234199	
0.247087	
0.161411	
0.151671	
0.125035	
0.166611	
0.190407	
-0.0206415	
0.0283458	
-0.0286695	
0.248818	
0.248323	
0.23114	
0.216466	
0.184293	
0.163168	
0.180443	
0.178999	
-0.0366246	
-0.0422368	
-0.0560482	
-0.0586004	
0.0458799	
0.0720969	
0.0846858	
0.168114	
0.144743	
0.181273	
0.18685	
0.2071	
0.185654	
0.252986	
0.249036	
0.224728	
0.233355	
0.233085	
0.233605	
-0.0478874	
-0.0536584	
-0.0349787	
-0.0401061	
0.177629	
0.156839	
0.167902	
0.167059	
0.0334846	
0.0949705	
0.0932095	
0.0847634	
0.0894271	
0.244493	
0.257389	
0.0583574	
0.0284162	
0.262636	
0.261361	
0.248552	
0.263874	
0.26019	
0.262694	
0.0173539	
0.238708	
0.237158	
0.197952	
0.0934738	
0.0832155	
0.0695345	
0.0735079	
0.142501	
0.147114	
0.228997	
0.245573	
0.255589	
0.258164	
0.176243	
0.171436	
0.0844763	
0.0934367	
0.233494	
0.224779	
0.060616	
0.0777922	
0.126697	
0.107054	
0.129743	
0.150193	
0.107629	
0.118286	
0.118901	
0.0813433	
0.0151396	
0.0423428	
0.0979488	
0.0797817	
0.251447	
0.26786	
-0.0162939	
0.140088	
0.113251	
0.26133	
0.259704	
0.0621409	
0.0699834	
0.1024	
0.0779882	
0.0838895	
0.0869126	
0.0270646	
0.0574439	
0.086484	
0.0748518	
0.135593	
0.125663	
0.0741145	
0.0501101	
0.0887528	
0.0605358	
0.223626	
0.225391	
0.167716	
0.182473	
0.147789	
0.138507	
0.0409446	
0.0101799	
-0.0481549	
0.00497372	
0.0208601	
0.0194242	
-0.00726584	
0.165003	
-0.0208926	
0.135833	
0.137571	
-0.0169156	
-0.0438956	
-0.0346599	
-0.043278	
0.110385	
0.117986	
0.041599	
0.0429147	
0.039065	
0.188887	
0.16153	
0.263818	
0.259499	
0.105145	
0.0849898	
0.0755003	
0.0731569	
0.0857316	
0.126248	
0.123072	
0.148488	
0.147994	
0.0621101	
0.0650531	
0.01836	
0.00889846	
0.0820463	
0.0585181	
0.0615153	
0.0384029	
0.0993225	
0.101213	
0.0893369	
0.0829426	
0.0915023	
0.0856733	
0.0529892	
0.270492	
0.268487	
0.264095	
0.26931	
0.0997012	
0.10368	
0.0916901	
0.0973307	
0.0955372	
0.0983177	
0.0953628	
-0.0158781	
0.00126697	
-0.00708963	
0.00944832	
0.0267532	
0.0380741	
0.0180673	
0.0079715	
-0.012104	
-0.00362313	
0.00423307	
0.0337912	
0.0198312	
0.0242473	
0.0124211	
0.00413591	
0.0202976	
0.00275762	
0.0121955	
-0.0103954	
-0.0176862	
-0.0136208	
-0.00472564	
0.0271128	
0.0249913	
0.0186401	
0.0106675	
-0.0146076	
-0.00999105	
-0.00418679	
0.00248822	
0.0332785	
-0.0636665	
-0.0493182	
0.00441802	
0.0327157	
-0.0258943	
-0.0312381	
-0.00907802	
0.0296562	
0.023322	
0.00284439	
-0.0519646	
0.00209582	
-0.0292171	
-0.0728562	
-0.055287	
0.0310293	
0.0155762	
-0.00496454	
-0.0668205	
-0.0420902	
-0.0177443	
0.0244467	
0.135035	
0.17334	
0.171697	
0.115302	
0.140874	
-0.0291845	
0.0719235	
0.140289	
0.0531968	
0.0947149	
0.127195	
0.0459694	
0.0371031	
0.117075	
0.118231	
0.092683	
0.0937575	
0.0771039	
0.102442	
0.125596	
0.171896	
0.174189	
-0.0605314	
-0.0663186	
-0.0513662	
-0.0516372	
0.000986232	
0.0221418	
0.0105849	
0.163564	
0.14917	
0.153428	
0.0448838	
0.161206	
0.152877	
0.16979	
0.170934	
0.167438	
0.161603	
0.168429	
0.169257	
-0.0555643	
-0.0421935	
0.143256	
0.149089	
0.134305	
0.158866	
0.157879	
0.163884	
0.157124	
0.145838	
0.145434	
0.169042	
0.154282	
0.173101	
0.174869	
0.102366	
0.108562	
0.127794	
0.173666	
0.174951	
-0.0393891	
-0.022222	
0.00844371	
-0.00468948	
-0.0282114	
-0.00640174	
-0.0263623	
0.0558503	
0.0351424	
0.0777569	
0.073932	
0.117548	
0.135329	
0.111384	
0.130449	
0.101725	
0.160484	
0.164446	
0.127016	
0.0934097	
-0.151061	
-0.0296782	
0.0324202	
0.0668643	
-0.024865	
0.0340223	
0.0462393	
-0.0290079	
0.0603715	
0.0341498	
-0.00175228	
-0.00470883	
0.00848272	
0.0355492	
0.045058	
0.134997	
0.155952	
-0.149788	
-0.171468	
-0.125579	
-0.129008	
-0.109182	
-0.0915631	
-0.0824198	
0.0850408	
0.113472	
0.0927661	
-0.0657033	
-0.0771329	
0.127757	
0.11911	
0.139541	
0.127963	
0.129375	
0.138701	
0.132319	
0.124693	
-0.159001	
-0.165836	
0.0726946	
0.0874838	
0.103621	
0.106584	
0.0834862	
0.0874678	
0.110774	
0.115937	
0.152313	
0.151161	
0.158874	
0.163198	
0.0467098	
0.0995904	
0.0723466	
0.16374	
0.158704	
-0.144059	
-0.142833	
-0.118018	
-0.113014	
-0.108539	
-0.142737	
-0.121354	
-0.0180184	
-0.0637941	
-0.0354636	
-0.0654524	
0.0379125	
0.0700282	
0.0164812	
0.0700047	
0.0431506	
-0.051194	
0.0700877	
0.165575	
0.21795	
0.212143	
0.211313	
0.191121	
0.206764	
0.195858	
0.185549	
0.207515	
0.200866	
0.204918	
0.191913	
0.199797	
0.195162	
0.172721	
0.155191	
0.174152	
0.183896	
0.179344	
0.21315	
0.174803	
0.205032	
0.203767	
0.189847	
0.209805	
0.197202	
0.205623	
0.0915358	
0.0979765	
-0.095259	
-0.0179253	
0.201985	
0.170705	
0.212761	
0.156592	
0.191869	
0.093766	
0.172771	
0.183346	
0.212529	
-0.207941	
0.175429	
0.207643	
0.188038	
0.194486	
0.110364	
0.102712	
0.147403	
0.100407	
0.131412	
-0.00542896	
-0.360013	
0.0174745	
0.116871	
0.124646	
-0.0714071	
-0.0286165	
0.0189228	
0.04891	
-0.247981	
-0.327033	
-0.337311	
-0.343985	
-0.196419	
-0.00325567	
-0.0126486	
-0.233226	
-0.267761	
-0.150828	
-0.00414943	
-0.260238	
-0.293525	
-0.331325	
-0.332502	
-0.166147	
0.00855408	
-0.086864	
-0.345395	
-0.343474	
-0.0820922	
0.175406	
0.0897757	
0.170058	
-0.346403	
-0.0479422	
0.140115	
-0.0346191	
-0.00632316	
0.152668	
-0.245276	
-0.0269201	
-0.0896529	
-0.133007	
-0.207262	
-0.0642151	
0.157067	
-0.0952868	
0.095554	
-0.0989224	
0.117144	
0.0837546	
0.0284127	
0.07049	
-0.241527	
-0.224146	
0.0807542	
-0.00566218	
-0.102649	
-0.0386219	
-0.136313	
-0.10182	
-0.252023	
-0.075956	
-0.0779622	
-0.158787	
0.151759	
-0.152868	
-0.324857	
0.124369	
-0.320886	
-0.318644	
-0.00266942	
0.0553633	
-0.31672	
-0.12378	
-0.180107	
-0.138547	
0.197258	
0.11047	
0.119985	
0.119646	
0.0505985	
0.0513038	
-0.00948339	
0.0414959	