<VTKFile type="UnstructuredGrid" version="0.1" byte_order="LittleEndian">
	<UnstructuredGrid>
		<Piece NumberOfPoints="3959" NumberOfCells="7450">
			<CellData Scalars="scalars">
				<DataArray type="Float64" Name="Doublet Strengths" NumberOfComponents="1" Format="ascii">
-0.0703453	
-0.0549621	
0.00117695	
0.0313207	
-0.0305484	
-0.0404261	
-0.016695	
0.0262881	
0.0183866	
-0.00369182	
-0.0627466	
0.00380664	
-0.0265055	
-0.0685195	
-0.0517248	
0.0316421	
0.0194064	
5.3202e-07	
-0.0583205	
-0.0349233	
-0.0118986	
0.026921	
0.13401	
0.171239	
0.169618	
0.112646	
0.132438	
-0.109437	
0.0311493	
0.119206	
0.0315646	
0.0832422	
0.105664	
0.00938919	
-0.00617945	
0.0879038	
0.0932193	
0.0615555	
0.0599177	
0.0595088	
0.0804334	
0.105069	
0.162444	
0.170116	
-0.093333	
-0.104523	
-0.102499	
-0.146824	
-0.0581363	
-0.0336462	
-0.0201978	
0.151786	
0.132699	
0.137368	
-0.00126749	
0.149729	
0.146227	
0.158636	
0.161896	
0.155297	
0.160204	
0.157356	
0.160592	
-0.125758	
-0.170935	
0.122298	
0.128954	
0.110262	
0.142778	
0.142056	
0.156203	
0.148425	
0.131086	
0.132484	
0.165473	
0.151497	
0.170355	
0.170396	
0.0865647	
0.100377	
0.120957	
0.171588	
0.17095	
-0.0873446	
-0.0893388	
-0.0407753	
-0.0427673	
-0.0627073	
-0.0532482	
-0.0829103	
0.030426	
0.00402709	
0.0512491	
0.0419941	
0.0969123	
0.120457	
0.0944994	
0.117198	
0.105224	
0.163415	
0.167033	
0.129164	
0.100942	
-0.0741548	
0.00968118	
0.0569288	
0.0877491	
-0.00427209	
0.0496878	
0.0674882	
0.00180756	
0.0839553	
0.0625863	
0.0310549	
0.025507	
0.0255499	
0.0558883	
0.0653588	
0.144882	
0.160757	
-0.101915	
-0.0803518	
-0.0958904	
-0.0940077	
-0.0623159	
-0.0379228	
-0.0536164	
0.101649	
0.125771	
0.108952	
-0.0213214	
-0.0356416	
0.136224	
0.126624	
0.148799	
0.140164	
0.1408	
0.142572	
0.141612	
0.136241	
-0.0921593	
-0.0405015	
0.0934084	
0.107334	
0.119482	
0.122617	
0.0985023	
0.10079	
0.122834	
0.12539	
0.154798	
0.15569	
0.163679	
0.166181	
0.0581898	
0.108723	
0.0809478	
0.166472	
0.163252	
-0.080067	
-0.0893077	
-0.0615072	
-0.0812834	
-0.0728733	
-0.0978728	
-0.077078	
0.00754394	
-0.0287384	
-0.0112332	
-0.0359776	
0.0546214	
0.0835345	
0.0379708	
0.0850578	
-0.00817143	
-0.179147	
0.0271912	
0.167323	
0.215614	
0.207257	
0.207471	
0.190632	
0.202757	
0.192732	
0.18351	
0.205411	
0.199241	
0.199907	
0.182759	
0.194051	
0.19035	
0.169727	
0.162873	
0.171067	
0.179761	
0.175357	
0.208218	
0.174683	
0.197575	
0.198293	
0.184227	
0.203426	
0.192968	
0.204796	
0.115498	
0.108128	
-0.0322609	
0.0113144	
0.195958	
0.175954	
0.210424	
0.16513	
0.187357	
0.0567052	
0.178225	
0.18428	
0.207431	
-0.253656	
0.178246	
0.202016	
0.18986	
0.19485	
0.133343	
0.126085	
0.157837	
0.12413	
0.145607	
-0.0753363	
-0.276353	
-0.0435678	
0.0866798	
0.0949828	
-0.232678	
-0.111731	
-0.0395718	
-0.00282432	
-0.367851	
-0.176933	
-0.220907	
-0.376664	
-0.220814	
-0.0306083	
-0.0860258	
-0.302691	
-0.344943	
-0.204365	
-0.0722875	
-0.315842	
-0.35307	
-0.385371	
-0.392445	
-0.306461	
-0.054142	
-0.144984	
-0.385854	
-0.37497	
-0.0990608	
0.16264	
0.103045	
0.152236	
-0.22544	
0.00999874	
0.11573	
0.0258067	
0.0192178	
0.128749	
-0.0852972	
0.0394728	
-0.108042	
-0.153952	
-0.30017	
-0.0345283	
0.134621	
-0.05267	
0.0598417	
-0.0143176	
0.0844074	
0.041691	
0.0251588	
0.0685316	
-0.284007	
-0.261099	
0.0538501	
0.0366886	
-0.0188793	
0.0271677	
-0.079652	
-0.0249861	
-0.288208	
-0.129995	
-0.128283	
-0.080827	
0.141526	
-0.0644559	
-0.151685	
0.100354	
-0.168876	
-0.176981	
0.049615	
0.0829743	
-0.225208	
-0.14176	
-0.197384	
-0.0411253	
0.185919	
0.0840298	
0.0875113	
0.0868087	
0.00668259	
0.00670512	
-0.023162	
0.0294734	
-0.303297	
-0.207016	
0.152849	
0.129117	
0.127965	
0.139609	
-0.101375	
-0.0755342	
-0.0772992	
-0.0339351	
-0.0203214	
0.00847783	
0.163837	
0.0518404	
0.0825339	
0.172261	
0.167496	
0.0768516	
-0.247941	
0.18859	
0.108737	
-0.0553208	
-0.12349	
0.178348	
0.199191	
0.0558651	
0.153094	
-0.278807	
-0.192706	
0.114898	
0.111503	
0.124682	
0.0233978	
0.193873	
0.170223	
0.150347	
0.153427	
0.137209	
0.161124	
0.185432	
0.181601	
0.160436	
-0.033156	
0.0380014	
0.146366	
0.162378	
0.146569	
0.179061	
0.18875	
0.0565391	
0.169681	
0.0820218	
0.0623233	
0.0535448	
0.0596304	
0.119113	
0.186494	
0.106901	
0.0807256	
0.0554515	
0.0627349	
0.116936	
0.119417	
0.137249	
0.135948	
0.0606841	
0.00677102	
0.0218719	
-0.0275791	
0.18747	
0.206937	
0.188339	
0.181515	
0.193253	
0.0990103	
0.101793	
0.182843	
0.104445	
-0.207201	
0.0852602	
0.0179366	
0.0705803	
0.0839352	
0.174606	
0.025996	
-0.102033	
-0.0716131	
0.0577425	
0.0593545	
0.0219102	
0.148985	
0.178647	
0.10062	
0.0944816	
0.184225	
0.142708	
0.0933039	
0.0358665	
0.0277885	
0.0603491	
0.0634254	
0.011856	
0.140779	
0.146425	
-0.338833	
-0.296889	
-0.193682	
-0.153946	
-0.0911911	
0.116985	
0.108379	
0.128539	
0.161774	
0.148863	
0.124906	
0.181862	
-0.185125	
-0.194967	
-0.360179	
-0.329577	
0.045043	
-0.0892775	
0.0323695	
-0.326513	
-0.352658	
0.0023436	
-0.0124094	
0.0098231	
0.000389807	
-0.111529	
-0.0717201	
-0.0638346	
-0.0151285	
0.0176671	
-0.00426401	
0.063476	
0.0839022	
0.108757	
-0.0111677	
-0.0420309	
-0.0110383	
-0.0295488	
-0.0102879	
0.0337448	
0.11024	
0.110222	
0.0916095	
0.0224812	
0.000270666	
-0.0740641	
0.13478	
0.095815	
0.0186383	
0.00528729	
0.190946	
-0.214272	
0.0613222	
-0.0206556	
-0.0323807	
0.210507	
0.190283	
0.202534	
-0.214615	
-0.167325	
-0.112862	
-0.00237183	
-0.122591	
-0.0723656	
0.198608	
0.183811	
0.138781	
0.114151	
0.0649282	
-0.0637289	
-0.135783	
-0.0884191	
0.178888	
0.0278403	
-0.387735	
-0.390491	
-0.38876	
-0.216737	
0.0600595	
-0.000434363	
-0.00408907	
0.0155181	
0.0151102	
0.022472	
-0.0158436	
0.124661	
0.119926	
-0.140185	
-0.0716785	
-0.194416	
-0.131703	
-0.0504813	
-0.166151	
-0.0765235	
0.0422593	
-0.263757	
-0.246329	
0.135634	
0.0602951	
0.106077	
-0.0412328	
-0.00317822	
0.15471	
0.155929	
0.137091	
0.154325	
0.14173	
0.074211	
0.0518425	
0.137136	
0.0442514	
0.195955	
0.185522	
-0.11537	
-0.247805	
0.180957	
0.177529	
0.187425	
0.0187913	
0.189068	
0.200669	
0.186986	
0.19691	
0.205799	
0.190477	
-0.227713	
-0.256534	
0.206132	
0.187716	
0.193613	
0.18084	
-0.356171	
0.0358204	
0.00749588	
0.0212403	
0.189564	
0.172347	
0.157256	
0.179574	
0.061586	
0.0637289	
0.0134728	
0.0166929	
0.131969	
-0.1416	
0.0281231	
0.0719065	
-0.0604916	
0.144605	
0.15393	
0.125028	
0.0914505	
0.201846	
0.0353482	
0.0813746	
-0.0240543	
-0.010556	
0.103324	
0.127997	
0.135131	
0.0468086	
-0.0674335	
-0.0427454	
-0.0240768	
0.0172464	
0.0541694	
0.0839576	
-0.0272852	
0.0350293	
-0.0219466	
0.196656	
0.181634	
0.0665521	
-0.00865696	
0.0859362	
0.147704	
-0.00522876	
-0.118742	
-0.00828476	
-0.120972	
0.102925	
-0.0354633	
-0.0393331	
-0.0239639	
0.122724	
0.093449	
0.0897721	
0.0329957	
0.094277	
0.055508	
0.00432897	
0.00797498	
0.0280977	
0.0225105	
0.0072273	
-0.0392547	
-0.0862835	
0.11548	
0.0375016	
0.0358306	
0.0227927	
0.128606	
0.025923	
-0.0139051	
0.0663597	
0.0776003	
0.104825	
-0.344661	
-0.0105244	
-0.0345707	
0.0575006	
0.0654978	
0.150392	
0.0913408	
0.0796887	
0.0712316	
-0.112861	
-0.0722368	
0.0356119	
0.00925318	
-0.0219292	
-0.067519	
0.0954301	
0.0644182	
0.057362	
0.0596071	
-0.0471704	
0.0286455	
-0.250436	
-0.23389	
-0.15023	
-0.136957	
0.143175	
-0.0461839	
-0.169204	
0.128186	
-0.0930036	
0.026407	
-0.144767	
-0.216973	
-0.068061	
-0.0359044	
0.0156141	
-0.0179242	
-0.0990331	
-0.159689	
-0.0891509	
-0.040818	
-0.0239711	
-0.00163913	
-0.150675	
0.130215	
0.00809342	
0.035107	
0.0738138	
-0.107274	
-0.0727597	
-0.0862761	
-0.141041	
-0.215131	
0.120227	
0.108136	
-0.0210352	
0.0315735	
-0.11265	
-0.135367	
0.109912	
0.0365496	
0.0680203	
-0.0306719	
-0.0133098	
-0.120293	
-0.0812543	
-0.312223	
-0.34964	
0.0469272	
-0.249422	
0.0450421	
0.00269199	
-0.143594	
0.13289	
-0.0991428	
-0.0884071	
-0.0145108	
-0.0604475	
0.182755	
0.096038	
0.144985	
0.0807272	
0.101228	
0.202651	
0.190118	
-0.052782	
-0.0452843	
0.0461677	
0.063568	
-0.34185	
-0.136665	
-0.166343	
-0.385668	
-0.0192474	
0.0491601	
-0.0326984	
-0.0426219	
-0.139178	
-0.11409	
0.0321196	
-0.0108493	
0.00308947	
0.19361	
0.178155	
0.064505	
0.00263163	
-0.0369033	
0.0854284	
0.11682	
0.0389361	
0.0708253	
0.0254432	
-0.054631	
0.18915	
0.207192	
0.204302	
0.192254	
-0.195458	
0.185118	
0.163742	
-0.00343109	
-0.0914067	
0.0160792	
0.15593	
0.17519	
0.154315	
0.174536	
0.162768	
0.13991	
0.0644416	
0.0497581	
-0.00154032	
0.0039351	
0.117611	
0.12435	
-0.130981	
-0.3663	
-0.343884	
0.039293	
0.0271903	
0.197273	
0.178814	
0.21207	
0.195808	
0.147966	
0.115489	
-0.0736425	
0.107239	
0.138868	
0.125748	
0.142331	
0.143249	
0.161693	
0.156351	
0.135891	
-0.208184	
-0.230529	
0.176939	
0.161987	
0.0969386	
0.0562428	
0.143357	
0.142109	
0.202819	
0.18931	
-0.0348153	
-0.0941649	
-0.159502	
-0.0731512	
0.0140341	
0.100727	
0.0431443	
0.112674	
-0.0877377	
-0.0759337	
-0.254786	
0.114592	
0.111004	
0.166534	
0.191065	
-0.073566	
0.0363357	
-0.0406074	
0.016314	
-0.0520992	
-0.0151354	
0.0570148	
0.0587502	
0.108436	
-0.0268693	
-0.027546	
-0.040089	
-0.0449291	
0.202361	
0.175558	
0.178889	
-0.105571	
-0.153078	
0.0635258	
-0.0103074	
0.0577493	
-0.0418679	
0.0613733	
0.0522986	
-0.0832257	
-0.0917787	
0.0747045	
-0.00470951	
0.00338046	
-0.300001	
-0.00878105	
0.0369685	
0.0766372	
0.0797642	
-0.159171	
-0.171057	
-0.240354	
-0.0210377	
0.0193342	
0.164472	
0.151701	
0.00744378	
0.0649193	
0.0862342	
0.0917645	
-0.00585478	
-0.047103	
-0.101399	
-0.103065	
0.192286	
0.181246	
0.185632	
0.0600575	
0.0626028	
0.1138	
0.0572883	
-0.14003	
-0.137212	
-0.194188	
-0.0953166	
-0.0881798	
-0.0162372	
0.112099	
0.11358	
0.0778598	
0.0390885	
-0.179743	
-0.180875	
-0.0129047	
-0.0322812	
-0.223447	
-0.196917	
-0.268759	
-0.118731	
0.170866	
0.155183	
0.129514	
0.189535	
0.209056	
-0.0755755	
-0.0146949	
-0.0699521	
0.0632407	
0.108266	
0.0226792	
0.0684468	
0.0982294	
0.125829	
0.102053	
0.128385	
-0.0371535	
-0.022777	
0.141336	
0.140202	
-0.163281	
-0.137088	
-0.204662	
0.183936	
0.191643	
0.183167	
0.138695	
0.102932	
0.15587	
0.107156	
0.153142	
0.0762089	
0.133889	
0.130748	
0.165153	
-0.055799	
-0.0456605	
-0.0479733	
0.13579	
-0.0566146	
-0.0761074	
-0.176054	
0.0556719	
0.0302245	
-0.243672	
-0.250931	
-0.0525376	
-0.0596602	
0.116807	
0.0640931	
-0.13057	
-0.299394	
-0.263818	
0.176162	
0.174583	
0.158528	
0.174055	
0.171912	
0.0451192	
0.0871036	
0.0289625	
0.0361177	
0.18506	
-0.042483	
-0.201347	
-0.0411158	
0.0190736	
-0.0181705	
-0.0265744	
0.014401	
-0.343495	
0.0519011	
0.0611257	
0.141607	
0.110951	
0.156733	
0.124288	
0.142116	
0.132205	
0.130268	
0.0253456	
0.0570642	
0.0496876	
0.0765015	
0.130099	
0.108777	
0.0252101	
0.138971	
0.153435	
0.105012	
0.122442	
0.112084	
0.13677	
0.117509	
0.114707	
0.0521762	
0.0545842	
0.128684	
0.109933	
0.118053	
0.0724695	
-0.064113	
-0.0661491	
-0.0510521	
-0.0180848	
-0.0990829	
-0.0337593	
0.0718824	
0.0534685	
0.101088	
0.157738	
0.123794	
0.137313	
0.0850162	
0.00735708	
-0.0139798	
0.0564124	
-0.0165026	
0.0163665	
-0.0297019	
0.0525708	
0.178425	
0.178096	
-0.32083	
-0.281226	
0.121698	
0.11214	
-0.0102501	
-0.0251006	
0.129274	
-0.0754474	
-0.0590473	
0.173518	
0.159308	
0.188131	
0.20681	
0.0574329	
0.0340708	
0.141194	
0.125055	
0.175921	
0.0179672	
0.0584321	
0.121822	
0.0757131	
0.113228	
0.0851794	
0.111761	
0.205988	
0.0307845	
0.0309925	
0.179893	
0.0497734	
0.10365	
0.102226	
0.0286314	
0.00368173	
0.106344	
0.112737	
0.146122	
0.184713	
0.189772	
0.199576	
-0.208002	
0.120845	
0.0694461	
-0.0598142	
0.0300268	
0.0675393	
0.143551	
0.14129	
0.195874	
0.187216	
0.154036	
0.145171	
-0.203332	
-0.127934	
-0.0936032	
-0.110401	
0.0832141	
0.0641642	
0.0711085	
-0.0903	
-0.0616216	
-0.269007	
-0.082434	
-0.0732372	
-0.131548	
-0.278167	
-0.217157	
-0.14796	
-0.136699	
-0.120376	
-0.101964	
0.146791	
0.13484	
0.070275	
-0.0631406	
-0.0522515	
-0.145908	
-0.145906	
-0.21229	
-0.208996	
-0.0539134	
-0.072093	
-0.339258	
-0.0499908	
-0.196587	
0.087907	
0.0920177	
0.0648249	
0.0668015	
0.170215	
0.169537	
-0.053774	
-0.0966186	
-0.00062009	
-0.00388058	
0.0469203	
0.0274076	
0.0433026	
0.0263837	
-0.200442	
-0.226207	
-0.167873	
-0.0230117	
0.133428	
0.120462	
0.0567885	
0.036236	
-0.248873	
-0.230022	
-0.0904605	
-0.193727	
-0.233377	
-0.215516	
-0.268377	
0.200006	
0.183282	
-0.0264232	
-0.082724	
-0.0607419	
-0.0549289	
-0.0811104	
-0.190886	
-0.174583	
0.0541895	
0.0097225	
-0.158363	
-0.0525388	
-0.257278	
-0.248039	
-0.150293	
-0.130662	
-0.138433	
-0.12528	
-0.150335	
-0.148693	
-0.104033	
-0.103163	
0.148032	
0.0750992	
0.132535	
0.114495	
0.111601	
0.11534	
0.0815191	
-0.236063	
-0.191035	
-0.195603	
-0.206285	
-0.19865	
-0.264842	
-0.273821	
-0.319884	
-0.18082	
-0.120243	
-0.219034	
-0.193283	
-0.292478	
-0.337412	
-0.337077	
-0.372769	
-0.0353984	
-0.0380007	
-0.0400644	
-0.0477817	
-0.21191	
-0.218576	
-0.170787	
-0.160716	
-0.12968	
-0.138686	
-0.0956584	
-0.310187	
-0.037376	
-0.0222151	
-0.310291	
-0.268163	
-0.0137	
-0.0235848	
-0.0286193	
-0.149161	
-0.145067	
-0.0270649	
-0.035927	
-0.0799276	
-0.0871474	
-0.173556	
-0.16527	
0.0872839	
0.0207604	
0.000580562	
-0.00583789	
0.096246	
0.0479308	
-0.122874	
-0.098622	
-0.120188	
-0.0184559	
-0.28401	
-0.333121	
-0.0994292	
-0.115455	
0.195558	
0.121226	
0.20885	
0.179657	
-0.381284	
-0.374988	
0.0438862	
0.000280151	
-0.314342	
-0.281568	
-0.335509	
-0.301697	
-0.284289	
-0.294775	
-0.222963	
-0.192917	
-0.32232	
-0.360477	
-0.359934	
-0.356509	
-0.354289	
-0.186228	
-0.132288	
-0.10692	
-0.302489	
-0.329173	
-0.355964	
-0.246786	
0.187603	
0.155794	
0.208808	
0.191301	
-0.330063	
-0.301554	
-0.221449	
-0.20964	
-0.196132	
-0.00731455	
-0.00798224	
-0.299625	
-0.299118	
-0.33476	
-0.304352	
-0.326843	
-0.059564	
-0.0703644	
-0.0827067	
-0.104666	
-0.219492	
-0.260972	
-0.220246	
-0.246224	
-0.275007	
-0.306792	
0.20803	
0.183138	
0.181295	
0.141813	
-0.251092	
-0.137259	
-0.125463	
-0.138312	
0.181075	
0.137901	
0.160798	
0.0805422	
-0.353879	
0.0811417	
0.125406	
0.114297	
0.135538	
-0.338718	
-0.357489	
-0.341631	
-0.345562	
-0.336498	
-0.342888	
-0.301565	
-0.110831	
-0.100867	
-0.0995027	
-0.0995486	
0.136543	
0.194923	
0.133082	
0.192495	
0.128965	
0.119786	
0.122787	
0.0731532	
-0.254932	
-0.275842	
-0.254613	
-0.240017	
-0.345683	
-0.360378	
-0.347005	
-0.353277	
0.0772883	
0.13661	
0.0814874	
0.138159	
0.163422	
0.129735	
0.150637	
0.0927713	
0.112296	
0.0883099	
0.111537	
0.0875688	
0.173295	
0.201648	
0.204882	
0.209648	
0.220666	
0.143596	
0.231168	
0.236391	
0.236267	
0.244433	
0.248809	
0.254316	
0.228603	
0.190618	
0.168897	
0.0487048	
0.256011	
-0.00585489	
0.000800183	
-0.0318014	
0.182634	
0.248742	
0.234206	
0.265523	
0.261534	
0.268508	
0.256217	
0.263335	
0.25396	
0.246502	
0.172098	
0.217104	
0.196206	
0.218735	
0.189407	
0.149713	
0.217267	
0.159074	
0.101795	
0.257235	
0.236203	
0.234925	
0.0944346	
-0.044316	
0.248225	
-0.0270577	
-0.0386117	
0.0157045	
0.0721878	
0.044621	
-0.0322833	
0.0421297	
0.00423034	
0.0714385	
-0.051457	
0.0186523	
0.0663469	
0.0862793	
0.0438212	
-0.00124017	
-0.042203	
0.210574	
-0.0290883	
0.178855	
0.109311	
0.110138	
0.0875263	
0.0504215	
0.0571267	
0.0758071	
0.0840112	
0.0231492	
0.0617294	
0.0162652	
0.0421923	
0.0236014	
0.0339701	
0.0321058	
0.0457683	
0.0905573	
0.0556285	
0.0600586	
0.0718158	
0.0916888	
0.0492391	
-0.0198032	
-0.0236781	
0.02396	
0.000609904	
-0.0048958	
0.0370051	
0.0675124	
0.0625947	
0.00800923	
-0.0167271	
-0.0264831	
-0.00592392	
0.0351885	
-0.0592176	
-0.0375102	
-0.0638436	
0.168883	
0.190101	
0.18698	
0.224671	
0.0109681	
0.101029	
0.154345	
0.161765	
0.190527	
0.000280911	
0.15301	
0.130847	
-0.057969	
-0.0386077	
-0.0289965	
0.136511	
-0.0311792	
0.144	
-0.00321382	
0.205382	
0.208705	
-0.0687688	
0.0766861	
0.0405215	
0.00279206	
0.0750293	
0.0162814	
0.246519	
0.230838	
0.224186	
-0.0499156	
0.0856121	
0.218637	
-0.013365	
-0.0164903	
0.210221	
0.231616	
0.00765574	
0.0491096	
0.200125	
0.141122	
-0.0616277	
-0.0495581	
0.112797	
-0.0224499	
-0.017364	
-0.00760093	
-0.00125658	
0.251454	
0.20902	
0.2151	
0.134493	
0.169221	
0.245921	
0.273762	
0.255523	
0.0588569	
0.170794	
0.24378	
0.194816	
0.109592	
0.130672	
0.143868	
0.161668	
0.00611705	
0.122042	
0.0871306	
0.100569	
0.0694106	
0.121633	
0.119311	
0.190798	
0.151607	
0.195617	
0.116458	
0.157152	
0.130505	
0.168498	
0.118592	
0.126103	
0.160437	
0.206431	
0.141315	
0.151689	
0.159535	
0.159357	
0.14242	
0.266992	
0.268818	
0.278247	
0.26611	
0.282081	
0.250894	
0.119453	
-0.0244132	
0.0226468	
0.0278952	
0.126772	
0.233376	
0.179716	
0.111074	
0.183803	
0.171313	
0.12464	
0.237411	
0.270625	
0.275907	
0.231563	
0.250508	
0.260285	
0.278455	
0.262742	
0.25368	
0.277927	
0.262937	
0.262826	
0.27042	
0.244772	
0.243437	
0.269408	
0.269137	
0.274685	
0.104247	
0.279127	
0.226236	
0.24792	
0.200818	
0.226785	
0.269987	
0.270735	
0.274624	
0.20451	
0.19716	
0.224839	
0.209788	
0.218183	
0.222441	
0.195798	
-0.0463484	
-0.0515376	
0.240713	
0.228573	
0.252629	
0.231239	
0.20195	
0.183291	
0.201004	
0.259579	
0.235476	
0.235349	
0.241279	
0.166568	
0.209709	
0.0865664	
0.26191	
0.249342	
0.0933675	
0.186084	
0.163604	
0.232394	
0.124902	
0.130213	
0.207931	
0.14749	
0.273686	
0.135555	
0.133368	
0.161111	
0.222787	
0.194446	
0.181631	
0.267805	
0.0486397	
0.107981	
0.0421619	
0.0776256	
0.196612	
0.18828	
0.155448	
0.186042	
-0.0211973	
0.259812	
0.242761	
-0.00438853	
0.00547566	
-0.0193106	
0.000895391	
0.117333	
0.0899412	
0.159582	
0.168106	
0.1911	
0.155289	
0.19205	
0.00689421	
0.162634	
0.135529	
0.177014	
-0.0382217	
-0.0516366	
-0.0428834	
-0.0511016	
0.117462	
0.114087	
0.143792	
0.134027	
0.153224	
0.0889203	
0.096856	
0.202173	
0.178263	
0.202186	
0.213781	
0.155573	
0.102795	
0.0906656	
0.0998087	
0.0723665	
0.281185	
0.173935	
0.201398	
0.155072	
0.172133	
0.123248	
0.148771	
0.118257	
0.157733	
0.143407	
0.0161562	
0.207158	
0.214989	
0.18256	
0.239782	
0.238375	
0.15067	
0.177017	
0.125313	
0.128953	
-0.0539768	
-0.0386805	
-0.0630129	
-0.0616417	
0.102788	
0.209554	
0.24148	
0.212279	
0.200951	
0.212051	
0.173507	
0.219217	
0.217061	
0.215568	
0.206234	
0.0488153	
0.107053	
0.266499	
0.243635	
0.268766	
0.206787	
0.197202	
0.266075	
0.267699	
0.233146	
0.246027	
0.260789	
0.206153	
0.232611	
0.175207	
0.178308	
0.187651	
0.249409	
0.236617	
0.250408	
0.223694	
0.265596	
0.233419	
0.253029	
0.00157874	
0.188371	
0.199531	
0.168346	
0.238853	
0.241103	
0.233623	
0.228679	
0.246746	
0.257014	
0.108715	
0.136753	
0.125748	
0.141848	
-0.0534733	
0.219689	
0.186203	
0.189926	
0.119561	
0.152788	
0.156514	
0.17701	
0.157878	
0.166602	
-0.0441468	
-0.0329332	
-0.0480697	
-0.0304669	
0.246795	
0.209933	
0.246853	
0.213439	
0.0886839	
0.218263	
0.225195	
0.223401	
0.250507	
0.233465	
0.261376	
0.152454	
0.13834	
0.219732	
0.215897	
0.223523	
0.182705	
0.186142	
0.0242365	
0.0690228	
0.267016	
0.228767	
-0.0204029	
0.192767	
0.219981	
0.229412	
0.230642	
0.213194	
0.200751	
0.198819	
0.259011	
0.261255	
0.254282	
0.151891	
0.262159	
0.266922	
0.0635434	
0.0870034	
0.0865569	
0.22535	
0.221337	
0.222351	
0.267232	
-0.0675142	
-0.0616327	
0.256998	
0.252198	
0.245301	
0.224061	
-0.0622878	
-0.0566762	
0.167922	
0.155141	
0.118583	
0.120332	
0.224884	
0.0793224	
0.0936166	
0.152946	
0.153671	
0.171941	
0.170222	
0.266251	
0.259194	
0.00207562	
0.0171581	
0.0776712	
0.0435977	
0.110138	
0.1079	
0.1366	
0.181092	
0.179085	
0.167834	
0.161746	
0.274757	
0.261537	
0.239164	
0.254367	
0.268094	
0.0863191	
0.0801113	
0.209007	
0.207638	
0.189019	
0.188924	
0.0273737	
0.0482603	
0.266826	
0.268067	
0.21035	
0.207539	
0.14717	
0.109148	
0.15661	
0.10223	
0.223237	
0.23032	
0.205344	
0.206935	
0.212321	
0.210422	
0.207259	
0.191538	
0.267763	
0.269435	
0.253832	
0.17067	
0.17152	
0.203737	
0.20013	
0.167957	
0.174111	
0.236816	
0.242813	
0.164559	
0.181148	
0.261654	
0.265895	
0.187016	
0.226303	
0.235205	
0.22013	
0.190848	
0.228267	
0.271634	
0.264637	
0.243408	
0.243043	
0.235977	
0.244169	
0.131183	
0.188288	
0.127384	
0.264738	
0.27558	
0.261724	
0.255813	
0.102175	
0.0747623	
0.0774862	
0.0599712	
0.262126	
0.256341	
0.266741	
0.27369	
0.00752118	
0.257139	
0.266899	
0.264068	
0.256638	
0.127958	
0.166401	
0.267413	
0.275552	
0.265913	
0.120689	
0.132803	
0.138382	
0.146557	
0.195398	
0.192089	
0.187539	
0.190531	
0.26981	
0.16608	
0.163609	
0.213622	
0.214014	
0.000257705	
-0.00920029	
0.248515	
0.263174	
0.263003	
0.19576	
-0.00842446	
0.233625	
0.229651	
0.239275	
0.241312	
0.18013	
0.271176	
0.269166	
0.0408406	
0.0114537	
0.18533	
-0.0656871	
-0.0588921	
-0.0650524	
0.176284	
0.0654599	
0.0264252	
0.0504501	
0.0254013	
0.240377	
0.129498	
0.168747	
0.264667	
0.25042	
0.265432	
0.262927	
0.266656	
-0.0037729	
-0.0247493	
0.239086	
0.224216	
0.267266	
0.25794	
0.021426	
0.184724	
0.170389	
0.139526	
0.204789	
0.175427	
0.225927	
0.217616	
0.13207	
0.125183	
0.264072	
0.274011	
0.0653831	
0.0541213	
0.249085	
0.256736	
0.268602	
0.268269	
0.273373	
0.266103	
-0.0589503	
-0.0615085	
0.0987725	
0.0985554	
0.0299083	
0.0218771	
0.0101757	
0.246504	
0.247748	
0.221975	
0.232371	
0.216016	
0.222503	
0.273479	
0.200292	
0.259556	
0.244151	
0.238589	
0.125248	
0.069209	
0.27109	
0.26247	
-0.0363237	
-0.00546306	
0.011719	
0.0668317	
0.213667	
0.143344	
0.248026	
0.241356	
0.0623146	
0.0853124	
0.0387137	
0.247119	
0.160966	
0.164605	
0.254978	
0.253177	
0.0943929	
0.0755485	
-0.0140339	
-0.0158657	
0.1978	
0.201185	
0.185172	
0.19372	
0.241411	
0.2094	
0.185481	
0.226485	
0.21933	
0.199323	
0.00964598	
0.0569961	
0.0506609	
0.134757	
0.0747749	
0.186622	
0.215991	
0.262675	
0.10534	
0.105875	
0.210819	
0.199452	
0.253103	
0.132319	
0.133888	
0.102887	
0.0382951	
0.0171444	
0.0444736	
0.0163335	
0.0427906	
0.164582	
0.195288	
0.192133	
0.221257	
0.0752842	
0.0597629	
0.0976187	
0.0818904	
0.164835	
0.163645	
0.176138	
0.173368	
0.164737	
0.179283	
0.179044	
-0.0689174	
-0.0235813	
-0.0631619	
-0.0487139	
-0.0276481	
0.132214	
0.135532	
-0.0644278	
0.110829	
0.129841	
0.1012	
0.132767	
0.120638	
0.0327966	
-0.0390199	
0.0787943	
0.13897	
-0.0689721	
0.111769	
-0.0628469	
-0.0691788	
-0.0682137	
0.0349224	
0.0708865	
0.264325	
0.241737	
0.268046	
0.24371	
0.269576	
0.269572	
0.138645	
0.0915914	
0.275316	
0.262797	
0.149152	
0.193465	
0.144056	
0.193055	
0.0448572	
0.0605785	
0.21496	
0.0932297	
0.0871308	
-0.0650867	
0.175306	
0.0891296	
0.0891906	
0.0543431	
0.183141	
0.25879	
0.268848	
0.19364	
0.0179473	
0.0116181	
0.165659	
0.196262	
0.228681	
0.219795	
-0.0520547	
-0.037952	
0.26966	
0.265333	
0.251733	
-0.0358817	
0.267043	
0.184698	
0.187155	
0.204057	
0.194204	
0.129731	
0.0825072	
0.270028	
0.257613	
0.166964	
0.169906	
0.234182	
0.245613	
0.215146	
0.0558214	
0.0675588	
0.234265	
0.258994	
0.232792	
0.0810405	
0.204777	
0.209035	
0.129033	
0.217361	
0.248352	
-0.0692126	
0.219951	
0.217551	
0.210175	
0.265591	
0.249885	
0.144029	
0.267165	
0.142228	
0.167198	
0.14246	
0.144837	
0.117783	
0.276092	
0.249204	
0.265954	
0.276712	
0.26641	
0.265741	
0.248098	
0.251726	
0.245728	
0.242632	
0.203453	
0.220509	
0.255925	
0.25033	
0.0813424	
0.0482496	
0.240989	
0.254421	
0.271166	
0.251146	
0.271044	
0.0617206	
0.0721941	
0.0696597	
0.0997769	
0.268321	
0.262172	
0.204885	
0.22393	
0.221359	
0.14642	
0.146878	
-0.066181	
-0.0632484	
0.135331	
0.120804	
0.118743	
0.113186	
0.109949	
0.109713	
0.0849101	
0.260883	
-0.0534667	
-0.0541726	
-0.0686641	
-0.0703292	
0.214546	
0.164697	
0.163616	
0.248769	
-0.0710047	
-0.0661786	
-0.0488007	
-0.0525886	
-0.0677307	
-0.0683719	
0.215354	
0.217137	
0.206753	
0.203805	
-0.0297189	
-0.0122731	
-0.0367076	
-0.0210303	
0.120063	
0.123257	
0.100289	
0.194984	
0.220229	
0.252949	
0.240277	
0.248847	
0.252404	
0.252631	
0.238538	
0.225655	
0.234204	
0.208373	
0.202962	
0.224924	
0.220556	
0.109553	
0.0992989	
0.109267	
0.0415577	
-0.00333903	
0.100476	
0.0682487	
-0.0580811	
-0.039998	
-0.0652892	
0.0770348	
0.175423	
0.124059	
0.120863	
0.0584743	
0.0444261	
-0.0237292	
-0.0440593	
0.229005	
0.228274	
0.0596521	
0.105457	
0.0947943	
0.251829	
0.256981	
0.241449	
0.247249	
0.261815	
0.23044	
0.228191	
0.0843332	
0.0716581	
0.121699	
0.102655	
0.133594	
0.124087	
-0.00236865	
0.0230681	
0.102333	
0.106717	
0.173978	
0.176962	
0.127531	
0.11765	
0.0933059	
0.0904238	
0.176556	
0.173751	
0.161422	
0.125815	
0.160418	
0.166975	
0.235946	
0.248624	
0.163295	
0.153681	
0.128472	
0.169931	
0.19334	
-0.0200968	
0.0289545	
-0.0285777	
0.250414	
0.250032	
0.233282	
0.218964	
0.18618	
0.16516	
0.183251	
0.181695	
-0.0365236	
-0.0421565	
-0.0559552	
-0.0585237	
0.045933	
0.0721466	
0.0847318	
0.168591	
0.145335	
0.181778	
0.187332	
0.209826	
0.187566	
0.253618	
0.250339	
0.226455	
0.234588	
0.23467	
0.234709	
-0.0478721	
-0.0536155	
-0.034949	
-0.0400588	
0.180789	
0.160304	
0.169706	
0.168996	
0.0341502	
0.09934	
0.0976	
0.0895079	
0.0940645	
0.246248	
0.258619	
0.0620656	
0.0321573	
0.263831	
0.262598	
0.249982	
0.26486	
0.261378	
0.263857	
0.0210383	
0.240209	
0.238683	
0.200214	
0.0976084	
0.0877088	
0.0737477	
0.0780686	
0.143318	
0.147954	
0.23065	
0.245738	
0.255997	
0.259137	
0.179423	
0.174703	
0.084783	
0.0937519	
0.235064	
0.226454	
0.0645628	
0.0814543	
0.129022	
0.109357	
0.131864	
0.152232	
0.110092	
0.120737	
0.119991	
0.0829704	
0.0155812	
0.0427438	
0.0998004	
0.0815485	
0.252077	
0.268208	
-0.0157777	
0.142545	
0.115877	
0.262583	
0.261155	
0.0650669	
0.0732096	
0.105543	
0.0813281	
0.0867694	
0.0895737	
0.0295272	
0.0599211	
0.0872496	
0.0755906	
0.136552	
0.126593	
0.075188	
0.0512921	
0.0899174	
0.0618902	
0.225668	
0.227374	
0.169828	
0.18457	
0.15036	
0.141242	
0.0413014	
0.0105153	
-0.0478882	
0.00870404	
0.0246674	
0.0201548	
-0.00661148	
0.167591	
-0.0205229	
0.136018	
0.137778	
-0.0164656	
-0.0435226	
-0.0341927	
-0.0428944	
0.110502	
0.118093	
0.0423168	
0.0467598	
0.0428113	
0.191339	
0.16423	
0.264341	
0.260559	
0.108072	
0.0864648	
0.0770968	
0.0746509	
0.0873703	
0.12925	
0.126161	
0.151517	
0.150918	
0.0642486	
0.0674261	
0.0190369	
0.00953162	
0.0822096	
0.0586797	
0.0616995	
0.0385792	
0.102839	
0.104862	
0.0932177	
0.0864642	
0.0951606	
0.0857267	
0.0530445	
0.270971	
0.269414	
0.264499	
0.270175	
0.103621	
0.107808	
0.0956702	
0.101348	
0.099629	
0.102384	
0.0995422	
-0.0159464	
0.00116507	
-0.00720122	
0.00935615	
0.0266886	
0.0380234	
0.0179872	
0.00797079	
-0.012186	
-0.00371088	
0.00415099	
0.03375	
0.019763	
0.0241828	
0.0123444	
0.00410977	
0.020252	
0.00270111	
0.0121439	
-0.0104644	
-0.0177261	
-0.0136736	
-0.00480096	
0.0270766	
0.0249406	
0.0185806	
0.0106022	
-0.0146619	
-0.0100556	
-0.00424979	
0.00241716	
0.0332469	
-0.0633754	
-0.0489629	
0.00460342	
0.0328204	
-0.025665	
-0.0310931	
-0.00898753	
0.0297094	
0.0233449	
0.00292838	
-0.0517638	
0.00247168	
-0.0286466	
-0.0722916	
-0.0546854	
0.0311873	
0.015886	
-0.00449605	
-0.0661522	
-0.0414349	
-0.0171662	
0.0246802	
0.134609	
0.172748	
0.171092	
0.11502	
0.140358	
-0.030583	
0.070871	
0.13942	
0.0526351	
0.094228	
0.126359	
0.0451002	
0.0361294	
0.11611	
0.117348	
0.0917528	
0.0927683	
0.0765417	
0.101684	
0.124788	
0.171175	
0.173537	
-0.0608972	
-0.0667134	
-0.0521424	
-0.0529393	
-0.000174827	
0.0209652	
0.00999353	
0.162856	
0.148378	
0.152616	
0.0438196	
0.160509	
0.152344	
0.169088	
0.170243	
0.16673	
0.161069	
0.167727	
0.168591	
-0.0565089	
-0.043668	
0.142386	
0.148205	
0.133396	
0.158086	
0.157108	
0.163268	
0.156521	
0.145093	
0.144725	
0.168426	
0.153766	
0.172525	
0.174246	
0.101748	
0.108186	
0.127383	
0.173054	
0.174307	
-0.0401952	
-0.0234868	
0.00746228	
-0.0053761	
-0.0287856	
-0.00726471	
-0.0273905	
0.0551897	
0.0344391	
0.076986	
0.0730574	
0.116766	
0.134611	
0.110709	
0.129781	
0.101502	
0.160046	
0.163987	
0.126663	
0.093278	
-0.14927	
-0.0286826	
0.0328834	
0.0671541	
-0.0242398	
0.0342935	
0.0465894	
-0.0281888	
0.0607397	
0.03471	
-0.000992076	
-0.00399841	
0.00890637	
0.0359029	
0.0453838	
0.134835	
0.155585	
-0.14855	
-0.169633	
-0.124643	
-0.128139	
-0.107814	
-0.0900454	
-0.0815027	
0.0851658	
0.11342	
0.0928844	
-0.0644597	
-0.0758938	
0.127541	
0.118883	
0.139328	
0.127863	
0.129253	
0.138317	
0.132178	
0.124634	
-0.157508	
-0.163939	
0.0729629	
0.0876892	
0.103678	
0.106638	
0.0835778	
0.0875042	
0.110707	
0.115776	
0.15186	
0.150765	
0.158491	
0.16278	
0.0468611	
0.0994792	
0.072322	
0.163285	
0.158312	
-0.142405	
-0.141382	
-0.116456	
-0.111977	
-0.107431	
-0.141462	
-0.120036	
-0.0173385	
-0.0627304	
-0.034748	
-0.064605	
0.0381845	
0.0701189	
0.016919	
0.0701305	
0.0419942	
-0.0528879	
0.069001	
0.164644	
0.217528	
0.211635	
0.210807	
0.19047	
0.20621	
0.195234	
0.184843	
0.207035	
0.200317	
0.204364	
0.191245	
0.199251	
0.19461	
0.172146	
0.154351	
0.173577	
0.183268	
0.178744	
0.212704	
0.174004	
0.204523	
0.203304	
0.189213	
0.209356	
0.196604	
0.205124	
0.0907968	
0.0975792	
-0.096739	
-0.0187808	
0.201455	
0.170014	
0.21231	
0.155878	
0.191291	
0.0927255	
0.172183	
0.1826	
0.212039	
-0.210071	
0.174655	
0.207212	
0.18738	
0.193885	
0.109486	
0.101917	
0.146665	
0.0996391	
0.130683	
-0.00674094	
-0.363895	
0.0160143	
0.115895	
0.123663	
-0.0736062	
-0.0301083	
0.0177133	
0.0475031	
-0.250407	
-0.330731	
-0.341054	
-0.346804	
-0.198602	
-0.00469116	
-0.0140765	
-0.235301	
-0.270033	
-0.152629	
-0.00574107	
-0.262558	
-0.296032	
-0.334139	
-0.335268	
-0.168506	
0.00699331	
-0.0884253	
-0.348166	
-0.346281	
-0.0838662	
0.174618	
0.0893375	
0.169215	
-0.350259	
-0.0495968	
0.139167	
-0.0363041	
-0.00814614	
0.15173	
-0.248648	
-0.0287842	
-0.0914536	
-0.134969	
-0.209325	
-0.0663726	
0.156131	
-0.0964643	
0.094341	
-0.101132	
0.116133	
0.0826129	
0.0267785	
0.0691122	
-0.243799	
-0.226369	
0.0796455	
-0.00689099	
-0.104891	
-0.0404774	
-0.138856	
-0.103815	
-0.254378	
-0.0774657	
-0.079441	
-0.161593	
0.150903	
-0.155496	
-0.328804	
0.123428	
-0.324814	
-0.322369	
-0.00415716	
0.0544638	
-0.320403	
-0.125748	
-0.182314	
-0.140698	
0.196648	
0.109472	
0.118846	
0.118511	
0.0492679	
0.0499257	
-0.0110043	
0.0401547	
-0.217629	
-0.140302	
0.169534	
0.151968	
0.0966366	