<VTKFile type="UnstructuredGrid" version="0.1" byte_order="LittleEndian">
	<UnstructuredGrid>
		<Piece NumberOfPoints="3959" NumberOfCells="7450">
			<CellData Scalars="scalars">
				<DataArray type="Float64" Name="Doublet Strengths" NumberOfComponents="1" Format="ascii">
-0.0704459	
-0.055246	
0.00107881	
0.0312794	
-0.0307032	
-0.040423	
-0.0166604	
0.0263191	
0.0184514	
-0.00365123	
-0.0628319	
0.00348197	
-0.0270577	
-0.0689508	
-0.0523259	
0.0314995	
0.0191	
-0.000454504	
-0.0589608	
-0.0356054	
-0.0124846	
0.0266915	
0.13431	
0.171653	
0.170041	
0.11296	
0.133046	
-0.107364	
0.0329191	
0.120394	
0.0324951	
0.0838818	
0.106827	
0.010896	
-0.00439297	
0.0893696	
0.0945064	
0.0630171	
0.061489	
0.0603611	
0.0815538	
0.106196	
0.163165	
0.170624	
-0.0925585	
-0.103712	
-0.10125	
-0.144905	
-0.0561099	
-0.0315202	
-0.0191182	
0.152589	
0.133694	
0.138362	
0.000664974	
0.15052	
0.146802	
0.159425	
0.162593	
0.15613	
0.160582	
0.158142	
0.161283	
-0.124229	
-0.168721	
0.123487	
0.130126	
0.111563	
0.14379	
0.143052	
0.156846	
0.149089	
0.132006	
0.133326	
0.165956	
0.151915	
0.170789	
0.170909	
0.0874323	
0.100906	
0.121465	
0.172008	
0.17145	
-0.0860387	
-0.0873968	
-0.0389495	
-0.0414012	
-0.0616513	
-0.0516055	
-0.0812732	
0.0315136	
0.005232	
0.052471	
0.0434188	
0.0980236	
0.121365	
0.0954377	
0.118025	
0.105248	
0.163597	
0.16723	
0.129305	
0.100813	
-0.0763725	
0.00802489	
0.0558771	
0.0869376	
-0.00523267	
0.0490682	
0.066637	
0.000413131	
0.082992	
0.0613353	
0.029604	
0.024155	
0.0247877	
0.0550572	
0.0645529	
0.144702	
0.160855	
-0.103577	
-0.0825969	
-0.0970531	
-0.095154	
-0.0641152	
-0.0398923	
-0.0548829	
0.101088	
0.125459	
0.108419	
-0.0231231	
-0.0373741	
0.136119	
0.126552	
0.148641	
0.139844	
0.140533	
0.142685	
0.14147	
0.135979	
-0.0940117	
-0.0431812	
0.0926043	
0.10658	
0.118961	
0.122084	
0.0980102	
0.100384	
0.122537	
0.125223	
0.154995	
0.1558	
0.163763	
0.166345	
0.0577833	
0.108535	
0.080732	
0.166662	
0.163357	
-0.0821125	
-0.09113	
-0.0634843	
-0.0825913	
-0.0743533	
-0.0994887	
-0.0787863	
0.00636769	
-0.0302734	
-0.0123717	
-0.0373062	
0.053948	
0.0830808	
0.0370194	
0.0845327	
-0.00608508	
-0.17674	
0.0290332	
0.16754	
0.215896	
0.207663	
0.2078	
0.190802	
0.203099	
0.19303	
0.183743	
0.205637	
0.199429	
0.200332	
0.183334	
0.194498	
0.190754	
0.170165	
0.162966	
0.171495	
0.180201	
0.175792	
0.208624	
0.174919	
0.198109	
0.198732	
0.184699	
0.203905	
0.19331	
0.204913	
0.115449	
0.108088	
-0.0321975	
0.0113574	
0.196426	
0.176019	
0.210649	
0.16518	
0.187742	
0.0583883	
0.178233	
0.184517	
0.207848	
-0.251333	
0.178407	
0.202454	
0.189953	
0.194984	
0.133345	
0.126063	
0.157912	
0.124097	
0.145558	
-0.0730357	
-0.275792	
-0.0413528	
0.0881773	
0.0964249	
-0.229971	
-0.109464	
-0.0373833	
-0.000810451	
-0.364341	
-0.176708	
-0.220609	
-0.374317	
-0.219227	
-0.0290535	
-0.0835914	
-0.299671	
-0.341937	
-0.201677	
-0.0699549	
-0.313183	
-0.350352	
-0.382758	
-0.389793	
-0.303482	
-0.0519099	
-0.142237	
-0.383364	
-0.372742	
-0.0978648	
0.163405	
0.10301	
0.15315	
-0.225133	
0.0100318	
0.117018	
0.0258333	
0.0196301	
0.129879	
-0.085157	
0.0395703	
-0.106809	
-0.152557	
-0.296875	
-0.0340108	
0.135673	
-0.052615	
0.0616116	
-0.0142072	
0.085859	
0.0433611	
0.025841	
0.0690831	
-0.281776	
-0.259114	
0.0554212	
0.0367185	
-0.0187362	
0.0272552	
-0.0792281	
-0.0249425	
-0.286199	
-0.127345	
-0.125705	
-0.080512	
0.142245	
-0.0642281	
-0.151479	
0.101732	
-0.168618	
-0.176706	
0.0496315	
0.082964	
-0.224763	
-0.140459	
-0.196	
-0.0410643	
0.186631	
0.0855225	
0.0889551	
0.0882604	
0.00879588	
0.00881974	
-0.0221852	
0.0303144	
-0.300055	
-0.204028	
0.153728	
0.130238	
0.127967	
0.139569	
-0.0991773	
-0.0752256	
-0.0769883	
-0.03169	
-0.0202514	
0.00851827	
0.164194	
0.0525299	
0.0831232	
0.172642	
0.167945	
0.0775431	
-0.246386	
0.189175	
0.10973	
-0.0548888	
-0.123	
0.17862	
0.199355	
0.056403	
0.153374	
-0.277221	
-0.191445	
0.114847	
0.111466	
0.125245	
0.0242632	
0.194017	
0.170483	
0.151273	
0.154312	
0.138268	
0.161451	
0.185587	
0.181708	
0.16066	
-0.0318876	
0.0383616	
0.146489	
0.162438	
0.147502	
0.179654	
0.189435	
0.0571323	
0.169961	
0.0820092	
0.0623333	
0.0535601	
0.0613073	
0.120334	
0.187217	
0.106852	
0.0807193	
0.0554641	
0.062741	
0.116926	
0.119387	
0.137236	
0.136135	
0.0610116	
0.00722461	
0.0220154	
-0.0275145	
0.18812	
0.207206	
0.188798	
0.182075	
0.193715	
0.0989836	
0.10177	
0.183321	
0.10527	
-0.204183	
0.0855794	
0.0183111	
0.0712631	
0.0845642	
0.174974	
0.0260407	
-0.0996028	
-0.0692789	
0.0578367	
0.059445	
0.022062	
0.14904	
0.179436	
0.101915	
0.0958367	
0.184963	
0.143816	
0.0943587	
0.0371146	
0.0291032	
0.0617213	
0.0648101	
0.0135267	
0.141806	
0.147413	
-0.336958	
-0.295184	
-0.191921	
-0.152359	
-0.089745	
0.118268	
0.109726	
0.129722	
0.162553	
0.14979	
0.126033	
0.182286	
-0.182446	
-0.192177	
-0.35789	
-0.327583	
0.0469126	
-0.0882102	
0.0331417	
-0.32464	
-0.350623	
0.0023965	
-0.0123546	
0.0098776	
0.000439919	
-0.109191	
-0.0695057	
-0.0617287	
-0.0147513	
0.0178695	
-0.00223464	
0.0651277	
0.085393	
0.108734	
-0.0111203	
-0.0419619	
-0.0109985	
-0.0293628	
-0.0100992	
0.033887	
0.110291	
0.111164	
0.0928915	
0.0241197	
0.00205102	
-0.0733718	
0.135319	
0.0964966	
0.0186751	
0.00531756	
0.191602	
-0.213272	
0.0621523	
-0.0206114	
-0.0323385	
0.210864	
0.190931	
0.203042	
-0.213208	
-0.166072	
-0.111129	
-0.00183696	
-0.12187	
-0.0717059	
0.198875	
0.184151	
0.139889	
0.115471	
0.0666539	
-0.0635081	
-0.134698	
-0.0874494	
0.178917	
0.0296572	
-0.3848	
-0.387656	
-0.385986	
-0.214431	
0.0604761	
0.00012388	
-0.0035167	
0.0155701	
0.0151539	
0.0233167	
-0.0139057	
0.124648	
0.119936	
-0.139679	
-0.0711986	
-0.193931	
-0.129676	
-0.0486932	
-0.163862	
-0.0745642	
0.0425776	
-0.261985	
-0.244552	
0.136793	
0.0620595	
0.107507	
-0.0390244	
-0.00295191	
0.155564	
0.156751	
0.13812	
0.15518	
0.142833	
0.0758212	
0.0534772	
0.138214	
0.0459103	
0.196465	
0.186181	
-0.114293	
-0.24661	
0.181361	
0.178056	
0.188025	
0.0192336	
0.18973	
0.20117	
0.187658	
0.197445	
0.206231	
0.191056	
-0.226191	
-0.254881	
0.206464	
0.188179	
0.193942	
0.181222	
-0.354246	
0.0375742	
0.00944017	
0.0230977	
0.189734	
0.172604	
0.157518	
0.179729	
0.0632131	
0.0653048	
0.0153735	
0.0185879	
0.132282	
-0.140741	
0.0288021	
0.0724614	
-0.0595993	
0.144775	
0.154055	
0.125955	
0.0925506	
0.202389	
0.036092	
0.0819816	
-0.0231947	
-0.00970791	
0.104633	
0.129104	
0.1363	
0.0486515	
-0.0650739	
-0.0405462	
-0.0219237	
0.0191017	
0.0548489	
0.0845633	
-0.0264151	
0.0357799	
-0.0198048	
0.196805	
0.181859	
0.0665611	
-0.00749865	
0.086716	
0.147662	
-0.00419324	
-0.11736	
-0.0072698	
-0.119631	
0.103593	
-0.0354199	
-0.039284	
-0.0239245	
0.122739	
0.0948058	
0.0911643	
0.033027	
0.0942664	
0.0555281	
0.00436998	
0.00802312	
0.0281332	
0.0228533	
0.00761089	
-0.0388295	
-0.0857997	
0.115443	
0.0375427	
0.0358583	
0.0228232	
0.128804	
0.0263157	
-0.0127632	
0.0672427	
0.0785098	
0.105588	
-0.342366	
-0.0100948	
-0.0341143	
0.0578143	
0.0657884	
0.151336	
0.092684	
0.0811227	
0.0727442	
-0.111868	
-0.0713253	
0.0369597	
0.0107866	
-0.0203601	
-0.0657295	
0.0968587	
0.0645486	
0.0574986	
0.0597526	
-0.0462944	
0.0286708	
-0.247623	
-0.231262	
-0.147827	
-0.134725	
0.144209	
-0.0449886	
-0.167634	
0.129362	
-0.0920791	
0.0265917	
-0.144075	
-0.216279	
-0.0678789	
-0.0357569	
0.0160986	
-0.0173943	
-0.0983747	
-0.158836	
-0.0884026	
-0.0401306	
-0.0237138	
-0.00141335	
-0.147855	
0.131041	
0.00874738	
0.0356982	
0.0741841	
-0.106259	
-0.0718311	
-0.085301	
-0.139905	
-0.213895	
0.121537	
0.109554	
-0.0206666	
0.0318602	
-0.112016	
-0.134722	
0.11037	
0.0370523	
0.0684614	
-0.030033	
-0.0126932	
-0.119536	
-0.0805411	
-0.309446	
-0.346696	
0.0486045	
-0.24637	
0.0450984	
0.00478917	
-0.140779	
0.134044	
-0.0989039	
-0.0878977	
-0.0125433	
-0.0581859	
0.183217	
0.0973476	
0.145959	
0.0821489	
0.102538	
0.203131	
0.190789	
-0.0516485	
-0.0442138	
0.0469928	
0.0643098	
-0.341215	
-0.13578	
-0.165443	
-0.382691	
-0.0184294	
0.0497878	
-0.0317589	
-0.0416313	
-0.137946	
-0.112897	
0.0340327	
-0.0108111	
0.00312483	
0.193927	
0.178538	
0.0646264	
0.00287372	
-0.0366222	
0.086353	
0.117615	
0.0390937	
0.070907	
0.0255889	
-0.0544012	
0.189716	
0.207604	
0.204784	
0.192883	
-0.195099	
0.185359	
0.164083	
-0.00280565	
-0.0912347	
0.017242	
0.156106	
0.175289	
0.154592	
0.17472	
0.162833	
0.140057	
0.0645078	
0.0498632	
-0.00137675	
0.00409953	
0.11762	
0.124348	
-0.130507	
-0.363797	
-0.34138	
0.0393311	
0.0272366	
0.197518	
0.179131	
0.212412	
0.196282	
0.148663	
0.116372	
-0.072875	
0.108543	
0.139928	
0.125781	
0.142303	
0.143385	
0.161768	
0.156428	
0.136042	
-0.207207	
-0.229602	
0.17697	
0.162094	
0.0972316	
0.0566538	
0.143547	
0.14232	
0.203318	
0.189994	
-0.0339039	
-0.0931017	
-0.158335	
-0.0727641	
0.0156081	
0.101819	
0.0444928	
0.112733	
-0.0853344	
-0.0735816	
-0.252162	
0.114549	
0.110968	
0.166823	
0.191243	
-0.0726038	
0.0369631	
-0.0398076	
0.0169157	
-0.0513013	
-0.0143377	
0.0576223	
0.0593808	
0.108885	
-0.0266768	
-0.0273531	
-0.0382488	
-0.0430151	
0.202865	
0.176147	
0.179366	
-0.103783	
-0.15105	
0.0641457	
-0.00947889	
0.0584281	
-0.0409471	
0.0618016	
0.0527425	
-0.0830246	
-0.0915964	
0.076271	
-0.00449316	
0.00356455	
-0.296866	
-0.00847247	
0.0372245	
0.0771111	
0.0802221	
-0.157438	
-0.169203	
-0.238244	
-0.0189085	
0.0195129	
0.164657	
0.151946	
0.00803596	
0.0653802	
0.086808	
0.0922667	
-0.00375716	
-0.0447127	
-0.0988251	
-0.100456	
0.192764	
0.18178	
0.186081	
0.0600765	
0.0626047	
0.113753	
0.0573032	
-0.139457	
-0.136664	
-0.19368	
-0.0947654	
-0.0876153	
-0.0157724	
0.112063	
0.113533	
0.0778448	
0.0391208	
-0.177168	
-0.178229	
-0.0106944	
-0.0299558	
-0.222912	
-0.196352	
-0.268149	
-0.118384	
0.17142	
0.156029	
0.13055	
0.190166	
0.209451	
-0.0746504	
-0.0138982	
-0.0690381	
0.0638647	
0.10874	
0.0233981	
0.0690506	
0.099594	
0.126991	
0.103421	
0.129535	
-0.0370945	
-0.0227554	
0.142458	
0.141335	
-0.160521	
-0.134502	
-0.203423	
0.184511	
0.1921	
0.183793	
0.13978	
0.104299	
0.15678	
0.108486	
0.154055	
0.0764979	
0.134071	
0.130928	
0.165204	
-0.055728	
-0.0456063	
-0.0479141	
0.136775	
-0.0565459	
-0.0760055	
-0.173471	
0.0556964	
0.0302898	
-0.240525	
-0.247798	
-0.0524648	
-0.0595859	
0.118141	
0.0657997	
-0.130426	
-0.297769	
-0.262351	
0.17656	
0.17514	
0.159334	
0.174519	
0.172486	
0.0468851	
0.0885885	
0.0308529	
0.0379539	
0.185796	
-0.0401472	
-0.200718	
-0.0410547	
0.0192643	
-0.0179296	
-0.0261074	
0.0148037	
-0.342769	
0.052178	
0.0613973	
0.141729	
0.110934	
0.156788	
0.124445	
0.143149	
0.133325	
0.130301	
0.0253785	
0.0570676	
0.0497019	
0.0764895	
0.1301	
0.108838	
0.0270457	
0.140119	
0.154409	
0.106419	
0.123689	
0.113427	
0.137888	
0.117473	
0.114693	
0.0522378	
0.0546497	
0.12867	
0.109977	
0.118092	
0.0725722	
-0.0640423	
-0.0660729	
-0.0487769	
-0.0159663	
-0.0966417	
-0.0315429	
0.0733329	
0.0550088	
0.102326	
0.157761	
0.123931	
0.137415	
0.0852166	
0.00932153	
-0.0119056	
0.056534	
-0.0162625	
0.0165547	
-0.029451	
0.0543401	
0.178971	
0.178693	
-0.319995	
-0.280397	
0.12269	
0.113213	
-0.00817619	
-0.0229467	
0.13046	
-0.0746555	
-0.058264	
0.174041	
0.160098	
0.188606	
0.207166	
0.0591029	
0.0358644	
0.141242	
0.125174	
0.176721	
0.0187038	
0.0590259	
0.123115	
0.0773336	
0.113186	
0.0851696	
0.111714	
0.206414	
0.0309577	
0.0311699	
0.180604	
0.0497931	
0.103628	
0.102202	
0.0294474	
0.00455436	
0.106933	
0.113298	
0.147125	
0.185328	
0.190417	
0.200068	
-0.20686	
0.122149	
0.071119	
-0.0597279	
0.0306248	
0.0680188	
0.144572	
0.142336	
0.196303	
0.187797	
0.154974	
0.146205	
-0.2031	
-0.125398	
-0.09118	
-0.107923	
0.0831997	
0.0641738	
0.0711169	
-0.0899915	
-0.0613353	
-0.266117	
-0.0822939	
-0.0731499	
-0.131242	
-0.277381	
-0.216303	
-0.147693	
-0.136374	
-0.120104	
-0.101719	
0.146731	
0.13484	
0.0703939	
-0.0630588	
-0.052148	
-0.143385	
-0.143471	
-0.209652	
-0.206474	
-0.053789	
-0.0719473	
-0.338175	
-0.0477015	
-0.195755	
0.0878915	
0.0920038	
0.0648332	
0.066803	
0.170798	
0.170126	
-0.0523176	
-0.0950845	
-0.000542527	
-0.00380981	
0.0469548	
0.0274553	
0.0433321	
0.026424	
-0.199335	
-0.225114	
-0.165304	
-0.0229065	
0.134594	
0.121751	
0.0585133	
0.0381111	
-0.245772	
-0.227022	
-0.0878818	
-0.190685	
-0.232644	
-0.212753	
-0.265515	
0.200339	
0.183683	
-0.0263401	
-0.0824325	
-0.0604684	
-0.0546883	
-0.0808405	
-0.189855	
-0.173556	
0.0553103	
0.0110399	
-0.158033	
-0.0510377	
-0.256593	
-0.247381	
-0.150059	
-0.130442	
-0.138139	
-0.12502	
-0.149986	
-0.148343	
-0.103701	
-0.102827	
0.147959	
0.0751832	
0.13251	
0.114437	
0.111553	
0.11529	
0.0815013	
-0.234751	
-0.189836	
-0.195285	
-0.206011	
-0.19835	
-0.263778	
-0.272793	
-0.318989	
-0.177853	
-0.117483	
-0.216153	
-0.190528	
-0.2893	
-0.334186	
-0.333721	
-0.369378	
-0.0353538	
-0.0379522	
-0.0400066	
-0.0477154	
-0.211496	
-0.218224	
-0.170318	
-0.160297	
-0.128733	
-0.137748	
-0.0930307	
-0.30896	
-0.0350676	
-0.0200044	
-0.308806	
-0.266742	
-0.0136853	
-0.0235547	
-0.0285775	
-0.148058	
-0.143975	
-0.02479	
-0.0335854	
-0.07739	
-0.0845554	
-0.173198	
-0.164911	
0.088219	
0.0219344	
0.00184926	
-0.00580749	
0.0971547	
0.0490469	
-0.120215	
-0.0960749	
-0.119961	
-0.0184174	
-0.283265	
-0.330047	
-0.0990794	
-0.115069	
0.196105	
0.122302	
0.209246	
0.180366	
-0.378181	
-0.371741	
0.0456859	
0.00236972	
-0.313375	
-0.278529	
-0.332394	
-0.298671	
-0.283585	
-0.294215	
-0.222147	
-0.192122	
-0.319037	
-0.359627	
-0.358914	
-0.353139	
-0.351027	
-0.183556	
-0.129704	
-0.104435	
-0.301045	
-0.327784	
-0.354694	
-0.243992	
0.188304	
0.15674	
0.209166	
0.191949	
-0.328992	
-0.300482	
-0.218712	
-0.206949	
-0.193466	
-0.00729813	
-0.0079406	
-0.29902	
-0.298465	
-0.334123	
-0.303626	
-0.32617	
-0.0593474	
-0.0701304	
-0.0824821	
-0.104432	
-0.216743	
-0.258145	
-0.217551	
-0.243458	
-0.272156	
-0.3037	
0.208409	
0.183855	
0.182033	
0.14282	
-0.25069	
-0.134694	
-0.122966	
-0.135803	
0.181146	
0.138166	
0.160971	
0.0809381	
-0.352044	
0.081239	
0.12543	
0.114336	
0.135508	
-0.337013	
-0.355729	
-0.34009	
-0.343945	
-0.334945	
-0.341498	
-0.300167	
-0.110585	
-0.10069	
-0.0992538	
-0.0992997	
0.13735	
0.195414	
0.133918	
0.193021	
0.128922	
0.119782	
0.122777	
0.0732255	
-0.254394	
-0.275278	
-0.254175	
-0.239596	
-0.344798	
-0.359553	
-0.346186	
-0.352561	
0.0773789	
0.136585	
0.0815609	
0.138124	
0.163475	
0.129909	
0.150756	
0.0930123	
0.112256	
0.0882958	
0.1115	
0.087557	
0.173454	
0.201653	
0.204923	
0.209678	
0.220567	
0.141599	
0.231071	
0.235371	
0.236159	
0.244301	
0.24869	
0.254196	
0.228419	
0.190678	
0.168984	
0.0470787	
0.255931	
-0.00784699	
-0.00198853	
-0.0338804	
0.182734	
0.248691	
0.233973	
0.265391	
0.261387	
0.268314	
0.256028	
0.263073	
0.253664	
0.24621	
0.170432	
0.217037	
0.196237	
0.218513	
0.189186	
0.149536	
0.21707	
0.158874	
0.101721	
0.257018	
0.235882	
0.23463	
0.0943733	
-0.0442548	
0.248198	
-0.0270424	
-0.0413194	
0.0139426	
0.0705484	
0.0427654	
-0.0350719	
0.0405477	
0.0022275	
0.0709142	
-0.0540909	
0.0164295	
0.0650098	
0.0838613	
0.0411453	
-0.00340173	
-0.0444896	
0.208688	
-0.0291445	
0.177055	
0.106455	
0.109311	
0.0866395	
0.0478872	
0.0544824	
0.0727476	
0.0814033	
0.0201769	
0.0594394	
0.013639	
0.0396659	
0.0209466	
0.0321265	
0.0317126	
0.0453403	
0.0873573	
0.0526922	
0.0573247	
0.068664	
0.0890283	
0.0463732	
-0.0226662	
-0.0262191	
0.0216176	
-0.00198872	
-0.00783121	
0.0345742	
0.0644336	
0.0595266	
0.00510033	
-0.0195874	
-0.0288241	
-0.00840027	
0.0330243	
-0.0615748	
-0.0403176	
-0.0638073	
0.167737	
0.188556	
0.185512	
0.223952	
0.0108053	
0.100602	
0.153922	
0.161321	
0.190133	
0.000271228	
0.151684	
0.129243	
-0.057913	
-0.0385851	
-0.0291119	
0.134325	
-0.03116	
0.143701	
-0.00327472	
0.204418	
0.208004	
-0.0687989	
0.076476	
0.0403353	
0.00277762	
0.0747802	
0.0161235	
0.245973	
0.230184	
0.223506	
-0.0498828	
0.0841962	
0.217805	
-0.0133589	
-0.0164869	
0.208463	
0.230281	
0.00754486	
0.0489795	
0.199027	
0.140575	
-0.0615839	
-0.0495279	
0.111088	
-0.0224488	
-0.0173648	
-0.00760568	
-0.00126573	
0.251038	
0.208467	
0.214039	
0.13251	
0.167494	
0.244691	
0.273571	
0.255065	
0.0586131	
0.169582	
0.243443	
0.194303	
0.1088	
0.130125	
0.142663	
0.160802	
0.00603812	
0.120465	
0.0852045	
0.0988813	
0.0674145	
0.120335	
0.118139	
0.189095	
0.150548	
0.194609	
0.116177	
0.156615	
0.129536	
0.167637	
0.117833	
0.125252	
0.157932	
0.206133	
0.141007	
0.151391	
0.159309	
0.159045	
0.141887	
0.266338	
0.268271	
0.277952	
0.26557	
0.281626	
0.250044	
0.116638	
-0.0243935	
0.0226271	
0.0278819	
0.12471	
0.232532	
0.179037	
0.110782	
0.183533	
0.170676	
0.124096	
0.236733	
0.270148	
0.275418	
0.230712	
0.249773	
0.25962	
0.277963	
0.262318	
0.252796	
0.277528	
0.262296	
0.262084	
0.270097	
0.24438	
0.242452	
0.268845	
0.26857	
0.274455	
0.104046	
0.278794	
0.225914	
0.246862	
0.200448	
0.226519	
0.269419	
0.270481	
0.274267	
0.204343	
0.196554	
0.224497	
0.208906	
0.217937	
0.22115	
0.195656	
-0.0463292	
-0.0515168	
0.239309	
0.226867	
0.251729	
0.229597	
0.201765	
0.182652	
0.200731	
0.25864	
0.2341	
0.234	
0.240742	
0.166523	
0.20956	
0.08501	
0.261723	
0.24893	
0.0933053	
0.185989	
0.163149	
0.232	
0.124753	
0.130064	
0.206843	
0.147297	
0.273366	
0.134485	
0.132344	
0.160389	
0.222509	
0.194101	
0.181242	
0.267291	
0.0484439	
0.107772	
0.0419722	
0.0774305	
0.195445	
0.187007	
0.154917	
0.184741	
-0.0213719	
0.258892	
0.241357	
-0.00440124	
0.00546473	
-0.0193139	
0.000897152	
0.116758	
0.0893619	
0.159188	
0.165685	
0.188936	
0.152681	
0.189821	
0.00687821	
0.160196	
0.132894	
0.174774	
-0.0381872	
-0.0515966	
-0.0428245	
-0.0510391	
0.116457	
0.113092	
0.143235	
0.133341	
0.151742	
0.08779	
0.0957636	
0.200294	
0.177784	
0.201744	
0.213409	
0.155356	
0.102585	
0.0904522	
0.0992946	
0.0719639	
0.280664	
0.172974	
0.200493	
0.154133	
0.171272	
0.12106	
0.147466	
0.116705	
0.156597	
0.142134	
0.0161369	
0.206084	
0.214112	
0.180874	
0.239053	
0.237658	
0.150153	
0.176558	
0.124812	
0.128469	
-0.0539407	
-0.0386726	
-0.0629662	
-0.0615975	
0.102467	
0.20854	
0.240551	
0.211232	
0.19899	
0.210254	
0.171291	
0.218456	
0.215988	
0.214593	
0.204983	
0.0483839	
0.10654	
0.265824	
0.242701	
0.268226	
0.204754	
0.195025	
0.265577	
0.266982	
0.232224	
0.24516	
0.260063	
0.204864	
0.231525	
0.174231	
0.177467	
0.186976	
0.248822	
0.235917	
0.249814	
0.222929	
0.264941	
0.232327	
0.252165	
0.0014864	
0.186556	
0.197867	
0.166256	
0.237966	
0.239987	
0.232371	
0.227248	
0.245841	
0.256258	
0.107541	
0.136032	
0.124751	
0.141175	
-0.0535279	
0.218082	
0.184176	
0.187884	
0.118027	
0.150158	
0.153919	
0.174621	
0.157255	
0.166104	
-0.0441363	
-0.0329305	
-0.0480504	
-0.0304665	
0.245657	
0.208372	
0.245695	
0.211864	
0.0856156	
0.216918	
0.224164	
0.222179	
0.249729	
0.232574	
0.26072	
0.150391	
0.136203	
0.218699	
0.214596	
0.222509	
0.182649	
0.186207	
0.0242162	
0.0689786	
0.266389	
0.227834	
-0.0205528	
0.192061	
0.219334	
0.228077	
0.229345	
0.211759	
0.200714	
0.198652	
0.258284	
0.26061	
0.253494	
0.151502	
0.261791	
0.266489	
0.0611869	
0.0849577	
0.0843338	
0.224357	
0.221207	
0.22203	
0.266582	
-0.0674599	
-0.0615891	
0.256635	
0.251994	
0.244289	
0.222434	
-0.0622428	
-0.056651	
0.166899	
0.154164	
0.117677	
0.119448	
0.223116	
0.076976	
0.0913297	
0.152735	
0.153474	
0.171319	
0.169659	
0.265952	
0.259048	
0.00203574	
0.0170951	
0.0774028	
0.0433677	
0.107597	
0.107615	
0.136326	
0.180597	
0.178395	
0.167029	
0.160799	
0.274527	
0.261427	
0.238167	
0.253548	
0.267502	
0.0858786	
0.079657	
0.206997	
0.205618	
0.189073	
0.188838	
0.0269653	
0.0477776	
0.266338	
0.267357	
0.209395	
0.206596	
0.146723	
0.108698	
0.15614	
0.101773	
0.223122	
0.229941	
0.20533	
0.20679	
0.212161	
0.210402	
0.206815	
0.191037	
0.267157	
0.268735	
0.252854	
0.170687	
0.171613	
0.201941	
0.198342	
0.165807	
0.172109	
0.236677	
0.2425	
0.162577	
0.179356	
0.261506	
0.265653	
0.186241	
0.226184	
0.234785	
0.218911	
0.189407	
0.227109	
0.271198	
0.264269	
0.242329	
0.242304	
0.234667	
0.243131	
0.130757	
0.187924	
0.126974	
0.264462	
0.27521	
0.261354	
0.255593	
0.100566	
0.0728459	
0.0756856	
0.0580281	
0.261939	
0.256253	
0.26651	
0.273375	
0.00723411	
0.257048	
0.26669	
0.263658	
0.256281	
0.127394	
0.16578	
0.2671	
0.275307	
0.265774	
0.119918	
0.132234	
0.137816	
0.146194	
0.19539	
0.191961	
0.186715	
0.189851	
0.269406	
0.166229	
0.163603	
0.2136	
0.213861	
-0.00253445	
-0.0119774	
0.24812	
0.262704	
0.262575	
0.194925	
-0.0085107	
0.233345	
0.229406	
0.239075	
0.240952	
0.179537	
0.27054	
0.268697	
0.0406257	
0.0112807	
0.185079	
-0.0656308	
-0.0588516	
-0.0650012	
0.176438	
0.0654062	
0.0263959	
0.0504061	
0.0253745	
0.240084	
0.126706	
0.166255	
0.263872	
0.249365	
0.264604	
0.262786	
0.266422	
-0.0037942	
-0.0247746	
0.237701	
0.222519	
0.267088	
0.257873	
0.0214024	
0.183476	
0.168803	
0.137677	
0.204515	
0.175208	
0.225652	
0.217386	
0.130832	
0.123805	
0.263877	
0.273727	
0.0653471	
0.0540979	
0.248131	
0.255842	
0.268094	
0.267666	
0.273041	
0.265857	
-0.058906	
-0.0614602	
0.0987091	
0.0984848	
0.0278306	
0.0198162	
0.00996895	
0.245259	
0.246539	
0.22015	
0.230744	
0.214142	
0.220703	
0.273132	
0.198159	
0.259213	
0.243843	
0.238455	
0.125125	
0.0690847	
0.270765	
0.262218	
-0.0364328	
-0.00559642	
0.0115529	
0.0663231	
0.213435	
0.143176	
0.247653	
0.241044	
0.0618092	
0.0847433	
0.0382662	
0.246264	
0.160384	
0.164043	
0.254548	
0.25278	
0.0931985	
0.074124	
-0.0140306	
-0.0158535	
0.197124	
0.200666	
0.184187	
0.192853	
0.241053	
0.208155	
0.184071	
0.226236	
0.219116	
0.199067	
0.0096295	
0.0569502	
0.0506174	
0.132485	
0.0744179	
0.185089	
0.214662	
0.261835	
0.103013	
0.103468	
0.210462	
0.199053	
0.252066	
0.129538	
0.131129	
0.0999879	
0.0359966	
0.0171211	
0.0444338	
0.0163116	
0.042754	
0.164303	
0.195031	
0.19189	
0.220256	
0.0735107	
0.0578883	
0.0960879	
0.0802283	
0.164608	
0.163465	
0.17618	
0.173431	
0.164409	
0.179283	
0.179177	
-0.0688788	
-0.0237109	
-0.063152	
-0.0487403	
-0.0276849	
0.131948	
0.135233	
-0.0644285	
0.110747	
0.127179	
0.0984225	
0.130074	
0.117836	
0.0327707	
-0.0390969	
0.0782025	
0.13824	
-0.0689092	
0.111519	
-0.0627964	
-0.0691241	
-0.0681507	
0.0348956	
0.0708417	
0.263628	
0.240858	
0.26747	
0.242849	
0.26904	
0.26903	
0.13795	
0.0909122	
0.275082	
0.262682	
0.148861	
0.193195	
0.143764	
0.192192	
0.0447785	
0.0605086	
0.213963	
0.09294	
0.0868593	
-0.0650469	
0.174017	
0.0890758	
0.089129	
0.0542989	
0.181642	
0.258493	
0.268441	
0.192922	
0.0178943	
0.0115822	
0.16534	
0.195609	
0.228116	
0.219164	
-0.0520263	
-0.0379402	
0.269162	
0.264644	
0.250835	
-0.0358381	
0.266446	
0.184467	
0.186886	
0.203391	
0.193247	
0.129563	
0.0823217	
0.269455	
0.256758	
0.166745	
0.169652	
0.23392	
0.245272	
0.21468	
0.0556517	
0.0674093	
0.233663	
0.258536	
0.232197	
0.0807528	
0.204511	
0.208738	
0.126686	
0.216885	
0.247994	
-0.0692704	
0.219674	
0.217248	
0.209934	
0.264914	
0.249095	
0.142553	
0.26707	
0.139895	
0.166918	
0.142176	
0.144543	
0.117502	
0.275674	
0.248995	
0.265317	
0.276231	
0.26582	
0.265332	
0.247815	
0.251116	
0.245012	
0.241905	
0.202533	
0.219671	
0.255534	
0.250087	
0.0780539	
0.0481904	
0.240648	
0.253975	
0.270982	
0.251109	
0.270603	
0.0616288	
0.0721523	
0.0696124	
0.0964845	
0.267965	
0.261964	
0.203706	
0.223389	
0.220827	
0.144036	
0.144395	
-0.066133	
-0.06321	
0.132748	
0.118129	
0.115852	
0.113101	
0.109867	
0.109614	
0.0848308	
0.260024	
-0.0534352	
-0.054135	
-0.0686099	
-0.0702705	
0.212784	
0.162348	
0.161333	
0.248514	
-0.0709371	
-0.0661435	
-0.0488857	
-0.0526397	
-0.0677896	
-0.0684072	
0.215059	
0.216811	
0.206091	
0.202957	
-0.0297078	
-0.0122766	
-0.0366949	
-0.0210289	
0.119951	
0.123145	
0.0992341	
0.19435	
0.219646	
0.252534	
0.240155	
0.247897	
0.251266	
0.251445	
0.238118	
0.225607	
0.23396	
0.20667	
0.201216	
0.223589	
0.219166	
0.106946	
0.0965481	
0.106604	
0.0412143	
-0.00354685	
0.100184	
0.0680107	
-0.0581738	
-0.0401243	
-0.0653754	
0.0759963	
0.174263	
0.122774	
0.119708	
0.0584241	
0.044379	
-0.0238659	
-0.0441696	
0.227442	
0.226623	
0.0595938	
0.105376	
0.0918879	
0.250694	
0.256175	
0.240041	
0.246053	
0.260898	
0.229511	
0.227228	
0.0841128	
0.0714318	
0.121473	
0.102412	
0.131079	
0.121524	
-0.00248571	
0.0228538	
0.102252	
0.106636	
0.173232	
0.176145	
0.124712	
0.114762	
0.0902121	
0.0873101	
0.176305	
0.173517	
0.161208	
0.125581	
0.160226	
0.166742	
0.235009	
0.247831	
0.162177	
0.152512	
0.126505	
0.167453	
0.191115	
-0.0201679	
0.0288107	
-0.0285848	
0.249238	
0.248777	
0.231661	
0.217074	
0.185079	
0.163996	
0.181212	
0.179705	
-0.0365332	
-0.0421477	
-0.0559475	
-0.0585039	
0.0458965	
0.0720997	
0.0846791	
0.168256	
0.144966	
0.181413	
0.186973	
0.207857	
0.186469	
0.253225	
0.249403	
0.225271	
0.233787	
0.233608	
0.234007	
-0.0478218	
-0.0535736	
-0.0349266	
-0.0400458	
0.178456	
0.157781	
0.168322	
0.167508	
0.0339632	
0.0963374	
0.0946072	
0.0863278	
0.0910577	
0.244983	
0.257744	
0.0591881	
0.0293546	
0.263161	
0.261902	
0.249191	
0.264269	
0.260676	
0.26318	
0.0182548	
0.239362	
0.237803	
0.198966	
0.0946017	
0.0845297	
0.0705769	
0.0747754	
0.142712	
0.147325	
0.229753	
0.245674	
0.255744	
0.25846	
0.177147	
0.172417	
0.0845272	
0.0934883	
0.234203	
0.225517	
0.061641	
0.0786494	
0.127643	
0.108004	
0.130195	
0.150655	
0.108178	
0.118847	
0.119326	
0.0822733	
0.0153527	
0.0424879	
0.0988981	
0.0807256	
0.251462	
0.267791	
-0.0158447	
0.140658	
0.113864	
0.261771	
0.260215	
0.0633107	
0.0713199	
0.103696	
0.0793062	
0.0850001	
0.0879226	
0.0279938	
0.0583721	
0.0868718	
0.0752595	
0.135879	
0.125957	
0.0746235	
0.0508089	
0.0893052	
0.0613614	
0.224564	
0.226303	
0.168609	
0.183404	
0.148867	
0.139654	
0.0410479	
0.0103	
-0.0480176	
0.00578747	
0.0217782	
0.0199151	
-0.00680738	
0.16614	
-0.0207186	
0.135855	
0.1376	
-0.0166625	
-0.04365	
-0.0343217	
-0.0429785	
0.110403	
0.117994	
0.0420003	
0.0438137	
0.0399034	
0.189991	
0.162719	
0.264022	
0.259841	
0.106305	
0.0858345	
0.0764069	
0.0740261	
0.0866304	
0.127539	
0.124443	
0.149819	
0.149281	
0.0630775	
0.0660243	
0.018728	
0.00924556	
0.0821007	
0.0585837	
0.0615854	
0.0384829	
0.100813	
0.102778	
0.0909944	
0.0843521	
0.0929952	
0.0856713	
0.0530035	
0.270772	
0.268968	
0.26434	
0.269764	
0.101332	
0.105446	
0.0934005	
0.0989737	
0.0972465	
0.0998718	
0.0970086	
-0.0158801	
0.00123665	
-0.00712812	
0.00942016	
0.0267273	
0.038035	
0.0180386	
0.00790548	
-0.0121144	
-0.00363843	
0.00421868	
0.0337771	
0.0198163	
0.0242374	
0.0124028	
0.00408461	
0.0202891	
0.00275397	
0.0121882	
-0.0104036	
-0.0176897	
-0.0136287	
-0.00473366	
0.0271032	
0.0249771	
0.0186258	
0.0106541	
-0.0146083	
-0.00999298	
-0.0041878	
0.00247988	
0.0332643	
-0.063381	
-0.04896	
0.00470822	
0.0329448	
-0.0256321	
-0.0309066	
-0.00875392	
0.0299287	
0.0236086	
0.00317242	
-0.0516087	
0.00229582	
-0.0289462	
-0.0726247	
-0.0550189	
0.0312016	
0.0156769	
-0.00483275	
-0.0666555	
-0.0419047	
-0.0175723	
0.0245701	
0.135204	
0.173477	
0.171834	
0.115615	
0.141381	
-0.0284795	
0.0728357	
0.140918	
0.0537813	
0.0951436	
0.127868	
0.0467857	
0.0379789	
0.117855	
0.118953	
0.0934933	
0.0946034	
0.077644	
0.103106	
0.126251	
0.17225	
0.174396	
-0.0602331	
-0.0660547	
-0.0509356	
-0.051078	
0.00181632	
0.0230937	
0.0111994	
0.164079	
0.14973	
0.153965	
0.0458048	
0.161715	
0.153237	
0.170197	
0.171275	
0.167858	
0.161743	
0.168836	
0.16961	
-0.055105	
-0.0415687	
0.143888	
0.149692	
0.134996	
0.159427	
0.158439	
0.164231	
0.157512	
0.146376	
0.145923	
0.169246	
0.15449	
0.173252	
0.175075	
0.10291	
0.109026	
0.128274	
0.173811	
0.17515	
-0.0388984	
-0.0215436	
0.00924974	
-0.00403854	
-0.0277379	
-0.00567694	
-0.025756	
0.0565091	
0.0358263	
0.0784755	
0.0747319	
0.118198	
0.135864	
0.111969	
0.130947	
0.101707	
0.160464	
0.164411	
0.127036	
0.0932269	
-0.151932	
-0.0306605	
0.0316864	
0.0662435	
-0.0253636	
0.0335746	
0.0455872	
-0.0298358	
0.0596698	
0.0333299	
-0.00266871	
-0.00557372	
0.00803597	
0.0349009	
0.0444243	
0.134739	
0.155876	
-0.150379	
-0.172367	
-0.125846	
-0.129438	
-0.109975	
-0.0924723	
-0.0830056	
0.0845471	
0.113134	
0.0923072	
-0.0666259	
-0.0779604	
0.127535	
0.118902	
0.139271	
0.127592	
0.129047	
0.138633	
0.132127	
0.124422	
-0.159724	
-0.16674	
0.0720696	
0.0868793	
0.103142	
0.106095	
0.0830414	
0.0870658	
0.110432	
0.115669	
0.152294	
0.151078	
0.15876	
0.163143	
0.0464228	
0.0993432	
0.0721503	
0.163711	
0.158612	
-0.144898	
-0.143586	
-0.118859	
-0.113504	
-0.109179	
-0.14338	
-0.122078	
-0.0187353	
-0.0645749	
-0.0360714	
-0.0661731	
0.0373958	
0.069627	
0.0157959	
0.069545	
0.0441525	
-0.0505677	
0.0710369	
0.16534	
0.217984	
0.212221	
0.211351	
0.190984	
0.20679	
0.195804	
0.185424	
0.20749	
0.200796	
0.204966	
0.19219	
0.200049	
0.195396	
0.172875	
0.154861	
0.174298	
0.184035	
0.179489	
0.213366	
0.174609	
0.205287	
0.204012	
0.190062	
0.210078	
0.197205	
0.205546	
0.0912388	
0.0978281	
-0.095881	
-0.0182844	
0.202226	
0.170456	
0.212753	
0.156256	
0.192088	
0.0946454	
0.172538	
0.183159	
0.212679	
-0.207919	
0.175178	
0.2079	
0.1879	
0.194355	
0.109923	
0.102374	
0.147045	
0.100089	
0.131042	
-0.00442868	
-0.361395	
0.0181775	
0.117656	
0.125342	
-0.0709361	
-0.0278355	
0.0199315	
0.0494272	
-0.247833	
-0.328592	
-0.33874	
-0.344183	
-0.196562	
-0.00309634	
-0.0116845	
-0.233021	
-0.267671	
-0.150609	
-0.00347573	
-0.260253	
-0.293557	
-0.331411	
-0.332496	
-0.165704	
0.00914917	
-0.0865343	
-0.345565	
-0.343774	
-0.0821778	
0.175704	
0.0896038	
0.170401	
-0.347906	
-0.0486023	
0.140743	
-0.0352919	
-0.00712867	
0.153057	
-0.246695	
-0.0277034	
-0.0897171	
-0.133101	
-0.207033	
-0.0651329	
0.157475	
-0.0957911	
0.0958147	
-0.0998343	
0.11779	
0.0844257	
0.0279406	
0.0701001	
-0.241549	
-0.224171	
0.0810273	
-0.00615535	
-0.103592	
-0.0394023	
-0.137488	
-0.102634	
-0.252099	
-0.0756225	
-0.0776085	
-0.160084	
0.151818	
-0.154054	
-0.326492	
0.124671	
-0.32253	
-0.320255	
-0.00325982	
0.0550154	
-0.318233	
-0.123956	
-0.180459	
-0.139443	
0.197526	
0.11077	
0.120341	
0.120018	
0.0509018	
0.0515692	
-0.00953971	
0.0414724	
-0.21537	
-0.138272	
0.170734	
0.153298	