<VTKFile type="UnstructuredGrid" version="0.1" byte_order="LittleEndian">
	<UnstructuredGrid>
		<Piece NumberOfPoints="3959" NumberOfCells="7450">
			<CellData Scalars="scalars">
				<DataArray type="Float64" Name="Doublet Strengths" NumberOfComponents="1" Format="ascii">
-0.0703153	
-0.055107	
0.0011628	
0.0313497	
-0.0306238	
-0.0403425	
-0.0165833	
0.0263898	
0.0185236	
-0.00357427	
-0.0626475	
0.00358775	
-0.0269238	
-0.0688384	
-0.0521762	
0.0315737	
0.0191868	
-0.000348519	
-0.0588232	
-0.0354729	
-0.0123608	
0.0267712	
0.134354	
0.171682	
0.170079	
0.11301	
0.133106	
-0.107269	
0.0330078	
0.120468	
0.0325786	
0.0839488	
0.106906	
0.0109793	
-0.00432861	
0.0894497	
0.0945871	
0.0631005	
0.0615732	
0.0604386	
0.0816372	
0.106276	
0.163215	
0.170666	
-0.0924161	
-0.103573	
-0.101023	
-0.144592	
-0.056051	
-0.0314715	
-0.019005	
0.152677	
0.133769	
0.138432	
0.000725384	
0.150609	
0.146857	
0.159477	
0.162638	
0.156181	
0.160621	
0.158199	
0.16134	
-0.124014	
-0.168402	
0.12356	
0.130192	
0.111636	
0.14385	
0.143113	
0.156906	
0.149149	
0.132082	
0.133398	
0.166	
0.15196	
0.170819	
0.170944	
0.0875085	
0.100967	
0.121522	
0.172041	
0.171486	
-0.0859106	
-0.0873028	
-0.0388844	
-0.0413173	
-0.0615574	
-0.0515265	
-0.0811582	
0.0316036	
0.0053242	
0.0525582	
0.0435055	
0.0981039	
0.12144	
0.0955174	
0.118097	
0.105279	
0.163614	
0.167238	
0.129336	
0.100811	
-0.0764184	
0.00805778	
0.055861	
0.0869231	
-0.00522385	
0.0490531	
0.0666184	
0.000423146	
0.0829952	
0.0613576	
0.0296271	
0.0241655	
0.0247907	
0.0550399	
0.0645328	
0.144692	
0.160857	
-0.103659	
-0.0827891	
-0.0970621	
-0.0952062	
-0.0641188	
-0.039869	
-0.0549102	
0.101066	
0.125439	
0.108395	
-0.0230995	
-0.037364	
0.136106	
0.126535	
0.148638	
0.139841	
0.140524	
0.142693	
0.141456	
0.135963	
-0.0941463	
-0.0432398	
0.0925959	
0.106581	
0.118952	
0.122079	
0.0979879	
0.100363	
0.122515	
0.125206	
0.155017	
0.155807	
0.163765	
0.166354	
0.0577759	
0.108522	
0.080733	
0.166678	
0.16336	
-0.0821494	
-0.0911927	
-0.0634841	
-0.0826708	
-0.0743768	
-0.0996177	
-0.0788071	
0.00637085	
-0.0302666	
-0.0123655	
-0.0373317	
0.0539323	
0.0830608	
0.037013	
0.0845111	
-0.00601457	
-0.176649	
0.0291701	
0.167597	
0.215987	
0.207773	
0.207901	
0.190904	
0.203198	
0.19312	
0.183843	
0.205696	
0.199529	
0.200437	
0.183379	
0.194546	
0.190805	
0.170196	
0.162941	
0.171529	
0.180242	
0.175833	
0.208712	
0.175017	
0.198221	
0.198797	
0.184738	
0.203999	
0.193372	
0.205025	
0.115436	
0.10808	
-0.0321963	
0.0112751	
0.196484	
0.176027	
0.210704	
0.165146	
0.187793	
0.0584798	
0.178253	
0.184591	
0.207954	
-0.251095	
0.17843	
0.202551	
0.190047	
0.195142	
0.133308	
0.126047	
0.157847	
0.124085	
0.145523	
-0.0730062	
-0.276299	
-0.0413391	
0.0882578	
0.0965018	
-0.229911	
-0.109426	
-0.0373359	
-0.000863855	
-0.364057	
-0.177024	
-0.221012	
-0.3745	
-0.219187	
-0.0287999	
-0.083596	
-0.299471	
-0.34175	
-0.201481	
-0.0699634	
-0.313013	
-0.350202	
-0.382654	
-0.389638	
-0.303539	
-0.0519807	
-0.142008	
-0.3834	
-0.372981	
-0.0978212	
0.163449	
0.103004	
0.153172	
-0.225564	
0.00990623	
0.117088	
0.0257187	
0.0193612	
0.129888	
-0.0852603	
0.0394262	
-0.106733	
-0.152492	
-0.296546	
-0.0343423	
0.135709	
-0.0526585	
0.0616586	
-0.0143785	
0.0859588	
0.0434991	
0.0257819	
0.0690623	
-0.281569	
-0.258957	
0.0555975	
0.0365997	
-0.0189272	
0.027106	
-0.0796428	
-0.0250556	
-0.28609	
-0.127121	
-0.12548	
-0.0808708	
0.142376	
-0.0644965	
-0.151732	
0.101885	
-0.168945	
-0.177066	
0.0495271	
0.0828905	
-0.225248	
-0.140448	
-0.196079	
-0.0410741	
0.186768	
0.0856826	
0.0889386	
0.0882442	
0.00885321	
0.00883436	
-0.0221371	
0.0303781	
-0.299786	
-0.203779	
0.153776	
0.130251	
0.127886	
0.139562	
-0.098973	
-0.0755655	
-0.0773316	
-0.0315047	
-0.0203897	
0.00839019	
0.164254	
0.0524131	
0.0831769	
0.172728	
0.168008	
0.077604	
-0.24647	
0.189309	
0.109923	
-0.0552817	
-0.12346	
0.178722	
0.199471	
0.0562635	
0.153378	
-0.277441	
-0.191625	
0.114833	
0.111432	
0.125321	
0.0243389	
0.194131	
0.170563	
0.151326	
0.154378	
0.138348	
0.161491	
0.185671	
0.181738	
0.160646	
-0.0317378	
0.0381211	
0.146401	
0.162389	
0.147539	
0.179695	
0.189549	
0.0571098	
0.170035	
0.081943	
0.0622382	
0.0534551	
0.0614782	
0.120475	
0.187327	
0.106834	
0.0806486	
0.0553559	
0.0626416	
0.116882	
0.119363	
0.137161	
0.136029	
0.0608089	
0.0069459	
0.0218335	
-0.0276472	
0.188186	
0.207267	
0.188857	
0.182133	
0.193823	
0.0989658	
0.101743	
0.183429	
0.1054	
-0.203924	
0.0854148	
0.0180141	
0.0713064	
0.0846087	
0.17504	
0.0259209	
-0.0996095	
-0.0692572	
0.0577047	
0.0593202	
0.0218903	
0.148976	
0.179553	
0.102066	
0.0959876	
0.185059	
0.143892	
0.0945584	
0.0373269	
0.0293308	
0.0618991	
0.0649785	
0.0137121	
0.141887	
0.147487	
-0.337179	
-0.295374	
-0.191757	
-0.152216	
-0.0895882	
0.118338	
0.109799	
0.129789	
0.162595	
0.149829	
0.126083	
0.18239	
-0.18224	
-0.191962	
-0.357899	
-0.327589	
0.0471552	
-0.088239	
0.0331697	
-0.324703	
-0.350804	
0.00226753	
-0.0124726	
0.00975457	
0.000325005	
-0.108984	
-0.0692499	
-0.0614909	
-0.0150957	
0.0176411	
-0.00232153	
0.0650943	
0.0854058	
0.108682	
-0.0112465	
-0.042079	
-0.0111212	
-0.02957	
-0.0103042	
0.0337097	
0.110196	
0.111328	
0.0930497	
0.0242998	
0.0022477	
-0.0737393	
0.135403	
0.0965992	
0.0186071	
0.00524454	
0.19171	
-0.213717	
0.0622688	
-0.0206979	
-0.032416	
0.210962	
0.191033	
0.203138	
-0.213367	
-0.166206	
-0.110875	
-0.00212247	
-0.122287	
-0.0720726	
0.198942	
0.184211	
0.140029	
0.115623	
0.0666827	
-0.0637583	
-0.135003	
-0.0877064	
0.178933	
0.0298346	
-0.384646	
-0.387511	
-0.385842	
-0.214182	
0.0602817	
-0.000150486	
-0.00379106	
0.0154764	
0.0150452	
0.0233643	
-0.0136956	
0.124627	
0.11989	
-0.140139	
-0.0716006	
-0.194369	
-0.129406	
-0.0484674	
-0.163606	
-0.0743494	
0.0423121	
-0.261935	
-0.244463	
0.136977	
0.0621881	
0.107633	
-0.0391388	
-0.00320725	
0.155638	
0.156802	
0.138166	
0.155234	
0.142977	
0.0759949	
0.0536458	
0.138326	
0.0460834	
0.196528	
0.18624	
-0.114557	
-0.247032	
0.181397	
0.178096	
0.188079	
0.0189708	
0.18985	
0.20127	
0.187732	
0.197525	
0.206343	
0.191185	
-0.226221	
-0.254897	
0.206563	
0.188291	
0.194003	
0.181286	
-0.354462	
0.0376384	
0.00946574	
0.0230804	
0.189879	
0.172731	
0.157544	
0.179786	
0.0631813	
0.0653037	
0.0153061	
0.01853	
0.1322	
-0.141137	
0.0287542	
0.0724572	
-0.0597367	
0.144697	
0.153998	
0.126135	
0.0927542	
0.202489	
0.0359655	
0.0819316	
-0.0233806	
-0.00986148	
0.104724	
0.129161	
0.13646	
0.0488446	
-0.064866	
-0.0403436	
-0.0217367	
0.0192854	
0.0548824	
0.0846083	
-0.0264207	
0.0358054	
-0.0199	
0.196903	
0.181944	
0.0665668	
-0.00736094	
0.0868344	
0.147621	
-0.00408104	
-0.117251	
-0.00716688	
-0.119541	
0.1037	
-0.0354932	
-0.0393746	
-0.0240211	
0.122686	
0.0948167	
0.0911666	
0.0329682	
0.094236	
0.0554417	
0.00423619	
0.0078924	
0.0280081	
0.0225584	
0.00729621	
-0.0392025	
-0.0862197	
0.115412	
0.0374507	
0.0357343	
0.0226925	
0.128658	
0.026049	
-0.0126322	
0.0673656	
0.0786274	
0.105695	
-0.3423	
-0.0104197	
-0.0344707	
0.0575744	
0.0655597	
0.151399	
0.0927306	
0.081183	
0.0727556	
-0.112167	
-0.0715842	
0.0371885	
0.0110119	
-0.0201072	
-0.0654699	
0.0968749	
0.064393	
0.0573406	
0.0595342	
-0.0463419	
0.0285538	
-0.247428	
-0.231068	
-0.147627	
-0.134506	
0.144275	
-0.0448676	
-0.167517	
0.129378	
-0.0923651	
0.0263751	
-0.144509	
-0.216707	
-0.0680728	
-0.0359471	
0.0158264	
-0.0177029	
-0.0987681	
-0.159256	
-0.0887579	
-0.0404189	
-0.0239977	
-0.00166187	
-0.147615	
0.131188	
0.00855781	
0.0355608	
0.0740108	
-0.106441	
-0.0719845	
-0.0854822	
-0.140202	
-0.21425	
0.121641	
0.109637	
-0.021012	
0.0315885	
-0.112431	
-0.135159	
0.110412	
0.0368387	
0.0682972	
-0.0303174	
-0.0129514	
-0.119953	
-0.0808964	
-0.30928	
-0.346524	
0.0487106	
-0.246139	
0.0449753	
0.00499271	
-0.140475	
0.134184	
-0.0991722	
-0.088308	
-0.0123451	
-0.0579745	
0.183254	
0.0974043	
0.146	
0.0822421	
0.102625	
0.203224	
0.190899	
-0.0515536	
-0.0441213	
0.0470931	
0.0643991	
-0.341785	
-0.136159	
-0.165858	
-0.38254	
-0.0185224	
0.0497743	
-0.0317545	
-0.0416178	
-0.137985	
-0.112901	
0.0340067	
-0.0109175	
0.00302316	
0.193986	
0.178596	
0.0644249	
0.00257086	
-0.0369687	
0.0864935	
0.117751	
0.0388629	
0.0708008	
0.0254252	
-0.0546444	
0.189849	
0.207716	
0.204879	
0.192986	
-0.195575	
0.185444	
0.164119	
-0.00304051	
-0.0913716	
0.0173958	
0.156062	
0.175292	
0.154586	
0.174759	
0.162786	
0.139939	
0.0643949	
0.0497277	
-0.00156466	
0.00391264	
0.117567	
0.12431	
-0.13097	
-0.36364	
-0.341191	
0.0392304	
0.0271259	
0.197616	
0.179223	
0.212507	
0.196394	
0.148793	
0.116522	
-0.0731714	
0.108689	
0.140054	
0.125715	
0.142306	
0.143304	
0.161735	
0.156365	
0.135916	
-0.207642	
-0.230056	
0.176981	
0.162066	
0.097094	
0.0564512	
0.143479	
0.142244	
0.203415	
0.190104	
-0.0339153	
-0.093147	
-0.158469	
-0.0731658	
0.0158049	
0.102013	
0.0447132	
0.112634	
-0.0854528	
-0.0737171	
-0.251972	
0.114523	
0.110927	
0.166894	
0.19134	
-0.0726113	
0.0368445	
-0.0400298	
0.0167998	
-0.05154	
-0.0144226	
0.0575963	
0.0593865	
0.108917	
-0.0269071	
-0.0275767	
-0.0380469	
-0.0428169	
0.202966	
0.176202	
0.179431	
-0.103517	
-0.150777	
0.0641348	
-0.00959311	
0.0583584	
-0.0411191	
0.0616193	
0.0525456	
-0.0832289	
-0.0917519	
0.0762785	
-0.00473726	
0.00334896	
-0.296645	
-0.00879749	
0.036964	
0.0770512	
0.0801935	
-0.157242	
-0.168955	
-0.237993	
-0.0190055	
0.0193042	
0.16464	
0.151906	
0.00781173	
0.0652347	
0.0867939	
0.0922991	
-0.00358632	
-0.0445672	
-0.0986127	
-0.100243	
0.192811	
0.181826	
0.186125	
0.0600009	
0.0625065	
0.113732	
0.0572037	
-0.139873	
-0.137098	
-0.194089	
-0.0951533	
-0.0879995	
-0.0160895	
0.112033	
0.113527	
0.0777773	
0.039005	
-0.17721	
-0.178291	
-0.0105516	
-0.0298986	
-0.223358	
-0.196757	
-0.268658	
-0.118808	
0.171464	
0.156103	
0.13069	
0.190278	
0.209546	
-0.0747826	
-0.013974	
-0.0691383	
0.0639179	
0.108824	
0.0234471	
0.0691214	
0.0996877	
0.127076	
0.103501	
0.129616	
-0.0371042	
-0.0227976	
0.142669	
0.14154	
-0.16029	
-0.134274	
-0.203659	
0.184554	
0.192148	
0.183836	
0.139814	
0.10431	
0.156823	
0.108508	
0.154077	
0.0762907	
0.133935	
0.130794	
0.165155	
-0.0557654	
-0.0456689	
-0.0479838	
0.136914	
-0.056647	
-0.0760842	
-0.173514	
0.0555906	
0.030154	
-0.24043	
-0.247451	
-0.0524962	
-0.0596363	
0.118334	
0.0660652	
-0.13058	
-0.298027	
-0.262586	
0.176603	
0.17521	
0.159404	
0.174557	
0.172531	
0.0470538	
0.0887456	
0.030796	
0.0379048	
0.18591	
-0.0399478	
-0.201152	
-0.041063	
0.0190546	
-0.0181972	
-0.0264425	
0.0145217	
-0.343343	
0.0519283	
0.0611632	
0.141625	
0.110883	
0.156742	
0.124303	
0.143166	
0.133335	
0.130189	
0.0252549	
0.0569746	
0.0496008	
0.0764193	
0.130066	
0.108742	
0.0271493	
0.140187	
0.154473	
0.106471	
0.123742	
0.113466	
0.137937	
0.11745	
0.114647	
0.0521147	
0.0545287	
0.128651	
0.109896	
0.118018	
0.072436	
-0.0641019	
-0.0661201	
-0.0487493	
-0.0159321	
-0.0966597	
-0.0315101	
0.0735014	
0.0551865	
0.102488	
0.157735	
0.1238	
0.13731	
0.0850294	
0.00924272	
-0.0119972	
0.056359	
-0.0165691	
0.0163282	
-0.0297481	
0.0543198	
0.179009	
0.178732	
-0.32054	
-0.28088	
0.122868	
0.113387	
-0.00809931	
-0.0228783	
0.1305	
-0.0749695	
-0.0585545	
0.17409	
0.160164	
0.188718	
0.207266	
0.0591905	
0.0359905	
0.141157	
0.125039	
0.176845	
0.0185533	
0.058933	
0.123278	
0.0775089	
0.113159	
0.0851088	
0.11171	
0.206506	
0.030755	
0.0309634	
0.180734	
0.0497522	
0.10359	
0.102169	
0.0294928	
0.00458461	
0.106986	
0.11335	
0.147159	
0.185368	
0.19055	
0.200181	
-0.207285	
0.122372	
0.0713686	
-0.0597523	
0.0304316	
0.0678788	
0.144633	
0.142402	
0.196355	
0.187847	
0.155021	
0.146246	
-0.203471	
-0.125563	
-0.0913356	
-0.108075	
0.0831881	
0.0641345	
0.0710619	
-0.0903322	
-0.0616507	
-0.26623	
-0.0824063	
-0.0732307	
-0.131581	
-0.277867	
-0.216779	
-0.147996	
-0.136742	
-0.120406	
-0.102	
0.14676	
0.134807	
0.0702481	
-0.0631705	
-0.0522982	
-0.143421	
-0.143466	
-0.2096	
-0.206377	
-0.0539563	
-0.0721191	
-0.338585	
-0.0478216	
-0.196229	
0.0878906	
0.0919781	
0.0647467	
0.0667203	
0.170841	
0.170167	
-0.0521296	
-0.0949031	
-0.000690082	
-0.00395403	
0.0468794	
0.0273676	
0.0432707	
0.0263509	
-0.199772	
-0.225585	
-0.165415	
-0.023073	
0.13474	
0.121906	
0.0584833	
0.0380659	
-0.24552	
-0.226783	
-0.0875701	
-0.1906	
-0.233115	
-0.212872	
-0.265602	
0.200432	
0.183779	
-0.026488	
-0.0827579	
-0.0607689	
-0.0549607	
-0.0811454	
-0.190255	
-0.173936	
0.0554792	
0.0112358	
-0.158428	
-0.0508302	
-0.257087	
-0.247872	
-0.150309	
-0.13067	
-0.138458	
-0.125305	
-0.150391	
-0.148748	
-0.104067	
-0.103198	
0.148002	
0.0750655	
0.132494	
0.114437	
0.11153	
0.115276	
0.0814403	
-0.235084	
-0.190063	
-0.195751	
-0.206427	
-0.19876	
-0.264276	
-0.273315	
-0.319564	
-0.177843	
-0.117445	
-0.216212	
-0.190619	
-0.289293	
-0.333963	
-0.333465	
-0.369293	
-0.0354023	
-0.0380098	
-0.0400295	
-0.0477524	
-0.211984	
-0.218699	
-0.170808	
-0.160774	
-0.129079	
-0.138113	
-0.0930529	
-0.309424	
-0.0351373	
-0.0200878	
-0.30908	
-0.267004	
-0.0137408	
-0.0236003	
-0.0286277	
-0.148235	
-0.144135	
-0.0245297	
-0.0333633	
-0.0771139	
-0.0844133	
-0.173633	
-0.165368	
0.0883649	
0.0220944	
0.00202091	
-0.00588192	
0.0973001	
0.0492113	
-0.120299	
-0.0961827	
-0.120197	
-0.0184989	
-0.28378	
-0.330046	
-0.0994971	
-0.115511	
0.196212	
0.122449	
0.209343	
0.180491	
-0.378004	
-0.371581	
0.0458814	
0.0025612	
-0.31389	
-0.278586	
-0.332435	
-0.298757	
-0.284094	
-0.29474	
-0.222642	
-0.192589	
-0.318955	
-0.360172	
-0.359409	
-0.353069	
-0.351035	
-0.183694	
-0.12985	
-0.104589	
-0.301403	
-0.328213	
-0.35506	
-0.243957	
0.188416	
0.156866	
0.209252	
0.192056	
-0.329478	
-0.300993	
-0.218845	
-0.207034	
-0.193603	
-0.00736026	
-0.00801979	
-0.299525	
-0.298997	
-0.334698	
-0.304138	
-0.326727	
-0.0595756	
-0.0703772	
-0.0827099	
-0.104634	
-0.216755	
-0.258123	
-0.21754	
-0.243452	
-0.272136	
-0.30374	
0.208494	
0.183969	
0.182149	
0.142955	
-0.251138	
-0.134752	
-0.123002	
-0.135852	
0.181173	
0.138102	
0.160942	
0.0807909	
-0.352304	
0.0811084	
0.125371	
0.114256	
0.135505	
-0.337289	
-0.355957	
-0.340351	
-0.344187	
-0.335148	
-0.341776	
-0.300356	
-0.110846	
-0.100866	
-0.0995086	
-0.0995325	
0.137503	
0.19553	
0.134085	
0.193147	
0.128932	
0.11975	
0.12275	
0.0731233	
-0.254877	
-0.275787	
-0.254619	
-0.240035	
-0.345343	
-0.360108	
-0.346761	
-0.353129	
0.0772594	
0.136579	
0.081457	
0.138129	
0.163437	
0.129777	
0.150669	
0.0928295	
0.112237	
0.0882389	
0.11148	
0.0874987	
0.173473	
0.201725	
0.204978	
0.209728	
0.220627	
0.141747	
0.231118	
0.235366	
0.236209	
0.244335	
0.248744	
0.254221	
0.2284	
0.190718	
0.168994	
0.0471489	
0.255983	
-0.00778918	
-0.00200641	
-0.0338357	
0.182745	
0.248748	
0.234002	
0.265434	
0.261506	
0.268418	
0.256189	
0.263292	
0.253893	
0.246415	
0.170558	
0.217099	
0.196293	
0.218716	
0.189397	
0.149687	
0.217245	
0.159066	
0.101839	
0.257196	
0.236089	
0.234816	
0.0944836	
-0.044253	
0.248251	
-0.0270845	
-0.0413043	
0.013994	
0.0706238	
0.0428465	
-0.0349719	
0.0406065	
0.00229654	
0.0713674	
-0.0540507	
0.0164897	
0.065051	
0.0840248	
0.0412111	
-0.00332808	
-0.0444468	
0.208614	
-0.0289607	
0.177106	
0.106163	
0.109782	
0.0871021	
0.0480358	
0.0545847	
0.072628	
0.0814844	
0.0201437	
0.0596133	
0.0137108	
0.0397975	
0.0210086	
0.0321981	
0.032139	
0.0457631	
0.0872353	
0.0526853	
0.0574009	
0.0685413	
0.0890698	
0.0463988	
-0.022581	
-0.0261351	
0.0217058	
-0.00187717	
-0.00783659	
0.0346749	
0.0643175	
0.0594393	
0.00507866	
-0.019587	
-0.0287542	
-0.00831226	
0.0331017	
-0.061587	
-0.0402526	
-0.063809	
0.167865	
0.188618	
0.185598	
0.224374	
0.011035	
0.10107	
0.15435	
0.161753	
0.190506	
0.000383389	
0.151822	
0.129411	
-0.0579197	
-0.0386296	
-0.0288675	
0.134015	
-0.031047	
0.143702	
-0.00311317	
0.204506	
0.208087	
-0.0687479	
0.0767267	
0.0405747	
0.00291218	
0.0751329	
0.0163346	
0.246295	
0.230573	
0.22391	
-0.0499317	
0.0842623	
0.218241	
-0.0132335	
-0.0163636	
0.208405	
0.230255	
0.00773614	
0.0491793	
0.199429	
0.141045	
-0.0615174	
-0.0494393	
0.111241	
-0.0223333	
-0.0172403	
-0.00748689	
-0.00113872	
0.251067	
0.208853	
0.214414	
0.13229	
0.16727	
0.244528	
0.273573	
0.25535	
0.0589513	
0.169718	
0.243718	
0.194694	
0.10881	
0.13013	
0.142756	
0.160862	
0.00621242	
0.120596	
0.0853546	
0.0989717	
0.0675101	
0.120368	
0.118169	
0.1891	
0.151014	
0.195023	
0.116525	
0.156612	
0.12956	
0.168073	
0.118237	
0.125674	
0.157734	
0.20643	
0.141388	
0.151744	
0.15932	
0.159056	
0.141902	
0.266416	
0.268369	
0.278056	
0.265552	
0.281922	
0.250398	
0.116377	
-0.0243471	
0.0227147	
0.0279505	
0.124877	
0.23293	
0.179474	
0.11112	
0.183798	
0.171121	
0.124557	
0.237129	
0.270444	
0.275712	
0.231119	
0.250133	
0.259952	
0.278254	
0.262348	
0.252785	
0.277812	
0.262583	
0.262006	
0.270093	
0.24441	
0.24245	
0.268904	
0.268611	
0.274537	
0.104253	
0.278962	
0.225967	
0.246788	
0.200791	
0.226762	
0.269415	
0.270521	
0.274497	
0.204418	
0.196654	
0.224558	
0.208986	
0.218007	
0.221037	
0.195702	
-0.0462271	
-0.0514352	
0.239283	
0.226807	
0.251712	
0.229546	
0.201846	
0.182734	
0.201	
0.258562	
0.233909	
0.233828	
0.240751	
0.166532	
0.209602	
0.0850791	
0.261759	
0.249196	
0.0934336	
0.186015	
0.163141	
0.231993	
0.124931	
0.13023	
0.20722	
0.147475	
0.27355	
0.134506	
0.132354	
0.160414	
0.222767	
0.194428	
0.181624	
0.267292	
0.0486749	
0.107984	
0.042197	
0.0776498	
0.195675	
0.187221	
0.155374	
0.184849	
-0.0211279	
0.258831	
0.241272	
-0.00430202	
0.00554957	
-0.0192247	
0.000959522	
0.117208	
0.0897986	
0.15919	
0.165528	
0.188823	
0.152486	
0.189699	
0.00701789	
0.16004	
0.132685	
0.174655	
-0.0382214	
-0.0516303	
-0.042838	
-0.0510441	
0.116502	
0.113134	
0.143253	
0.133364	
0.151894	
0.0878253	
0.0958045	
0.20022	
0.178219	
0.202132	
0.213738	
0.155568	
0.102817	
0.090681	
0.099765	
0.0724425	
0.280969	
0.173421	
0.20095	
0.154579	
0.171735	
0.120756	
0.147589	
0.116811	
0.156703	
0.142239	
0.0162667	
0.206164	
0.214177	
0.18068	
0.239452	
0.238057	
0.150627	
0.176984	
0.125301	
0.128949	
-0.0539689	
-0.0387127	
-0.0629845	
-0.0616207	
0.102895	
0.208949	
0.240928	
0.211633	
0.198911	
0.21019	
0.171169	
0.218505	
0.216023	
0.214652	
0.205032	
0.0488653	
0.107029	
0.26585	
0.242721	
0.268245	
0.204633	
0.194905	
0.26557	
0.266945	
0.232614	
0.245529	
0.260404	
0.204807	
0.231478	
0.17467	
0.177565	
0.187074	
0.249167	
0.236319	
0.250159	
0.223356	
0.264923	
0.232264	
0.25214	
0.00176092	
0.186529	
0.197743	
0.166222	
0.23797	
0.239977	
0.232352	
0.227218	
0.246195	
0.256573	
0.107594	
0.136057	
0.124789	
0.141195	
-0.0534195	
0.217836	
0.183926	
0.187651	
0.118276	
0.149958	
0.153724	
0.174464	
0.157225	
0.166106	
-0.0440387	
-0.0328249	
-0.0479817	
-0.0303758	
0.245557	
0.208198	
0.24558	
0.211659	
0.0854504	
0.21681	
0.224088	
0.222129	
0.250095	
0.232965	
0.261047	
0.150496	
0.13635	
0.218722	
0.214595	
0.222448	
0.182656	
0.186235	
0.0243321	
0.0690774	
0.266588	
0.228054	
-0.0203248	
0.192496	
0.219729	
0.227948	
0.229231	
0.211636	
0.200781	
0.198719	
0.25859	
0.260903	
0.253804	
0.151918	
0.262034	
0.266763	
0.0613745	
0.0851249	
0.0845263	
0.22458	
0.221243	
0.222094	
0.266649	
-0.0674396	
-0.0615384	
0.256666	
0.252041	
0.24429	
0.222384	
-0.0621781	
-0.0565668	
0.167327	
0.154598	
0.118105	
0.119908	
0.223035	
0.0771628	
0.0915137	
0.152923	
0.153647	
0.171363	
0.169666	
0.26595	
0.259068	
0.00218345	
0.0172572	
0.0777281	
0.0436623	
0.10732	
0.107944	
0.136624	
0.180632	
0.178468	
0.167096	
0.160881	
0.274574	
0.261485	
0.238163	
0.253537	
0.267509	
0.0863567	
0.0801388	
0.206881	
0.20552	
0.1891	
0.188864	
0.0274016	
0.0482589	
0.266339	
0.267325	
0.209808	
0.207018	
0.14717	
0.109174	
0.156593	
0.102258	
0.223151	
0.229944	
0.205393	
0.206858	
0.212199	
0.210452	
0.207187	
0.191439	
0.267149	
0.268715	
0.252792	
0.1707	
0.171627	
0.201703	
0.19811	
0.165541	
0.171848	
0.236726	
0.242537	
0.16231	
0.179148	
0.261539	
0.265677	
0.186693	
0.226217	
0.2348	
0.218818	
0.189269	
0.227	
0.27147	
0.264517	
0.242321	
0.242287	
0.234644	
0.243126	
0.131207	
0.188281	
0.127421	
0.264702	
0.27546	
0.261388	
0.25564	
0.100633	
0.0729246	
0.0757426	
0.0580796	
0.261979	
0.256303	
0.266671	
0.273555	
0.00761832	
0.257105	
0.266734	
0.263921	
0.256517	
0.127848	
0.166232	
0.267366	
0.275412	
0.265867	
0.119938	
0.132244	
0.13783	
0.146202	
0.195438	
0.192	
0.186825	
0.189956	
0.269664	
0.166238	
0.163608	
0.213658	
0.213903	
-0.0024848	
-0.0118779	
0.248365	
0.262984	
0.262836	
0.195375	
-0.00833429	
0.233586	
0.229614	
0.239116	
0.240982	
0.179969	
0.270523	
0.268686	
0.0409035	
0.0115284	
0.185321	
-0.0656107	
-0.0587984	
-0.064995	
0.176454	
0.0655437	
0.0265402	
0.0505467	
0.0255135	
0.240312	
0.126461	
0.166082	
0.263833	
0.249291	
0.264564	
0.262836	
0.26646	
-0.00365782	
-0.0246385	
0.237675	
0.222461	
0.267113	
0.257904	
0.0215364	
0.1836	
0.168935	
0.137838	
0.204769	
0.175415	
0.225905	
0.217597	
0.130882	
0.123885	
0.264003	
0.273854	
0.0654158	
0.0541649	
0.248048	
0.255787	
0.268179	
0.267755	
0.27324	
0.266038	
-0.0588759	
-0.0614531	
0.0988216	
0.0986123	
0.0279067	
0.0198917	
0.0102545	
0.245234	
0.246478	
0.220078	
0.230688	
0.214025	
0.220612	
0.273395	
0.198048	
0.259455	
0.243876	
0.238502	
0.125277	
0.0692743	
0.270967	
0.262413	
-0.0362615	
-0.00540115	
0.0117706	
0.0667878	
0.213649	
0.143339	
0.247889	
0.241236	
0.0622429	
0.0851935	
0.038677	
0.24633	
0.160837	
0.164486	
0.254807	
0.253021	
0.0932495	
0.0741877	
-0.0139591	
-0.0157993	
0.197228	
0.200749	
0.184311	
0.192966	
0.24128	
0.208126	
0.18405	
0.22646	
0.219309	
0.199315	
0.009773	
0.057092	
0.0507607	
0.132576	
0.0748507	
0.184933	
0.214542	
0.261765	
0.103168	
0.103592	
0.210783	
0.19942	
0.252035	
0.129297	
0.130888	
0.0996853	
0.0360678	
0.0172652	
0.0445774	
0.0164544	
0.0428926	
0.164603	
0.195287	
0.192121	
0.220603	
0.0735663	
0.0579653	
0.0961327	
0.0802979	
0.164611	
0.163477	
0.17619	
0.173444	
0.164407	
0.179285	
0.179191	
-0.0688545	
-0.0235071	
-0.063062	
-0.0486199	
-0.0275429	
0.132238	
0.135566	
-0.0644068	
0.110871	
0.126929	
0.0981219	
0.129829	
0.117568	
0.0328928	
-0.0389459	
0.0786356	
0.138654	
-0.0688882	
0.1118	
-0.0628215	
-0.069117	
-0.0681647	
0.0349971	
0.0709177	
0.263806	
0.241049	
0.267558	
0.24301	
0.269254	
0.269242	
0.138284	
0.0913525	
0.275117	
0.262717	
0.149174	
0.193464	
0.144082	
0.192643	
0.0449447	
0.0606658	
0.214204	
0.0932896	
0.0872004	
-0.0649855	
0.174268	
0.0891855	
0.089254	
0.0544353	
0.181535	
0.258733	
0.268709	
0.193361	
0.0180499	
0.0117266	
0.165699	
0.196034	
0.228472	
0.219558	
-0.0519366	
-0.0378323	
0.269143	
0.264615	
0.250781	
-0.03581	
0.266679	
0.184685	
0.187153	
0.203477	
0.193365	
0.129754	
0.0825342	
0.269421	
0.256699	
0.166956	
0.169905	
0.234087	
0.245512	
0.215014	
0.0558652	
0.067613	
0.234022	
0.258811	
0.232556	
0.0811047	
0.204742	
0.209021	
0.12638	
0.217214	
0.248221	
-0.069162	
0.219934	
0.217537	
0.210155	
0.265135	
0.249312	
0.142802	
0.267092	
0.139913	
0.167221	
0.142497	
0.144886	
0.117839	
0.275954	
0.249211	
0.265632	
0.276517	
0.266059	
0.265596	
0.24802	
0.251457	
0.24538	
0.242289	
0.202967	
0.220101	
0.255548	
0.250125	
0.0778546	
0.0483456	
0.24086	
0.254249	
0.271001	
0.251143	
0.270605	
0.0617977	
0.072253	
0.0697282	
0.0962655	
0.26796	
0.26198	
0.203884	
0.223748	
0.221185	
0.143784	
0.144162	
-0.0661623	
-0.0632464	
0.132494	
0.117998	
0.115583	
0.113217	
0.110001	
0.109763	
0.0849797	
0.259938	
-0.0534702	
-0.0541654	
-0.0686114	
-0.0702718	
0.212562	
0.162208	
0.161149	
0.248554	
-0.0709169	
-0.0660841	
-0.0487414	
-0.0525184	
-0.0676957	
-0.0683389	
0.215322	
0.217108	
0.206175	
0.203051	
-0.0295845	
-0.0121428	
-0.0365795	
-0.0209031	
0.12011	
0.123292	
0.0996186	
0.194775	
0.220031	
0.252563	
0.240204	
0.247891	
0.25119	
0.251333	
0.238109	
0.22565	
0.233995	
0.206608	
0.201131	
0.223558	
0.219116	
0.106651	
0.0962414	
0.106322	
0.0416753	
-0.00320292	
0.100593	
0.0683936	
-0.0580236	
-0.0399325	
-0.0652511	
0.0763768	
0.174635	
0.123103	
0.120077	
0.058565	
0.0445258	
-0.0236645	
-0.0439992	
0.22722	
0.226478	
0.0597415	
0.105514	
0.09181	
0.250642	
0.256161	
0.239942	
0.245894	
0.260793	
0.229834	
0.227548	
0.0843743	
0.0717073	
0.12172	
0.102689	
0.131007	
0.121545	
-0.0022351	
0.0231801	
0.102389	
0.10676	
0.173689	
0.1766	
0.124464	
0.114491	
0.0898873	
0.0869849	
0.176556	
0.173745	
0.161422	
0.125835	
0.160406	
0.166969	
0.235163	
0.247887	
0.162629	
0.152921	
0.126327	
0.167283	
0.190985	
-0.0199306	
0.0291471	
-0.0284617	
0.249203	
0.248698	
0.231605	
0.216989	
0.185384	
0.164299	
0.181039	
0.179555	
-0.0364118	
-0.04204	
-0.0558515	
-0.0584191	
0.0460257	
0.072214	
0.0847729	
0.168625	
0.14538	
0.181781	
0.187329	
0.207715	
0.186749	
0.253254	
0.249396	
0.225245	
0.233787	
0.233597	
0.234018	
-0.0477926	
-0.0535355	
-0.0348718	
-0.0399719	
0.178301	
0.157589	
0.168467	
0.167656	
0.034359	
0.0960267	
0.0942886	
0.0860236	
0.0907348	
0.244914	
0.257718	
0.0590823	
0.0293522	
0.263402	
0.262154	
0.249434	
0.264523	
0.260957	
0.263439	
0.0182196	
0.239651	
0.238114	
0.199114	
0.0942195	
0.0841854	
0.0703941	
0.0743908	
0.14313	
0.147739	
0.229993	
0.245718	
0.25578	
0.258448	
0.176967	
0.172212	
0.0848306	
0.0937979	
0.23445	
0.225783	
0.0616175	
0.0786441	
0.127903	
0.108241	
0.130357	
0.150809	
0.108347	
0.119016	
0.119753	
0.0827495	
0.0156819	
0.0428295	
0.0993116	
0.0811555	
0.25181	
0.268057	
-0.0155759	
0.140819	
0.114039	
0.261685	
0.260105	
0.0634817	
0.0714109	
0.103822	
0.0794066	
0.0852263	
0.0881913	
0.0281554	
0.0586189	
0.0873241	
0.0756999	
0.136324	
0.126402	
0.075053	
0.051233	
0.089732	
0.0617979	
0.224603	
0.226374	
0.168876	
0.183654	
0.149102	
0.139862	
0.0413736	
0.0105977	
-0.047828	
0.00576659	
0.0216993	
0.0203241	
-0.00645343	
0.166297	
-0.0204528	
0.136028	
0.137791	
-0.0163766	
-0.0434639	
-0.0340804	
-0.042814	
0.110557	
0.11813	
0.0424441	
0.0437575	
0.0398478	
0.190018	
0.162817	
0.264027	
0.259803	
0.106502	
0.0863056	
0.0768511	
0.0744861	
0.0871047	
0.127599	
0.124307	
0.149689	
0.149195	
0.0634297	
0.0663183	
0.0191465	
0.00966625	
0.0822726	
0.0587577	
0.0617718	
0.0386644	
0.10065	
0.102618	
0.0908378	
0.0843865	
0.0930066	
0.0857867	
0.0531334	
0.270801	
0.268979	
0.264369	
0.269772	
0.10102	
0.105192	
0.093149	
0.0986533	
0.0969427	
0.0995856	
0.0967195	
-0.0158978	
0.00120451	
-0.00715499	
0.00938909	
0.0267014	
0.0380084	
0.0180096	
0.0077995	
-0.0121376	
-0.00366823	
0.00419038	
0.0337774	
0.0197985	
0.024235	
0.0123791	
0.0040014	
0.0202868	
0.00274198	
0.0121815	
-0.0104339	
-0.0177174	
-0.013658	
-0.00476293	
0.0271058	
0.0249709	
0.0186145	
0.0106383	
-0.0146335	
-0.0100179	
-0.00420824	
0.00245641	
0.0332661	
-0.0633903	
-0.0489361	
0.00472948	
0.0329006	
-0.0256146	
-0.0309376	
-0.00879806	
0.0298962	
0.0235668	
0.00312871	
-0.0516321	
0.00239142	
-0.0287965	
-0.0725313	
-0.0549184	
0.0312183	
0.01577	
-0.00468957	
-0.0665008	
-0.0417318	
-0.0174024	
0.0246299	
0.135098	
0.17314	
0.171547	
0.115427	
0.141062	
-0.0290392	
0.0724935	
0.140624	
0.0535665	
0.0949467	
0.127569	
0.0464848	
0.0376352	
0.11753	
0.118649	
0.0931777	
0.0942756	
0.0774298	
0.102844	
0.125962	
0.171874	
0.174057	
-0.0604148	
-0.0662261	
-0.0512191	
-0.0515872	
0.00140172	
0.0226809	
0.0109805	
0.163632	
0.149409	
0.153648	
0.0454514	
0.161273	
0.15292	
0.169818	
0.1709	
0.167481	
0.161516	
0.168461	
0.169231	
-0.0554712	
-0.0421367	
0.143585	
0.149371	
0.134679	
0.15903	
0.158087	
0.16387	
0.157166	
0.146062	
0.145631	
0.168937	
0.154257	
0.172908	
0.174713	
0.102678	
0.108793	
0.127917	
0.173485	
0.174793	
-0.0391794	
-0.0219897	
0.00889218	
-0.00429539	
-0.0279605	
-0.00599408	
-0.0261101	
0.056277	
0.0355786	
0.0782125	
0.0744347	
0.117924	
0.135598	
0.111725	
0.130694	
0.101651	
0.16028	
0.164165	
0.126942	
0.0932268	
-0.150999	
-0.0300816	
0.0319755	
0.066414	
-0.025013	
0.033752	
0.0458149	
-0.0293384	
0.0598806	
0.0336522	
-0.0022025	
-0.0051278	
0.0082887	
0.0351638	
0.0446514	
0.134646	
0.155702	
-0.149838	
-0.171526	
-0.125645	
-0.129106	
-0.109203	
-0.0916906	
-0.0824342	
0.0846694	
0.11318	
0.0923824	
-0.0659533	
-0.0772899	
0.127502	
0.118881	
0.139152	
0.127527	
0.128979	
0.138547	
0.132055	
0.124376	
-0.159116	
-0.16589	
0.0722256	
0.0869885	
0.103176	
0.106121	
0.0831467	
0.0871529	
0.11049	
0.115668	
0.152219	
0.151012	
0.158547	
0.162892	
0.0465318	
0.0993636	
0.0721873	
0.163481	
0.158407	
-0.144034	
-0.142829	
-0.118017	
-0.112928	
-0.1085	
-0.142726	
-0.121327	
-0.0183279	
-0.0639796	
-0.0356405	
-0.0655846	
0.0375916	
0.0697404	
0.0161279	
0.0696803	
0.0437438	
-0.0512816	
0.0706652	
0.165249	
0.21783	
0.212055	
0.211197	
0.190869	
0.206643	
0.195689	
0.185314	
0.207368	
0.200682	
0.204807	
0.191883	
0.19977	
0.195089	
0.17253	
0.154862	
0.173951	
0.183705	
0.179133	
0.213167	
0.174504	
0.205056	
0.203778	
0.189734	
0.20987	
0.197062	
0.205426	
0.091222	
0.0977956	
-0.0958826	
-0.0182968	
0.201982	
0.170426	
0.212617	
0.156298	
0.191773	
0.0942926	
0.172551	
0.183067	
0.212508	
-0.207894	
0.175105	
0.207687	
0.187814	
0.194246	
0.109984	
0.102427	
0.147107	
0.100133	
0.131123	
-0.00492044	
-0.361355	
0.0177855	
0.117326	
0.125039	
-0.0718061	
-0.0283807	
0.0194961	
0.0491367	
-0.248134	
-0.328501	
-0.338727	
-0.344005	
-0.196569	
-0.00319943	
-0.0121801	
-0.233113	
-0.267792	
-0.150541	
-0.00390706	
-0.260226	
-0.293569	
-0.331441	
-0.332608	
-0.166322	
0.00876642	
-0.0866941	
-0.345422	
-0.343553	
-0.0822318	
0.175386	
0.0895817	
0.170113	
-0.347886	
-0.0486878	
0.140438	
-0.0353715	
-0.00711415	
0.152778	
-0.246696	
-0.0276597	
-0.0897799	
-0.13315	
-0.20727	
-0.0651319	
0.157205	
-0.0958305	
0.095546	
-0.0998708	
0.117501	
0.0841287	
0.0279046	
0.070048	
-0.241498	
-0.224125	
0.0808982	
-0.00621463	
-0.103603	
-0.0394106	
-0.137421	
-0.102699	
-0.252027	
-0.0757509	
-0.0776724	
-0.160006	
0.151669	
-0.153963	
-0.326368	
0.124533	
-0.322408	
-0.320141	
-0.00333404	
0.0549539	
-0.318207	
-0.123977	
-0.180383	
-0.139474	
0.197285	
0.110657	
0.120081	
0.119761	
0.050581	
0.0512921	
-0.00961597	
0.0413693	
-0.215603	
-0.138455	
0.170444	
0.153021	
0.097365	
0.121082	