<VTKFile type="UnstructuredGrid" version="0.1" byte_order="LittleEndian">
	<UnstructuredGrid>
		<Piece NumberOfPoints="1759" NumberOfCells="38">
			<CellData Scalars="scalars">
				<DataArray type="Float64" Name="Doublet Strengths" NumberOfComponents="1" Format="ascii">
-0.101974	
-0.304225	
-0.266902	
-0.188416	
-0.356351	
-0.254693	
-0.318141	
-0.244342	
-0.337447	
-0.355068	
-0.345366	
-0.289114	
-0.219718	
-0.337772	
-0.152351	
-0.359775	
-0.361706	
-0.354241	
-0.359146	
-0.361704	
-0.302703	
-0.266191	
-0.345632	
-0.18828	
-0.356321	
-0.254512	
-0.317046	
-0.244114	
-0.337319	
-0.355079	
-0.288224	
-0.219544	
-0.336991	
-0.152245	
-0.359765	
-0.101908	
-0.35434	
-0.359342	
				</DataArray>
				<DataArray type="Float64" Name="Velocity Potential" NumberOfComponents="1" Format="ascii">
1.2554	
1.45765	
1.42032	
1.34184	
1.50978	
1.40812	
1.47157	
1.39777	
1.49088	
1.50849	
1.4988	
1.44254	
1.37315	
1.49121	
1.30578	
1.5132	
1.51513	
1.50767	
1.51258	
1.51513	
1.45613	
1.41961	
1.49906	
1.34171	
1.50975	
1.40793	
1.47048	
1.39754	
1.49075	
1.5085	
1.44165	
1.37297	
1.49043	
1.30567	
1.51319	
1.25533	
1.50777	
1.51278	
				</DataArray>
			</CellData>
			<Points>
				<DataArray type="Float64" Name="Position" NumberOfComponents="3" Format="ascii">
0.891461	0	-0.0144054	
0.926293	0.0755706	-0.00995675	
1	0	0	
0.607623	0.12319	-0.0446579	
0.674039	0	-0.0385976	
0.565075	0	-0.0481494	
0.835451	0.0889877	-0.0212285	
0.782691	0	-0.0272873	
0	0.119214	0	
0	0.149212	0	
0.0197966	0.137269	-0.023536	
0.497208	0.0976584	-0.0529873	
0	0.0594928	0	
0.00946485	0.0463137	-0.0166448	
0	0.0295588	0	
0.512856	1.60948	-0.0519586	
0.625248	1.67545	-0.043119	
0.0148924	1.02668	-0.0206174	
0.392492	0.174659	-0.0582778	
0.619405	1.56202	-0.0436349	
0	0.418152	0	
0.0141781	0.415404	-0.0201479	
0	0.388269	0	
0.0117837	0.492663	-0.0184674	
0	0.477974	0	
0	0.507287	0	
0.0131029	1.09165	-0.0194149	
0	1.07435	0	
0	1.10433	0	
0	0.835948	0	
0	0.865824	0	
0.0123474	0.848214	-0.0188792	
0.507161	1.70825	-0.0523393	
0	1.01462	0	
0	1.04463	0	
0.0127983	1.95596	-0.0192011	
0	1.94051	0	
0	1.97044	0	
0.502675	0.205144	-0.0526342	
0.456107	0	-0.055414	
0.402201	0.0756925	-0.0579183	
0.30036	0.0984236	-0.0600172	
1	1.89334	0	
0.926179	1.92453	-0.00997152	
1	2	0	
0.782691	2	-0.0272873	
0.891461	2	-0.0144054	
0.834681	1.91041	-0.0213195	
0.456107	2	-0.055414	
0.565075	2	-0.0481494	
0.506681	1.9124	-0.0523711	
0.6098	1.88214	-0.0444707	
0.674039	2	-0.0385976	
0.405116	1.88283	-0.0578046	
0.505452	1.81702	-0.0524522	
0	1.22383	0	
0	1.25373	0	
0.0155767	1.23879	-0.0210552	
0.0130663	1.32882	-0.0193894	
0	1.31351	0	
0	1.34337	0	
0	1.52203	0	
0.0126503	1.50995	-0.0190962	
0	1.49271	0	
0	0.328506	0	
0	0.358317	0	
0.0221361	0.34751	-0.0247778	
0.0158368	1.77511	-0.0212187	
0	1.7612	0	
0	1.79106	0	
0.336902	1.10701	-0.059719	
0.435991	1.15601	-0.0564445	
0.43165	1.05583	-0.0566524	
0.396753	0.64475	-0.0581237	
0.500311	0.703085	-0.0527877	
0.524241	0.596316	-0.0511763	
0.546816	1.10224	-0.0495442	
0.344955	1.20575	-0.0595799	
0.45296	1.27703	-0.0555824	
0.58117	1.3182	-0.0468672	
0.713329	1.31225	-0.0346964	
0.622324	1.21595	-0.0433778	
0.522675	0.986342	-0.0512855	
0.514163	1.39635	-0.0518702	
0.322414	1.01356	-0.0599045	
0.347125	0	-0.0595382	
0.24246	0	-0.0592008	
0.083629	0.485736	-0.0438228	
0.0417501	0.501975	-0.0329237	
0.0709863	0.533439	-0.0411077	
0.0212885	0.312587	-0.0243374	
0.0234462	0.277904	-0.0254389	
0	0.29855	0	
0	1.4629	0	
0.0208871	1.44795	-0.0241251	
0	1.4331	0	
0.044688	1.95488	-0.0339075	
0.0167634	2	-0.0217888	
0.0488856	2	-0.0352377	
0.0749203	1.58263	-0.0419945	
0.0407134	1.5968	-0.0325652	
0.0746332	1.63255	-0.0419312	
0.101318	0.395751	-0.0470481	
0.144852	0.351129	-0.0529019	
0.0866945	0.338388	-0.0444258	
0.170183	0.416415	-0.0552898	
0.128631	0.459256	-0.0510125	
0.199515	0.492457	-0.0573366	
0.143829	0.578226	-0.0527917	
0.09521	0.571384	-0.0460012	
0.120829	0.623734	-0.0499885	
0.0394879	0.919788	-0.0321334	
0.0611924	0.88584	-0.038711	
0.0248862	0.89914	-0.0261403	
0	0.925651	0	
0.0144974	0.921669	-0.0203594	
0	0.895666	0	
1	1.05123	0	
0.8682	1.10363	-0.017288	
1	1.15693	0	
0.739848	1.10823	-0.0319402	
0.772683	1.00737	-0.0283959	
0.765228	1.41445	-0.0292132	
0.863143	1.31767	-0.0179055	
1	1.36851	0	
1	1.26277	0	
0.798431	0.770872	-0.0255173	
0.87359	0.676335	-0.0166262	
0.731949	0.676778	-0.0327714	
0.803929	1.21187	-0.0248915	
0.0530691	1.2579	-0.0364845	
0.109731	1.27591	-0.0483871	
0.0881756	1.21764	-0.0447101	
0.126944	1.16214	-0.0507978	
0.179103	1.11707	-0.0559875	
0.116479	1.09784	-0.0493819	
0.041026	1.21769	-0.032674	
0.0262851	1.29618	-0.0267982	
0.0432204	1.33776	-0.0334218	
0.0476004	1.79428	-0.0348393	
0.0478612	1.75503	-0.0349208	
0.0135524	1.71638	-0.0197254	
0.0154577	1.74398	-0.0209799	
0.0438964	1.71887	-0.0336469	
0.0428398	1.106	-0.033294	
0.0321373	1.07218	-0.0293363	
0.0153303	1.05299	-0.0208989	
0.0506773	1.04014	-0.0357808	
0.146872	0.760346	-0.0531162	
0.0936193	0.787247	-0.0457175	
0.134904	0.830041	-0.0517799	
0.0337506	1.14013	-0.0299835	
0.0158122	1.15823	-0.0212033	
0.048504	1.17874	-0.0351202	
0.0200315	0.462798	-0.0236645	
0.0495945	0.462441	-0.0354543	
0.350141	0.743337	-0.0594772	
0.449193	0.780035	-0.0557805	
0.0141604	0.072829	-0.0201361	
0.0371263	0.0434495	-0.0312752	
0.0167634	0	-0.0217888	
0.0120189	0.0225601	-0.0186406	
0.0488856	0	-0.0352377	
0.0675867	0.684937	-0.0403078	
0.0958769	0.729463	-0.0461188	
0.132957	0.686487	-0.0515469	
0.0269454	0.541999	-0.0271013	
0.521383	0.299592	-0.0513753	
0.487318	0.374763	-0.0536086	
0.602062	0.386874	-0.0451326	
0.0645736	1.30279	-0.0395711	
0.047505	0.331842	-0.0348094	
1	1.78814	0	
1	1.68257	0	
0.883793	1.73182	-0.0153634	
0.749733	1.73386	-0.0308884	
0.817857	1.81509	-0.0232887	
0.823516	1.63504	-0.0226303	
1	0.211863	0	
0.881328	0.271649	-0.0156697	
1	0.317433	0	
0.752646	0.265862	-0.0305759	
0.811944	0.184375	-0.0239722	
0.806357	0.374411	-0.0246138	
0.0761075	1.13643	-0.0422544	
0.08279	1.82327	-0.0436542	
0.0905886	1.77345	-0.0451638	
0.106554	1.86557	-0.0478947	
0.141625	1.80784	-0.0525502	
0.0389769	1.83219	-0.0319507	
0.633988	1.43217	-0.0423367	
0.519839	1.50375	-0.051482	
0.40429	1.548	-0.0578371	
0.321446	0.40068	-0.0599138	
0.416867	0.43018	-0.0573199	
0.409732	0.301892	-0.0576192	
0.317069	0.275313	-0.0599511	
0.885423	1.43003	-0.0151604	
1	1.47319	0	
0.804123	1.52428	-0.0248693	
0.0366911	0.170081	-0.0311132	
0.0376003	0.208614	-0.0314503	
0.0705706	0.195999	-0.0410117	
0.0632883	0.262993	-0.0392484	
0.0609271	0.229752	-0.038642	
0.0252743	0.24303	-0.0263251	
0.108358	0.901814	-0.0481763	
0.169545	0.883649	-0.0552371	
0.207878	0.807337	-0.0577975	
0.202754	0.935965	-0.0575212	
0.25224	0.880162	-0.0594639	
1	0.948775	0	
0.888717	0.992874	-0.0147491	
0.817473	0.892554	-0.0233332	
0.0975489	1.34295	-0.0464099	
0.103692	1.03143	-0.0474376	
0.0724987	1.0835	-0.0414534	
0.085914	0.844612	-0.0442741	
0.243313	0.440965	-0.059226	
0.292352	0.539321	-0.0600044	
0.284687	0.659301	-0.0599639	
0.0391917	0.084762	-0.0320277	
0.0730578	0.0756989	-0.0415797	
0.618148	0.259059	-0.0437452	
0.0270714	0.953213	-0.0271586	
0.0660124	0.933449	-0.0399263	
0.0499413	0.974332	-0.0355594	
0.0938419	0.967376	-0.0457575	
0.661758	1.78522	-0.0397704	
0.579554	1.76621	-0.0469981	
0.0475832	0.722942	-0.0348339	
0.244952	1.07272	-0.0592731	
0.219171	1.00306	-0.0583416	
0.162306	1.04885	-0.0546143	
0.0397241	0.846774	-0.0322174	
0.0569222	0.818013	-0.0375705	
0.252781	1.76578	-0.0594769	
0.184826	1.76605	-0.0563994	
0.225051	1.83901	-0.0585909	
0.0945919	2	-0.0458915	
0.09334	1.96024	-0.0456672	
0.0412463	1.65783	-0.0327503	
0.0264881	1.62683	-0.0268919	
0.188022	0.636377	-0.0566177	
0.175736	1.62521	-0.0557323	
0.259813	1.63403	-0.0596305	
0.216817	1.5752	-0.0582354	
0.442652	0.542135	-0.0561154	
0.366747	0.512413	-0.0590815	
0.0310609	1.6912	-0.0288928	
0.517534	0.470912	-0.0516405	
0.0552108	1.37935	-0.0370951	
0.0542716	1.4262	-0.0368296	
0.100815	1.40555	-0.0469643	
0.0179702	1.36146	-0.0225046	
0.0223351	1.39411	-0.0248797	
0.157437	0	-0.0541675	
0.127094	0.062928	-0.050817	
0.207538	0.0796635	-0.0577798	
0.152928	0.128159	-0.0537328	
0.217025	0.164244	-0.0582449	
0.127463	1.66984	-0.0508642	
0.117019	1.60434	-0.0494586	
0.159092	1.55628	-0.0543219	
0.109141	0.235173	-0.0482969	
0.109271	0.17034	-0.0483167	
0.0246073	1.92477	-0.0260064	
0.0736816	1.91262	-0.0417196	
0.268533	0.950713	-0.0597837	
0.341387	0.911705	-0.0596447	
0.10506	0.294647	-0.0476577	
0.235331	0.342637	-0.0589736	
0.161115	0.285226	-0.0545071	
0.0691995	1.541	-0.0406913	
0.08397	1.50314	-0.0438908	
0.041683	1.51644	-0.0329007	
0.60366	0.693781	-0.0449968	
0.727708	1.87715	-0.0332141	
0.729562	0.109781	-0.0330208	
0.647666	1.02117	-0.0410878	
0.344113	1.29608	-0.0595957	
0.258473	1.23756	-0.0596033	
0.15985	0.207308	-0.0543918	
0.181335	1.26018	-0.0561513	
0.193985	1.18569	-0.0570034	
0.139834	1.21824	-0.05235	
0.694143	0.570707	-0.0366293	
0.612675	0.508068	-0.0442221	
0.628058	0.614485	-0.0428689	
0.0196244	0.814657	-0.0234412	
0.145919	0.970152	-0.0530156	
0.0105936	1.2111	-0.0175598	
0.0176437	1.18765	-0.0223138	
0	1.19398	0	
0	1.73129	0	
0	0.268712	0	
0	0.44791	0	
0.0364488	1.00772	-0.0310224	
0.0130795	0.206433	-0.0193986	
0.687798	0.192636	-0.0372569	
0.297603	0.820531	-0.0600161	
0.215968	1.49889	-0.0581962	
0.308715	1.47025	-0.0599995	
0.226636	1.40194	-0.0586543	
0.158834	1.44385	-0.054298	
0.137649	1.50032	-0.0521008	
0.418077	1.76606	-0.0572677	
0.325407	1.81142	-0.0598732	
0.322491	1.71133	-0.0599037	
0.527367	1.21318	-0.0509566	
0.0684229	1.00468	-0.0405076	
0.0768439	0.436635	-0.0424138	
0.223674	0.253466	-0.0585346	
0.0413054	1.55916	-0.0327707	
0.0854158	1.72088	-0.0441767	
0.903344	1.53762	-0.0129056	
1	1.57695	0	
0.249429	1.31682	-0.0593939	
0.323373	1.38423	-0.0598948	
0.0161596	1.41978	-0.0214195	
0	1.40308	0	
1	0.843066	0	
1	0.737232	0	
0.900476	0.795093	-0.0132692	
0.911717	0.371066	-0.0118378	
1	0.423048	0	
0.415918	1.66041	-0.0573606	
0.377031	0.833502	-0.0587873	
0.446731	0.891443	-0.0559079	
0.419398	1.44829	-0.0572102	
1	0.631488	0	
0.0974625	1.45732	-0.046395	
0.722252	1.61815	-0.0337799	
0.533541	0.867753	-0.0505167	
0.565916	0.780439	-0.0480836	
0.0708304	1.68022	-0.0410717	
0.108545	1.54724	-0.0482051	
0.0533809	1.4722	-0.0365745	
0.906627	1.21036	-0.012488	
0.289193	0.192939	-0.0599911	
0.698204	0.349699	-0.0362246	
0.714151	0.463025	-0.0346125	
0.706301	0.922159	-0.0354105	
0.636152	0.847489	-0.0421411	
0.605303	0.930677	-0.0448566	
0.918182	1.63401	-0.011007	
0.412731	0.970912	-0.0574953	
0.0278541	0.661178	-0.0275109	
0.0173327	0.633971	-0.0221301	
0	0.656626	0	
0.0479366	0.640419	-0.0349443	
0	1.91055	0	
0.135501	1.73439	-0.0518505	
0.209914	1.69537	-0.0579021	
0.014437	1.26637	-0.0203196	
0	1.82099	0	
0.014789	1.80593	-0.0205502	
0.0167045	0.991385	-0.0217532	
0	0.985379	0	
0.0122871	0.518052	-0.0188357	
0.085726	0.650678	-0.0442374	
0.0705402	0.609386	-0.0410046	
0.0337973	0.605063	-0.0300019	
0.0482311	0.572291	-0.0350358	
0.917119	0.895674	-0.011144	
0.731195	0.835364	-0.0328503	
0.911619	1.83505	-0.0118504	
0.910993	0.16584	-0.0119304	
1	0.106656	0	
0.646	1.12083	-0.0412415	
0.710415	1.20177	-0.0349934	
0.14929	1.38095	-0.053367	
0.0823072	1.17522	-0.0435565	
0.414164	1.36114	-0.0574351	
0.0566174	0.299345	-0.0374866	
0.679105	0.762776	-0.0381072	
0.028653	0.69126	-0.0278642	
0.709879	1.51251	-0.0350478	
0.0576865	0.366513	-0.0377793	
0.0217336	1.48186	-0.0245699	
0	1.70145	0	
0.0154583	1.1161	-0.0209803	
0	1.13418	0	
0.0121799	1.83501	-0.018758	
0.0358486	0.759257	-0.0307958	
0.0145131	0.744897	-0.0203697	
0	0.716379	0	
0	0.746266	0	
0.260223	1.15132	-0.0596386	
0.292234	1.55229	-0.060004	
0.347125	2	-0.0595382	
0	0	0	
0	0.0894481	0	
0	2	0	
0.197829	0.55548	-0.0572375	
0.131008	0.520513	-0.051309	
0	1.67149	0	
0.0136711	1.6539	-0.0198064	
0	1.64168	0	
0	0.179008	0	
0	0.208937	0	
0	1.37332	0	
0.0217661	0.875128	-0.0245868	
0	0.566897	0	
0	0.596918	0	
0.0156479	0.576588	-0.0211001	
0.0573036	1.866	-0.037675	
0.0364226	1.89435	-0.0310125	
0.0216237	0.37825	-0.0245128	
0	1.85079	0	
0	1.88079	0	
0.0177635	1.8649	-0.022384	
0	1.16405	0	
0	1.58185	0	
0	1.61173	0	
0.0124914	1.59783	-0.0189827	
0	0.806024	0	
0	1.28362	0	
0	0.537104	0	
0.0491763	0.401602	-0.0353268	
0.0154741	0.712955	-0.0209903	
0.0478322	0.788506	-0.0349117	
0.0648408	0.755756	-0.0396375	
0.0161625	1.54062	-0.0214212	
0.0189645	0.105967	-0.0230734	
0.0550154	0.122632	-0.0370402	
0	0.62668	0	
0.899725	0.46964	-0.0133643	
1	0.526806	0	
0.855018	0.559358	-0.0188906	
0.926721	0.578304	-0.00990103	
0.166618	1.32416	-0.0549912	
0.0138762	1.67722	-0.0199454	
0.0945919	0	-0.0458915	
0.0735535	0.0354327	-0.041691	
0.779759	0.582731	-0.0276134	
0.202905	0.714775	-0.0575296	
0.0105749	0.608888	-0.0175451	
0.0119437	0.168986	-0.0185854	
0	1.55209	0	
0	0.776167	0	
0.036406	0.430772	-0.0310063	
0.0152278	1.57112	-0.0208334	
0.0166526	0.781672	-0.0217216	
0.0124581	1.89588	-0.0189589	
0.0993849	0.115699	-0.0467238	
0.806945	0.481321	-0.0245466	
0	0.68649	0	
0.339823	1.61929	-0.0596715	
0.266123	0.748391	-0.0597454	
0.24246	2	-0.0592008	
0.297189	1.90422	-0.0600157	
0.205056	1.92468	-0.0576477	
0	0.238804	0	
0.157437	2	-0.0541675	
0.133523	1.92268	-0.051615	
0.240501	0.597088	-0.0591415	
0.00757524	0.940601	-0.0149662	
0	0.955373	0	
0.00993313	0.673142	-0.0170314	
0.0692785	0.157039	-0.0407099	
0.00794453	0.970876	-0.0153109	
0.162147	1.86833	-0.0546	
0.0115747	0.0417711	0.0183118	
0.508103	0.0865658	0.0522769	
0.521466	0.171868	0.0513695	
0.404244	0.138276	0.0578389	
0.0135592	0.461852	0.0197301	
0.0155549	0.792251	0.0210414	
0.456107	0	0.055414	
0.565075	0	0.0481494	
0.926415	0.0753752	0.00994083	
0.891461	0	0.0144054	
0.835902	0.0888062	0.0211752	
0.782691	0	0.0272873	
0.615717	0.111095	0.0439577	
0.674039	0	0.0385976	
0.0152224	0.844951	0.02083	
0.0157135	1.09149	0.0211414	
0.0154963	1.38999	0.0210044	
0.0157414	1.44371	0.0211589	
0.0132153	1.29809	0.0194931	
0.500538	1.89986	0.052773	
0.611807	1.8749	0.0442973	
0.565075	2	0.0481494	
0.009684	1.95422	0.016827	
0.674039	2	0.0385976	
0.835295	1.91113	0.021247	
0.891461	2	0.0144054	
0.782691	2	0.0272873	
0.92625	1.92447	0.00996231	
0.00729942	0.640075	0.0147026	
0.0134326	0.942895	0.0196432	
0.0151062	1.53604	0.0207554	
0.596664	0.325709	0.0455882	
0.529296	0.377512	0.05082	
0.479896	0.263649	0.0540597	
0.362173	0.270601	0.0592004	
0.456107	2	0.055414	
0.524673	1.77604	0.051146	
0.297695	0.193284	0.0600162	
0.241058	0.632768	0.0591586	
0.29397	0.70456	0.0600094	
0.205438	0.731941	0.0576683	
0.513843	1.30015	0.0518919	
0.613804	1.36567	0.0441242	
0.507259	1.41341	0.0523328	
0.401187	1.37011	0.0579572	
0.400764	0.742966	0.0579734	
0.35498	0.620746	0.0593723	
0.624243	0.786865	0.0432081	
0.716485	0.891806	0.0343736	
0.588675	0.90084	0.0462531	
0.0127576	0.158021	0.0191723	
0.0189393	1.79138	0.0230591	
0.0487473	0.575263	0.0351952	
0.0237026	0.547124	0.0255657	
0.0687705	0.538331	0.04059	
0.0527947	1.76432	0.036405	
0.0509081	1.81008	0.0358498	
0.609492	1.6214	0.0444973	
0.49635	1.64502	0.0530421	
0.528913	1.53356	0.0508472	
0.186806	0.882128	0.0565356	
0.252543	0.941566	0.0594712	
0.165355	0.950472	0.0548826	
0.205715	0.540945	0.0576832	
0.291112	0.550352	0.0599997	
0.153997	0.599529	0.0538377	
0.741602	1.10493	0.0317546	
0.776187	0.998672	0.0280093	
0.868865	1.10301	0.0172065	
0.863838	0.89618	0.0178208	
0.7224	0.687739	0.0337646	
0.766497	0.584874	0.0290746	
0.864837	0.682516	0.017699	
0.80389	0.790367	0.0248959	
0.808021	1.21326	0.0244232	
0.159033	0.807549	0.0543165	
0.134166	0.760275	0.0516921	
0.093025	0.798989	0.0456104	
0.622614	0.436078	0.0433523	
0.639316	0.563153	0.0418538	
0.518219	0.480058	0.0515935	
0.382763	0.483731	0.0586076	
0.42714	0.373996	0.0568627	
0.0206322	1.82885	0.0239891	
0.0927274	0.207838	0.0455564	
0.150895	0.235684	0.0535301	
0.0834259	0.246629	0.0437821	
0.0702011	0.169926	0.0409258	
0.130964	0.175656	0.0513035	
0.286052	1.84546	0.0599731	
0.206363	1.86386	0.0577178	
0.212789	1.7894	0.0580449	
0.136216	1.87474	0.0519343	
0.141149	1.81024	0.0524973	
0.280716	1.92898	0.0599317	
0.192333	1.93136	0.0568994	
0.0433348	0.815153	0.0334601	
0.0424071	0.85451	0.0331478	
0.0495981	0.771235	0.0354554	
0.051163	1.37381	0.0359256	
0.0424161	1.41453	0.0331508	
0.0455071	1.45393	0.0341738	
0.0474237	1.07395	0.034784	
0.0479368	1.11325	0.0349443	
0.0158701	1.27665	0.0212395	
0.0507658	1.29726	0.0358073	
0.066933	0.601564	0.0401503	
0.043797	0.623204	0.033614	
0.0167686	0.994886	0.021792	
0.039199	0.964919	0.0320303	
0.0557482	0.999006	0.0372456	
0.0432118	0.930917	0.033419	
0.537149	0.596764	0.0502559	
0.0446219	0.212913	0.0338859	
0.0316635	0.2563	0.0291423	
0.206381	0.168191	0.0577187	
0.0399701	0.0911748	0.0323044	
0.0427027	0.0492658	0.0332478	
0.0860615	0.0831987	0.0443029	
0.88545	0.268059	0.015157	
0.761542	0.263415	0.0296146	
0.821914	0.364782	0.0228172	
0.883749	1.72955	0.0153688	
0.758733	1.72741	0.0299193	
0.809746	1.81527	0.0242251	
0.81693	1.62789	0.0233961	
0.817195	0.183439	0.0233655	
0.0953964	0.36038	0.0460341	
0.146782	0.350898	0.0531067	
0.137044	0.404936	0.0520308	
0.214081	0.377232	0.0581072	
0.288588	0.781113	0.059988	
0.218423	0.813469	0.0583083	
0.243332	1.47072	0.0592266	
0.289272	1.3914	0.0599915	
0.343491	1.4668	0.0596071	
0.109542	0.994521	0.0483582	
0.07646	1.03923	0.0423309	
0.122076	1.0429	0.0501576	
0.0959768	1.09162	0.0461363	
0.356423	1.80667	0.0593393	
0.290397	1.74795	0.0599967	
0.409512	1.72536	0.0576282	
0.0550791	1.52161	0.0370581	
0.0830724	1.48088	0.0437111	
0.113567	1.52062	0.0489608	
0.110439	1.2982	0.0484947	
0.0687198	1.3323	0.040578	
0.100858	1.35875	0.0469715	
0.885396	0.569733	0.0151637	
0.802451	0.474222	0.02506	
0.0904601	0.951073	0.04514	
0.762645	1.52673	0.0294947	
0.885113	1.52076	0.015199	
0.812869	1.43465	0.0238655	
0.893571	0.9997	0.0141404	
0.0817229	1.95755	0.0434375	
0.131185	1.94203	0.0513307	
0.0945919	2	0.0458915	
0.24246	0	0.0592008	
0.204901	0.0748408	0.0576393	
0.157437	0	0.0541675	
0.415084	1.55362	0.0573962	
0.313652	0.376284	0.0599745	
0.265797	0.462639	0.05974	
0.904543	1.40137	0.0127533	
0.904137	1.29664	0.0128049	
0.165398	1.56674	0.0548863	
0.176025	1.50743	0.0557545	
0.0819083	1.66086	0.0434754	
0.0721094	1.71675	0.041365	
0.0435368	1.69711	0.0335275	
0.032355	1.7322	0.0294248	
0.0755156	1.25724	0.0421253	
0.125977	1.23754	0.0506731	
0.0814792	1.208	0.0433877	
0.120613	1.18131	0.049959	
0.416054	1.25319	0.0573548	
0.044726	1.22689	0.0339199	
0.0590924	0.720801	0.038158	
0.090392	0.744368	0.0451273	
0.512086	0.810636	0.0520105	
0.521885	0.709696	0.0513404	
0.426484	0.848543	0.0568929	
0.0823203	1.15033	0.0435591	
0.0408451	1.15195	0.0326111	
0.272154	0.866465	0.0598356	
0.229954	1.02305	0.0587818	
0.714583	0.374603	0.0345683	
0.639846	1.73798	0.0418055	
0.710726	1.63099	0.0349617	
0.02204	0.433612	0.0247284	
0.0472204	0.462287	0.0347201	
0.0390361	0.403984	0.031972	
0.0585077	0.433566	0.0380014	
0.0962404	0.574801	0.0461825	
0.65296	1.52923	0.0405965	
0.596218	1.20393	0.0456256	
0.499799	1.1828	0.0528208	
0.394238	1.1536	0.0582154	
0.47051	1.08471	0.054611	
0.564213	1.09819	0.0482167	
0.229045	1.32656	0.0587475	
0.203428	1.39925	0.0575586	
0.157558	1.34248	0.0541788	
0.347125	2	0.0595382	
0.24246	2	0.0592008	
0.0333364	0.706286	0.0298193	
0.0537813	0.668648	0.0366896	
0.729902	1.89458	0.0329853	
0.732033	0.114523	0.0327626	
0.0600389	0.122993	0.0384091	
0.0209036	0.126578	0.0241339	
0.0378333	0.151316	0.0315359	
0.650869	1.00782	0.0407911	
0.536472	1.00095	0.050305	
0.614053	0.673546	0.0441025	
0.114953	0.898314	0.0491628	
0.146919	1.45289	0.0531211	
0.139357	1.39656	0.0522961	
0.254136	0.284124	0.0595086	
0.206096	0.249053	0.0577035	
0.167487	1.07311	0.055065	
0.161383	1.01033	0.0545313	
0.177014	1.19331	0.0558303	
0.176794	1.27216	0.0558135	
0.246174	1.23825	0.0593073	
0.32394	1.00768	0.059889	
0.359622	0.925023	0.0592635	
0.0176172	1.92768	0.0222982	
0.0106975	1.417	0.0176413	
0.0107831	0.819342	0.017708	
0.0117018	1.14947	0.0184066	
0.0115382	1.11861	0.0182845	
0.0151535	0.0714398	0.0207858	
0.00996092	0.969374	0.017054	
0.680543	0.19668	0.0379673	
0.698521	1.80748	0.0361928	
0.115705	0.297699	0.0492711	
0.0685743	0.283991	0.0405435	
0.102941	0.457884	0.0473154	
0.0828323	0.406949	0.0436627	
0.176233	0.460036	0.0557705	
0.176591	0.301892	0.055798	
0.015923	1.58794	0.0212726	
0.0334203	1.55636	0.0298526	
0.0426675	1.58454	0.0332359	
0.0695101	1.55858	0.0407644	
0.382232	1.90914	0.0586247	
0.152444	1.75169	0.0536849	
0.100062	1.75609	0.0468382	
0.123393	1.70553	0.0503338	
0.0883495	1.84322	0.0447432	
0.145398	1.1308	0.0529602	
0.321615	1.30554	0.0599122	
0.229104	1.1303	0.0587498	
0.128477	0.520895	0.050993	
0.480875	0.917743	0.0540009	
0.0336536	1.26009	0.0299451	
0.0911864	1.40605	0.0452744	
0.0806494	1.44085	0.043217	
0.0419608	1.48776	0.0329958	
0.809199	1.33339	0.0242879	
0.719241	1.30377	0.0340904	
0.710055	1.42019	0.03503	
0.912064	1.20406	0.0117933	
0.0808927	0.844506	0.0432672	
0.0321302	1.3395	0.0293334	
0.902814	0.462247	0.012973	
0.173271	0.667771	0.0555391	
0.00989075	1.56344	0.0169968	
0.0339046	1.04053	0.0300442	
0.146815	0.113741	0.0531102	
0.133884	0.0529087	0.0516583	
0.0945919	0	0.0458915	
0.082101	1.89843	0.0435146	
0.0167634	2	0.0217888	
0.0362171	1.96304	0.0309352	
0.0488856	2	0.0352377	
0.0532507	1.93189	0.036537	
0.0902257	0.689876	0.0450963	
0.0246421	0.488887	0.0260232	
0.0711026	0.495881	0.0411345	
0.710373	0.485522	0.0349977	
0.126524	0.848819	0.0507438	
0.0381407	0.300867	0.0316482	
0.0660935	0.327551	0.0399461	
0.0268169	0.34125	0.0270427	
0.0516161	0.37137	0.0360599	
0.906477	0.789933	0.0125072	
0.0718539	1.60705	0.0413068	
0.348681	0.83536	0.0595072	
0.124662	0.659303	0.0505015	
0.0911369	0.631226	0.0452653	
0.135753	0.711016	0.0518801	
0.431139	0.999445	0.0566765	
0.917697	0.36606	0.0110695	
0.0389276	0.516018	0.031933	
0.0131994	0.766017	0.0194821	
0.0141642	1.36307	0.0201386	
0.0129465	0.915994	0.0193055	
0.0136716	1.0642	0.0198068	
0.448749	0.646012	0.0558036	
0.913907	1.62752	0.011557	
0.598068	1.45405	0.0454702	
0.0488856	0	0.0352377	
0.0797693	0.0378942	0.0430343	
0.910424	1.83437	0.0120033	
0.912038	0.164817	0.0117967	
0.627877	1.28101	0.042885	
0.701095	1.20468	0.0359349	
0.647602	1.11967	0.0410937	
0.716601	0.789784	0.0343617	
0.237397	1.55825	0.0590426	
0.316341	1.55499	0.0599565	
0.436847	1.82527	0.0564029	
0.0197407	0.585886	0.0235052	
0.0192686	1.5084	0.0232438	
0.381685	1.07041	0.0586423	
0.047178	1.87252	0.0347067	
0.449727	0.555321	0.0557526	
0.592662	0.226963	0.0459227	
0.0374546	1.90441	0.0313967	
0.0143341	1.89215	0.0202516	
0.66998	0.283375	0.0389877	
0.0332893	0.894317	0.0298005	
0.0271968	0.74261	0.0272154	
0.0298899	1.61141	0.0283991	
0.569463	1.69507	0.0478047	
0.347125	0	0.0595382	
0.025975	0.182423	0.0266543	
0.069561	0.910791	0.0407763	
0.0674632	0.877682	0.0402782	
0.109061	1.57125	0.0482845	
0.0103569	1.97784	0.0173726	
0.0996951	0.132835	0.0467763	
0.0150128	0.618805	0.0206953	
0.207236	1.70633	0.0577639	
0.0180316	1.20925	0.0225402	
0.0463813	1.18727	0.0344543	
0.0396433	1.6401	0.0321887	
0.125988	1.61459	0.0506745	
0.0167634	0	0.0217888	
0.0143904	0.286153	0.0202888	
0.0321351	1.67065	0.0293354	
0.201872	1.62725	0.0574717	
0.0166283	0.375182	0.0217069	
0.010188	0.702262	0.0172376	
0.157437	2	0.0541675	
0.0174847	1.75676	0.0222201	
0.023705	0.651878	0.0255669	
0.0852757	1.79666	0.0441492	
0.0141817	1.69119	0.0201503	
0.0142329	1.71404	0.0201844	
0.0191891	0.678761	0.0231994	
0.012569	1.65602	0.0190383	
0.0153461	0.206322	0.020909	
0.0176739	1.1774	0.0223315	
0.294052	1.6562	0.0600096	
0.0254721	1.13254	0.0264186	
0.0170764	1.31985	0.0219773	
0.0158886	0.872892	0.0212511	
0.017068	1.47566	0.0219722	
0.289154	0.101239	0.0599909	
0.0148721	1.23681	0.0206042	
0.0461903	1.84281	0.0343933	
0.0180848	1.86106	0.022571	
0.0130043	0.313218	0.019346	
0.145254	1.66187	0.0529448	
0.301331	1.09661	0.0600168	
0.0127389	0.0999862	0.0191591	
0.317776	1.2007	0.0599456	
0.38987	1.63376	0.0583697	
0.0136231	1.63366	0.0197737	
0.0175889	1.02118	0.0222815	
0.0116251	0.725566	0.0183495	
0.435886	1.46889	0.0564496	
0.0127153	0.404175	0.0191423	
0.012919	0.518102	0.0192862	
0.015883	0.226959	0.0212476	
0.0286928	0.0235251	0.0278816	
0.786764	2	0	
0.682702	2	0	
0.473435	2	0	
0.576328	2	0	
0.370712	2	0	
0.267392	2	0	
0.182922	2	0	
0.066622	2	0	
0.0277131	2	0	
0.117792	2	0	
0.892911	2	0	
1	-0.106656	0	
0.926293	-0.0755706	-0.00995675	
0.607636	-0.123176	-0.0446568	
0.835451	-0.0889877	-0.0212285	
0	-0.119214	0	
0.0200306	-0.13756	-0.023664	
0	-0.149212	0	
0.497184	-0.0976523	-0.0529888	
0	-0.0594928	0	
0	-0.0295588	0	
0.00949628	-0.0464222	-0.016671	
0.512471	-1.60964	-0.0519846	
0.619373	-1.56204	-0.0436378	
0.625188	-1.67545	-0.0431243	
0	-0.418152	0	
0	-0.388269	0	
0.0179045	-0.419175	-0.0224664	
0.0117492	-0.492557	-0.0184418	
0	-0.507287	0	
0	-0.477974	0	
0.0130684	-1.09176	-0.0193909	
0	-1.10433	0	
0	-1.07435	0	
0	-0.835948	0	
0.0121102	-0.847303	-0.0187072	
0	-0.865824	0	
0.506588	-1.70827	-0.0523773	
0	-1.01462	0	
0.0149721	-1.02683	-0.020669	
0	-1.04463	0	
0.40208	-0.0757267	-0.057923	
0.29971	-0.0987522	-0.0600173	
0.891461	-2	-0.0144054	
0.92618	-1.92453	-0.00997149	
1	-2	0	
0.782691	-2	-0.0272873	
0.834683	-1.91041	-0.0213193	
0.456107	-2	-0.055414	
0.506792	-1.91236	-0.0523638	
0.565075	-2	-0.0481494	
0.609844	-1.88212	-0.0444669	
0.674039	-2	-0.0385976	
0.40474	-1.8827	-0.0578194	
0.505149	-1.81675	-0.0524721	
0	-1.22383	0	
0.0155734	-1.23876	-0.0210531	
0	-1.25373	0	
0.0130663	-1.32882	-0.0193894	
0	-1.34337	0	
0	-1.31351	0	
0	-0.328506	0	
0.0221656	-0.347744	-0.0247929	
0	-0.358317	0	
0	-1.58185	0	
0.0125688	-1.59752	-0.0190381	
0	-1.61173	0	
0.0161611	-1.77502	-0.0214204	
0	-1.79106	0	
0	-1.7612	0	
0.0129088	-1.95665	-0.019279	
0	-1.97044	0	
0	-1.94051	0	
0.502821	-0.204959	-0.0526247	
0.392251	-0.17461	-0.0582864	
0.337132	-1.10625	-0.0597154	
0.433909	-1.0562	-0.0565449	
0.43834	-1.15541	-0.0563299	
0.393383	-0.63784	-0.0582461	
0.521064	-0.595846	-0.0513974	
0.483395	-0.706886	-0.0538487	
0.562398	-1.10336	-0.0483579	
0.34527	-1.20551	-0.059574	
0.453297	-1.27678	-0.0555645	
0.581998	-1.31717	-0.0468	
0.629959	-1.21027	-0.0426988	
0.71356	-1.31324	-0.0346729	
0.523814	-0.987173	-0.0512061	
0.714255	-1.11451	-0.0346019	
0.514265	-1.39622	-0.0518633	
0.320391	-1.00957	-0.0599235	
0.0835288	-0.48534	-0.0438027	
0.0712043	-0.533311	-0.0411579	
0.0418123	-0.501089	-0.032945	
0.0213114	-0.312627	-0.0243494	
0	-0.29855	0	
0.0235238	-0.277608	-0.0254774	
0	-1.4629	0	
0	-1.4331	0	
0.020887	-1.44795	-0.0241251	
0.023831	-0.900473	-0.0256289	
0.0115997	-0.928448	-0.0183305	
0	-0.895666	0	
0.0410181	-1.6577	-0.0326712	
0.026491	-1.62659	-0.0268932	
0.0750231	-1.63297	-0.0420172	
0.105494	-0.295113	-0.0477269	
0.14646	-0.351214	-0.0530728	
0.0871021	-0.33853	-0.0445045	
0.258554	-0.448101	-0.059605	
0.206243	-0.495877	-0.0577114	
0.174781	-0.417238	-0.0556581	
0.144518	-0.578351	-0.052866	
0.120752	-0.623856	-0.0499779	
0.0953895	-0.571356	-0.0460329	
0.0215856	-0.874949	-0.0244929	
0.0603172	-0.885622	-0.0384823	
1	-1.05123	0	
1	-1.15693	0	
0.863833	-1.10408	-0.0178214	
0.770748	-1.00916	-0.0286088	
0.86311	-1.31762	-0.0179095	
0.765267	-1.41455	-0.0292089	
1	-1.36851	0	
1	-1.26277	0	
1	-0.737232	0	
0.873541	-0.67634	-0.0166323	
1	-0.631488	0	
0.803158	-1.21139	-0.0249794	
0.0530887	-1.25795	-0.0364902	
0.088194	-1.21761	-0.0447136	
0.109727	-1.27591	-0.0483865	
0.126924	-1.16212	-0.0507952	
0.11674	-1.09792	-0.049419	
0.17921	-1.11695	-0.0559954	
0.0417288	-1.21862	-0.0329164	
0.0262844	-1.29619	-0.0267979	
0.0432195	-1.33776	-0.0334215	
0.0489217	-1.79401	-0.0352488	
0.0499764	-1.755	-0.03557	
0.0158512	-1.74391	-0.0212277	
0.0455948	-1.71899	-0.0342021	
0.0426269	-1.10631	-0.0332222	
0.0322126	-1.0726	-0.029367	
0.0153974	-1.05316	-0.0209416	
0.0508627	-1.04076	-0.0358362	
0.158966	-0.768492	-0.0543103	
0.135234	-0.834861	-0.0518189	
0.0952852	-0.787617	-0.0460145	
0.210615	-0.845625	-0.0579375	
0.0123686	-1.18042	-0.0188945	
0.0155952	-1.15731	-0.0210669	
0.0482664	-1.17858	-0.0350467	
0.0193995	-0.463149	-0.0233167	
0.0471374	-0.454911	-0.0346939	
0.456982	-0.797246	-0.0553668	
0.360044	-0.743057	-0.0592532	
0.0393681	-0.0846135	-0.0320907	
0.0142979	-0.0731726	-0.0202276	
0.0371593	-0.0434791	-0.0312875	
0.0120237	-0.0225818	-0.0186441	
0.0676368	-0.684715	-0.0403198	
0.132406	-0.687488	-0.0514801	
0.0977463	-0.731417	-0.0464439	
0.0273788	-0.540781	-0.0272977	
0.515302	-0.471807	-0.0517929	
0.487308	-0.374555	-0.0536092	
0.601882	-0.387027	-0.0451479	
0.0645735	-1.30279	-0.039571	
0.0475653	-0.33193	-0.0348283	
0.0692261	-1.54098	-0.0406976	
0.0750082	-1.58267	-0.0420139	
0.0413646	-1.55904	-0.0327911	
1	-1.78814	0	
0.883793	-1.73182	-0.0153633	
1	-1.68257	0	
0.749732	-1.73385	-0.0308885	
0.817859	-1.81509	-0.0232885	
0.823516	-1.63504	-0.0226303	
1	-0.317433	0	
0.881328	-0.271649	-0.0156698	
1	-0.211863	0	
0.752645	-0.265863	-0.030576	
0.806352	-0.374414	-0.0246144	
0.811944	-0.184375	-0.0239722	
0.0760752	-1.13547	-0.0422473	
0.0972377	-1.77384	-0.0463561	
0.153214	-1.80757	-0.053761	
0.0850862	-1.82296	-0.0441119	
0.0392916	-1.83205	-0.0320634	
0.63395	-1.43218	-0.0423402	
0.519806	-1.50377	-0.0514844	
0.404126	-1.54821	-0.0578435	
0.325002	-0.383871	-0.0598776	
0.410597	-0.299986	-0.0575838	
0.416301	-0.427647	-0.0573442	
0.31576	-0.274107	-0.0599606	
0.885425	-1.43003	-0.0151601	
1	-1.47319	0	
0.804126	-1.52429	-0.024869	
0.0390391	-0.169292	-0.031973	
0.0745865	-0.195257	-0.0419208	
0.038757	-0.207792	-0.0318716	
0.062019	-0.229439	-0.0389246	
0.0278559	-0.240894	-0.0275117	
0.155066	-0.893031	-0.0539415	
0.105324	-0.903374	-0.0476999	
0.198131	-0.928168	-0.0572554	
0.817335	-0.89282	-0.0233492	
0.888213	-0.993128	-0.0148121	
1	-0.948775	0	
0.0975399	-1.34295	-0.0464083	
0.103499	-1.03204	-0.0474062	
0.0723765	-1.08237	-0.0414257	
0.0855963	-0.844919	-0.0442121	
0.306413	-0.5565	-0.0600075	
0.349888	-0.482612	-0.0594825	
0.0733923	-0.0759826	-0.0416549	
0.521475	-0.299502	-0.0513689	
0.618158	-0.25907	-0.0437443	