<VTKFile type="UnstructuredGrid" version="0.1" byte_order="LittleEndian">
	<UnstructuredGrid>
		<Piece NumberOfPoints="76" NumberOfCells="38">
			<CellData Scalars="scalars">
				<DataArray type="Float64" Name="Gamma" NumberOfComponents="1" Format="ascii">
-0.0606014	
-0.178973	
-0.172381	
-0.11087	
-0.207851	
-0.158468	
-0.183161	
-0.139227	
-0.190722	
-0.207108	
-0.191376	
-0.176248	
-0.126593	
-0.177285	
-0.0897082	
-0.209361	
-0.210078	
-0.201546	
-0.188637	
-0.21009	
-0.179902	
-0.172455	
-0.191788	
-0.110964	
-0.207892	
-0.158726	
-0.183438	
-0.139376	
-0.191006	
-0.207203	
-0.176639	
-0.126713	
-0.177354	
-0.0897713	
-0.209389	
-0.0606391	
-0.20173	
-0.188933	
				</DataArray>
			</CellData>
			<Points>
				<DataArray type="Float64" Name="Position" NumberOfComponents="3" Format="ascii">
1.20816	1.89334	6.08957e-06	
1.20816	2	-4.97452e-07	
1.20816	1.05123	-2.61912e-05	
1.20816	1.15693	-2.95635e-05	
1.20816	1.26277	-9.78437e-05	
1.20816	1.36851	-0.000168646	
1.20816	1.68257	2.25215e-05	
1.20816	1.78814	6.32197e-06	
1.20816	0.211863	-1.24377e-05	
1.20816	0.317433	-3.83272e-05	
1.20816	1.36851	-0.000168646	
1.20816	1.47319	6.11424e-05	
1.20816	0.948775	0.000266101	
1.20816	1.05123	-2.61912e-05	
1.20816	1.47319	6.11424e-05	
1.20816	1.57695	5.35161e-05	
1.20816	0.737232	3.38867e-05	
1.20816	0.843066	0.00026359	
1.20816	0.317433	-3.83272e-05	
1.20816	0.423048	-2.64386e-05	
1.20816	0.631488	0.000230423	
1.20816	0.737232	3.38867e-05	
1.20816	1.15693	-2.95635e-05	
1.20816	1.26277	-9.78437e-05	
1.20816	1.57695	5.35161e-05	
1.20816	1.68257	2.25215e-05	
1.20816	0.843066	0.00026359	
1.20816	0.948775	0.000266101	
1.20816	1.78814	6.32197e-06	
1.20816	1.89334	6.08957e-06	
1.20816	0.106656	-2.45158e-06	
1.20816	0.211863	-1.24377e-05	
1.20816	0	-8.60024e-07	
1.20816	0.106656	-2.45158e-06	
1.20816	0.423048	-2.64386e-05	
1.20816	0.526806	0.00020959	
1.20816	0.526806	0.00020959	
1.20816	0.631488	0.000230423	
1.20816	-0.106656	-5.65262e-06	
1.20816	0	-8.60024e-07	
1.20816	-1.15693	-3.88053e-05	
1.20816	-1.05123	-3.61298e-05	
1.20816	-1.36851	-0.00016869	
1.20816	-1.26277	-9.98458e-05	
1.20816	-0.737232	-1.68927e-05	
1.20816	-0.631488	0.000230048	
1.20816	-1.78814	6.2835e-06	
1.20816	-1.68257	2.24784e-05	
1.20816	-0.317433	-3.83404e-05	
1.20816	-0.211863	-1.24392e-05	
1.20816	-1.47319	6.11364e-05	
1.20816	-1.36851	-0.00016869	
1.20816	-1.05123	-3.61298e-05	
1.20816	-0.948775	0.000264996	
1.20816	-1.57695	5.34952e-05	
1.20816	-1.47319	6.11364e-05	
1.20816	-0.843066	0.000263286	
1.20816	-0.737232	-1.68927e-05	
1.20816	-0.423048	-2.64813e-05	
1.20816	-0.317433	-3.83404e-05	
1.20816	-1.26277	-9.98458e-05	
1.20816	-1.15693	-3.88053e-05	
1.20816	-1.68257	2.24784e-05	
1.20816	-1.57695	5.34952e-05	
1.20816	-0.948775	0.000264996	
1.20816	-0.843066	0.000263286	
1.20816	-1.89334	1.68397e-06	
1.20816	-1.78814	6.2835e-06	
1.20816	-0.211863	-1.24392e-05	
1.20816	-0.106656	-5.65262e-06	
1.20816	-2	-4.99763e-07	
1.20816	-1.89334	1.68397e-06	
1.20816	-0.526806	0.000209357	
1.20816	-0.423048	-2.64813e-05	
1.20816	-0.631488	0.000230048	
1.20816	-0.526806	0.000209357	
				</DataArray>
			</Points>
			<Cells>
				<DataArray type="Int32" Name="connectivity" Format="ascii">
0	1	
2	3	
4	5	
6	7	
8	9	
10	11	
12	13	
14	15	
16	17	
18	19	
20	21	
22	23	
24	25	
26	27	
28	29	
30	31	
32	33	
34	35	
36	37	
38	39	
40	41	
42	43	
44	45	
46	47	
48	49	
50	51	
52	53	
54	55	
56	57	
58	59	
60	61	
62	63	
64	65	
66	67	
68	69	
70	71	
72	73	
74	75	
				</DataArray>
				<DataArray type="Int32" Name="offsets" Format="ascii">
2	
4	
6	
8	
10	
12	
14	
16	
18	
20	
22	
24	
26	
28	
30	
32	
34	
36	
38	
40	
42	
44	
46	
48	
50	
52	
54	
56	
58	
60	
62	
64	
66	
68	
70	
72	
74	
76	
				</DataArray>
				<DataArray type="Int32" Name="types" Format="ascii">
3	
3	
3	
3	
3	
3	
3	
3	
3	
3	
3	
3	
3	
3	
3	
3	
3	
3	
3	
3	
3	
3	
3	
3	
3	
3	
3	
3	
3	
3	
3	
3	
3	
3	
3	
3	
3	
3	
				</DataArray>
			</Cells>
		</Piece>
	</UnstructuredGrid>
</VTKFile>
