<VTKFile type="UnstructuredGrid" version="0.1" byte_order="LittleEndian">
	<UnstructuredGrid>
		<Piece NumberOfPoints="304" NumberOfCells="304">
			<CellData Scalars="scalars">
				<DataArray type="Float64" Name="Strength" NumberOfComponents="3" Format="ascii">
0.00503251	-0.0036439	2.59746e-07	
0.000776786	-0.00782196	1.43204e-07	
0.000488137	-0.00660014	4.25326e-06	
0.00160011	-0.00601116	1.02597e-06	
9.24734e-05	-0.00810609	1.96953e-06	
-0.000538076	-0.00672158	-1.49127e-05	
0.0011661	-0.00782343	2.3811e-05	
0.00058836	-0.00719863	6.80368e-07	
-0.000580666	-0.00831945	-1.91801e-05	
-0.000308181	-0.0080048	-8.61917e-07	
0.00068892	-0.00866977	1.68762e-05	
1.43973e-09	-0.00729191	4.70448e-06	
-3.60752e-10	-0.00673051	1.97518e-06	
2.79776e-10	-0.0092566	-2.19894e-07	
-3.34998e-13	-0.005087	1.12368e-08	
2.77075e-06	-0.00806727	7.65708e-07	
1.55457e-07	-0.00818128	1.22082e-07	
-0.00102562	-0.00817119	-1.96206e-05	
1.95095e-09	-0.00927555	-1.84589e-06	
-2.51726e-06	-0.00818144	-3.67564e-07	
-0.000777156	-0.00773318	-5.46977e-08	
-0.000455789	-0.00657905	-4.13242e-06	
-0.00104563	-0.00868063	-2.09965e-05	
-0.00159973	-0.00600915	-1.02509e-06	
-9.16015e-05	-0.00810648	-1.97069e-06	
0.000539702	-0.00671911	1.49102e-05	
-0.00118961	-0.00778955	-2.44097e-05	
-0.000589284	-0.00719781	-6.81524e-07	
0.000922058	-0.00831884	2.31891e-05	
0.000309631	-0.0080061	8.59581e-07	
-1.39386e-09	-0.00725653	-4.18526e-06	
3.60611e-10	-0.00672873	-1.97607e-06	
-1.89761e-10	-0.00924551	1.49544e-07	
-0.00147606	-0.00508563	-2.3428e-07	
-2.26158e-11	-0.00806769	-5.20423e-07	
-0.00355509	-0.00364311	-6.60555e-08	
0.00102729	-0.00817392	1.96124e-05	
-1.93594e-09	-0.00927997	1.83423e-06	
0.00587241	-0.00056685	7.67753e-08	
0.000909214	-0.00162729	-7.1725e-08	
0.00066467	-0.00146684	7.13505e-07	
0.00198284	-0.00104916	2.90833e-07	
8.82899e-05	-0.00184996	4.40319e-07	
-0.000470663	-0.00139381	-3.19782e-06	
0.00121149	-0.00166823	6.30819e-06	
0.000684119	-0.0013143	2.72484e-07	
-0.000529471	-0.00183274	-5.02424e-06	
-0.00030108	-0.00188959	-1.74461e-07	
0.000733286	-0.00182	4.19435e-06	
3.13667e-10	-0.00158866	1.02495e-06	
-6.64992e-11	-0.00124067	3.64094e-07	
5.34182e-11	-0.00176738	-4.19847e-08	
-5.59089e-14	-0.000848986	1.87535e-09	
2.18581e-05	-0.00187805	1.78005e-07	
1.0294e-07	-0.00192349	2.87023e-08	
-0.00100631	-0.00184927	-5.21998e-06	
3.88341e-10	-0.00184632	-3.67429e-07	
-2.17772e-05	-0.00192343	-8.58379e-08	
-0.000905309	-0.00161618	1.22846e-07	
-0.000626292	-0.00146247	-7.01031e-07	
-0.00108324	-0.00181803	-5.02372e-06	
-0.00198143	-0.00104803	-2.9014e-07	
-8.74425e-05	-0.00184945	-4.40588e-07	
0.00047066	-0.00139154	3.19332e-06	
-0.00123495	-0.00165586	-6.4391e-06	
-0.000683075	-0.00131042	-2.72051e-07	
0.00085038	-0.00182954	5.919e-06	
0.000303352	-0.00188934	1.73554e-07	
-3.03537e-10	-0.00158023	-9.1141e-07	
6.63861e-11	-0.00123872	-3.63781e-07	
-3.60119e-11	-0.00175456	2.83796e-08	
-0.00176244	-0.000848083	-5.13352e-08	
-5.26401e-12	-0.00187782	-1.21133e-07	
-0.00410771	-0.000566295	-1.73253e-09	
0.00100852	-0.00184984	5.21897e-06	
-3.85403e-10	-0.00184744	3.65154e-07	
0.0105407	-0.00331362	2.80659e-07	
0.00137494	-0.008229	7.58724e-08	
0.00127007	-0.0076894	4.47844e-06	
0.00360771	-0.00570732	1.10683e-06	
0.000100279	-0.00891654	2.16833e-06	
-7.63251e-05	-0.00726646	-1.59731e-05	
0.00138054	-0.00816595	2.50624e-05	
0.00122127	-0.00680918	8.14459e-07	
-0.000305077	-0.00871607	-1.98096e-05	
-0.000297793	-0.00888571	-9.62396e-07	
0.000780253	-0.00882824	1.72718e-05	
1.57204e-09	-0.00796203	5.13682e-06	
-3.42289e-10	-0.00638604	1.87409e-06	
2.59851e-10	-0.00859735	-2.04233e-07	
-3.10753e-13	-0.00471884	1.04236e-08	
1.05121e-05	-0.00886341	8.41186e-07	
5.56507e-08	-0.00897393	1.33911e-07	
-0.000989321	-0.0087261	-2.08464e-05	
1.84814e-09	-0.00878675	-1.74862e-06	
-1.05465e-05	-0.00897388	-4.02954e-07	
-0.00137059	-0.00822201	3.99435e-08	
-0.00122353	-0.00767276	-4.34898e-06	
-0.00125166	-0.00883976	-2.14554e-05	
-0.00360576	-0.00570519	-1.10544e-06	
-9.89901e-05	-0.00891596	-2.1695e-06	
7.66336e-05	-0.00726495	1.59725e-05	
-0.00140745	-0.00815599	-2.5764e-05	
-0.00122121	-0.00680799	-8.15216e-07	
0.000736125	-0.00871691	2.40077e-05	
0.000301828	-0.00888599	9.59373e-07	
-1.52749e-09	-0.0079522	-4.58649e-06	
3.42127e-10	-0.00638383	-1.87478e-06	
-1.76319e-10	-0.00859057	1.3895e-07	
-0.00319656	-0.00471718	-2.3209e-07	
-2.4846e-11	-0.00886325	-5.71742e-07	
-0.00734025	-0.00331256	-5.02001e-08	
0.000994133	-0.00872814	2.08387e-05	
-1.83403e-09	-0.00879143	1.73766e-06	
0.0130368	-0.00175605	2.03261e-07	
0.00162377	-0.00454903	-7.47477e-08	
0.00166438	-0.00422873	1.90939e-06	
0.0045452	-0.003065	7.619e-07	
0.000134329	-0.00506218	1.22117e-06	
0.000154272	-0.00398939	-8.71185e-06	
0.00146647	-0.00453743	1.482e-05	
0.00152348	-0.00372428	6.65414e-07	
-0.000170316	-0.00486866	-1.13351e-05	
-0.0002588	-0.00506518	-5.37291e-07	
0.000848683	-0.00490753	1.00606e-05	
8.75504e-10	-0.00443424	2.86082e-06	
-1.86757e-10	-0.0034843	1.02253e-06	
1.44141e-10	-0.00476899	-1.13289e-07	
-1.6616e-13	-0.00252317	5.57351e-09	
2.92795e-05	-0.00507999	4.81844e-07	
-4.96774e-09	-0.00516922	7.71364e-08	
-0.000935482	-0.0049372	-1.21731e-05	
1.03631e-09	-0.00492703	-9.80508e-07	
-2.95005e-05	-0.00516916	-2.31475e-07	
-0.00161491	-0.00454186	1.77004e-07	
-0.00161191	-0.00422211	-1.85346e-06	
-0.00136645	-0.00491091	-1.23524e-05	
-0.0045426	-0.00306382	-7.60532e-07	
-0.000132747	-0.00506156	-1.222e-06	
-0.000156335	-0.00398895	8.71174e-06	
-0.00149307	-0.00452673	-1.52058e-05	
-0.0015223	-0.00372149	-6.65287e-07	
0.000633204	-0.00486793	1.3688e-05	
0.000264404	-0.00506523	5.35116e-07	
-8.50506e-10	-0.00442778	-2.55376e-06	
1.86642e-10	-0.00348261	-1.02276e-06	
-9.76491e-11	-0.00475764	7.69535e-08	
-0.00397871	-0.00252214	-1.42452e-07	
-1.42398e-11	-0.00507974	-3.27679e-07	
-0.00905322	-0.00175539	-1.4205e-08	
0.000942023	-0.00493881	1.21733e-05	
-1.02855e-09	-0.00493039	9.74513e-07	
0.0161201	-0.00213401	2.50904e-07	
0.00200592	-0.005996	-7.98865e-08	
0.00223469	-0.00551887	2.40404e-06	
0.00581168	-0.0038454	9.63586e-07	
0.000186728	-0.00676528	1.63315e-06	
0.000498522	-0.00516441	-1.119e-05	
0.00160598	-0.00599189	1.9148e-05	
0.00196424	-0.00477562	8.56003e-07	
4.20364e-05	-0.00645869	-1.46137e-05	
-0.000208707	-0.0067474	-7.33013e-07	
0.000942491	-0.00654203	1.32023e-05	
1.14539e-09	-0.00580118	3.74271e-06	
-2.36583e-10	-0.00441389	1.29533e-06	
1.91144e-10	-0.00632414	-1.50232e-07	
-2.0524e-13	-0.00311661	6.88437e-09	
4.59247e-05	-0.00677424	6.42465e-07	
2.36159e-08	-0.00688465	1.02734e-07	
-0.000869134	-0.00657875	-1.58406e-05	
1.38202e-09	-0.00657063	-1.3076e-06	
-4.61433e-05	-0.00688468	-3.08109e-07	
-0.00199478	-0.00599005	2.08836e-07	
-0.00217604	-0.00550974	-2.32594e-06	
-0.00155085	-0.00655071	-1.62739e-05	
-0.00580887	-0.00384436	-9.61947e-07	
-0.000184396	-0.00676511	-1.63444e-06	
-0.000501828	-0.00516475	1.11917e-05	
-0.00163436	-0.00598389	-1.96686e-05	
-0.00196325	-0.00477472	-8.56173e-07	
0.000500057	-0.00646056	1.77358e-05	
0.000216165	-0.0067482	7.30226e-07	
-1.11317e-09	-0.00579522	-3.34244e-06	
2.36492e-10	-0.00441277	-1.29592e-06	
-1.29669e-10	-0.00631769	1.02187e-07	
-0.00497916	-0.00311569	-1.76496e-07	
-1.899e-11	-0.00677427	-4.36988e-07	
-0.0111351	-0.00213341	-1.69465e-08	
0.000878078	-0.00658138	1.58425e-05	
-1.37179e-09	-0.0065757	1.29972e-06	
0.0185334	-0.00167609	2.41468e-07	
0.00230416	-0.00467182	-1.6205e-07	
0.00268739	-0.00429627	1.29466e-06	
0.00679417	-0.00300135	8.97906e-07	
0.000238526	-0.00532024	1.27413e-06	
0.000763791	-0.00402249	-8.60548e-06	
0.00171399	-0.00467594	1.55316e-05	
0.00230247	-0.00372252	8.65555e-07	
0.000214847	-0.00505034	-1.14093e-05	
-0.000158258	-0.00530988	-5.77606e-07	
0.00102768	-0.0051116	1.0638e-05	
8.93834e-10	-0.00452708	2.92071e-06	
-1.84703e-10	-0.00344597	1.01128e-06	
1.49138e-10	-0.00493434	-1.17217e-07	
-1.60649e-13	-0.00243949	5.38867e-09	
6.7081e-05	-0.00534168	5.06238e-07	
2.90012e-08	-0.00543697	8.11317e-08	
-0.000803227	-0.00516617	-1.25608e-05	
1.08235e-09	-0.0051459	-1.02407e-06	
-6.7353e-05	-0.00543697	-2.42481e-07	
-0.00228963	-0.00466589	2.95419e-07	
-0.00262325	-0.00428968	-1.24352e-06	
-0.0017039	-0.005117	-1.30129e-05	
-0.00679107	-0.00300053	-8.9612e-07	
-0.000235642	-0.00531997	-1.27536e-06	
-0.000768796	-0.00402273	8.60601e-06	
-0.00174292	-0.00466744	-1.59375e-05	
-0.00230105	-0.00372106	-8.65387e-07	
0.000383044	-0.00505094	1.38561e-05	
0.000167308	-0.00531039	5.74997e-07	
-8.68555e-10	-0.00452175	-2.60795e-06	
1.84623e-10	-0.00344492	-1.01169e-06	
-1.01107e-10	-0.00492612	7.96787e-08	
-0.00575666	-0.00243875	-1.5319e-07	
-1.4974e-11	-0.00534163	-3.44573e-07	
-0.0127702	-0.00167561	-3.64759e-09	
0.00081404	-0.00516826	1.25661e-05	
-1.07435e-09	-0.00514989	1.0179e-06	
0.0208387	-0.00158929	2.5447e-07	
0.00262907	-0.00462614	-2.07039e-07	
0.0031653	-0.00422313	9.3827e-07	
0.00777502	-0.00288738	9.44413e-07	
0.000296267	-0.00533993	1.2732e-06	
0.00104183	-0.0039359	-8.33374e-06	
0.00183476	-0.00464226	1.55899e-05	
0.00265155	-0.00362397	9.48057e-07	
0.000407864	-0.00503689	-1.12201e-05	
-0.000104276	-0.00532342	-5.85985e-07	
0.00112019	-0.00511033	1.0738e-05	
8.81612e-10	-0.00446518	2.88078e-06	
-1.78735e-10	-0.00333464	9.78605e-07	
1.4848e-10	-0.00491256	-1.167e-07	
-1.53456e-13	-0.00233025	5.14737e-09	
8.79949e-05	-0.00536116	5.07842e-07	
8.22841e-08	-0.00545647	8.14225e-08	
-0.000733591	-0.00517594	-1.25129e-05	
1.08364e-09	-0.00515201	-1.02528e-06	
-8.82264e-05	-0.00545653	-2.42793e-07	
-0.00261198	-0.00462093	3.54604e-07	
-0.00309602	-0.00421663	-8.90967e-07	
-0.00187579	-0.00511683	-1.31058e-05	
-0.00777177	-0.00288675	-9.42455e-07	
-0.000292677	-0.00533991	-1.27464e-06	
-0.00104814	-0.00393637	8.33438e-06	
-0.0018648	-0.00463515	-1.59977e-05	
-0.00265002	-0.00362314	-9.4786e-07	
0.000258991	-0.0050383	1.36657e-05	
0.000114907	-0.00532423	5.83217e-07	
-8.56779e-10	-0.00446044	-2.57259e-06	
1.78673e-10	-0.0033339	-9.79086e-07	
-1.00701e-10	-0.00490635	7.93589e-08	
-0.00651085	-0.00232967	-1.54522e-07	
-1.5029e-11	-0.00536126	-3.45839e-07	
-0.0143207	-0.00158891	1.85017e-09	
0.000746331	-0.00517831	1.25208e-05	
-1.07569e-09	-0.00515635	1.01917e-06	
0.0227091	-0.00128645	2.50757e-07	
0.00290336	-0.00379397	-2.70284e-07	
0.00356918	-0.00345341	1.64268e-07	
0.00858326	-0.00234646	9.14379e-07	
0.000349268	-0.00441864	1.04239e-06	
0.00127228	-0.00321529	-6.68423e-06	
0.00193726	-0.00381432	1.33588e-05	
0.00293932	-0.00295716	9.73031e-07	
0.000574365	-0.00414955	-9.1531e-06	
-5.40835e-05	-0.00440662	-4.89161e-07	
0.00120421	-0.00421026	9.15815e-06	
7.22905e-10	-0.00366136	2.36218e-06	
-1.45689e-10	-0.00271809	7.9767e-07	
1.22099e-10	-0.00403972	-9.5965e-08	
-1.24502e-13	-0.00189058	4.17617e-09	
0.000109086	-0.00444312	4.20454e-07	
1.16029e-07	-0.00452596	6.75371e-08	
-0.000669231	-0.00427905	-1.04079e-05	
8.94425e-10	-0.00425244	-8.46261e-07	
-0.00010931	-0.004526	-2.00407e-07	
-0.00288361	-0.00378882	4.24535e-07	
-0.00349535	-0.00344804	-1.33967e-07	
-0.00202579	-0.00421504	-1.10859e-05	
-0.00857978	-0.00234587	-9.12275e-07	
-0.000345126	-0.00441854	-1.04383e-06	
-0.00127985	-0.00321549	6.68365e-06	
-0.00196801	-0.00380741	-1.36962e-05	
-0.0029375	-0.00295611	-9.72615e-07	
0.000148683	-0.00415026	1.11752e-05	
6.60486e-05	-0.00440722	4.86465e-07	
-7.02439e-10	-0.00365694	-2.10917e-06	
1.45629e-10	-0.00271733	-7.98015e-07	
-8.27826e-11	-0.00403332	6.52378e-08	
-0.00712563	-0.00189004	-1.40276e-07	
-1.24553e-11	-0.00444316	-2.86615e-07	
-0.0155758	-0.00128609	1.10633e-08	
0.000683532	-0.00428097	1.0418e-05	
-8.87855e-10	-0.00425594	8.41206e-07	
				</DataArray>
			</CellData>
			<Points>
				<DataArray type="Float64" Name="Position" NumberOfComponents="3" Format="ascii">
1.97025	1.93977	0.168013	
1.95537	1.10012	0.191119	
1.95822	1.31209	0.185587	
1.96738	1.73053	0.159935	
1.95388	0.265603	0.20314	
1.96078	1.41736	0.179186	
1.95633	0.996677	0.187428	
1.9635	1.52149	0.171421	
1.95348	0.788976	0.19209	
1.95254	0.371761	0.202713	
1.95346	0.683942	0.193276	
1.95689	1.20611	0.189233	
1.96557	1.62583	0.164291	
1.95659	0.893783	0.186506	
1.97024	1.8361	0.156132	
1.95451	0.160069	0.202492	
1.9548	0.0535965	0.202581	
1.95376	0.476246	0.197215	
1.95511	0.579743	0.192493	
1.95479	-0.0535713	0.202604	
1.95552	-1.10014	0.190908	
1.95837	-1.31209	0.185131	
1.95323	-0.683798	0.194361	
1.96793	-1.73012	0.15876	
1.95396	-0.265561	0.203055	
1.96089	-1.41729	0.178393	
1.95659	-0.996679	0.187058	
1.96368	-1.52138	0.170338	
1.95323	-0.788999	0.192932	
1.95262	-0.371728	0.202451	
1.95712	-1.20612	0.189016	
1.96594	-1.62563	0.162765	
1.95699	-0.893791	0.186039	
1.96939	-1.83486	0.162056	
1.9545	-0.160057	0.202483	
1.96991	-1.9396	0.174018	
1.95394	-0.476164	0.196903	
1.95545	-0.579581	0.192236	
1.8687	1.93945	0.144123	
1.85934	1.1006	0.14933	
1.86045	1.31197	0.146631	
1.86955	1.73173	0.122257	
1.8581	0.265513	0.160888	
1.86356	1.41721	0.140265	
1.8619	0.997383	0.14307	
1.86687	1.52183	0.131734	
1.85958	0.788957	0.147018	
1.85704	0.371439	0.159714	
1.85964	0.684119	0.148136	
1.85988	1.20628	0.149101	
1.86889	1.62668	0.124639	
1.86313	0.894107	0.140841	
1.87101	1.83797	0.121994	
1.85864	0.160106	0.160386	
1.85923	0.0536128	0.160167	
1.85955	0.475773	0.152759	
1.86168	0.57958	0.146541	
1.8592	-0.0535931	0.160216	
1.85948	-1.10056	0.149314	
1.8606	-1.31198	0.146149	
1.85933	-0.684011	0.14945	
1.87026	-1.73161	0.120438	
1.85819	-0.265471	0.16078	
1.86371	-1.41718	0.139301	
1.86212	-0.997367	0.142819	
1.86715	-1.52179	0.130289	
1.85927	-0.788931	0.148346	
1.85715	-0.371404	0.159492	
1.86004	-1.20629	0.149003	
1.86946	-1.62668	0.122436	
1.86356	-0.894114	0.140637	
1.86981	-1.83601	0.129978	
1.85862	-0.160095	0.160402	
1.86812	-1.93863	0.152338	
1.85979	-0.475703	0.152367	
1.8621	-0.579454	0.146257	
1.76721	1.94096	0.119376	
1.76647	1.10211	0.106348	
1.767	1.31328	0.104526	
1.771	1.7347	0.0871341	
1.76722	0.265378	0.116072	
1.76867	1.41856	0.100418	
1.76898	0.998812	0.100176	
1.77042	1.52352	0.0940568	
1.76699	0.789444	0.103975	
1.76622	0.371207	0.114796	
1.76726	0.684509	0.104602	
1.76667	1.20767	0.106688	
1.77153	1.62901	0.0873343	
1.76959	0.894903	0.0980601	
1.7713	1.84189	0.0894759	
1.76776	0.160136	0.115709	
1.76837	0.0535481	0.115573	
1.76784	0.475519	0.108735	
1.76923	0.579773	0.103378	
1.76835	-0.0535372	0.11563	
1.76658	-1.10212	0.106276	
1.76723	-1.31333	0.104004	
1.76703	-0.684423	0.105969	
1.77186	-1.73508	0.0846991	
1.76731	-0.26534	0.115969	
1.76885	-1.41858	0.0993377	
1.76929	-0.998776	0.0999213	
1.77075	-1.52362	0.0923869	
1.76678	-0.789377	0.105063	
1.76634	-0.371188	0.114562	
1.76698	-1.20769	0.106572	
1.77214	-1.62927	0.0846387	
1.77	-0.894873	0.0977781	
1.76991	-1.83933	0.0991042	
1.76774	-0.160131	0.115735	
1.76658	-1.93941	0.129131	
1.76809	-0.475478	0.108315	
1.76968	-0.57969	0.103086	
1.66655	1.94337	0.0932301	
1.67067	1.10306	0.0659192	
1.67041	1.31462	0.0652225	
1.67108	1.73716	0.055011	
1.67251	0.265434	0.0733973	
1.67128	1.42003	0.0631038	
1.67243	0.999583	0.0603139	
1.67206	1.52522	0.0587939	
1.67064	0.789911	0.0642388	
1.67132	0.371302	0.0723567	
1.67093	0.684918	0.0644359	
1.67067	1.20873	0.0663208	
1.67238	1.631	0.0532011	
1.67244	0.895502	0.0588499	
1.67065	1.84476	0.0595794	
1.67291	0.160201	0.073269	
1.67364	0.0535348	0.073245	
1.67225	0.475782	0.0675164	
1.67264	0.580079	0.0630626	
1.67361	-0.0535265	0.073325	
1.67085	-1.10307	0.065833	
1.67063	-1.31469	0.0646861	
1.67085	-0.684844	0.0657255	
1.67188	-1.73782	0.0523621	
1.6726	-0.265399	0.0733017	
1.67144	-1.42009	0.0620353	
1.67267	-0.999552	0.0600709	
1.67235	-1.52541	0.0570969	
1.67045	-0.789807	0.0657283	
1.67143	-0.371291	0.0721426	
1.67096	-1.20876	0.0661739	
1.67295	-1.63147	0.0503835	
1.673	-0.895449	0.0586179	
1.66957	-1.84227	0.0695526	
1.67288	-0.160201	0.073324	
1.66606	-1.94152	0.103241	
1.67247	-0.475752	0.0671195	
1.67304	-0.580002	0.0627911	
1.56474	1.94544	0.0696406	
1.5676	1.10369	0.0385027	
1.56705	1.31528	0.0385958	
1.56776	1.73808	0.0334232	
1.57003	0.265715	0.0434879	
1.56791	1.4208	0.0379526	
1.56916	0.999957	0.033908	
1.5685	1.52594	0.0352061	
1.56787	0.790089	0.0377128	
1.5689	0.371569	0.0428561	
1.56818	0.685187	0.0371556	
1.56725	1.20948	0.0391573	
1.5687	1.63176	0.0307609	
1.56924	0.895695	0.0329751	
1.56747	1.84534	0.0382476	
1.57039	0.160504	0.043373	
1.57077	0.0536283	0.0432959	
1.56887	0.476032	0.0395299	
1.56934	0.580283	0.0359059	
1.57075	-0.0536254	0.0433952	
1.56784	-1.1037	0.0384402	
1.56733	-1.31538	0.0381274	
1.56815	-0.685085	0.0385378	
1.56821	-1.73873	0.0308767	
1.57011	-0.265677	0.0434124	
1.56809	-1.4209	0.037023	
1.56941	-0.999924	0.0337222	
1.5688	-1.5262	0.0337221	
1.56784	-0.789983	0.0390314	
1.56899	-0.371559	0.0426841	
1.5677	-1.20952	0.0389693	
1.56916	-1.63228	0.0282172	
1.5697	-0.895612	0.0327679	
1.56683	-1.84347	0.0472581	
1.57037	-0.160506	0.0434538	
1.56448	-1.94392	0.0786199	
1.56908	-0.475997	0.0391501	
1.56971	-0.580139	0.0356836	
1.46277	1.94727	0.0462258	
1.46311	1.1041	0.0197438	
1.46277	1.31544	0.0203314	
1.46413	1.73746	0.0180328	
1.46455	0.265655	0.0226226	
1.46349	1.42068	0.0202987	
1.46379	0.999877	0.0165201	
1.46401	1.52561	0.0186073	
1.46366	0.790127	0.0196969	
1.464	0.371202	0.0222894	
1.46325	0.684731	0.0190768	
1.46352	1.21003	0.0203803	
1.46421	1.63122	0.0155577	
1.4639	0.895724	0.0163921	
1.46376	1.84401	0.0218446	
1.46469	0.160148	0.0225004	
1.46503	0.0536945	0.0224447	
1.46401	0.475957	0.0202359	
1.46378	0.580109	0.0177829	
1.46503	-0.0536934	0.0225345	
1.46343	-1.10417	0.0197321	
1.46304	-1.31553	0.0199948	
1.46344	-0.684637	0.0198139	
1.46435	-1.73783	0.0160216	
1.46467	-0.265591	0.0225594	
1.46358	-1.42074	0.0196285	
1.4641	-0.999829	0.0164244	
1.46427	-1.52583	0.0175504	
1.4639	-0.789976	0.0206076	
1.4641	-0.371188	0.0221605	
1.46381	-1.21006	0.0202239	
1.46443	-1.63153	0.0136952	
1.46427	-0.895732	0.0158164	
1.46356	-1.84321	0.0285076	
1.46468	-0.160149	0.022576	
1.46272	-1.94647	0.0528099	
1.4642	-0.475885	0.0199556	
1.46398	-0.580044	0.0175113	
1.36116	1.94904	0.0222608	
1.36142	1.10421	0.0115488	
1.36159	1.31605	0.0120207	
1.36053	1.73683	0.0095928	
1.36226	0.265136	0.0136525	
1.36115	1.42114	0.0116178	
1.36131	1.00043	0.0103638	
1.36124	1.52575	0.0101557	
1.36154	0.790233	0.0124109	
1.3618	0.371124	0.0135281	
1.36159	0.68471	0.0119688	
1.36168	1.21018	0.0118208	
1.36092	1.63101	0.00863634	
1.36142	0.896061	0.010002	
1.36099	1.84286	0.0109143	
1.36262	0.159614	0.0136283	
1.36277	0.0537532	0.0135849	
1.3618	0.475566	0.012599	
1.36171	0.579639	0.0108826	
1.36277	-0.0537569	0.0136288	
1.36152	-1.10427	0.0118872	
1.36172	-1.31612	0.0118684	
1.36179	-0.684762	0.0122192	
1.36057	-1.73698	0.00866808	
1.36227	-0.265135	0.013623	
1.36128	-1.42121	0.0112932	
1.36146	-1.00042	0.0103463	
1.36135	-1.52585	0.00967344	
1.36183	-0.790125	0.0127613	
1.36198	-0.371088	0.0134563	
1.36179	-1.21019	0.0117327	
1.36098	-1.63114	0.00781346	
1.36156	-0.896035	0.00995019	
1.36099	-1.84293	0.0138842	
1.36262	-0.159612	0.0136644	
1.3612	-1.94887	0.025312	
1.362	-0.475559	0.0124641	
1.36196	-0.57962	0.0107258	
1.2602	1.94667	3.49508e-06	
1.2602	1.10408	-3.48467e-05	
1.2602	1.31564	-0.000166556	
1.2602	1.73535	1.80272e-05	
1.2602	0.264648	-3.17281e-05	
1.2602	1.42085	-6.71899e-05	
1.2602	1	0.000149944	
1.2602	1.52507	7.16617e-05	
1.2602	0.790149	0.000185923	
1.2602	0.370241	-4.04787e-05	
1.2602	0.68436	0.000165194	
1.2602	1.20985	-7.96295e-05	
1.2602	1.62976	4.75236e-05	
1.2602	0.89592	0.000331058	
1.2602	1.84074	7.75722e-06	
1.2602	0.15926	-9.30581e-06	
1.2602	0.0533282	-2.06975e-06	
1.2602	0.474927	0.00011447	
1.2602	0.579147	0.000275008	
1.2602	-0.0533282	-4.07041e-06	
1.2602	-1.10408	-4.68345e-05	
1.2602	-1.31564	-0.000167835	
1.2602	-0.68436	0.000133222	
1.2602	-1.73535	1.79762e-05	
1.2602	-0.264648	-3.17373e-05	
1.2602	-1.42085	-6.72211e-05	
1.2602	-1	0.000143041	
1.2602	-1.52507	7.16448e-05	
1.2602	-0.790149	0.000153996	
1.2602	-0.370241	-4.05137e-05	
1.2602	-1.20985	-8.66571e-05	
1.2602	-1.62976	4.74835e-05	
1.2602	-0.89592	0.000330176	
1.2602	-1.84074	4.97967e-06	
1.2602	-0.15926	-1.13074e-05	
1.2602	-1.94667	7.40131e-07	
1.2602	-0.474927	0.000114297	
1.2602	-0.579147	0.000274628	
				</DataArray>
			</Points>
			<Cells>
				<DataArray type="Int32" Name="connectivity" Format="ascii">
0	
1	
2	
3	
4	
5	
6	
7	
8	
9	
10	
11	
12	
13	
14	
15	
16	
17	
18	
19	
20	
21	
22	
23	
24	
25	
26	
27	
28	
29	
30	
31	
32	
33	
34	
35	
36	
37	
38	
39	
40	
41	
42	
43	
44	
45	
46	
47	
48	
49	
50	
51	
52	
53	
54	
55	
56	
57	
58	
59	
60	
61	
62	
63	
64	
65	
66	
67	
68	
69	
70	
71	
72	
73	
74	
75	
76	
77	
78	
79	
80	
81	
82	
83	
84	
85	
86	
87	
88	
89	
90	
91	
92	
93	
94	
95	
96	
97	
98	
99	
100	
101	
102	
103	
104	
105	
106	
107	
108	
109	
110	
111	
112	
113	
114	
115	
116	
117	
118	
119	
120	
121	
122	
123	
124	
125	
126	
127	
128	
129	
130	
131	
132	
133	
134	
135	
136	
137	
138	
139	
140	
141	
142	
143	
144	
145	
146	
147	
148	
149	
150	
151	
152	
153	
154	
155	
156	
157	
158	
159	
160	
161	
162	
163	
164	
165	
166	
167	
168	
169	
170	
171	
172	
173	
174	
175	
176	
177	
178	
179	
180	
181	
182	
183	
184	
185	
186	
187	
188	
189	
190	
191	
192	
193	
194	
195	
196	
197	
198	
199	
200	
201	
202	
203	
204	
205	
206	
207	
208	
209	
210	
211	
212	
213	
214	
215	
216	
217	
218	
219	
220	
221	
222	
223	
224	
225	
226	
227	
228	
229	
230	
231	
232	
233	
234	
235	
236	
237	
238	
239	
240	
241	
242	
243	
244	
245	
246	
247	
248	
249	
250	
251	
252	
253	
254	
255	
256	
257	
258	
259	
260	
261	
262	
263	
264	
265	
266	
267	
268	
269	
270	
271	
272	
273	
274	
275	
276	
277	
278	
279	
280	
281	
282	
283	
284	
285	
286	
287	
288	
289	
290	
291	
292	
293	
294	
295	
296	
297	
298	
299	
300	
301	
302	
303	
				</DataArray>
				<DataArray type="Int32" Name="offsets" Format="ascii">
1	
2	
3	
4	
5	
6	
7	
8	
9	
10	
11	
12	
13	
14	
15	
16	
17	
18	
19	
20	
21	
22	
23	
24	
25	
26	
27	
28	
29	
30	
31	
32	
33	
34	
35	
36	
37	
38	
39	
40	
41	
42	
43	
44	
45	
46	
47	
48	
49	
50	
51	
52	
53	
54	
55	
56	
57	
58	
59	
60	
61	
62	
63	
64	
65	
66	
67	
68	
69	
70	
71	
72	
73	
74	
75	
76	
77	
78	
79	
80	
81	
82	
83	
84	
85	
86	
87	
88	
89	
90	
91	
92	
93	
94	
95	
96	
97	
98	
99	
100	
101	
102	
103	
104	
105	
106	
107	
108	
109	
110	
111	
112	
113	
114	
115	
116	
117	
118	
119	
120	
121	
122	
123	
124	
125	
126	
127	
128	
129	
130	
131	
132	
133	
134	
135	
136	
137	
138	
139	
140	
141	
142	
143	
144	
145	
146	
147	
148	
149	
150	
151	
152	
153	
154	
155	
156	
157	
158	
159	
160	
161	
162	
163	
164	
165	
166	
167	
168	
169	
170	
171	
172	
173	
174	
175	
176	
177	
178	
179	
180	
181	
182	
183	
184	
185	
186	
187	
188	
189	
190	
191	
192	
193	
194	
195	
196	
197	
198	
199	
200	
201	
202	
203	
204	
205	
206	
207	
208	
209	
210	
211	
212	
213	
214	
215	
216	
217	
218	
219	
220	
221	
222	
223	
224	
225	
226	
227	
228	
229	
230	
231	
232	
233	
234	
235	
236	
237	
238	
239	
240	
241	
242	
243	
244	
245	
246	
247	
248	
249	
250	
251	
252	
253	
254	
255	
256	
257	
258	
259	
260	
261	
262	
263	
264	
265	
266	
267	
268	
269	
270	
271	
272	
273	
274	
275	
276	
277	
278	
279	
280	
281	
282	
283	
284	
285	
286	
287	
288	
289	
290	
291	
292	
293	
294	
295	
296	
297	
298	
299	
300	
301	
302	
303	
304	
				</DataArray>
				<DataArray type="Int32" Name="types" Format="ascii">
1	
1	
1	
1	
1	
1	
1	
1	
1	
1	
1	
1	
1	
1	
1	
1	
1	
1	
1	
1	
1	
1	
1	
1	
1	
1	
1	
1	
1	
1	
1	
1	
1	
1	
1	
1	
1	
1	
1	
1	
1	
1	
1	
1	
1	
1	
1	
1	
1	
1	
1	
1	
1	
1	
1	
1	
1	
1	
1	
1	
1	
1	
1	
1	
1	
1	
1	
1	
1	
1	
1	
1	
1	
1	
1	
1	
1	
1	
1	
1	
1	
1	
1	
1	
1	
1	
1	
1	
1	
1	
1	
1	
1	
1	
1	
1	
1	
1	
1	
1	
1	
1	
1	
1	
1	
1	
1	
1	
1	
1	
1	
1	
1	
1	
1	
1	
1	
1	
1	
1	
1	
1	
1	
1	
1	
1	
1	
1	
1	
1	
1	
1	
1	
1	
1	
1	
1	
1	
1	
1	
1	
1	
1	
1	
1	
1	
1	
1	
1	
1	
1	
1	
1	
1	
1	
1	
1	
1	
1	
1	
1	
1	
1	
1	
1	
1	
1	
1	
1	
1	
1	
1	
1	
1	
1	
1	
1	
1	
1	
1	
1	
1	
1	
1	
1	
1	
1	
1	
1	
1	
1	
1	
1	
1	
1	
1	
1	
1	
1	
1	
1	
1	
1	
1	
1	
1	
1	
1	
1	
1	
1	
1	
1	
1	
1	
1	
1	
1	
1	
1	
1	
1	
1	
1	
1	
1	
1	
1	
1	
1	
1	
1	
1	
1	
1	
1	
1	
1	
1	
1	
1	
1	
1	
1	
1	
1	
1	
1	
1	
1	
1	
1	
1	
1	
1	
1	
1	
1	
1	
1	
1	
1	
1	
1	
1	
1	
1	
1	
1	
1	
1	
1	
1	
1	
1	
1	
1	
1	
1	
1	
1	
1	
1	
1	
1	
1	
1	
1	
1	
1	
1	
1	
1	
1	
1	
1	
1	
1	
1	
1	
1	
1	
1	
1	
				</DataArray>
			</Cells>
		</Piece>
	</UnstructuredGrid>
</VTKFile>
