<VTKFile type="UnstructuredGrid" version="0.1" byte_order="LittleEndian">
	<UnstructuredGrid>
		<Piece NumberOfPoints="570" NumberOfCells="570">
			<CellData Scalars="scalars">
				<DataArray type="Float64" Name="Strength" NumberOfComponents="3" Format="ascii">
0.00503251	-0.0036439	2.59746e-07	
0.000776786	-0.00782196	1.43204e-07	
0.000488137	-0.00660014	4.25326e-06	
0.00160011	-0.00601116	1.02597e-06	
9.24734e-05	-0.00810609	1.96953e-06	
-0.000538076	-0.00672158	-1.49127e-05	
0.0011661	-0.00782343	2.3811e-05	
0.00058836	-0.00719863	6.80368e-07	
-0.000580666	-0.00831945	-1.91801e-05	
-0.000308181	-0.0080048	-8.61917e-07	
0.00068892	-0.00866977	1.68762e-05	
1.43973e-09	-0.00729191	4.70448e-06	
-3.60752e-10	-0.00673051	1.97518e-06	
2.79776e-10	-0.0092566	-2.19894e-07	
-3.34998e-13	-0.005087	1.12368e-08	
2.77075e-06	-0.00806727	7.65708e-07	
1.55457e-07	-0.00818128	1.22082e-07	
-0.00102562	-0.00817119	-1.96206e-05	
1.95095e-09	-0.00927555	-1.84589e-06	
-2.51726e-06	-0.00818144	-3.67564e-07	
-0.000777156	-0.00773318	-5.46977e-08	
-0.000455789	-0.00657905	-4.13242e-06	
-0.00104563	-0.00868063	-2.09965e-05	
-0.00159973	-0.00600915	-1.02509e-06	
-9.16015e-05	-0.00810648	-1.97069e-06	
0.000539702	-0.00671911	1.49102e-05	
-0.00118961	-0.00778955	-2.44097e-05	
-0.000589284	-0.00719781	-6.81524e-07	
0.000922058	-0.00831884	2.31891e-05	
0.000309631	-0.0080061	8.59581e-07	
-1.39386e-09	-0.00725653	-4.18526e-06	
3.60611e-10	-0.00672873	-1.97607e-06	
-1.89761e-10	-0.00924551	1.49544e-07	
-0.00147606	-0.00508563	-2.3428e-07	
-2.26158e-11	-0.00806769	-5.20423e-07	
-0.00355509	-0.00364311	-6.60555e-08	
0.00102729	-0.00817392	1.96124e-05	
-1.93594e-09	-0.00927997	1.83423e-06	
0.00587241	-0.00056685	7.67753e-08	
0.000909214	-0.00162729	-7.1725e-08	
0.00066467	-0.00146684	7.13505e-07	
0.00198284	-0.00104916	2.90833e-07	
8.82899e-05	-0.00184996	4.40319e-07	
-0.000470663	-0.00139381	-3.19782e-06	
0.00121149	-0.00166823	6.30819e-06	
0.000684119	-0.0013143	2.72484e-07	
-0.000529471	-0.00183274	-5.02424e-06	
-0.00030108	-0.00188959	-1.74461e-07	
0.000733286	-0.00182	4.19435e-06	
3.13667e-10	-0.00158866	1.02495e-06	
-6.64992e-11	-0.00124067	3.64094e-07	
5.34182e-11	-0.00176738	-4.19847e-08	
-5.59089e-14	-0.000848986	1.87535e-09	
2.18581e-05	-0.00187805	1.78005e-07	
1.0294e-07	-0.00192349	2.87023e-08	
-0.00100631	-0.00184927	-5.21998e-06	
3.88341e-10	-0.00184632	-3.67429e-07	
-2.17772e-05	-0.00192343	-8.58379e-08	
-0.000905309	-0.00161618	1.22846e-07	
-0.000626292	-0.00146247	-7.01031e-07	
-0.00108324	-0.00181803	-5.02372e-06	
-0.00198143	-0.00104803	-2.9014e-07	
-8.74425e-05	-0.00184945	-4.40588e-07	
0.00047066	-0.00139154	3.19332e-06	
-0.00123495	-0.00165586	-6.4391e-06	
-0.000683075	-0.00131042	-2.72051e-07	
0.00085038	-0.00182954	5.919e-06	
0.000303352	-0.00188934	1.73554e-07	
-3.03537e-10	-0.00158023	-9.1141e-07	
6.63861e-11	-0.00123872	-3.63781e-07	
-3.60119e-11	-0.00175456	2.83796e-08	
-0.00176244	-0.000848083	-5.13352e-08	
-5.26401e-12	-0.00187782	-1.21133e-07	
-0.00410771	-0.000566295	-1.73253e-09	
0.00100852	-0.00184984	5.21897e-06	
-3.85403e-10	-0.00184744	3.65154e-07	
0.0105407	-0.00331362	2.80659e-07	
0.00137494	-0.008229	7.58724e-08	
0.00127007	-0.0076894	4.47844e-06	
0.00360771	-0.00570732	1.10683e-06	
0.000100279	-0.00891654	2.16833e-06	
-7.63251e-05	-0.00726646	-1.59731e-05	
0.00138054	-0.00816595	2.50624e-05	
0.00122127	-0.00680918	8.14459e-07	
-0.000305077	-0.00871607	-1.98096e-05	
-0.000297793	-0.00888571	-9.62396e-07	
0.000780253	-0.00882824	1.72718e-05	
1.57204e-09	-0.00796203	5.13682e-06	
-3.42289e-10	-0.00638604	1.87409e-06	
2.59851e-10	-0.00859735	-2.04233e-07	
-3.10753e-13	-0.00471884	1.04236e-08	
1.05121e-05	-0.00886341	8.41186e-07	
5.56507e-08	-0.00897393	1.33911e-07	
-0.000989321	-0.0087261	-2.08464e-05	
1.84814e-09	-0.00878675	-1.74862e-06	
-1.05465e-05	-0.00897388	-4.02954e-07	
-0.00137059	-0.00822201	3.99435e-08	
-0.00122353	-0.00767276	-4.34898e-06	
-0.00125166	-0.00883976	-2.14554e-05	
-0.00360576	-0.00570519	-1.10544e-06	
-9.89901e-05	-0.00891596	-2.1695e-06	
7.66336e-05	-0.00726495	1.59725e-05	
-0.00140745	-0.00815599	-2.5764e-05	
-0.00122121	-0.00680799	-8.15216e-07	
0.000736125	-0.00871691	2.40077e-05	
0.000301828	-0.00888599	9.59373e-07	
-1.52749e-09	-0.0079522	-4.58649e-06	
3.42127e-10	-0.00638383	-1.87478e-06	
-1.76319e-10	-0.00859057	1.3895e-07	
-0.00319656	-0.00471718	-2.3209e-07	
-2.4846e-11	-0.00886325	-5.71742e-07	
-0.00734025	-0.00331256	-5.02001e-08	
0.000994133	-0.00872814	2.08387e-05	
-1.83403e-09	-0.00879143	1.73766e-06	
0.0130368	-0.00175605	2.03261e-07	
0.00162377	-0.00454903	-7.47477e-08	
0.00166438	-0.00422873	1.90939e-06	
0.0045452	-0.003065	7.619e-07	
0.000134329	-0.00506218	1.22117e-06	
0.000154272	-0.00398939	-8.71185e-06	
0.00146647	-0.00453743	1.482e-05	
0.00152348	-0.00372428	6.65414e-07	
-0.000170316	-0.00486866	-1.13351e-05	
-0.0002588	-0.00506518	-5.37291e-07	
0.000848683	-0.00490753	1.00606e-05	
8.75504e-10	-0.00443424	2.86082e-06	
-1.86757e-10	-0.0034843	1.02253e-06	
1.44141e-10	-0.00476899	-1.13289e-07	
-1.6616e-13	-0.00252317	5.57351e-09	
2.92795e-05	-0.00507999	4.81844e-07	
-4.96774e-09	-0.00516922	7.71364e-08	
-0.000935482	-0.0049372	-1.21731e-05	
1.03631e-09	-0.00492703	-9.80508e-07	
-2.95005e-05	-0.00516916	-2.31475e-07	
-0.00161491	-0.00454186	1.77004e-07	
-0.00161191	-0.00422211	-1.85346e-06	
-0.00136645	-0.00491091	-1.23524e-05	
-0.0045426	-0.00306382	-7.60532e-07	
-0.000132747	-0.00506156	-1.222e-06	
-0.000156335	-0.00398895	8.71174e-06	
-0.00149307	-0.00452673	-1.52058e-05	
-0.0015223	-0.00372149	-6.65287e-07	
0.000633204	-0.00486793	1.3688e-05	
0.000264404	-0.00506523	5.35116e-07	
-8.50506e-10	-0.00442778	-2.55376e-06	
1.86642e-10	-0.00348261	-1.02276e-06	
-9.76491e-11	-0.00475764	7.69535e-08	
-0.00397871	-0.00252214	-1.42452e-07	
-1.42398e-11	-0.00507974	-3.27679e-07	
-0.00905322	-0.00175539	-1.4205e-08	
0.000942023	-0.00493881	1.21733e-05	
-1.02855e-09	-0.00493039	9.74513e-07	
0.0161201	-0.00213401	2.50904e-07	
0.00200592	-0.005996	-7.98865e-08	
0.00223469	-0.00551887	2.40404e-06	
0.00581168	-0.0038454	9.63586e-07	
0.000186728	-0.00676528	1.63315e-06	
0.000498522	-0.00516441	-1.119e-05	
0.00160598	-0.00599189	1.9148e-05	
0.00196424	-0.00477562	8.56003e-07	
4.20364e-05	-0.00645869	-1.46137e-05	
-0.000208707	-0.0067474	-7.33013e-07	
0.000942491	-0.00654203	1.32023e-05	
1.14539e-09	-0.00580118	3.74271e-06	
-2.36583e-10	-0.00441389	1.29533e-06	
1.91144e-10	-0.00632414	-1.50232e-07	
-2.0524e-13	-0.00311661	6.88437e-09	
4.59247e-05	-0.00677424	6.42465e-07	
2.36159e-08	-0.00688465	1.02734e-07	
-0.000869134	-0.00657875	-1.58406e-05	
1.38202e-09	-0.00657063	-1.3076e-06	
-4.61433e-05	-0.00688468	-3.08109e-07	
-0.00199478	-0.00599005	2.08836e-07	
-0.00217604	-0.00550974	-2.32594e-06	
-0.00155085	-0.00655071	-1.62739e-05	
-0.00580887	-0.00384436	-9.61947e-07	
-0.000184396	-0.00676511	-1.63444e-06	
-0.000501828	-0.00516475	1.11917e-05	
-0.00163436	-0.00598389	-1.96686e-05	
-0.00196325	-0.00477472	-8.56173e-07	
0.000500057	-0.00646056	1.77358e-05	
0.000216165	-0.0067482	7.30226e-07	
-1.11317e-09	-0.00579522	-3.34244e-06	
2.36492e-10	-0.00441277	-1.29592e-06	
-1.29669e-10	-0.00631769	1.02187e-07	
-0.00497916	-0.00311569	-1.76496e-07	
-1.899e-11	-0.00677427	-4.36988e-07	
-0.0111351	-0.00213341	-1.69465e-08	
0.000878078	-0.00658138	1.58425e-05	
-1.37179e-09	-0.0065757	1.29972e-06	
0.0185334	-0.00167609	2.41468e-07	
0.00230416	-0.00467182	-1.6205e-07	
0.00268739	-0.00429627	1.29466e-06	
0.00679417	-0.00300135	8.97906e-07	
0.000238526	-0.00532024	1.27413e-06	
0.000763791	-0.00402249	-8.60548e-06	
0.00171399	-0.00467594	1.55316e-05	
0.00230247	-0.00372252	8.65555e-07	
0.000214847	-0.00505034	-1.14093e-05	
-0.000158258	-0.00530988	-5.77606e-07	
0.00102768	-0.0051116	1.0638e-05	
8.93834e-10	-0.00452708	2.92071e-06	
-1.84703e-10	-0.00344597	1.01128e-06	
1.49138e-10	-0.00493434	-1.17217e-07	
-1.60649e-13	-0.00243949	5.38867e-09	
6.7081e-05	-0.00534168	5.06238e-07	
2.90012e-08	-0.00543697	8.11317e-08	
-0.000803227	-0.00516617	-1.25608e-05	
1.08235e-09	-0.0051459	-1.02407e-06	
-6.7353e-05	-0.00543697	-2.42481e-07	
-0.00228963	-0.00466589	2.95419e-07	
-0.00262325	-0.00428968	-1.24352e-06	
-0.0017039	-0.005117	-1.30129e-05	
-0.00679107	-0.00300053	-8.9612e-07	
-0.000235642	-0.00531997	-1.27536e-06	
-0.000768796	-0.00402273	8.60601e-06	
-0.00174292	-0.00466744	-1.59375e-05	
-0.00230105	-0.00372106	-8.65387e-07	
0.000383044	-0.00505094	1.38561e-05	
0.000167308	-0.00531039	5.74997e-07	
-8.68555e-10	-0.00452175	-2.60795e-06	
1.84623e-10	-0.00344492	-1.01169e-06	
-1.01107e-10	-0.00492612	7.96787e-08	
-0.00575666	-0.00243875	-1.5319e-07	
-1.4974e-11	-0.00534163	-3.44573e-07	
-0.0127702	-0.00167561	-3.64759e-09	
0.00081404	-0.00516826	1.25661e-05	
-1.07435e-09	-0.00514989	1.0179e-06	
0.0208387	-0.00158929	2.5447e-07	
0.00262907	-0.00462614	-2.07039e-07	
0.0031653	-0.00422313	9.3827e-07	
0.00777502	-0.00288738	9.44413e-07	
0.000296267	-0.00533993	1.2732e-06	
0.00104183	-0.0039359	-8.33374e-06	
0.00183476	-0.00464226	1.55899e-05	
0.00265155	-0.00362397	9.48057e-07	
0.000407864	-0.00503689	-1.12201e-05	
-0.000104276	-0.00532342	-5.85985e-07	
0.00112019	-0.00511033	1.0738e-05	
8.81612e-10	-0.00446518	2.88078e-06	
-1.78735e-10	-0.00333464	9.78605e-07	
1.4848e-10	-0.00491256	-1.167e-07	
-1.53456e-13	-0.00233025	5.14737e-09	
8.79949e-05	-0.00536116	5.07842e-07	
8.22841e-08	-0.00545647	8.14225e-08	
-0.000733591	-0.00517594	-1.25129e-05	
1.08364e-09	-0.00515201	-1.02528e-06	
-8.82264e-05	-0.00545653	-2.42793e-07	
-0.00261198	-0.00462093	3.54604e-07	
-0.00309602	-0.00421663	-8.90967e-07	
-0.00187579	-0.00511683	-1.31058e-05	
-0.00777177	-0.00288675	-9.42455e-07	
-0.000292677	-0.00533991	-1.27464e-06	
-0.00104814	-0.00393637	8.33438e-06	
-0.0018648	-0.00463515	-1.59977e-05	
-0.00265002	-0.00362314	-9.4786e-07	
0.000258991	-0.0050383	1.36657e-05	
0.000114907	-0.00532423	5.83217e-07	
-8.56779e-10	-0.00446044	-2.57259e-06	
1.78673e-10	-0.0033339	-9.79086e-07	
-1.00701e-10	-0.00490635	7.93589e-08	
-0.00651085	-0.00232967	-1.54522e-07	
-1.5029e-11	-0.00536126	-3.45839e-07	
-0.0143207	-0.00158891	1.85017e-09	
0.000746331	-0.00517831	1.25208e-05	
-1.07569e-09	-0.00515635	1.01917e-06	
0.0227091	-0.00128645	2.50757e-07	
0.00290336	-0.00379397	-2.70284e-07	
0.00356918	-0.00345341	1.64268e-07	
0.00858326	-0.00234646	9.14379e-07	
0.000349268	-0.00441864	1.04239e-06	
0.00127228	-0.00321529	-6.68423e-06	
0.00193726	-0.00381432	1.33588e-05	
0.00293932	-0.00295716	9.73031e-07	
0.000574365	-0.00414955	-9.1531e-06	
-5.40835e-05	-0.00440662	-4.89161e-07	
0.00120421	-0.00421026	9.15815e-06	
7.22905e-10	-0.00366136	2.36218e-06	
-1.45689e-10	-0.00271809	7.9767e-07	
1.22099e-10	-0.00403972	-9.5965e-08	
-1.24502e-13	-0.00189058	4.17617e-09	
0.000109086	-0.00444312	4.20454e-07	
1.16029e-07	-0.00452596	6.75371e-08	
-0.000669231	-0.00427905	-1.04079e-05	
8.94425e-10	-0.00425244	-8.46261e-07	
-0.00010931	-0.004526	-2.00407e-07	
-0.00288361	-0.00378882	4.24535e-07	
-0.00349535	-0.00344804	-1.33967e-07	
-0.00202579	-0.00421504	-1.10859e-05	
-0.00857978	-0.00234587	-9.12275e-07	
-0.000345126	-0.00441854	-1.04383e-06	
-0.00127985	-0.00321549	6.68365e-06	
-0.00196801	-0.00380741	-1.36962e-05	
-0.0029375	-0.00295611	-9.72615e-07	
0.000148683	-0.00415026	1.11752e-05	
6.60486e-05	-0.00440722	4.86465e-07	
-7.02439e-10	-0.00365694	-2.10917e-06	
1.45629e-10	-0.00271733	-7.98015e-07	
-8.27826e-11	-0.00403332	6.52378e-08	
-0.00712563	-0.00189004	-1.40276e-07	
-1.24553e-11	-0.00444316	-2.86615e-07	
-0.0155758	-0.00128609	1.10633e-08	
0.000683532	-0.00428097	1.0418e-05	
-8.87855e-10	-0.00425594	8.41206e-07	
0.0242547	-0.00105486	2.49098e-07	
0.003158	-0.00324744	-3.21776e-07	
0.00393716	-0.00293385	-4.18775e-07	
0.00928178	-0.00195245	8.99982e-07	
0.000400575	-0.00384031	8.958e-07	
0.00147858	-0.00272046	-5.53742e-06	
0.00203428	-0.00327536	1.19452e-05	
0.00319367	-0.00249078	1.00414e-06	
0.0007325	-0.00358133	-7.78649e-06	
-6.04401e-06	-0.00382808	-4.30139e-07	
0.00128495	-0.0036399	8.18747e-06	
6.16924e-10	-0.00312459	2.01587e-06	
-1.22062e-10	-0.00227729	6.68309e-07	
1.05123e-10	-0.00347805	-8.26225e-08	
-1.02889e-13	-0.00156239	3.45121e-09	
0.000129246	-0.00386511	3.65352e-07	
1.60346e-07	-0.00393904	5.87786e-08	
-0.000608203	-0.00371284	-9.0584e-06	
7.74976e-10	-0.00368453	-7.33244e-07	
-0.000129438	-0.00393908	-1.73487e-07	
-0.00313606	-0.00324275	4.83765e-07	
-0.00385938	-0.00292916	4.37364e-07	
-0.00216958	-0.00364422	-9.83569e-06	
-0.00927811	-0.00195193	-8.97754e-07	
-0.000395908	-0.0038403	-8.97299e-07	
-0.00148713	-0.00272057	5.53617e-06	
-0.00206583	-0.00326941	-1.22394e-05	
-0.00319161	-0.0024899	-1.00358e-06	
4.52302e-05	-0.00358204	9.54011e-06	
1.91694e-05	-0.00382869	4.27468e-07	
-5.99431e-10	-0.00312067	-1.79987e-06	
1.22011e-10	-0.00227663	-6.68593e-07	
-7.12768e-11	-0.00347273	5.61705e-08	
-0.00764174	-0.00156193	-1.30106e-07	
-1.08351e-11	-0.00386519	-2.49332e-07	
-0.0166048	-0.00105456	1.82745e-08	
0.000623864	-0.00371459	9.07065e-06	
-7.69304e-10	-0.00368767	7.28884e-07	
0.0253755	-0.000756958	2.40114e-07	
0.00336665	-0.002455	-3.74924e-07	
0.00423624	-0.00219864	-1.10115e-06	
0.0098179	-0.00142777	8.55158e-07	
0.000445656	-0.00295842	6.75591e-07	
0.00164155	-0.00203009	-3.97411e-06	
0.00211507	-0.0024866	9.79813e-06	
0.00339215	-0.00184969	1.00805e-06	
0.000865161	-0.00273563	-5.83738e-06	
3.64484e-05	-0.00294954	-3.36644e-07	
0.00135603	-0.00278343	6.67432e-06	
4.65281e-10	-0.00235655	1.52036e-06	
-9.01226e-11	-0.0016814	4.93436e-07	
8.00268e-11	-0.00264774	-6.28981e-08	
-7.46097e-14	-0.00113296	2.50264e-09	
0.000148085	-0.00298369	2.81465e-07	
1.87507e-07	-0.00304411	4.54242e-08	
-0.000554726	-0.00285529	-7.05379e-06	
5.94596e-10	-0.00282694	-5.62577e-07	
-0.000148268	-0.00304414	-1.32762e-07	
-0.00334277	-0.00245056	5.40964e-07	
-0.00415517	-0.00219488	1.10429e-06	
-0.0022921	-0.00278639	-7.9061e-06	
-0.00981399	-0.00142726	-8.52828e-07	
-0.000440608	-0.00295837	-6.77063e-07	
-0.00165091	-0.0020299	3.97172e-06	
-0.00214726	-0.00248127	-1.00266e-05	
-0.00338977	-0.0018487	-1.00729e-06	
-4.31015e-05	-0.00273583	7.18817e-06	
-2.24276e-05	-0.00294996	3.34092e-07	
-4.51977e-10	-0.00235302	-1.35712e-06	
9.00741e-11	-0.00168072	-4.93586e-07	
-5.42443e-11	-0.00264288	4.27478e-08	
-0.00802374	-0.00113252	-1.14423e-07	
-8.36414e-12	-0.00298372	-1.92471e-07	
-0.0173432	-0.000756672	2.61464e-08	
0.000571402	-0.0028566	7.06768e-06	
-5.9023e-10	-0.00282928	5.59219e-07	
0.0260858	-0.000467852	2.2859e-07	
0.00353572	-0.00170783	-4.2131e-07	
0.00447348	-0.0015017	-1.71762e-06	
0.0102014	-0.000923018	8.0365e-07	
0.000485065	-0.00213331	4.69938e-07	
0.00176561	-0.00137332	-2.49598e-06	
0.00218241	-0.00174399	7.76552e-06	
0.0035398	-0.00123752	1.00101e-06	
0.000976277	-0.00194174	-4.01843e-06	
7.35259e-05	-0.00212645	-2.48702e-07	
0.00141826	-0.00198137	5.2525e-06	
3.21764e-10	-0.00162967	1.0514e-06	
-5.94882e-11	-0.00110986	3.25708e-07	
5.64546e-11	-0.00186784	-4.43712e-08	
-4.72797e-14	-0.000717951	1.5859e-09	
0.000165128	-0.00215805	2.02896e-07	
2.07348e-07	-0.00220525	3.29065e-08	
-0.000508675	-0.00205207	-5.18026e-06	
4.25721e-10	-0.00202404	-4.02796e-07	
-0.000165306	-0.00220527	-9.46049e-08	
-0.00351032	-0.00170381	5.89947e-07	
-0.00438985	-0.00149881	1.70648e-06	
-0.00239668	-0.0019833	-6.0957e-06	
-0.0101972	-0.000922534	-8.01249e-07	
-0.000479743	-0.00213327	-4.71378e-07	
-0.00177551	-0.00137289	2.49268e-06	
-0.00221518	-0.00173956	-7.93299e-06	
-0.0035371	-0.00123656	-1.00007e-06	
-0.00011742	-0.00194164	4.99168e-06	
-5.88626e-05	-0.00212675	2.46292e-07	
-3.1245e-10	-0.00162663	-9.38172e-07	
5.9445e-11	-0.0011092	-3.25746e-07	
-3.82552e-11	-0.00186386	3.01475e-08	
-0.00827731	-0.00071755	-9.83325e-08	
-6.04964e-12	-0.00215807	-1.39211e-07	
-0.0177995	-0.000467595	3.31606e-08	
0.000526056	-0.00205301	5.19554e-06	
-4.2259e-10	-0.00202569	4.00387e-07	
0.0263539	-0.0001581	2.12422e-07	
0.0036558	-0.000879484	-4.63705e-07	
0.00463708	-0.000734417	-2.33329e-06	
0.0104146	-0.000376748	7.34853e-07	
0.000516884	-0.00120483	2.39821e-07	
0.00184426	-0.000653035	-8.91777e-07	
0.00223238	-0.000918371	5.4739e-06	
0.0036291	-0.000568863	9.74825e-07	
0.00105948	-0.00105475	-2.0198e-06	
0.000103651	-0.00120111	-1.48368e-07	
0.00146889	-0.00108321	3.63923e-06	
1.63203e-10	-0.000826589	5.33286e-07	
-2.61797e-11	-0.000488431	1.43338e-07	
3.01741e-11	-0.000998332	-2.37158e-08	
-1.78491e-14	-0.000271042	5.98712e-10	
0.000179992	-0.00122862	1.145e-07	
2.1003e-07	-0.00126078	1.88129e-08	
-0.00047194	-0.00114995	-3.0911e-06	
2.36254e-10	-0.00112324	-2.23532e-07	
-0.000180185	-0.00126079	-5.17604e-08	
-0.00362928	-0.000875872	6.32218e-07	
-0.00455167	-0.000732473	2.30696e-06	
-0.00247756	-0.00108383	-4.04895e-06	
-0.0104101	-0.000376265	-7.32411e-07	
-0.000511438	-0.00120476	-2.41179e-07	
-0.00185446	-0.000652306	8.87469e-07	
-0.0022656	-0.000914795	-5.573e-06	
-0.00362605	-0.000567843	-9.73684e-07	
-0.000174374	-0.0010542	2.57027e-06	
-8.86319e-05	-0.00120122	1.46156e-07	
-1.58285e-10	-0.000824039	-4.75271e-07	
2.61399e-11	-0.000487751	-1.43241e-07	
-2.04242e-11	-0.000995102	1.60955e-08	
-0.00839102	-0.000270661	-7.97149e-08	
-3.44411e-12	-0.00122861	-7.92539e-08	
-0.0179536	-0.000157859	3.98722e-08	
0.000489668	-0.00115041	3.10735e-06	
-2.34496e-10	-0.00112406	2.22176e-07	
0.0261844	0.000148428	1.93113e-07	
0.00372743	-5.89025e-05	-4.99346e-07	
0.00472738	2.5509e-05	-2.89646e-06	
0.0104586	0.000164173	6.56015e-07	
0.00054092	-0.000283869	1.24008e-08	
0.00187807	6.04895e-05	6.84424e-07	
0.00226515	-0.000100189	3.18151e-06	
0.00366067	9.36611e-05	9.34246e-07	
0.00111506	-0.000175451	-6.03896e-08	
0.000126551	-0.000282922	-4.79205e-08	
0.00150753	-0.000193177	2.0278e-06	
6.05363e-12	-3.06604e-05	1.9781e-08	
6.82743e-12	0.000127378	-3.73813e-08	
4.13043e-12	-0.000136658	-3.24637e-09	
1.12891e-14	0.000171427	-3.78671e-10	
0.00019236	-0.000306123	2.67915e-08	
1.98496e-07	-0.000323017	4.81932e-09	
-0.000444804	-0.000255116	-1.0282e-06	
4.83963e-11	-0.000230094	-4.57902e-08	
-0.000192585	-0.000323005	-9.28452e-09	
-0.00370023	-5.58028e-05	6.65633e-07	
-0.00464099	2.64969e-05	2.85552e-06	
-0.00253472	-0.00019258	-2.00957e-06	
-0.0104538	0.000164641	-6.53565e-07	
-0.000535488	-0.00028378	-1.36557e-08	
-0.0018883	6.14868e-05	-6.89587e-07	
-0.00229873	-9.75881e-05	-3.21321e-06	
-0.00365726	9.46834e-05	-9.32913e-07	
-0.000213737	-0.000174518	1.91668e-07	
-0.000111462	-0.000282865	4.59415e-08	
-5.50591e-12	-2.86641e-05	-1.65322e-08	
-6.86261e-12	0.000128051	3.76056e-08	
-2.7571e-12	-0.000134331	2.17277e-09	
-0.00836614	0.000171775	-6.01708e-08	
-8.58022e-13	-0.00030608	-1.97443e-08	
-0.0178085	0.000148646	4.57994e-08	
0.00046253	-0.000255129	1.0451e-06	
-4.80036e-11	-0.000230106	4.54814e-08	
0.0255764	0.000454596	1.70456e-07	
0.00374751	0.000774486	-5.28477e-07	
0.00474069	0.000794698	-3.41598e-06	
0.0103302	0.000707264	5.65736e-07	
0.000556353	0.000658261	-2.19269e-07	
0.00186539	0.000781505	2.26341e-06	
0.00227928	0.000731982	8.25381e-07	
0.00363272	0.000761971	8.7794e-07	
0.0011408	0.000721017	1.91205e-06	
0.000141553	0.000656131	5.58784e-08	
0.00153291	0.000715015	3.67942e-07	
-1.53327e-10	0.000776568	-5.01014e-07	
4.00527e-11	0.000747257	-2.19295e-07	
-2.23937e-11	0.00074091	1.76006e-08	
4.04717e-14	0.00061457	-1.35754e-09	
0.000201965	0.000637989	-6.29361e-08	
1.69854e-07	0.000636939	-9.50526e-09	
-0.000428024	0.000659543	1.06937e-06	
-1.43509e-10	0.000682297	1.35781e-07	
-0.000202239	0.000636968	3.4114e-08	
-0.00372007	0.000777039	6.90156e-07	
-0.00465417	0.000794714	3.36068e-06	
-0.0025659	0.000716884	8.5479e-08	
-0.0103251	0.00070772	-5.63309e-07	
-0.000551086	0.000658379	2.18152e-07	
-0.0018754	0.000782775	-2.26937e-06	
-0.00231308	0.000733599	-7.88435e-07	
-0.00362894	0.000763005	-8.76416e-07	
-0.000234262	0.000722359	-2.20864e-06	
-0.000126687	0.000656377	-5.7585e-08	
1.4944e-10	0.000777995	4.48715e-07	
-4.00835e-11	0.000747928	2.19649e-07	
1.52366e-11	0.000742353	-1.20074e-08	
-0.00820165	0.00061489	-3.94674e-08	
1.78867e-12	0.000638069	4.11599e-08	
-0.0173647	0.000454794	5.10021e-08	
0.000445389	0.000660007	-1.05223e-06	
1.42511e-10	0.000683128	-1.35023e-07	
0.0245439	0.000750584	1.4515e-07	
0.00371633	0.00158684	-5.50061e-07	
0.00467767	0.0015432	-3.87231e-06	
0.0100331	0.00123377	4.67112e-07	
0.000562998	0.00157995	-4.44994e-07	
0.00180712	0.0014827	3.7855e-06	
0.00227467	0.00154382	-1.49671e-06	
0.00354637	0.00141151	8.07998e-07	
0.00113677	0.00159662	3.81494e-06	
0.000148496	0.00157489	1.58417e-07	
0.00154464	0.00160223	-1.26805e-06	
-3.0862e-10	0.0015631	-1.00846e-06	
7.2315e-11	0.00134917	-3.95937e-07	
-4.82869e-11	0.00159761	3.79517e-08	
6.87275e-14	0.00104364	-2.30533e-09	
0.000208614	0.00156208	-1.50728e-07	
1.25441e-07	0.00157679	-2.35298e-08	
-0.00042168	0.00155411	3.11073e-06	
-3.31133e-10	0.00157433	3.13302e-07	
-0.000208957	0.00157683	7.65292e-08	
-0.0036891	0.00158877	7.04988e-07	
-0.00459184	0.00154225	3.80348e-06	
-0.00257083	0.00160531	2.14502e-06	
-0.0100276	0.0012342	-4.64741e-07	
-0.000558037	0.00158009	4.44037e-07	
-0.00181665	0.00148421	-3.7921e-06	
-0.00230856	0.00154441	1.60046e-06	
-0.00354221	0.00141253	-8.06293e-07	
-0.000235903	0.00159833	-4.52971e-06	
-0.00013414	0.00157532	-1.59821e-07	
3.00404e-10	0.00156392	9.02002e-07	
-7.23407e-11	0.00134982	3.96411e-07	
3.28007e-11	0.00159811	-2.5849e-08	
-0.00790152	0.00104392	-1.82826e-08	
4.37922e-12	0.00156219	1.00772e-07	
-0.0166321	0.000750758	5.53029e-08	
0.000438337	0.00155503	-3.0937e-06	
3.28773e-10	0.00157598	-3.11499e-07	
				</DataArray>
			</CellData>
			<Points>
				<DataArray type="Float64" Name="Position" NumberOfComponents="3" Format="ascii">
2.66983	1.92085	0.349014	
2.62094	1.08849	0.388167	
2.6312	1.29963	0.377378	
2.66274	1.71423	0.329273	
2.61251	0.265361	0.413596	
2.63897	1.40433	0.365082	
2.62408	0.986664	0.382791	
2.64791	1.50692	0.350538	
2.61521	0.783702	0.389885	
2.60891	0.371904	0.411238	
2.61467	0.679709	0.393487	
2.6264	1.19431	0.385166	
2.65589	1.61041	0.337373	
2.62482	0.886455	0.382293	
2.67154	1.822	0.325248	
2.61408	0.159733	0.413576	
2.61438	0.0535478	0.412956	
2.61422	0.475832	0.401893	
2.61918	0.57731	0.3944	
2.61436	-0.053333	0.413366	
2.62112	-1.08831	0.38736	
2.63137	-1.29949	0.376184	
2.61345	-0.679199	0.3951	
2.66466	-1.71301	0.328209	
2.61259	-0.265245	0.413334	
2.63923	-1.40398	0.363235	
2.62469	-0.986598	0.381957	
2.64838	-1.50634	0.348207	
2.61398	-0.783769	0.391524	
2.60908	-0.371737	0.410745	
2.62675	-1.19405	0.383758	
2.65711	-1.60963	0.334647	
2.62553	-0.886315	0.381534	
2.66804	-1.81706	0.337379	
2.61401	-0.159617	0.413634	
2.66873	-1.91947	0.361895	
2.61468	-0.475522	0.401363	
2.62002	-0.576839	0.394163	
2.56766	1.9173	0.316845	
2.53845	1.08915	0.318956	
2.54258	1.29793	0.31268	
2.57718	1.71946	0.267563	
2.5285	0.264949	0.34604	
2.55306	1.40298	0.300996	
2.54906	0.988943	0.31081	
2.56586	1.50801	0.285387	
2.54154	0.78342	0.317628	
2.52649	0.370908	0.341791	
2.54136	0.67976	0.320715	
2.54013	1.19383	0.318594	
2.57477	1.61383	0.271562	
2.55429	0.88758	0.308655	
2.58073	1.83115	0.271511	
2.53053	0.159648	0.345812	
2.53149	0.0535249	0.344712	
2.53797	0.474188	0.330513	
2.54902	0.576667	0.320981	
2.53138	-0.0534203	0.344748	
2.53826	-1.08887	0.318194	
2.54272	-1.29777	0.311264	
2.53946	-0.679371	0.322678	
2.58007	-1.71959	0.265609	
2.52868	-0.264841	0.345704	
2.55355	-1.4027	0.298619	
2.54934	-0.988938	0.310244	
2.56686	-1.50773	0.28215	
2.53924	-0.78329	0.319841	
2.52653	-0.370767	0.341713	
2.53994	-1.19349	0.317589	
2.57701	-1.61392	0.267463	
2.55527	-0.887581	0.308512	
2.57487	-1.82163	0.288128	
2.53044	-0.159574	0.345728	
2.56514	-1.91213	0.335055	
2.53871	-0.47392	0.329953	
2.55023	-0.576384	0.320665	
2.46393	1.91527	0.285622	
2.46292	1.09227	0.250147	
2.46608	1.30094	0.246155	
2.48702	1.7297	0.2102	
2.45852	0.264415	0.277203	
2.47167	1.40601	0.238239	
2.47526	0.992442	0.241922	
2.48001	1.51233	0.224823	
2.46762	0.784582	0.248268	
2.45659	0.369964	0.272981	
2.46864	0.680577	0.251163	
2.4638	1.19645	0.250348	
2.48835	1.6213	0.210181	
2.47891	0.889933	0.240535	
2.48677	1.84714	0.224477	
2.46089	0.159587	0.277172	
2.46146	0.0534011	0.276881	
2.4665	0.473308	0.261905	
2.47523	0.576621	0.25254	
2.46131	-0.0533089	0.276926	
2.46284	-1.09204	0.249059	
2.46634	-1.30087	0.244514	
2.46651	-0.680253	0.253339	
2.49133	-1.73207	0.207482	
2.45864	-0.264319	0.276943	
2.47235	-1.40595	0.235402	
2.47575	-0.992417	0.241312	
2.48137	-1.51255	0.220807	
2.46544	-0.784376	0.250598	
2.457	-0.369877	0.272282	
2.46376	-1.19633	0.249579	
2.49141	-1.62269	0.204774	
2.48042	-0.889853	0.240296	
2.4788	-1.83129	0.244062	
2.46079	-0.159536	0.27709	
2.46031	-1.90476	0.308325	
2.46742	-0.473162	0.261059	
2.47669	-0.576495	0.252236	
2.36672	1.92011	0.251775	
2.40031	1.09804	0.177171	
2.39957	1.30791	0.175274	
2.40148	1.74577	0.151898	
2.4024	0.264314	0.203893	
2.40033	1.41339	0.170217	
2.41281	0.997838	0.169347	
2.40316	1.52109	0.160031	
2.40441	0.786907	0.176682	
2.40021	0.369434	0.200079	
2.40709	0.682374	0.179118	
2.40041	1.20282	0.178249	
2.40808	1.63351	0.145784	
2.41518	0.89357	0.168037	
2.39553	1.86842	0.177106	
2.40384	0.159646	0.203659	
2.40449	0.0534204	0.204158	
2.40775	0.473021	0.189728	
2.41385	0.577512	0.179931	
2.40428	-0.0533516	0.204264	
2.40039	-1.09796	0.176467	
2.39982	-1.30793	0.173395	
2.40507	-0.682265	0.181607	
2.40603	-1.75073	0.149182	
2.40254	-0.264257	0.203654	
2.40098	-1.41359	0.167056	
2.41362	-0.997717	0.168088	
2.40455	-1.52192	0.155517	
2.40182	-0.786499	0.178648	
2.40051	-0.369414	0.199368	
2.40053	-1.20274	0.177346	
2.41137	-1.63645	0.139618	
2.41694	-0.893377	0.167724	
2.3873	-1.84739	0.199025	
2.40366	-0.159628	0.20363	
2.36257	-1.90407	0.276418	
2.40866	-0.473007	0.188777	
2.41536	-0.577628	0.179464	
2.26657	1.92177	0.223561	
2.30472	1.10123	0.119363	
2.30331	1.31247	0.119412	
2.29987	1.75562	0.109034	
2.31056	0.264607	0.141321	
2.30212	1.41828	0.118259	
2.31645	1.00029	0.109002	
2.30302	1.52672	0.111254	
2.30697	0.788436	0.118367	
2.3078	0.369981	0.1382	
2.30988	0.683541	0.120355	
2.3036	1.20654	0.120901	
2.30726	1.64156	0.0980637	
2.31812	0.895608	0.108972	
2.29361	1.88192	0.142298	
2.31188	0.15981	0.141012	
2.31304	0.053447	0.1412	
2.31272	0.474092	0.128925	
2.31734	0.578663	0.120174	
2.31276	-0.0534055	0.141405	
2.30492	-1.10119	0.118585	
2.30363	-1.31261	0.117381	
2.30769	-0.683366	0.123135	
2.30425	-1.76222	0.106025	
2.31077	-0.264592	0.140888	
2.30277	-1.4187	0.114893	
2.31699	-1.0001	0.106915	
2.3044	-1.52799	0.106424	
2.30478	-0.788105	0.121348	
2.30816	-0.370002	0.13738	
2.30391	-1.20652	0.119864	
2.31044	-1.64551	0.0912586	
2.31924	-0.895402	0.108733	
2.28584	-1.85607	0.165299	
2.31162	-0.159812	0.141087	
2.26268	-1.90198	0.249292	
2.31379	-0.474118	0.127716	
2.31881	-0.578818	0.119466	
2.16789	1.9252	0.197153	
2.20551	1.10417	0.0711327	
2.20321	1.31659	0.0733421	
2.19708	1.76302	0.0735619	
2.21189	0.265025	0.08899	
2.201	1.42257	0.0753237	
2.21542	1.00256	0.0584361	
2.20101	1.5315	0.0709908	
2.20645	0.789846	0.0709177	
2.21037	0.370718	0.0864093	
2.20951	0.684762	0.0715448	
2.20408	1.21001	0.0732905	
2.20411	1.64789	0.0589573	
2.21523	0.897141	0.0607546	
2.19116	1.89093	0.111659	
2.21394	0.160072	0.0884661	
2.21552	0.0535028	0.0880602	
2.21345	0.475093	0.0780388	
2.21668	0.579817	0.0697613	
2.21521	-0.0534927	0.0883814	
2.20577	-1.10415	0.070334	
2.20362	-1.31682	0.071265	
2.20806	-0.684625	0.074408	
2.20093	-1.77061	0.0702209	
2.21212	-0.26502	0.0885176	
2.20157	-1.42314	0.0718773	
2.21599	-1.00249	0.057519	
2.20222	-1.53304	0.0660204	
2.20463	-0.789461	0.0740743	
2.21072	-0.370761	0.0855255	
2.20448	-1.21004	0.0721856	
2.20679	-1.65231	0.0519269	
2.21788	-0.89722	0.0589797	
2.18451	-1.86268	0.13542	
2.21366	-0.160083	0.0886666	
2.16457	-1.90329	0.223338	
2.21437	-0.475155	0.0766979	
2.21819	-0.580019	0.0687081	
2.06928	1.92913	0.172501	
2.10041	1.10606	0.0351097	
2.09815	1.31925	0.0388678	
2.09235	1.76635	0.0460094	
2.10671	0.265438	0.0482318	
2.09592	1.42525	0.0433812	
2.10825	1.00397	0.0219309	
2.09583	1.53435	0.0408247	
2.10008	0.790683	0.0360824	
2.10526	0.371388	0.0474486	
2.10353	0.685666	0.034877	
2.09918	1.21243	0.0376169	
2.09782	1.65095	0.0297053	
2.10771	0.898195	0.0241943	
2.0877	1.8944	0.0849959	
2.10762	0.160299	0.0486754	
2.11014	0.0535651	0.0475786	
2.10716	0.475936	0.0397958	
2.10936	0.580707	0.0320237	
2.10985	-0.0535778	0.0480057	
2.10046	-1.10599	0.0344244	
2.09853	-1.31952	0.0368323	
2.10248	-0.685524	0.0377528	
2.0955	-1.77423	0.042206	
2.10695	-0.265434	0.0477372	
2.09637	-1.42587	0.039981	
2.10879	-1.00391	0.0210303	
2.09682	-1.53597	0.0358569	
2.0994	-0.790441	0.0386995	
2.10566	-0.371426	0.0462832	
2.09971	-1.21242	0.0365541	
2.10007	-1.65562	0.0223119	
2.10884	-0.898132	0.0215933	
2.08242	-1.86599	0.109337	
2.10737	-0.160318	0.0489776	
2.06671	-1.90694	0.198863	
2.10794	-0.476009	0.0383517	
2.11073	-0.580909	0.0307127	
1.97075	1.934	0.148653	
1.99293	1.10694	0.00869843	
1.99224	1.32096	0.0124855	
1.98756	1.76657	0.0241152	
2.00011	0.265809	0.0171805	
1.99041	1.4269	0.0188152	
1.99948	1.0046	-0.00505455	
1.98949	1.53531	0.0183675	
1.99289	0.791124	0.0107582	
1.99731	0.371835	0.0181797	
1.99642	0.686265	0.00662197	
1.99324	1.21394	0.010429	
1.99176	1.65192	0.00700146	
1.99923	0.898936	-0.00435273	
1.98408	1.89307	0.0608505	
2.00082	0.160491	0.0174065	
2.0017	0.0536248	0.0170557	
1.99945	0.476531	0.0106607	
1.99963	0.581256	0.00409209	
2.00146	-0.0536476	0.0175615	
1.99338	-1.10696	0.00799863	
1.99258	-1.32122	0.0105783	
1.9957	-0.68616	0.00946103	
1.98981	-1.77403	0.0197784	
2.00031	-0.265802	0.0166874	
1.99073	-1.42751	0.0155751	
1.99965	-1.0044	-0.00560895	
1.99025	-1.53684	0.0135611	
1.99223	-0.790881	0.0127991	
1.9975	-0.371886	0.0173503	
1.99359	-1.214	0.00941341	
1.99347	-1.65631	-0.000332974	
2.00025	-0.898842	-0.005386	
1.98028	-1.86684	0.0855077	
2.0006	-0.160513	0.01779	
1.96896	-1.91317	0.174773	
1.99999	-0.476603	0.00927156	
2.00074	-0.581417	0.00266345	
1.87132	1.93807	0.125455	
1.88615	1.10743	-0.00992094	
1.88554	1.32147	-0.00553862	
1.88249	1.76381	0.00789273	