<VTKFile type="UnstructuredGrid" version="0.1" byte_order="LittleEndian">
	<UnstructuredGrid>
		<Piece NumberOfPoints="418" NumberOfCells="418">
			<CellData Scalars="scalars">
				<DataArray type="Float64" Name="Strength" NumberOfComponents="3" Format="ascii">
0.00503251	-0.0036439	2.59746e-07	
0.000776786	-0.00782196	1.43204e-07	
0.000488137	-0.00660014	4.25326e-06	
0.00160011	-0.00601116	1.02597e-06	
9.24734e-05	-0.00810609	1.96953e-06	
-0.000538076	-0.00672158	-1.49127e-05	
0.0011661	-0.00782343	2.3811e-05	
0.00058836	-0.00719863	6.80368e-07	
-0.000580666	-0.00831945	-1.91801e-05	
-0.000308181	-0.0080048	-8.61917e-07	
0.00068892	-0.00866977	1.68762e-05	
1.43973e-09	-0.00729191	4.70448e-06	
-3.60752e-10	-0.00673051	1.97518e-06	
2.79776e-10	-0.0092566	-2.19894e-07	
-3.34998e-13	-0.005087	1.12368e-08	
2.77075e-06	-0.00806727	7.65708e-07	
1.55457e-07	-0.00818128	1.22082e-07	
-0.00102562	-0.00817119	-1.96206e-05	
1.95095e-09	-0.00927555	-1.84589e-06	
-2.51726e-06	-0.00818144	-3.67564e-07	
-0.000777156	-0.00773318	-5.46977e-08	
-0.000455789	-0.00657905	-4.13242e-06	
-0.00104563	-0.00868063	-2.09965e-05	
-0.00159973	-0.00600915	-1.02509e-06	
-9.16015e-05	-0.00810648	-1.97069e-06	
0.000539702	-0.00671911	1.49102e-05	
-0.00118961	-0.00778955	-2.44097e-05	
-0.000589284	-0.00719781	-6.81524e-07	
0.000922058	-0.00831884	2.31891e-05	
0.000309631	-0.0080061	8.59581e-07	
-1.39386e-09	-0.00725653	-4.18526e-06	
3.60611e-10	-0.00672873	-1.97607e-06	
-1.89761e-10	-0.00924551	1.49544e-07	
-0.00147606	-0.00508563	-2.3428e-07	
-2.26158e-11	-0.00806769	-5.20423e-07	
-0.00355509	-0.00364311	-6.60555e-08	
0.00102729	-0.00817392	1.96124e-05	
-1.93594e-09	-0.00927997	1.83423e-06	
0.00587241	-0.00056685	7.67753e-08	
0.000909214	-0.00162729	-7.1725e-08	
0.00066467	-0.00146684	7.13505e-07	
0.00198284	-0.00104916	2.90833e-07	
8.82899e-05	-0.00184996	4.40319e-07	
-0.000470663	-0.00139381	-3.19782e-06	
0.00121149	-0.00166823	6.30819e-06	
0.000684119	-0.0013143	2.72484e-07	
-0.000529471	-0.00183274	-5.02424e-06	
-0.00030108	-0.00188959	-1.74461e-07	
0.000733286	-0.00182	4.19435e-06	
3.13667e-10	-0.00158866	1.02495e-06	
-6.64992e-11	-0.00124067	3.64094e-07	
5.34182e-11	-0.00176738	-4.19847e-08	
-5.59089e-14	-0.000848986	1.87535e-09	
2.18581e-05	-0.00187805	1.78005e-07	
1.0294e-07	-0.00192349	2.87023e-08	
-0.00100631	-0.00184927	-5.21998e-06	
3.88341e-10	-0.00184632	-3.67429e-07	
-2.17772e-05	-0.00192343	-8.58379e-08	
-0.000905309	-0.00161618	1.22846e-07	
-0.000626292	-0.00146247	-7.01031e-07	
-0.00108324	-0.00181803	-5.02372e-06	
-0.00198143	-0.00104803	-2.9014e-07	
-8.74425e-05	-0.00184945	-4.40588e-07	
0.00047066	-0.00139154	3.19332e-06	
-0.00123495	-0.00165586	-6.4391e-06	
-0.000683075	-0.00131042	-2.72051e-07	
0.00085038	-0.00182954	5.919e-06	
0.000303352	-0.00188934	1.73554e-07	
-3.03537e-10	-0.00158023	-9.1141e-07	
6.63861e-11	-0.00123872	-3.63781e-07	
-3.60119e-11	-0.00175456	2.83796e-08	
-0.00176244	-0.000848083	-5.13352e-08	
-5.26401e-12	-0.00187782	-1.21133e-07	
-0.00410771	-0.000566295	-1.73253e-09	
0.00100852	-0.00184984	5.21897e-06	
-3.85403e-10	-0.00184744	3.65154e-07	
0.0105407	-0.00331362	2.80659e-07	
0.00137494	-0.008229	7.58724e-08	
0.00127007	-0.0076894	4.47844e-06	
0.00360771	-0.00570732	1.10683e-06	
0.000100279	-0.00891654	2.16833e-06	
-7.63251e-05	-0.00726646	-1.59731e-05	
0.00138054	-0.00816595	2.50624e-05	
0.00122127	-0.00680918	8.14459e-07	
-0.000305077	-0.00871607	-1.98096e-05	
-0.000297793	-0.00888571	-9.62396e-07	
0.000780253	-0.00882824	1.72718e-05	
1.57204e-09	-0.00796203	5.13682e-06	
-3.42289e-10	-0.00638604	1.87409e-06	
2.59851e-10	-0.00859735	-2.04233e-07	
-3.10753e-13	-0.00471884	1.04236e-08	
1.05121e-05	-0.00886341	8.41186e-07	
5.56507e-08	-0.00897393	1.33911e-07	
-0.000989321	-0.0087261	-2.08464e-05	
1.84814e-09	-0.00878675	-1.74862e-06	
-1.05465e-05	-0.00897388	-4.02954e-07	
-0.00137059	-0.00822201	3.99435e-08	
-0.00122353	-0.00767276	-4.34898e-06	
-0.00125166	-0.00883976	-2.14554e-05	
-0.00360576	-0.00570519	-1.10544e-06	
-9.89901e-05	-0.00891596	-2.1695e-06	
7.66336e-05	-0.00726495	1.59725e-05	
-0.00140745	-0.00815599	-2.5764e-05	
-0.00122121	-0.00680799	-8.15216e-07	
0.000736125	-0.00871691	2.40077e-05	
0.000301828	-0.00888599	9.59373e-07	
-1.52749e-09	-0.0079522	-4.58649e-06	
3.42127e-10	-0.00638383	-1.87478e-06	
-1.76319e-10	-0.00859057	1.3895e-07	
-0.00319656	-0.00471718	-2.3209e-07	
-2.4846e-11	-0.00886325	-5.71742e-07	
-0.00734025	-0.00331256	-5.02001e-08	
0.000994133	-0.00872814	2.08387e-05	
-1.83403e-09	-0.00879143	1.73766e-06	
0.0130368	-0.00175605	2.03261e-07	
0.00162377	-0.00454903	-7.47477e-08	
0.00166438	-0.00422873	1.90939e-06	
0.0045452	-0.003065	7.619e-07	
0.000134329	-0.00506218	1.22117e-06	
0.000154272	-0.00398939	-8.71185e-06	
0.00146647	-0.00453743	1.482e-05	
0.00152348	-0.00372428	6.65414e-07	
-0.000170316	-0.00486866	-1.13351e-05	
-0.0002588	-0.00506518	-5.37291e-07	
0.000848683	-0.00490753	1.00606e-05	
8.75504e-10	-0.00443424	2.86082e-06	
-1.86757e-10	-0.0034843	1.02253e-06	
1.44141e-10	-0.00476899	-1.13289e-07	
-1.6616e-13	-0.00252317	5.57351e-09	
2.92795e-05	-0.00507999	4.81844e-07	
-4.96774e-09	-0.00516922	7.71364e-08	
-0.000935482	-0.0049372	-1.21731e-05	
1.03631e-09	-0.00492703	-9.80508e-07	
-2.95005e-05	-0.00516916	-2.31475e-07	
-0.00161491	-0.00454186	1.77004e-07	
-0.00161191	-0.00422211	-1.85346e-06	
-0.00136645	-0.00491091	-1.23524e-05	
-0.0045426	-0.00306382	-7.60532e-07	
-0.000132747	-0.00506156	-1.222e-06	
-0.000156335	-0.00398895	8.71174e-06	
-0.00149307	-0.00452673	-1.52058e-05	
-0.0015223	-0.00372149	-6.65287e-07	
0.000633204	-0.00486793	1.3688e-05	
0.000264404	-0.00506523	5.35116e-07	
-8.50506e-10	-0.00442778	-2.55376e-06	
1.86642e-10	-0.00348261	-1.02276e-06	
-9.76491e-11	-0.00475764	7.69535e-08	
-0.00397871	-0.00252214	-1.42452e-07	
-1.42398e-11	-0.00507974	-3.27679e-07	
-0.00905322	-0.00175539	-1.4205e-08	
0.000942023	-0.00493881	1.21733e-05	
-1.02855e-09	-0.00493039	9.74513e-07	
0.0161201	-0.00213401	2.50904e-07	
0.00200592	-0.005996	-7.98865e-08	
0.00223469	-0.00551887	2.40404e-06	
0.00581168	-0.0038454	9.63586e-07	
0.000186728	-0.00676528	1.63315e-06	
0.000498522	-0.00516441	-1.119e-05	
0.00160598	-0.00599189	1.9148e-05	
0.00196424	-0.00477562	8.56003e-07	
4.20364e-05	-0.00645869	-1.46137e-05	
-0.000208707	-0.0067474	-7.33013e-07	
0.000942491	-0.00654203	1.32023e-05	
1.14539e-09	-0.00580118	3.74271e-06	
-2.36583e-10	-0.00441389	1.29533e-06	
1.91144e-10	-0.00632414	-1.50232e-07	
-2.0524e-13	-0.00311661	6.88437e-09	
4.59247e-05	-0.00677424	6.42465e-07	
2.36159e-08	-0.00688465	1.02734e-07	
-0.000869134	-0.00657875	-1.58406e-05	
1.38202e-09	-0.00657063	-1.3076e-06	
-4.61433e-05	-0.00688468	-3.08109e-07	
-0.00199478	-0.00599005	2.08836e-07	
-0.00217604	-0.00550974	-2.32594e-06	
-0.00155085	-0.00655071	-1.62739e-05	
-0.00580887	-0.00384436	-9.61947e-07	
-0.000184396	-0.00676511	-1.63444e-06	
-0.000501828	-0.00516475	1.11917e-05	
-0.00163436	-0.00598389	-1.96686e-05	
-0.00196325	-0.00477472	-8.56173e-07	
0.000500057	-0.00646056	1.77358e-05	
0.000216165	-0.0067482	7.30226e-07	
-1.11317e-09	-0.00579522	-3.34244e-06	
2.36492e-10	-0.00441277	-1.29592e-06	
-1.29669e-10	-0.00631769	1.02187e-07	
-0.00497916	-0.00311569	-1.76496e-07	
-1.899e-11	-0.00677427	-4.36988e-07	
-0.0111351	-0.00213341	-1.69465e-08	
0.000878078	-0.00658138	1.58425e-05	
-1.37179e-09	-0.0065757	1.29972e-06	
0.0185334	-0.00167609	2.41468e-07	
0.00230416	-0.00467182	-1.6205e-07	
0.00268739	-0.00429627	1.29466e-06	
0.00679417	-0.00300135	8.97906e-07	
0.000238526	-0.00532024	1.27413e-06	
0.000763791	-0.00402249	-8.60548e-06	
0.00171399	-0.00467594	1.55316e-05	
0.00230247	-0.00372252	8.65555e-07	
0.000214847	-0.00505034	-1.14093e-05	
-0.000158258	-0.00530988	-5.77606e-07	
0.00102768	-0.0051116	1.0638e-05	
8.93834e-10	-0.00452708	2.92071e-06	
-1.84703e-10	-0.00344597	1.01128e-06	
1.49138e-10	-0.00493434	-1.17217e-07	
-1.60649e-13	-0.00243949	5.38867e-09	
6.7081e-05	-0.00534168	5.06238e-07	
2.90012e-08	-0.00543697	8.11317e-08	
-0.000803227	-0.00516617	-1.25608e-05	
1.08235e-09	-0.0051459	-1.02407e-06	
-6.7353e-05	-0.00543697	-2.42481e-07	
-0.00228963	-0.00466589	2.95419e-07	
-0.00262325	-0.00428968	-1.24352e-06	
-0.0017039	-0.005117	-1.30129e-05	
-0.00679107	-0.00300053	-8.9612e-07	
-0.000235642	-0.00531997	-1.27536e-06	
-0.000768796	-0.00402273	8.60601e-06	
-0.00174292	-0.00466744	-1.59375e-05	
-0.00230105	-0.00372106	-8.65387e-07	
0.000383044	-0.00505094	1.38561e-05	
0.000167308	-0.00531039	5.74997e-07	
-8.68555e-10	-0.00452175	-2.60795e-06	
1.84623e-10	-0.00344492	-1.01169e-06	
-1.01107e-10	-0.00492612	7.96787e-08	
-0.00575666	-0.00243875	-1.5319e-07	
-1.4974e-11	-0.00534163	-3.44573e-07	
-0.0127702	-0.00167561	-3.64759e-09	
0.00081404	-0.00516826	1.25661e-05	
-1.07435e-09	-0.00514989	1.0179e-06	
0.0208387	-0.00158929	2.5447e-07	
0.00262907	-0.00462614	-2.07039e-07	
0.0031653	-0.00422313	9.3827e-07	
0.00777502	-0.00288738	9.44413e-07	
0.000296267	-0.00533993	1.2732e-06	
0.00104183	-0.0039359	-8.33374e-06	
0.00183476	-0.00464226	1.55899e-05	
0.00265155	-0.00362397	9.48057e-07	
0.000407864	-0.00503689	-1.12201e-05	
-0.000104276	-0.00532342	-5.85985e-07	
0.00112019	-0.00511033	1.0738e-05	
8.81612e-10	-0.00446518	2.88078e-06	
-1.78735e-10	-0.00333464	9.78605e-07	
1.4848e-10	-0.00491256	-1.167e-07	
-1.53456e-13	-0.00233025	5.14737e-09	
8.79949e-05	-0.00536116	5.07842e-07	
8.22841e-08	-0.00545647	8.14225e-08	
-0.000733591	-0.00517594	-1.25129e-05	
1.08364e-09	-0.00515201	-1.02528e-06	
-8.82264e-05	-0.00545653	-2.42793e-07	
-0.00261198	-0.00462093	3.54604e-07	
-0.00309602	-0.00421663	-8.90967e-07	
-0.00187579	-0.00511683	-1.31058e-05	
-0.00777177	-0.00288675	-9.42455e-07	
-0.000292677	-0.00533991	-1.27464e-06	
-0.00104814	-0.00393637	8.33438e-06	
-0.0018648	-0.00463515	-1.59977e-05	
-0.00265002	-0.00362314	-9.4786e-07	
0.000258991	-0.0050383	1.36657e-05	
0.000114907	-0.00532423	5.83217e-07	
-8.56779e-10	-0.00446044	-2.57259e-06	
1.78673e-10	-0.0033339	-9.79086e-07	
-1.00701e-10	-0.00490635	7.93589e-08	
-0.00651085	-0.00232967	-1.54522e-07	
-1.5029e-11	-0.00536126	-3.45839e-07	
-0.0143207	-0.00158891	1.85017e-09	
0.000746331	-0.00517831	1.25208e-05	
-1.07569e-09	-0.00515635	1.01917e-06	
0.0227091	-0.00128645	2.50757e-07	
0.00290336	-0.00379397	-2.70284e-07	
0.00356918	-0.00345341	1.64268e-07	
0.00858326	-0.00234646	9.14379e-07	
0.000349268	-0.00441864	1.04239e-06	
0.00127228	-0.00321529	-6.68423e-06	
0.00193726	-0.00381432	1.33588e-05	
0.00293932	-0.00295716	9.73031e-07	
0.000574365	-0.00414955	-9.1531e-06	
-5.40835e-05	-0.00440662	-4.89161e-07	
0.00120421	-0.00421026	9.15815e-06	
7.22905e-10	-0.00366136	2.36218e-06	
-1.45689e-10	-0.00271809	7.9767e-07	
1.22099e-10	-0.00403972	-9.5965e-08	
-1.24502e-13	-0.00189058	4.17617e-09	
0.000109086	-0.00444312	4.20454e-07	
1.16029e-07	-0.00452596	6.75371e-08	
-0.000669231	-0.00427905	-1.04079e-05	
8.94425e-10	-0.00425244	-8.46261e-07	
-0.00010931	-0.004526	-2.00407e-07	
-0.00288361	-0.00378882	4.24535e-07	
-0.00349535	-0.00344804	-1.33967e-07	
-0.00202579	-0.00421504	-1.10859e-05	
-0.00857978	-0.00234587	-9.12275e-07	
-0.000345126	-0.00441854	-1.04383e-06	
-0.00127985	-0.00321549	6.68365e-06	
-0.00196801	-0.00380741	-1.36962e-05	
-0.0029375	-0.00295611	-9.72615e-07	
0.000148683	-0.00415026	1.11752e-05	
6.60486e-05	-0.00440722	4.86465e-07	
-7.02439e-10	-0.00365694	-2.10917e-06	
1.45629e-10	-0.00271733	-7.98015e-07	
-8.27826e-11	-0.00403332	6.52378e-08	
-0.00712563	-0.00189004	-1.40276e-07	
-1.24553e-11	-0.00444316	-2.86615e-07	
-0.0155758	-0.00128609	1.10633e-08	
0.000683532	-0.00428097	1.0418e-05	
-8.87855e-10	-0.00425594	8.41206e-07	
0.0242547	-0.00105486	2.49098e-07	
0.003158	-0.00324744	-3.21776e-07	
0.00393716	-0.00293385	-4.18775e-07	
0.00928178	-0.00195245	8.99982e-07	
0.000400575	-0.00384031	8.958e-07	
0.00147858	-0.00272046	-5.53742e-06	
0.00203428	-0.00327536	1.19452e-05	
0.00319367	-0.00249078	1.00414e-06	
0.0007325	-0.00358133	-7.78649e-06	
-6.04401e-06	-0.00382808	-4.30139e-07	
0.00128495	-0.0036399	8.18747e-06	
6.16924e-10	-0.00312459	2.01587e-06	
-1.22062e-10	-0.00227729	6.68309e-07	
1.05123e-10	-0.00347805	-8.26225e-08	
-1.02889e-13	-0.00156239	3.45121e-09	
0.000129246	-0.00386511	3.65352e-07	
1.60346e-07	-0.00393904	5.87786e-08	
-0.000608203	-0.00371284	-9.0584e-06	
7.74976e-10	-0.00368453	-7.33244e-07	
-0.000129438	-0.00393908	-1.73487e-07	
-0.00313606	-0.00324275	4.83765e-07	
-0.00385938	-0.00292916	4.37364e-07	
-0.00216958	-0.00364422	-9.83569e-06	
-0.00927811	-0.00195193	-8.97754e-07	
-0.000395908	-0.0038403	-8.97299e-07	
-0.00148713	-0.00272057	5.53617e-06	
-0.00206583	-0.00326941	-1.22394e-05	
-0.00319161	-0.0024899	-1.00358e-06	
4.52302e-05	-0.00358204	9.54011e-06	
1.91694e-05	-0.00382869	4.27468e-07	
-5.99431e-10	-0.00312067	-1.79987e-06	
1.22011e-10	-0.00227663	-6.68593e-07	
-7.12768e-11	-0.00347273	5.61705e-08	
-0.00764174	-0.00156193	-1.30106e-07	
-1.08351e-11	-0.00386519	-2.49332e-07	
-0.0166048	-0.00105456	1.82745e-08	
0.000623864	-0.00371459	9.07065e-06	
-7.69304e-10	-0.00368767	7.28884e-07	
0.0253755	-0.000756958	2.40114e-07	
0.00336665	-0.002455	-3.74924e-07	
0.00423624	-0.00219864	-1.10115e-06	
0.0098179	-0.00142777	8.55158e-07	
0.000445656	-0.00295842	6.75591e-07	
0.00164155	-0.00203009	-3.97411e-06	
0.00211507	-0.0024866	9.79813e-06	
0.00339215	-0.00184969	1.00805e-06	
0.000865161	-0.00273563	-5.83738e-06	
3.64484e-05	-0.00294954	-3.36644e-07	
0.00135603	-0.00278343	6.67432e-06	
4.65281e-10	-0.00235655	1.52036e-06	
-9.01226e-11	-0.0016814	4.93436e-07	
8.00268e-11	-0.00264774	-6.28981e-08	
-7.46097e-14	-0.00113296	2.50264e-09	
0.000148085	-0.00298369	2.81465e-07	
1.87507e-07	-0.00304411	4.54242e-08	
-0.000554726	-0.00285529	-7.05379e-06	
5.94596e-10	-0.00282694	-5.62577e-07	
-0.000148268	-0.00304414	-1.32762e-07	
-0.00334277	-0.00245056	5.40964e-07	
-0.00415517	-0.00219488	1.10429e-06	
-0.0022921	-0.00278639	-7.9061e-06	
-0.00981399	-0.00142726	-8.52828e-07	
-0.000440608	-0.00295837	-6.77063e-07	
-0.00165091	-0.0020299	3.97172e-06	
-0.00214726	-0.00248127	-1.00266e-05	
-0.00338977	-0.0018487	-1.00729e-06	
-4.31015e-05	-0.00273583	7.18817e-06	
-2.24276e-05	-0.00294996	3.34092e-07	
-4.51977e-10	-0.00235302	-1.35712e-06	
9.00741e-11	-0.00168072	-4.93586e-07	
-5.42443e-11	-0.00264288	4.27478e-08	
-0.00802374	-0.00113252	-1.14423e-07	
-8.36414e-12	-0.00298372	-1.92471e-07	
-0.0173432	-0.000756672	2.61464e-08	
0.000571402	-0.0028566	7.06768e-06	
-5.9023e-10	-0.00282928	5.59219e-07	
0.0260858	-0.000467852	2.2859e-07	
0.00353572	-0.00170783	-4.2131e-07	
0.00447348	-0.0015017	-1.71762e-06	
0.0102014	-0.000923018	8.0365e-07	
0.000485065	-0.00213331	4.69938e-07	
0.00176561	-0.00137332	-2.49598e-06	
0.00218241	-0.00174399	7.76552e-06	
0.0035398	-0.00123752	1.00101e-06	
0.000976277	-0.00194174	-4.01843e-06	
7.35259e-05	-0.00212645	-2.48702e-07	
0.00141826	-0.00198137	5.2525e-06	
3.21764e-10	-0.00162967	1.0514e-06	
-5.94882e-11	-0.00110986	3.25708e-07	
5.64546e-11	-0.00186784	-4.43712e-08	
-4.72797e-14	-0.000717951	1.5859e-09	
0.000165128	-0.00215805	2.02896e-07	
2.07348e-07	-0.00220525	3.29065e-08	
-0.000508675	-0.00205207	-5.18026e-06	
4.25721e-10	-0.00202404	-4.02796e-07	
-0.000165306	-0.00220527	-9.46049e-08	
-0.00351032	-0.00170381	5.89947e-07	
-0.00438985	-0.00149881	1.70648e-06	
-0.00239668	-0.0019833	-6.0957e-06	
-0.0101972	-0.000922534	-8.01249e-07	
-0.000479743	-0.00213327	-4.71378e-07	
-0.00177551	-0.00137289	2.49268e-06	
-0.00221518	-0.00173956	-7.93299e-06	
-0.0035371	-0.00123656	-1.00007e-06	
-0.00011742	-0.00194164	4.99168e-06	
-5.88626e-05	-0.00212675	2.46292e-07	
-3.1245e-10	-0.00162663	-9.38172e-07	
5.9445e-11	-0.0011092	-3.25746e-07	
-3.82552e-11	-0.00186386	3.01475e-08	
-0.00827731	-0.00071755	-9.83325e-08	
-6.04964e-12	-0.00215807	-1.39211e-07	
-0.0177995	-0.000467595	3.31606e-08	
0.000526056	-0.00205301	5.19554e-06	
-4.2259e-10	-0.00202569	4.00387e-07	
				</DataArray>
			</CellData>
			<Points>
				<DataArray type="Float64" Name="Position" NumberOfComponents="3" Format="ascii">
2.26991	1.93271	0.251809	
2.24315	1.09612	0.283306	
2.24802	1.30749	0.27563	
2.26521	1.72452	0.23986	
2.23857	0.265557	0.302018	
2.25237	1.41259	0.266779	
2.24475	0.993309	0.279082	
2.25761	1.51633	0.255352	
2.2395	0.787143	0.285616	
2.23672	0.371954	0.300823	
2.2393	0.682457	0.287713	
2.24547	1.20164	0.28067	
2.26181	1.62025	0.245658	
2.24497	0.89127	0.278487	
2.27026	1.83075	0.235604	
2.23977	0.159996	0.30117	
2.24002	0.0535549	0.301121	
2.23942	0.476199	0.292879	
2.24234	0.578883	0.286587	
2.23999	-0.0535013	0.301141	
2.24325	-1.09596	0.282675	
2.24818	-1.30742	0.274869	
2.23869	-0.682189	0.289194	
2.26629	-1.72377	0.238594	
2.23864	-0.265491	0.301882	
2.25254	-1.41241	0.265547	
2.24509	-0.993219	0.278331	
2.25788	-1.51603	0.253738	
2.23881	-0.787157	0.286925	
2.23684	-0.371876	0.300508	
2.24568	-1.2016	0.280273	
2.26249	-1.61981	0.243569	
2.24562	-0.891321	0.278006	
2.26849	-1.82819	0.244347	
2.23975	-0.159965	0.301142	
2.26929	-1.93215	0.260816	
2.2397	-0.476045	0.292459	
2.24288	-0.578617	0.286338	
2.16827	1.93121	0.225462	
2.15206	1.09638	0.228838	
2.15413	1.30714	0.225521	
2.17201	1.72713	0.190975	
2.14794	0.265399	0.247985	
2.15971	1.41225	0.216764	
2.15768	0.994597	0.222393	
2.16628	1.51693	0.204752	
2.15334	0.787082	0.227388	
2.14658	0.371345	0.246106	
2.15353	0.682701	0.229584	
2.15294	1.20181	0.228977	
2.17091	1.62202	0.193716	
2.16039	0.891998	0.219667	
2.17431	1.83513	0.192219	
2.14915	0.15999	0.247356	
2.14954	0.0535896	0.247665	
2.15202	0.475211	0.236846	
2.15756	0.578576	0.227853	
2.14948	-0.0535396	0.247726	
2.15206	-1.0963	0.228657	
2.15426	-1.30708	0.224657	
2.15264	-0.6825	0.231417	
2.17355	-1.72702	0.188835	
2.14806	-0.265337	0.247803	
2.15996	-1.41211	0.215194	
2.15793	-0.994593	0.222006	
2.1668	-1.51676	0.202512	
2.15234	-0.787042	0.229708	
2.14676	-0.371276	0.245752	
2.15298	-1.20177	0.228675	
2.17208	-1.62198	0.190571	
2.16102	-0.892009	0.219409	
2.17153	-1.83057	0.204237	
2.1491	-0.159962	0.247349	
2.167	-1.92895	0.238187	
2.15244	-0.475083	0.236305	
2.15826	-0.5784	0.227522	
2.06654	1.93184	0.198212	
2.06597	1.09879	0.175292	
2.06744	1.30921	0.172417	
2.07676	1.73265	0.146071	
2.06556	0.265142	0.192296	
2.07042	1.41436	0.166382	
2.07231	0.996682	0.166553	
2.07432	1.5197	0.156801	
2.06817	0.787882	0.17275	
2.064	0.370744	0.190255	
2.06902	0.683285	0.174324	
2.06669	1.20401	0.175209	
2.07781	1.6262	0.14585	
2.07425	0.893432	0.165501	
2.0771	1.84336	0.151944	
2.06662	0.159971	0.191944	
2.06723	0.0535095	0.192162	
2.06857	0.474741	0.181416	
2.07255	0.578777	0.173945	
2.06716	-0.0534732	0.192238	
2.06598	-1.09876	0.174995	
2.06766	-1.30921	0.171422	
2.06809	-0.683126	0.17634	
2.07889	-1.73363	0.143023	
2.06568	-0.265092	0.192103	
2.07074	-1.41432	0.16452	
2.07267	-0.996647	0.166083	
2.07498	-1.51978	0.154052	
2.06732	-0.787772	0.175072	
2.06421	-0.370705	0.189851	
2.06686	-1.20398	0.17485	
2.07926	-1.62675	0.141757	
2.07509	-0.893354	0.164841	
2.07343	-1.83627	0.167026	
2.06656	-0.159953	0.191951	
2.06488	-1.92737	0.214091	
2.06906	-0.474668	0.18079	
2.07336	-0.578687	0.173578	
1.96756	1.93541	0.168374	
1.98203	1.10165	0.118991	
1.98146	1.31256	0.117641	
1.98214	1.73962	0.101323	
1.9842	0.265116	0.133889	
1.98227	1.41794	0.114281	
1.98753	0.999138	0.110065	
1.98366	1.52384	0.107272	
1.98332	0.789012	0.117535	
1.98271	0.370657	0.131892	
1.98471	0.684141	0.118038	
1.98207	1.20701	0.119234	
1.98531	1.63161	0.0979087	
1.9887	0.895082	0.109587	
1.98011	1.85239	0.112245	
1.98484	0.160019	0.134021	
1.98564	0.0535097	0.133944	
1.98593	0.474895	0.124065	
1.98826	0.579282	0.117162	
1.98555	-0.0534827	0.134065	
1.98223	-1.10164	0.118666	
1.98168	-1.3126	0.116523	
1.98396	-0.68405	0.120155	
1.98431	-1.74169	0.0978219	
1.98433	-0.265081	0.133683	
1.98258	-1.41802	0.112253	
1.98793	-0.999087	0.109574	
1.98429	-1.52418	0.104213	
1.98232	-0.788828	0.119818	
1.98287	-0.370641	0.131563	
1.98236	-1.20701	0.118789	
1.98682	-1.6328	0.0932438	
1.98973	-0.89496	0.108836	
1.97656	-1.84375	0.129242	
1.98475	-0.160014	0.134088	
1.96588	-1.929	0.185945	
1.98639	-0.474871	0.123397	
1.98903	-0.57927	0.116726	
1.86687	1.93783	0.143161	
1.88211	1.10323	0.0781985	
1.88116	1.31474	0.07835	
1.87957	1.74322	0.0700604	
1.88569	0.265267	0.0897628	
1.88131	1.42028	0.0775138	
1.88653	1.00027	0.0694871	
1.88172	1.52639	0.0726889	
1.88247	0.789763	0.0776779	
1.88416	0.371044	0.0884449	
1.88376	0.684748	0.0780332	
1.88144	1.20885	0.0798694	
1.88292	1.63479	0.0641076	
1.88732	0.895918	0.0681501	
1.87758	1.85677	0.0833036	
1.88638	0.160147	0.0899249	
1.88724	0.0535355	0.0897575	
1.88585	0.475432	0.081951	
1.88735	0.579862	0.0758181	
1.88714	-0.053521	0.0899382	
1.88238	-1.10323	0.0778474	
1.88142	-1.31483	0.0771859	
1.88299	-0.684631	0.0802891	
1.88148	-1.7458	0.0661976	
1.88581	-0.265235	0.0895574	
1.8816	-1.42044	0.0754374	
1.88695	-1.00021	0.0689941	
1.88234	-1.52689	0.0695306	
1.8817	-0.789575	0.0800111	
1.88433	-0.371044	0.0880214	
1.88184	-1.20887	0.0793399	
1.88424	-1.63629	0.0591657	
1.88801	-0.895804	0.067778	
1.87458	-1.84737	0.101134	
1.88629	-0.160148	0.0900546	
1.86547	-1.93067	0.161315	
1.88632	-0.475418	0.0812222	
1.88803	-0.579846	0.0753171	
1.76654	1.94089	0.118412	
1.77925	1.10423	0.0461495	
1.77818	1.3162	0.0475633	
1.77611	1.74481	0.0452013	
1.78277	0.265485	0.0553651	
1.77809	1.42185	0.0484796	
1.7824	1.0009	0.0379014	
1.77827	1.52799	0.0453992	
1.77882	0.790258	0.0463657	
1.78175	0.371413	0.0534968	
1.78001	0.685217	0.0458628	
1.77864	1.21008	0.0479987	
1.77877	1.63641	0.0379493	
1.78207	0.896319	0.0378578	
1.77449	1.85784	0.0589001	
1.78386	0.160295	0.054574	
1.7847	0.0535702	0.0543385	
1.78252	0.475906	0.0484296	
1.78308	0.580358	0.043233	
1.7846	-0.0535671	0.0545674	
1.77961	-1.10425	0.0458254	
1.77853	-1.31634	0.04646	
1.77974	-0.685111	0.0478117	
1.77759	-1.74739	0.04117	
1.7829	-0.265452	0.0551494	
1.77833	-1.42205	0.0465028	
1.78283	-1.00084	0.0374321	
1.77877	-1.52855	0.0423623	
1.77834	-0.790039	0.0485269	
1.78191	-0.371414	0.0530696	
1.77914	-1.21013	0.0474748	
1.77976	-1.63789	0.0334016	
1.78329	-0.896349	0.0366686	
1.77232	-1.84917	0.0764285	
1.78378	-0.160299	0.0547508	
1.76557	-1.93406	0.136075	
1.78291	-0.475894	0.0476903	
1.78373	-0.580326	0.0425849	
1.66587	1.94398	0.0942323	
1.67395	1.10456	0.0240138	
1.6731	1.31682	0.0260347	
1.67179	1.74436	0.0270763	
1.6772	0.265684	0.0306438	
1.67331	1.42252	0.0279359	
1.67605	1.00097	0.0167216	
1.6736	1.52858	0.0260767	
1.67332	0.790486	0.025083	
1.67615	0.371758	0.0291417	
1.67403	0.685528	0.0235366	
1.67343	1.2106	0.0257107	
1.67346	1.63642	0.0202302	
1.67532	0.896399	0.0174729	
1.6709	1.85598	0.039378	
1.67767	0.160429	0.0304965	
1.67907	0.0535766	0.0294331	
1.67636	0.476298	0.0252648	
1.67637	0.580698	0.0209863	
1.67901	-0.0535807	0.0296826	
1.67407	-1.10454	0.0238753	
1.67345	-1.31697	0.0250983	
1.67402	-0.685425	0.0251878	
1.67287	-1.74653	0.0231351	
1.67733	-0.265648	0.0304308	
1.6735	-1.42272	0.0262127	
1.67636	-1.00093	0.0163231	
1.67399	-1.52909	0.0233854	
1.67324	-0.790331	0.026463	
1.6763	-0.371757	0.0287319	
1.67394	-1.21058	0.0252815	
1.67418	-1.63771	0.0157986	
1.67584	-0.896308	0.0170466	
1.66958	-1.84923	0.0554352	
1.67761	-0.160431	0.0306876	
1.66532	-1.93847	0.110294	
1.67666	-0.476278	0.0245831	
1.67693	-0.580636	0.0202863	
1.56466	1.94682	0.069937	
1.5675	1.10448	0.0103462	
1.56726	1.31665	0.0113926	
1.56763	1.74256	0.014058	
1.57076	0.265964	0.0136691	
1.56799	1.42238	0.013665	
1.56936	1.00066	0.00386852	
1.56813	1.52799	0.0134053	
1.5679	0.790379	0.0107879	
1.56936	0.371919	0.0135981	
1.56834	0.685539	0.00873165	
1.56742	1.2107	0.0106485	
1.56854	1.63511	0.00803721	
1.56919	0.896199	0.00403285	
1.56721	1.85212	0.0238598	
1.57115	0.160727	0.0134878	
1.57153	0.0536861	0.0134257	
1.5694	0.476469	0.0102119	
1.56917	0.580735	0.00746376	
1.5715	-0.0536897	0.0136578	
1.56795	-1.10451	0.0101726	
1.56766	-1.31679	0.0106999	
1.56844	-0.685475	0.010024	
1.56811	-1.74396	0.010557	
1.57087	-0.265922	0.0134917	
1.56817	-1.42255	0.0123295	
1.56956	-1.00057	0.00414112	
1.56846	-1.52842	0.0112753	
1.56797	-0.790222	0.0123511	
1.56949	-0.371911	0.013258	
1.56783	-1.21075	0.0103433	
1.56908	-1.63607	0.00441772	
1.56971	-0.896103	0.00366377	
1.5666	-1.84797	0.0371181	
1.57112	-0.160729	0.0136763	
1.56445	-1.94322	0.08318	
1.56961	-0.476434	0.00966319	
1.56965	-0.580574	0.00683634	
1.46263	1.94892	0.0463003	
1.4626	1.1045	0.00235131	
1.46256	1.31613	0.00329841	
1.46397	1.73979	0.00584053	
1.46444	0.265824	0.00401273	
1.46304	1.42146	0.00579462	
1.46315	1.00017	-0.00100285	
1.46362	1.52674	0.00494783	
1.46351	0.790276	0.00275766	
1.46379	0.371393	0.00401129	
1.46299	0.684934	0.00105275	
1.46334	1.21066	0.00242291	
1.464	1.63294	0.00138315	
1.46356	0.896	-0.0021697	
1.46364	1.84748	0.0124801	
1.46458	0.160272	0.0038333	
1.46494	0.0537415	0.00373664	
1.46329	0.476168	0.00354505	
1.46327	0.580341	-7.38467e-07	
1.46493	-0.0537439	0.00391547	
1.46296	-1.10449	0.00285001	
1.46285	-1.31624	0.00286269	
1.46325	-0.684828	0.00189889	
1.46418	-1.74042	0.00323728	
1.46465	-0.265697	0.00389156	
1.46312	-1.42154	0.00491541	
1.4635	-1.00012	-0.0012574	
1.4639	-1.52701	0.0035437	
1.46376	-0.790129	0.00380568	
1.4639	-0.371378	0.00378091	
1.46364	-1.21069	0.00224392	
1.46423	-1.6334	-0.00107797	
1.46391	-0.89599	-0.00245229	
1.4635	-1.84593	0.0216184	
1.46457	-0.160273	0.00398234	
1.46263	-1.94729	0.0554532	
1.46349	-0.476085	0.00313779	
1.46352	-0.58027	-0.000464881	
1.36092	1.95001	0.0206849	
1.36032	1.10408	0.00126816	
1.36067	1.31606	0.00215855	
1.36007	1.7372	0.0022553	
1.36104	0.265202	0.00221601	
1.36031	1.42118	0.00255576	
1.36017	1.00033	-0.000347996	
1.36056	1.52588	0.00161423	
1.36049	0.790209	0.00177509	
1.36043	0.371235	0.00263072	
1.36052	0.684693	0.000839682	
1.3608	1.21015	0.000964106	
1.36035	1.63124	0.000189355	
1.36025	0.895998	-0.000512043	
1.3606	1.84356	0.0054221	
1.36134	0.159647	0.00254694	
1.36151	0.0537875	0.00237142	
1.36049	0.47565	0.00203781	
1.36044	0.579663	0.000322576	
1.36151	-0.05379	0.00245294	
1.36053	-1.10415	0.00120529	
1.36082	-1.31613	0.00198845	
1.36073	-0.684734	0.00113646	
1.36013	-1.73731	0.00113148	
1.36105	-0.2652	0.0021678	
1.36045	-1.42126	0.00215974	
1.36034	-1.00033	-0.000437385	
1.36067	-1.52597	0.00101277	
1.3608	-0.790095	0.00220107	
1.36062	-0.371195	0.00252525	
1.36086	-1.21012	0.00126231	
1.36043	-1.63136	-0.000839846	
1.36041	-0.895975	-0.000560102	
1.36061	-1.84357	0.00931325	
1.36134	-0.159645	0.0026165	
1.36097	-1.94976	0.0247519	
1.36069	-0.475638	0.00185122	
1.3607	-0.579629	9.78689e-05	
1.2602	1.94667	3.49507e-06	
1.2602	1.10408	-3.48466e-05	
1.2602	1.31564	-0.000166556	
1.2602	1.73535	1.80271e-05	
1.2602	0.264648	-3.1728e-05	
1.2602	1.42085	-6.71897e-05	
1.2602	1	0.000149944	
1.2602	1.52507	7.16614e-05	
1.2602	0.790149	0.000185923	
1.2602	0.370241	-4.04786e-05	
1.2602	0.68436	0.000165193	
1.2602	1.20985	-7.96293e-05	
1.2602	1.62976	4.75234e-05	
1.2602	0.89592	0.000331057	
1.2602	1.84074	7.7572e-06	
1.2602	0.15926	-9.30579e-06	
1.2602	0.0533282	-2.06975e-06	
1.2602	0.474927	0.00011447	
1.2602	0.579147	0.000275008	
1.2602	-0.0533282	-4.07039e-06	
1.2602	-1.10408	-4.68344e-05	
1.2602	-1.31564	-0.000167835	
1.2602	-0.68436	0.000133222	
1.2602	-1.73535	1.79762e-05	
1.2602	-0.264648	-3.17372e-05	
1.2602	-1.42085	-6.72209e-05	
1.2602	-1	0.000143041	
1.2602	-1.52507	7.16446e-05	
1.2602	-0.790149	0.000153995	
1.2602	-0.370241	-4.05135e-05	
1.2602	-1.20985	-8.66568e-05	
1.2602	-1.62976	4.74834e-05	
1.2602	-0.89592	0.000330175	
1.2602	-1.84074	4.97966e-06	
1.2602	-0.15926	-1.13074e-05	
1.2602	-1.94667	7.40128e-07	
1.2602	-0.474927	0.000114297	
1.2602	-0.579147	0.000274628	
				</DataArray>
			</Points>
			<Cells>
				<DataArray type="Int32" Name="connectivity" Format="ascii">
0	
1	
2	
3	
4	
5	
6	
7	
8	
9	
10	
11	
12	
13	
14	
15	
16	
17	
18	
19	
20	
21	
22	
23	
24	
25	
26	
27	
28	
29	
30	
31	
32	
33	
34	
35	
36	
37	
38	
39	
40	
41	
42	
43	
44	
45	
46	
47	
48	
49	
50	
51	
52	
53	
54	
55	
56	
57	
58	
59	
60	
61	
62	
63	
64	
65	
66	
67	
68	
69	
70	
71	
72	
73	
74	
75	
76	
77	
78	
79	
80	
81	
82	
83	
84	
85	
86	
87	
88	
89	
90	
91	
92	
93	
94	
95	
96	
97	
98	
99	
100	
101	
102	
103	
104	
105	
106	
107	
108	
109	
110	
111	
112	
113	
114	
115	
116	
117	
118	
119	
120	
121	
122	
123	
124	
125	
126	
127	
128	
129	
130	
131	
132	
133	
134	
135	
136	
137	
138	
139	
140	
141	
142	
143	
144	
145	
146	
147	
148	
149	
150	
151	
152	
153	
154	
155	
156	
157	
158	
159	
160	
161	
162	
163	
164	
165	
166	
167	
168	
169	
170	
171	
172	
173	
174	
175	
176	
177	
178	
179	
180	
181	
182	
183	
184	
185	
186	
187	
188	
189	
190	
191	
192	
193	
194	
195	
196	
197	
198	
199	
200	
201	
202	
203	
204	
205	
206	
207	
208	
209	
210	
211	
212	
213	
214	
215	
216	
217	
218	
219	
220	
221	
222	
223	
224	
225	
226	
227	
228	
229	
230	
231	
232	
233	
234	
235	
236	
237	
238	
239	
240	
241	
242	
243	
244	
245	
246	
247	
248	
249	
250	
251	
252	
253	
254	
255	
256	
257	
258	
259	
260	
261	
262	
263	
264	
265	
266	
267	
268	
269	
270	
271	
272	
273	
274	
275	
276	
277	
278	
279	
280	
281	
282	
283	
284	
285	
286	
287	
288	
289	
290	
291	
292	
293	
294	
295	
296	
297	
298	
299	
300	
301	
302	
303	
304	
305	
306	
307	
308	
309	
310	
311	
312	
313	
314	
315	
316	
317	
318	
319	
320	
321	
322	
323	
324	
325	
326	
327	
328	
329	
330	
331	
332	
333	
334	
335	
336	
337	
338	
339	
340	
341	
342	
343	
344	
345	
346	
347	
348	
349	
350	
351	
352	
353	
354	
355	
356	
357	
358	
359	
360	
361	
362	
363	
364	
365	
366	
367	
368	
369	
370	
371	
372	
373	
374	
375	
376	
377	
378	
379	
380	
381	
382	
383	
384	
385	
386	
387	
388	
389	
390	
391	
392	
393	
394	
395	
396	
397	
398	
399	
400	
401	
402	
403	
404	
405	
406	
407	
408	
409	
410	
411	
412	
413	
414	
415	
416	
417	
				</DataArray>
				<DataArray type="Int32" Name="offsets" Format="ascii">
1	
2	
3	
4	
5	
6	
7	
8	
9	
10	
11	
12	
13	
14	
15	
16	
17	
18	
19	
20	
21	
22	
23	
24	
25	
26	
27	
28	
29	
30	
31	
32	
33	
34	
35	
36	
37	
38	
39	
40	
41	
42	
43	
44	
45	
46	
47	
48	
49	
50	
51	
52	
53	
54	
55	
56	
57	
58	
59	
60	
61	
62	
63	
64	
65	
66	
67	
68	
69	
70	
71	
72	
73	