<VTKFile type="UnstructuredGrid" version="0.1" byte_order="LittleEndian">
	<UnstructuredGrid>
		<Piece NumberOfPoints="38" NumberOfCells="38">
			<CellData Scalars="scalars">
				<DataArray type="Float64" Name="Strength" NumberOfComponents="3" Format="ascii">
0.00503254	-0.00364391	2.59747e-07	
0.000776813	-0.00782195	1.432e-07	
0.000488106	-0.00660004	4.25323e-06	
0.00160009	-0.00601117	1.02597e-06	
9.25767e-05	-0.00810603	1.96951e-06	
-0.000538061	-0.00672156	-1.49126e-05	
0.00116611	-0.00782341	2.3811e-05	
0.000588328	-0.0071986	6.80358e-07	
-0.000580552	-0.00831951	-1.91801e-05	
-0.000308243	-0.00800471	-8.61899e-07	
0.000688866	-0.00866988	1.68763e-05	
1.43972e-09	-0.00729186	4.70445e-06	
-3.60753e-10	-0.00673051	1.97518e-06	
2.79776e-10	-0.00925659	-2.19894e-07	
-3.35e-13	-0.00508703	1.12369e-08	
2.80146e-06	-0.00806729	7.65709e-07	
1.54976e-07	-0.00818133	1.22083e-07	
-0.0010257	-0.00817117	-1.96207e-05	
1.95096e-09	-0.0092756	-1.8459e-06	
-2.50301e-06	-0.00818149	-3.67567e-07	
-0.000777224	-0.00773317	-5.46854e-08	
-0.000455806	-0.006579	-4.13237e-06	
-0.00104568	-0.00868062	-2.09965e-05	
-0.00159969	-0.00600917	-1.02509e-06	
-9.15621e-05	-0.00810656	-1.97071e-06	
0.000539806	-0.00671905	1.49101e-05	
-0.00118961	-0.00778957	-2.44097e-05	
-0.000589308	-0.00719785	-6.81533e-07	
0.000922102	-0.00831882	2.31891e-05	
0.000309571	-0.0080062	8.596e-07	
-1.39385e-09	-0.00725648	-4.18523e-06	
3.60612e-10	-0.00672875	-1.97607e-06	
-1.89762e-10	-0.00924553	1.49544e-07	
-0.00147613	-0.00508568	-2.34283e-07	
-2.2616e-11	-0.00806775	-5.20427e-07	
-0.00355508	-0.00364309	-6.60552e-08	
0.00102728	-0.00817396	1.96124e-05	
-1.93595e-09	-0.00928	1.83423e-06	
				</DataArray>
			</CellData>
			<Points>
				<DataArray type="Float64" Name="Position" NumberOfComponents="3" Format="ascii">
1.2602	1.94667	3.49507e-06	
1.2602	1.10408	-3.48466e-05	
1.2602	1.31564	-0.000166556	
1.2602	1.73535	1.80271e-05	
1.2602	0.264648	-3.1728e-05	
1.2602	1.42085	-6.71897e-05	
1.2602	1	0.000149944	
1.2602	1.52507	7.16615e-05	
1.2602	0.790149	0.000185923	
1.2602	0.370241	-4.04786e-05	
1.2602	0.68436	0.000165193	
1.2602	1.20985	-7.96293e-05	
1.2602	1.62976	4.75234e-05	
1.2602	0.89592	0.000331057	
1.2602	1.84074	7.7572e-06	
1.2602	0.15926	-9.30579e-06	
1.2602	0.0533282	-2.06975e-06	
1.2602	0.474927	0.00011447	
1.2602	0.579147	0.000275008	
1.2602	-0.0533282	-4.07039e-06	
1.2602	-1.10408	-4.68344e-05	
1.2602	-1.31564	-0.000167835	
1.2602	-0.68436	0.000133222	
1.2602	-1.73535	1.79762e-05	
1.2602	-0.264648	-3.17372e-05	
1.2602	-1.42085	-6.72209e-05	
1.2602	-1	0.000143041	
1.2602	-1.52507	7.16446e-05	
1.2602	-0.790149	0.000153995	
1.2602	-0.370241	-4.05135e-05	
1.2602	-1.20985	-8.66568e-05	
1.2602	-1.62976	4.74834e-05	
1.2602	-0.89592	0.000330175	
1.2602	-1.84074	4.97966e-06	
1.2602	-0.15926	-1.13074e-05	
1.2602	-1.94667	7.40128e-07	
1.2602	-0.474927	0.000114297	
1.2602	-0.579147	0.000274628	
				</DataArray>
			</Points>
			<Cells>
				<DataArray type="Int32" Name="connectivity" Format="ascii">
0	
1	
2	
3	
4	
5	
6	
7	
8	
9	
10	
11	
12	
13	
14	
15	
16	
17	
18	
19	
20	
21	
22	
23	
24	
25	
26	
27	
28	
29	
30	
31	
32	
33	
34	
35	
36	
37	
				</DataArray>
				<DataArray type="Int32" Name="offsets" Format="ascii">
1	
2	
3	
4	
5	
6	
7	
8	
9	
10	
11	
12	
13	
14	
15	
16	
17	
18	
19	
20	
21	
22	
23	
24	
25	
26	
27	
28	
29	
30	
31	
32	
33	
34	
35	
36	
37	
38	
				</DataArray>
				<DataArray type="Int32" Name="types" Format="ascii">
1	
1	
1	
1	
1	
1	
1	
1	
1	
1	
1	
1	
1	
1	
1	
1	
1	
1	
1	
1	
1	
1	
1	
1	
1	
1	
1	
1	
1	
1	
1	
1	
1	
1	
1	
1	
1	
1	
				</DataArray>
			</Cells>
		</Piece>
	</UnstructuredGrid>
</VTKFile>
