<VTKFile type="UnstructuredGrid" version="0.1" byte_order="LittleEndian">
	<UnstructuredGrid>
		<Piece NumberOfPoints="342" NumberOfCells="342">
			<CellData Scalars="scalars">
				<DataArray type="Float64" Name="Strength" NumberOfComponents="3" Format="ascii">
0.00503251	-0.0036439	2.59746e-07	
0.000776786	-0.00782196	1.43204e-07	
0.000488137	-0.00660014	4.25326e-06	
0.00160011	-0.00601116	1.02597e-06	
9.24734e-05	-0.00810609	1.96953e-06	
-0.000538076	-0.00672158	-1.49127e-05	
0.0011661	-0.00782343	2.3811e-05	
0.00058836	-0.00719863	6.80368e-07	
-0.000580666	-0.00831945	-1.91801e-05	
-0.000308181	-0.0080048	-8.61917e-07	
0.00068892	-0.00866977	1.68762e-05	
1.43973e-09	-0.00729191	4.70448e-06	
-3.60752e-10	-0.00673051	1.97518e-06	
2.79776e-10	-0.0092566	-2.19894e-07	
-3.34998e-13	-0.005087	1.12368e-08	
2.77075e-06	-0.00806727	7.65708e-07	
1.55457e-07	-0.00818128	1.22082e-07	
-0.00102562	-0.00817119	-1.96206e-05	
1.95095e-09	-0.00927555	-1.84589e-06	
-2.51726e-06	-0.00818144	-3.67564e-07	
-0.000777156	-0.00773318	-5.46977e-08	
-0.000455789	-0.00657905	-4.13242e-06	
-0.00104563	-0.00868063	-2.09965e-05	
-0.00159973	-0.00600915	-1.02509e-06	
-9.16015e-05	-0.00810648	-1.97069e-06	
0.000539702	-0.00671911	1.49102e-05	
-0.00118961	-0.00778955	-2.44097e-05	
-0.000589284	-0.00719781	-6.81524e-07	
0.000922058	-0.00831884	2.31891e-05	
0.000309631	-0.0080061	8.59581e-07	
-1.39386e-09	-0.00725653	-4.18526e-06	
3.60611e-10	-0.00672873	-1.97607e-06	
-1.89761e-10	-0.00924551	1.49544e-07	
-0.00147606	-0.00508563	-2.3428e-07	
-2.26158e-11	-0.00806769	-5.20423e-07	
-0.00355509	-0.00364311	-6.60555e-08	
0.00102729	-0.00817392	1.96124e-05	
-1.93594e-09	-0.00927997	1.83423e-06	
0.00587241	-0.00056685	7.67753e-08	
0.000909214	-0.00162729	-7.1725e-08	
0.00066467	-0.00146684	7.13505e-07	
0.00198284	-0.00104916	2.90833e-07	
8.82899e-05	-0.00184996	4.40319e-07	
-0.000470663	-0.00139381	-3.19782e-06	
0.00121149	-0.00166823	6.30819e-06	
0.000684119	-0.0013143	2.72484e-07	
-0.000529471	-0.00183274	-5.02424e-06	
-0.00030108	-0.00188959	-1.74461e-07	
0.000733286	-0.00182	4.19435e-06	
3.13667e-10	-0.00158866	1.02495e-06	
-6.64992e-11	-0.00124067	3.64094e-07	
5.34182e-11	-0.00176738	-4.19847e-08	
-5.59089e-14	-0.000848986	1.87535e-09	
2.18581e-05	-0.00187805	1.78005e-07	
1.0294e-07	-0.00192349	2.87023e-08	
-0.00100631	-0.00184927	-5.21998e-06	
3.88341e-10	-0.00184632	-3.67429e-07	
-2.17772e-05	-0.00192343	-8.58379e-08	
-0.000905309	-0.00161618	1.22846e-07	
-0.000626292	-0.00146247	-7.01031e-07	
-0.00108324	-0.00181803	-5.02372e-06	
-0.00198143	-0.00104803	-2.9014e-07	
-8.74425e-05	-0.00184945	-4.40588e-07	
0.00047066	-0.00139154	3.19332e-06	
-0.00123495	-0.00165586	-6.4391e-06	
-0.000683075	-0.00131042	-2.72051e-07	
0.00085038	-0.00182954	5.919e-06	
0.000303352	-0.00188934	1.73554e-07	
-3.03537e-10	-0.00158023	-9.1141e-07	
6.63861e-11	-0.00123872	-3.63781e-07	
-3.60119e-11	-0.00175456	2.83796e-08	
-0.00176244	-0.000848083	-5.13352e-08	
-5.26401e-12	-0.00187782	-1.21133e-07	
-0.00410771	-0.000566295	-1.73253e-09	
0.00100852	-0.00184984	5.21897e-06	
-3.85403e-10	-0.00184744	3.65154e-07	
0.0105407	-0.00331362	2.80659e-07	
0.00137494	-0.008229	7.58724e-08	
0.00127007	-0.0076894	4.47844e-06	
0.00360771	-0.00570732	1.10683e-06	
0.000100279	-0.00891654	2.16833e-06	
-7.63251e-05	-0.00726646	-1.59731e-05	
0.00138054	-0.00816595	2.50624e-05	
0.00122127	-0.00680918	8.14459e-07	
-0.000305077	-0.00871607	-1.98096e-05	
-0.000297793	-0.00888571	-9.62396e-07	
0.000780253	-0.00882824	1.72718e-05	
1.57204e-09	-0.00796203	5.13682e-06	
-3.42289e-10	-0.00638604	1.87409e-06	
2.59851e-10	-0.00859735	-2.04233e-07	
-3.10753e-13	-0.00471884	1.04236e-08	
1.05121e-05	-0.00886341	8.41186e-07	
5.56507e-08	-0.00897393	1.33911e-07	
-0.000989321	-0.0087261	-2.08464e-05	
1.84814e-09	-0.00878675	-1.74862e-06	
-1.05465e-05	-0.00897388	-4.02954e-07	
-0.00137059	-0.00822201	3.99435e-08	
-0.00122353	-0.00767276	-4.34898e-06	
-0.00125166	-0.00883976	-2.14554e-05	
-0.00360576	-0.00570519	-1.10544e-06	
-9.89901e-05	-0.00891596	-2.1695e-06	
7.66336e-05	-0.00726495	1.59725e-05	
-0.00140745	-0.00815599	-2.5764e-05	
-0.00122121	-0.00680799	-8.15216e-07	
0.000736125	-0.00871691	2.40077e-05	
0.000301828	-0.00888599	9.59373e-07	
-1.52749e-09	-0.0079522	-4.58649e-06	
3.42127e-10	-0.00638383	-1.87478e-06	
-1.76319e-10	-0.00859057	1.3895e-07	
-0.00319656	-0.00471718	-2.3209e-07	
-2.4846e-11	-0.00886325	-5.71742e-07	
-0.00734025	-0.00331256	-5.02001e-08	
0.000994133	-0.00872814	2.08387e-05	
-1.83403e-09	-0.00879143	1.73766e-06	
0.0130368	-0.00175605	2.03261e-07	
0.00162377	-0.00454903	-7.47477e-08	
0.00166438	-0.00422873	1.90939e-06	
0.0045452	-0.003065	7.619e-07	
0.000134329	-0.00506218	1.22117e-06	
0.000154272	-0.00398939	-8.71185e-06	
0.00146647	-0.00453743	1.482e-05	
0.00152348	-0.00372428	6.65414e-07	
-0.000170316	-0.00486866	-1.13351e-05	
-0.0002588	-0.00506518	-5.37291e-07	
0.000848683	-0.00490753	1.00606e-05	
8.75504e-10	-0.00443424	2.86082e-06	
-1.86757e-10	-0.0034843	1.02253e-06	
1.44141e-10	-0.00476899	-1.13289e-07	
-1.6616e-13	-0.00252317	5.57351e-09	
2.92795e-05	-0.00507999	4.81844e-07	
-4.96774e-09	-0.00516922	7.71364e-08	
-0.000935482	-0.0049372	-1.21731e-05	
1.03631e-09	-0.00492703	-9.80508e-07	
-2.95005e-05	-0.00516916	-2.31475e-07	
-0.00161491	-0.00454186	1.77004e-07	
-0.00161191	-0.00422211	-1.85346e-06	
-0.00136645	-0.00491091	-1.23524e-05	
-0.0045426	-0.00306382	-7.60532e-07	
-0.000132747	-0.00506156	-1.222e-06	
-0.000156335	-0.00398895	8.71174e-06	
-0.00149307	-0.00452673	-1.52058e-05	
-0.0015223	-0.00372149	-6.65287e-07	
0.000633204	-0.00486793	1.3688e-05	
0.000264404	-0.00506523	5.35116e-07	
-8.50506e-10	-0.00442778	-2.55376e-06	
1.86642e-10	-0.00348261	-1.02276e-06	
-9.76491e-11	-0.00475764	7.69535e-08	
-0.00397871	-0.00252214	-1.42452e-07	
-1.42398e-11	-0.00507974	-3.27679e-07	
-0.00905322	-0.00175539	-1.4205e-08	
0.000942023	-0.00493881	1.21733e-05	
-1.02855e-09	-0.00493039	9.74513e-07	
0.0161201	-0.00213401	2.50904e-07	
0.00200592	-0.005996	-7.98865e-08	
0.00223469	-0.00551887	2.40404e-06	
0.00581168	-0.0038454	9.63586e-07	
0.000186728	-0.00676528	1.63315e-06	
0.000498522	-0.00516441	-1.119e-05	
0.00160598	-0.00599189	1.9148e-05	
0.00196424	-0.00477562	8.56003e-07	
4.20364e-05	-0.00645869	-1.46137e-05	
-0.000208707	-0.0067474	-7.33013e-07	
0.000942491	-0.00654203	1.32023e-05	
1.14539e-09	-0.00580118	3.74271e-06	
-2.36583e-10	-0.00441389	1.29533e-06	
1.91144e-10	-0.00632414	-1.50232e-07	
-2.0524e-13	-0.00311661	6.88437e-09	
4.59247e-05	-0.00677424	6.42465e-07	
2.36159e-08	-0.00688465	1.02734e-07	
-0.000869134	-0.00657875	-1.58406e-05	
1.38202e-09	-0.00657063	-1.3076e-06	
-4.61433e-05	-0.00688468	-3.08109e-07	
-0.00199478	-0.00599005	2.08836e-07	
-0.00217604	-0.00550974	-2.32594e-06	
-0.00155085	-0.00655071	-1.62739e-05	
-0.00580887	-0.00384436	-9.61947e-07	
-0.000184396	-0.00676511	-1.63444e-06	
-0.000501828	-0.00516475	1.11917e-05	
-0.00163436	-0.00598389	-1.96686e-05	
-0.00196325	-0.00477472	-8.56173e-07	
0.000500057	-0.00646056	1.77358e-05	
0.000216165	-0.0067482	7.30226e-07	
-1.11317e-09	-0.00579522	-3.34244e-06	
2.36492e-10	-0.00441277	-1.29592e-06	
-1.29669e-10	-0.00631769	1.02187e-07	
-0.00497916	-0.00311569	-1.76496e-07	
-1.899e-11	-0.00677427	-4.36988e-07	
-0.0111351	-0.00213341	-1.69465e-08	
0.000878078	-0.00658138	1.58425e-05	
-1.37179e-09	-0.0065757	1.29972e-06	
0.0185334	-0.00167609	2.41468e-07	
0.00230416	-0.00467182	-1.6205e-07	
0.00268739	-0.00429627	1.29466e-06	
0.00679417	-0.00300135	8.97906e-07	
0.000238526	-0.00532024	1.27413e-06	
0.000763791	-0.00402249	-8.60548e-06	
0.00171399	-0.00467594	1.55316e-05	
0.00230247	-0.00372252	8.65555e-07	
0.000214847	-0.00505034	-1.14093e-05	
-0.000158258	-0.00530988	-5.77606e-07	
0.00102768	-0.0051116	1.0638e-05	
8.93834e-10	-0.00452708	2.92071e-06	
-1.84703e-10	-0.00344597	1.01128e-06	
1.49138e-10	-0.00493434	-1.17217e-07	
-1.60649e-13	-0.00243949	5.38867e-09	
6.7081e-05	-0.00534168	5.06238e-07	
2.90012e-08	-0.00543697	8.11317e-08	
-0.000803227	-0.00516617	-1.25608e-05	
1.08235e-09	-0.0051459	-1.02407e-06	
-6.7353e-05	-0.00543697	-2.42481e-07	
-0.00228963	-0.00466589	2.95419e-07	
-0.00262325	-0.00428968	-1.24352e-06	
-0.0017039	-0.005117	-1.30129e-05	
-0.00679107	-0.00300053	-8.9612e-07	
-0.000235642	-0.00531997	-1.27536e-06	
-0.000768796	-0.00402273	8.60601e-06	
-0.00174292	-0.00466744	-1.59375e-05	
-0.00230105	-0.00372106	-8.65387e-07	
0.000383044	-0.00505094	1.38561e-05	
0.000167308	-0.00531039	5.74997e-07	
-8.68555e-10	-0.00452175	-2.60795e-06	
1.84623e-10	-0.00344492	-1.01169e-06	
-1.01107e-10	-0.00492612	7.96787e-08	
-0.00575666	-0.00243875	-1.5319e-07	
-1.4974e-11	-0.00534163	-3.44573e-07	
-0.0127702	-0.00167561	-3.64759e-09	
0.00081404	-0.00516826	1.25661e-05	
-1.07435e-09	-0.00514989	1.0179e-06	
0.0208387	-0.00158929	2.5447e-07	
0.00262907	-0.00462614	-2.07039e-07	
0.0031653	-0.00422313	9.3827e-07	
0.00777502	-0.00288738	9.44413e-07	
0.000296267	-0.00533993	1.2732e-06	
0.00104183	-0.0039359	-8.33374e-06	
0.00183476	-0.00464226	1.55899e-05	
0.00265155	-0.00362397	9.48057e-07	
0.000407864	-0.00503689	-1.12201e-05	
-0.000104276	-0.00532342	-5.85985e-07	
0.00112019	-0.00511033	1.0738e-05	
8.81612e-10	-0.00446518	2.88078e-06	
-1.78735e-10	-0.00333464	9.78605e-07	
1.4848e-10	-0.00491256	-1.167e-07	
-1.53456e-13	-0.00233025	5.14737e-09	
8.79949e-05	-0.00536116	5.07842e-07	
8.22841e-08	-0.00545647	8.14225e-08	
-0.000733591	-0.00517594	-1.25129e-05	
1.08364e-09	-0.00515201	-1.02528e-06	
-8.82264e-05	-0.00545653	-2.42793e-07	
-0.00261198	-0.00462093	3.54604e-07	
-0.00309602	-0.00421663	-8.90967e-07	
-0.00187579	-0.00511683	-1.31058e-05	
-0.00777177	-0.00288675	-9.42455e-07	
-0.000292677	-0.00533991	-1.27464e-06	
-0.00104814	-0.00393637	8.33438e-06	
-0.0018648	-0.00463515	-1.59977e-05	
-0.00265002	-0.00362314	-9.4786e-07	
0.000258991	-0.0050383	1.36657e-05	
0.000114907	-0.00532423	5.83217e-07	
-8.56779e-10	-0.00446044	-2.57259e-06	
1.78673e-10	-0.0033339	-9.79086e-07	
-1.00701e-10	-0.00490635	7.93589e-08	
-0.00651085	-0.00232967	-1.54522e-07	
-1.5029e-11	-0.00536126	-3.45839e-07	
-0.0143207	-0.00158891	1.85017e-09	
0.000746331	-0.00517831	1.25208e-05	
-1.07569e-09	-0.00515635	1.01917e-06	
0.0227091	-0.00128645	2.50757e-07	
0.00290336	-0.00379397	-2.70284e-07	
0.00356918	-0.00345341	1.64268e-07	
0.00858326	-0.00234646	9.14379e-07	
0.000349268	-0.00441864	1.04239e-06	
0.00127228	-0.00321529	-6.68423e-06	
0.00193726	-0.00381432	1.33588e-05	
0.00293932	-0.00295716	9.73031e-07	
0.000574365	-0.00414955	-9.1531e-06	
-5.40835e-05	-0.00440662	-4.89161e-07	
0.00120421	-0.00421026	9.15815e-06	
7.22905e-10	-0.00366136	2.36218e-06	
-1.45689e-10	-0.00271809	7.9767e-07	
1.22099e-10	-0.00403972	-9.5965e-08	
-1.24502e-13	-0.00189058	4.17617e-09	
0.000109086	-0.00444312	4.20454e-07	
1.16029e-07	-0.00452596	6.75371e-08	
-0.000669231	-0.00427905	-1.04079e-05	
8.94425e-10	-0.00425244	-8.46261e-07	
-0.00010931	-0.004526	-2.00407e-07	
-0.00288361	-0.00378882	4.24535e-07	
-0.00349535	-0.00344804	-1.33967e-07	
-0.00202579	-0.00421504	-1.10859e-05	
-0.00857978	-0.00234587	-9.12275e-07	
-0.000345126	-0.00441854	-1.04383e-06	
-0.00127985	-0.00321549	6.68365e-06	
-0.00196801	-0.00380741	-1.36962e-05	
-0.0029375	-0.00295611	-9.72615e-07	
0.000148683	-0.00415026	1.11752e-05	
6.60486e-05	-0.00440722	4.86465e-07	
-7.02439e-10	-0.00365694	-2.10917e-06	
1.45629e-10	-0.00271733	-7.98015e-07	
-8.27826e-11	-0.00403332	6.52378e-08	
-0.00712563	-0.00189004	-1.40276e-07	
-1.24553e-11	-0.00444316	-2.86615e-07	
-0.0155758	-0.00128609	1.10633e-08	
0.000683532	-0.00428097	1.0418e-05	
-8.87855e-10	-0.00425594	8.41206e-07	
0.0242547	-0.00105486	2.49098e-07	
0.003158	-0.00324744	-3.21776e-07	
0.00393716	-0.00293385	-4.18775e-07	
0.00928178	-0.00195245	8.99982e-07	
0.000400575	-0.00384031	8.958e-07	
0.00147858	-0.00272046	-5.53742e-06	
0.00203428	-0.00327536	1.19452e-05	
0.00319367	-0.00249078	1.00414e-06	
0.0007325	-0.00358133	-7.78649e-06	
-6.04401e-06	-0.00382808	-4.30139e-07	
0.00128495	-0.0036399	8.18747e-06	
6.16924e-10	-0.00312459	2.01587e-06	
-1.22062e-10	-0.00227729	6.68309e-07	
1.05123e-10	-0.00347805	-8.26225e-08	
-1.02889e-13	-0.00156239	3.45121e-09	
0.000129246	-0.00386511	3.65352e-07	
1.60346e-07	-0.00393904	5.87786e-08	
-0.000608203	-0.00371284	-9.0584e-06	
7.74976e-10	-0.00368453	-7.33244e-07	
-0.000129438	-0.00393908	-1.73487e-07	
-0.00313606	-0.00324275	4.83765e-07	
-0.00385938	-0.00292916	4.37364e-07	
-0.00216958	-0.00364422	-9.83569e-06	
-0.00927811	-0.00195193	-8.97754e-07	
-0.000395908	-0.0038403	-8.97299e-07	
-0.00148713	-0.00272057	5.53617e-06	
-0.00206583	-0.00326941	-1.22394e-05	
-0.00319161	-0.0024899	-1.00358e-06	
4.52302e-05	-0.00358204	9.54011e-06	
1.91694e-05	-0.00382869	4.27468e-07	
-5.99431e-10	-0.00312067	-1.79987e-06	
1.22011e-10	-0.00227663	-6.68593e-07	
-7.12768e-11	-0.00347273	5.61705e-08	
-0.00764174	-0.00156193	-1.30106e-07	
-1.08351e-11	-0.00386519	-2.49332e-07	
-0.0166048	-0.00105456	1.82745e-08	
0.000623864	-0.00371459	9.07065e-06	
-7.69304e-10	-0.00368767	7.28884e-07	
				</DataArray>
			</CellData>
			<Points>
				<DataArray type="Float64" Name="Position" NumberOfComponents="3" Format="ascii">
2.07019	1.93758	0.196666	
2.05181	1.09881	0.221849	
2.05533	1.31075	0.216	
2.06686	1.72874	0.186885	
2.04947	0.265606	0.236431	
2.05841	1.41597	0.208817	
2.05307	0.995745	0.218671	
2.06179	1.51997	0.20006	
2.04946	0.788435	0.223461	
2.04803	0.371843	0.235719	
2.04942	0.683508	0.225078	
2.05365	1.20481	0.220112	
2.06459	1.62418	0.191724	
2.05335	0.893068	0.217528	
2.07037	1.83448	0.182868	
2.05031	0.16005	0.235731	
2.05047	0.0535938	0.236019	
2.04951	0.476216	0.22978	
2.05149	0.5795	0.223963	
2.05046	-0.0535598	0.236045	
2.05198	-1.09882	0.221583	
2.05549	-1.31074	0.215441	
2.04907	-0.683328	0.226317	
2.06756	-1.72822	0.185655	
2.04954	-0.265558	0.236335	
2.05854	-1.41587	0.207875	
2.05322	-0.995573	0.217833	
2.062	-1.5198	0.198798	
2.04915	-0.788486	0.224748	
2.04813	-0.371795	0.235461	
2.05388	-1.20481	0.219836	
2.06505	-1.6239	0.190001	
2.05382	-0.893091	0.217036	
2.06925	-1.83284	0.18975	
2.0503	-0.160034	0.235717	
2.06976	-1.9373	0.203671	
2.04972	-0.476114	0.229439	
2.05189	-0.579308	0.223706	
1.96877	1.93697	0.171528	
1.95732	1.09939	0.176514	
1.95881	1.31058	0.173293	
1.97044	1.73034	0.1454	
1.95537	0.265486	0.190208	
1.96264	1.41578	0.166089	
1.96086	0.9965	0.169418	
1.9669	1.52041	0.156362	
1.95802	0.788433	0.174049	
1.95412	0.371391	0.188849	
1.95809	0.683714	0.175443	
1.95807	1.205	0.176087	
1.96965	1.6253	0.147793	
1.9626	0.893519	0.167309	
1.97216	1.83707	0.145548	
1.95611	0.160073	0.189602	
1.95665	0.0536063	0.189657	
1.9576	0.475619	0.181023	
1.96063	0.579298	0.174062	
1.95661	-0.0535789	0.189712	
1.95742	-1.09935	0.176451	
1.95896	-1.31057	0.172686	
1.95761	-0.68358	0.176959	
1.9714	-1.73021	0.143432	
1.95547	-0.265439	0.190079	
1.96282	-1.41572	0.164921	
1.96109	-0.996483	0.169108	
1.96724	-1.52033	0.154646	
1.95752	-0.788407	0.175859	
1.95425	-0.371347	0.188585	
1.9582	-1.205	0.175925	
1.9704	-1.62527	0.145255	
1.9631	-0.893529	0.16707	
1.9705	-1.83435	0.15494	
1.95608	-0.160059	0.189611	
1.96799	-1.93574	0.181273	
1.95789	-0.475533	0.180582	
1.96112	-0.579158	0.173745	
1.86731	1.93829	0.146014	
1.8668	1.10121	0.129655	
1.86752	1.31216	0.127427	
1.87296	1.73408	0.106978	
1.86726	0.265318	0.141611	
1.86955	1.41739	0.122651	
1.87042	0.998259	0.122465	
1.87192	1.52246	0.115186	
1.86788	0.789023	0.127252	
1.86606	0.371085	0.140098	
1.86828	0.684177	0.127895	
1.86706	1.20666	0.129738	
1.87362	1.6282	0.107223	
1.87155	0.894539	0.120801	
1.87326	1.84224	0.110308	
1.86787	0.160096	0.141465	
1.86854	0.0535373	0.141295	
1.86854	0.4753	0.133075	
1.87075	0.579494	0.126909	
1.8685	-0.0535203	0.141361	
1.86688	-1.10121	0.129512	
1.86774	-1.31219	0.126751	
1.86784	-0.684073	0.129517	
1.87419	-1.73462	0.104265	
1.86735	-0.265278	0.141481	
1.86976	-1.41739	0.121307	
1.87073	-0.998229	0.122141	
1.87234	-1.52255	0.113146	
1.86753	-0.788948	0.128754	
1.8662	-0.37106	0.13981	
1.86732	-1.20667	0.129548	
1.87447	-1.62853	0.104025	
1.87197	-0.89442	0.119797	
1.87122	-1.8384	0.121901	
1.86783	-0.160087	0.141493	
1.86639	-1.93592	0.157878	
1.86886	-0.475252	0.132584	
1.87129	-0.579411	0.126568	
1.76727	1.94112	0.118619	
1.77456	1.10279	0.083606	
1.77419	1.31411	0.0827184	
1.7747	1.73781	0.0704545	
1.77645	0.265334	0.0933743	
1.77501	1.4195	0.0801832	
1.77727	0.999538	0.0767204	
1.77585	1.52484	0.0749625	
1.77479	0.789679	0.0818833	
1.77526	0.371084	0.0919863	
1.77547	0.684689	0.0821858	
1.77454	1.20837	0.0841335	
1.77653	1.63116	0.0680572	
1.77772	0.895414	0.0750375	
1.77377	1.84682	0.0768548	
1.77696	0.160145	0.0933494	
1.77762	0.0535435	0.093285	
1.77684	0.475503	0.0860998	
1.77773	0.579847	0.0807275	
1.77758	-0.053531	0.0933822	
1.77484	-1.1028	0.0834538	
1.77441	-1.31417	0.0819967	
1.77521	-0.684611	0.0837896	
1.77589	-1.73887	0.0674011	
1.77654	-0.265299	0.0932435	
1.77521	-1.41957	0.0787911	
1.77764	-0.999489	0.0763993	
1.77623	-1.52507	0.0727913	
1.77439	-0.789555	0.0837197	
1.7754	-0.371074	0.0917048	
1.77492	-1.2084	0.0838987	
1.77736	-1.63182	0.0645645	
1.77837	-0.895347	0.0747653	
1.772	-1.84263	0.0893963	
1.77692	-0.160144	0.093413	
1.76645	-1.93802	0.131299	
1.77712	-0.475476	0.0856098	
1.77823	-0.579789	0.0803723	
1.66596	1.94342	0.0945219	
1.67252	1.10357	0.051704	
1.67201	1.31529	0.0518764	
1.67151	1.7394	0.0455705	
1.67533	0.265489	0.0587503	
1.67272	1.42079	0.0511615	
1.67454	1.00002	0.0455837	
1.67303	1.52626	0.0476862	
1.67232	0.790109	0.0508752	
1.67398	0.371429	0.0577851	
1.67299	0.685106	0.0504581	
1.67236	1.20931	0.0527272	
1.6733	1.63268	0.0417622	
1.67459	0.895836	0.0444736	
1.67079	1.8483	0.052798	
1.67578	0.160264	0.0587038	
1.67657	0.0535422	0.058595	
1.67457	0.475906	0.0533358	
1.67491	0.580244	0.0487964	
1.67653	-0.0535369	0.0587259	
1.67274	-1.10359	0.0515477	
1.67227	-1.31538	0.0511882	
1.67274	-0.685014	0.0521009	
1.67252	-1.74061	0.0424239	
1.67542	-0.265454	0.058632	
1.67291	-1.4209	0.0498456	
1.67482	-0.999986	0.0452897	
1.6734	-1.52657	0.0456101	
1.6721	-0.789979	0.0526128	
1.67409	-0.371423	0.05753	
1.67272	-1.20934	0.052444	
1.67396	-1.63342	0.0383327	
1.67508	-0.895759	0.0441963	
1.66952	-1.84449	0.0650631	
1.67573	-0.160266	0.0588061	
1.6654	-1.94044	0.10678	
1.67485	-0.475878	0.0528314	
1.67534	-0.580169	0.0484489	
1.56448	1.94576	0.0705392	
1.56803	1.10392	0.0283395	
1.56733	1.31567	0.0292116	
1.56775	1.73951	0.0268686	
1.57077	0.265792	0.033199	
1.56811	1.42127	0.0295469	
1.56965	1.00017	0.0233052	
1.56864	1.5266	0.0273837	
1.56815	0.790177	0.0282814	
1.56964	0.371697	0.0322913	
1.56844	0.685314	0.0273999	
1.56751	1.20979	0.0293691	
1.56876	1.63282	0.0229877	
1.56943	0.895796	0.023325	
1.56731	1.84749	0.0334902	
1.57125	0.160581	0.0327769	
1.57167	0.0536437	0.0326357	
1.56946	0.476175	0.0291139	
1.56986	0.580438	0.0256312	
1.57165	-0.0536436	0.0327778	
1.5683	-1.10394	0.0282335	
1.56772	-1.31581	0.0286565	
1.56856	-0.685201	0.0285707	
1.56824	-1.74041	0.0239544	
1.57086	-0.265752	0.0330868	
1.5683	-1.4214	0.0284584	
1.56992	-1.00014	0.0230858	
1.56897	-1.52693	0.0256493	
1.56808	-0.790017	0.0296834	
1.56975	-0.371688	0.0320623	
1.56802	-1.20985	0.0291326	
1.56926	-1.6335	0.0200296	
1.57014	-0.895763	0.0224033	
1.56664	-1.84487	0.0441059	
1.57122	-0.160584	0.0328915	
1.56422	-1.94357	0.0811099	
1.56969	-0.47614	0.0286734	
1.57029	-0.580284	0.0252202	
1.46261	1.94783	0.0467549	
1.46313	1.10426	0.0135934	
1.46272	1.31566	0.0146693	
1.46402	1.73826	0.0141414	
1.46465	0.265717	0.0166162	
1.46344	1.42096	0.0152222	
1.46385	1.00001	0.0100913	
1.46394	1.526	0.0139131	
1.46377	0.79017	0.0139372	
1.46415	0.371281	0.0159451	
1.46325	0.684806	0.0129925	
1.46348	1.21023	0.0144074	
1.46409	1.63182	0.0109573	
1.46385	0.895799	0.0102068	
1.46363	1.84521	0.0189493	
1.4648	0.160196	0.0165091	
1.46526	0.0537103	0.0160353	
1.46413	0.476046	0.0139897	
1.46384	0.580201	0.0115277	
1.46525	-0.0537116	0.0161538	
1.46337	-1.10431	0.0137017	
1.463	-1.31577	0.0143081	
1.46349	-0.684709	0.0137384	
1.46424	-1.73874	0.0119039	
1.46479	-0.265651	0.0165215	
1.46353	-1.42103	0.0144801	
1.46417	-0.999958	0.00997496	
1.46421	-1.52625	0.0127277	
1.46399	-0.790037	0.0148549	
1.46426	-0.371268	0.0157696	
1.46379	-1.21028	0.0142643	
1.46432	-1.63219	0.00886574	
1.46417	-0.895783	0.010088	
1.46343	-1.84415	0.0265795	
1.46479	-0.160198	0.0166023	
1.46257	-1.94676	0.0543111	
1.46434	-0.475971	0.0136938	
1.46409	-0.580136	0.0111667	
1.36103	1.94943	0.0220421	
1.36096	1.10419	0.00841148	
1.36126	1.31608	0.00876	
1.36029	1.737	0.00736723	
1.36176	0.265167	0.0103005	
1.36085	1.42118	0.00861446	
1.36088	1.0004	0.0070142	
1.36092	1.52582	0.00760019	
1.36114	0.790238	0.00902156	
1.36128	0.371175	0.0102038	
1.36119	0.684718	0.00842089	
1.36134	1.21019	0.00834617	
1.36064	1.63112	0.00603929	
1.36103	0.896052	0.00638558	
1.36082	1.84316	0.00918083	
1.36213	0.15963	0.0102903	
1.36228	0.05377	0.0102752	
1.36136	0.47561	0.00903452	
1.36121	0.579662	0.00762389	
1.36228	-0.0537739	0.0103308	
1.36115	-1.10425	0.00842727	
1.3614	-1.31615	0.00862156	
1.36139	-0.684767	0.0086893	
1.36033	-1.73715	0.00636753	
1.36177	-0.265166	0.0102643	
1.36098	-1.42126	0.00827782	
1.36103	-1.00039	0.00703071	
1.36103	-1.52592	0.00708249	
1.36145	-0.790124	0.00940465	
1.36146	-0.371137	0.0101208	
1.36145	-1.2102	0.00829279	
1.36071	-1.63126	0.00514248	
1.36118	-0.896024	0.0063719	
1.36082	-1.84321	0.0125183	
1.36213	-0.159629	0.0103372	
1.36108	-1.94923	0.0254901	
1.36156	-0.475602	0.00895949	
1.36146	-0.579637	0.00744745	
1.2602	1.94667	3.49507e-06	
1.2602	1.10408	-3.48466e-05	
1.2602	1.31564	-0.000166556	
1.2602	1.73535	1.80271e-05	
1.2602	0.264648	-3.17281e-05	
1.2602	1.42085	-6.71898e-05	
1.2602	1	0.000149944	
1.2602	1.52507	7.16615e-05	
1.2602	0.790149	0.000185923	
1.2602	0.370241	-4.04786e-05	
1.2602	0.68436	0.000165193	
1.2602	1.20985	-7.96294e-05	
1.2602	1.62976	4.75235e-05	
1.2602	0.89592	0.000331057	
1.2602	1.84074	7.7572e-06	
1.2602	0.15926	-9.30579e-06	
1.2602	0.0533282	-2.06975e-06	
1.2602	0.474927	0.00011447	
1.2602	0.579147	0.000275008	
1.2602	-0.0533282	-4.0704e-06	
1.2602	-1.10408	-4.68344e-05	
1.2602	-1.31564	-0.000167835	
1.2602	-0.68436	0.000133222	
1.2602	-1.73535	1.79762e-05	
1.2602	-0.264648	-3.17372e-05	
1.2602	-1.42085	-6.72209e-05	
1.2602	-1	0.000143041	
1.2602	-1.52507	7.16447e-05	
1.2602	-0.790149	0.000153995	
1.2602	-0.370241	-4.05136e-05	
1.2602	-1.20985	-8.66569e-05	
1.2602	-1.62976	4.74834e-05	
1.2602	-0.89592	0.000330175	
1.2602	-1.84074	4.97966e-06	
1.2602	-0.15926	-1.13074e-05	
1.2602	-1.94667	7.40129e-07	
1.2602	-0.474927	0.000114297	
1.2602	-0.579147	0.000274628	
				</DataArray>
			</Points>
			<Cells>
				<DataArray type="Int32" Name="connectivity" Format="ascii">
0	
1	
2	
3	
4	
5	
6	
7	
8	
9	
10	
11	
12	
13	
14	
15	
16	
17	
18	
19	
20	
21	
22	
23	
24	
25	
26	
27	
28	
29	
30	
31	
32	
33	
34	
35	
36	
37	
38	
39	
40	
41	
42	
43	
44	
45	
46	
47	
48	
49	
50	
51	
52	
53	
54	
55	
56	
57	
58	
59	
60	
61	
62	
63	
64	
65	
66	
67	
68	
69	
70	
71	
72	
73	
74	
75	
76	
77	
78	
79	
80	
81	
82	
83	
84	
85	
86	
87	
88	
89	
90	
91	
92	
93	
94	
95	
96	
97	
98	
99	
100	
101	
102	
103	
104	
105	
106	
107	
108	
109	
110	
111	
112	
113	
114	
115	
116	
117	
118	
119	
120	
121	
122	
123	
124	
125	
126	
127	
128	
129	
130	
131	
132	
133	
134	
135	
136	
137	
138	
139	
140	
141	
142	
143	
144	
145	
146	
147	
148	
149	
150	
151	
152	
153	
154	
155	
156	
157	
158	
159	
160	
161	
162	
163	
164	
165	
166	
167	
168	
169	
170	
171	
172	
173	
174	
175	
176	
177	
178	
179	
180	
181	
182	
183	
184	
185	
186	
187	
188	
189	
190	
191	
192	
193	
194	
195	
196	
197	
198	
199	
200	
201	
202	
203	
204	
205	
206	
207	
208	
209	
210	
211	
212	
213	
214	
215	
216	
217	
218	
219	
220	
221	
222	
223	
224	
225	
226	
227	
228	
229	
230	
231	
232	
233	
234	
235	
236	
237	
238	
239	
240	
241	
242	
243	
244	
245	
246	
247	
248	
249	
250	
251	
252	
253	
254	
255	
256	
257	
258	
259	
260	
261	
262	
263	
264	
265	
266	
267	
268	
269	
270	
271	
272	
273	
274	
275	
276	
277	
278	
279	
280	
281	
282	
283	
284	
285	
286	
287	
288	
289	
290	
291	
292	
293	
294	
295	
296	
297	
298	
299	
300	
301	
302	
303	
304	
305	
306	
307	
308	
309	
310	
311	
312	
313	
314	
315	
316	
317	
318	
319	
320	
321	
322	
323	
324	
325	
326	
327	
328	
329	
330	
331	
332	
333	
334	
335	
336	
337	
338	
339	
340	
341	
				</DataArray>
				<DataArray type="Int32" Name="offsets" Format="ascii">
1	
2	
3	
4	
5	
6	
7	
8	
9	
10	
11	
12	
13	
14	
15	
16	
17	
18	
19	
20	
21	
22	
23	
24	
25	
26	
27	
28	
29	
30	
31	
32	
33	
34	
35	
36	
37	
38	
39	
40	
41	
42	
43	
44	
45	
46	
47	
48	
49	
50	
51	
52	
53	
54	
55	
56	
57	
58	
59	
60	
61	
62	
63	
64	
65	
66	
67	
68	
69	
70	
71	
72	
73	
74	
75	
76	
77	
78	
79	
80	
81	
82	
83	
84	
85	
86	
87	
88	
89	
90	
91	
92	
93	
94	
95	
96	
97	
98	
99	
100	
101	
102	
103	
104	
105	
106	
107	
108	
109	
110	
111	
112	
113	
114	
115	
116	
117	
118	
119	
120	
121	
122	
123	
124	
125	
126	
127	
128	
129	
130	
131	
132	
133	
134	
135	
136	
137	
138	
139	
140	
141	
142	
143	
144	
145	
146	
147	
148	
149	
150	
151	
152	
153	
154	
155	
156	
157	
158	
159	
160	
161	
162	
163	
164	
165	
166	
167	
168	
169	
170	
171	
172	
173	
174	
175	
176	
177	
178	
179	
180	
181	
182	
183	
184	
185	
186	
187	
188	
189	
190	
191	
192	
193	
194	
195	
196	
197	
198	
199	
200	
201	
202	
203	
204	
205	
206	
207	
208	
209	
210	
211	
212	
213	
214	
215	
216	
217	
218	
219	
220	
221	
222	
223	
224	
225	
226	
227	
228	
229	
230	
231	
232	
233	
234	
235	
236	
237	
238	
239	
240	
241	
242	
243	
244	
245	
246	
247	
248	
249	
250	
251	
252	
253	
254	
255	
256	
257	
258	
259	
260	
261	
262	
263	
264	
265	
266	
267	
268	
269	
270	
271	
272	
273	
274	
275	
276	
277	
278	
279	
280	
281	
282	
283	
284	
285	
286	
287	
288	
289	
290	
291	
292	
293	
294	
295	
296	
297	
298	
299	
300	
301	
302	
303	
304	
305	
306	
307	
308	
309	
310	
311	
312	
313	
314	
315	
316	
317	
318	
319	
320	
321	
322	
323	
324	
325	
326	
327	
328	
329	
330	
331	
332	
333	
334	
335	
336	
337	
338	
339	
340	
341	
342	
				</DataArray>
				<DataArray type="Int32" Name="types" Format="ascii">
1	
1	
1	
1	
1	
1	
1	
1	
1	
1	
1	
1	
1	
1	
1	
1	
1	
1	
1	
1	
1	
1	
1	
1	
1	
1	
1	
1	
1	
1	
1	
1	
1	
1	
1	
1	
1	
1	
1	
1	
1	
1	
1	
1	
1	
1	
1	
1	
1	
1	
1	
1	
1	
1	
1	
1	
1	
1	
1	
1	
1	
1	
1	
1	
1	
1	
1	
1	
1	
1	
1	
1	
1	
1	
1	
1	
1	
1	
1	
1	
1	
1	
1	
1	
1	
1	
1	
1	
1	
1	
1	
1	
1	
1	
1	
1	
1	
1	
1	
1	
1	
1	
1	
1	
1	
1	
1	
1	
1	
1	
1	
1	
1	
1	
1	
1	
1	
1	
1	
1	
1	
1	
1	
1	
1	
1	
1	
1	
1	
1	
1	
1	
1	
1	
1	
1	
1	
1	
1	
1	
1	
1	
1	
1	
1	
1	
1	
1	
1	
1	
1	
1	
1	
1	
1	
1	
1	
1	
1	
1	
1	
1	
1	
1	
1	
1	
1	
1	
1	
1	
1	
1	
1	
1	
1	
1	
1	
1	
1	
1	
1	
1	
1	
1	
1	
1	
1	
1	
1	
1	
1	
1	
1	
1	
1	
1	
1	
1	
1	
1	
1	
1	
1	
1	
1	
1	
1	
1	
1	
1	
1	
1	
1	
1	
1	
1	
1	
1	
1	
1	
1	
1	
1	
1	
1	
1	
1	
1	
1	
1	
1	
1	
1	
1	
1	
1	
1	
1	
1	
1	
1	
1	
1	
1	
1	
1	
1	
1	
1	
1	
1	
1	
1	
1	
1	
1	
1	
1	
1	
1	
1	
1	
1	
1	
1	
1	
1	
1	
1	
1	
1	
1	
1	
1	
1	
1	
1	
1	
1	
1	
1	
1	
1	
1	
1	
1	
1	
1	
1	
1	
1	
1	
1	
1	
1	
1	
1	
1	
1	
1	
1	
1	
1	
1	
1	
1	
1	
1	
1	
1	
1	
1	
1	
1	
1	
1	
1	
1	
1	
1	
1	
1	
1	
1	
1	
1	
1	
1	
1	
1	
1	
1	
1	
1	
1	
1	
1	
1	
1	
1	
1	
1	
				</DataArray>
			</Cells>
		</Piece>
	</UnstructuredGrid>
</VTKFile>
