<VTKFile type="UnstructuredGrid" version="0.1" byte_order="LittleEndian">
	<UnstructuredGrid>
		<Piece NumberOfPoints="456" NumberOfCells="456">
			<CellData Scalars="scalars">
				<DataArray type="Float64" Name="Strength" NumberOfComponents="3" Format="ascii">
0.00503251	-0.0036439	2.59746e-07	
0.000776786	-0.00782196	1.43204e-07	
0.000488137	-0.00660014	4.25326e-06	
0.00160011	-0.00601116	1.02597e-06	
9.24734e-05	-0.00810609	1.96953e-06	
-0.000538076	-0.00672158	-1.49127e-05	
0.0011661	-0.00782343	2.3811e-05	
0.00058836	-0.00719863	6.80368e-07	
-0.000580666	-0.00831945	-1.91801e-05	
-0.000308181	-0.0080048	-8.61917e-07	
0.00068892	-0.00866977	1.68762e-05	
1.43973e-09	-0.00729191	4.70448e-06	
-3.60752e-10	-0.00673051	1.97518e-06	
2.79776e-10	-0.0092566	-2.19894e-07	
-3.34998e-13	-0.005087	1.12368e-08	
2.77075e-06	-0.00806727	7.65708e-07	
1.55457e-07	-0.00818128	1.22082e-07	
-0.00102562	-0.00817119	-1.96206e-05	
1.95095e-09	-0.00927555	-1.84589e-06	
-2.51726e-06	-0.00818144	-3.67564e-07	
-0.000777156	-0.00773318	-5.46977e-08	
-0.000455789	-0.00657905	-4.13242e-06	
-0.00104563	-0.00868063	-2.09965e-05	
-0.00159973	-0.00600915	-1.02509e-06	
-9.16015e-05	-0.00810648	-1.97069e-06	
0.000539702	-0.00671911	1.49102e-05	
-0.00118961	-0.00778955	-2.44097e-05	
-0.000589284	-0.00719781	-6.81524e-07	
0.000922058	-0.00831884	2.31891e-05	
0.000309631	-0.0080061	8.59581e-07	
-1.39386e-09	-0.00725653	-4.18526e-06	
3.60611e-10	-0.00672873	-1.97607e-06	
-1.89761e-10	-0.00924551	1.49544e-07	
-0.00147606	-0.00508563	-2.3428e-07	
-2.26158e-11	-0.00806769	-5.20423e-07	
-0.00355509	-0.00364311	-6.60555e-08	
0.00102729	-0.00817392	1.96124e-05	
-1.93594e-09	-0.00927997	1.83423e-06	
0.00587241	-0.00056685	7.67753e-08	
0.000909214	-0.00162729	-7.1725e-08	
0.00066467	-0.00146684	7.13505e-07	
0.00198284	-0.00104916	2.90833e-07	
8.82899e-05	-0.00184996	4.40319e-07	
-0.000470663	-0.00139381	-3.19782e-06	
0.00121149	-0.00166823	6.30819e-06	
0.000684119	-0.0013143	2.72484e-07	
-0.000529471	-0.00183274	-5.02424e-06	
-0.00030108	-0.00188959	-1.74461e-07	
0.000733286	-0.00182	4.19435e-06	
3.13667e-10	-0.00158866	1.02495e-06	
-6.64992e-11	-0.00124067	3.64094e-07	
5.34182e-11	-0.00176738	-4.19847e-08	
-5.59089e-14	-0.000848986	1.87535e-09	
2.18581e-05	-0.00187805	1.78005e-07	
1.0294e-07	-0.00192349	2.87023e-08	
-0.00100631	-0.00184927	-5.21998e-06	
3.88341e-10	-0.00184632	-3.67429e-07	
-2.17772e-05	-0.00192343	-8.58379e-08	
-0.000905309	-0.00161618	1.22846e-07	
-0.000626292	-0.00146247	-7.01031e-07	
-0.00108324	-0.00181803	-5.02372e-06	
-0.00198143	-0.00104803	-2.9014e-07	
-8.74425e-05	-0.00184945	-4.40588e-07	
0.00047066	-0.00139154	3.19332e-06	
-0.00123495	-0.00165586	-6.4391e-06	
-0.000683075	-0.00131042	-2.72051e-07	
0.00085038	-0.00182954	5.919e-06	
0.000303352	-0.00188934	1.73554e-07	
-3.03537e-10	-0.00158023	-9.1141e-07	
6.63861e-11	-0.00123872	-3.63781e-07	
-3.60119e-11	-0.00175456	2.83796e-08	
-0.00176244	-0.000848083	-5.13352e-08	
-5.26401e-12	-0.00187782	-1.21133e-07	
-0.00410771	-0.000566295	-1.73253e-09	
0.00100852	-0.00184984	5.21897e-06	
-3.85403e-10	-0.00184744	3.65154e-07	
0.0105407	-0.00331362	2.80659e-07	
0.00137494	-0.008229	7.58724e-08	
0.00127007	-0.0076894	4.47844e-06	
0.00360771	-0.00570732	1.10683e-06	
0.000100279	-0.00891654	2.16833e-06	
-7.63251e-05	-0.00726646	-1.59731e-05	
0.00138054	-0.00816595	2.50624e-05	
0.00122127	-0.00680918	8.14459e-07	
-0.000305077	-0.00871607	-1.98096e-05	
-0.000297793	-0.00888571	-9.62396e-07	
0.000780253	-0.00882824	1.72718e-05	
1.57204e-09	-0.00796203	5.13682e-06	
-3.42289e-10	-0.00638604	1.87409e-06	
2.59851e-10	-0.00859735	-2.04233e-07	
-3.10753e-13	-0.00471884	1.04236e-08	
1.05121e-05	-0.00886341	8.41186e-07	
5.56507e-08	-0.00897393	1.33911e-07	
-0.000989321	-0.0087261	-2.08464e-05	
1.84814e-09	-0.00878675	-1.74862e-06	
-1.05465e-05	-0.00897388	-4.02954e-07	
-0.00137059	-0.00822201	3.99435e-08	
-0.00122353	-0.00767276	-4.34898e-06	
-0.00125166	-0.00883976	-2.14554e-05	
-0.00360576	-0.00570519	-1.10544e-06	
-9.89901e-05	-0.00891596	-2.1695e-06	
7.66336e-05	-0.00726495	1.59725e-05	
-0.00140745	-0.00815599	-2.5764e-05	
-0.00122121	-0.00680799	-8.15216e-07	
0.000736125	-0.00871691	2.40077e-05	
0.000301828	-0.00888599	9.59373e-07	
-1.52749e-09	-0.0079522	-4.58649e-06	
3.42127e-10	-0.00638383	-1.87478e-06	
-1.76319e-10	-0.00859057	1.3895e-07	
-0.00319656	-0.00471718	-2.3209e-07	
-2.4846e-11	-0.00886325	-5.71742e-07	
-0.00734025	-0.00331256	-5.02001e-08	
0.000994133	-0.00872814	2.08387e-05	
-1.83403e-09	-0.00879143	1.73766e-06	
0.0130368	-0.00175605	2.03261e-07	
0.00162377	-0.00454903	-7.47477e-08	
0.00166438	-0.00422873	1.90939e-06	
0.0045452	-0.003065	7.619e-07	
0.000134329	-0.00506218	1.22117e-06	
0.000154272	-0.00398939	-8.71185e-06	
0.00146647	-0.00453743	1.482e-05	
0.00152348	-0.00372428	6.65414e-07	
-0.000170316	-0.00486866	-1.13351e-05	
-0.0002588	-0.00506518	-5.37291e-07	
0.000848683	-0.00490753	1.00606e-05	
8.75504e-10	-0.00443424	2.86082e-06	
-1.86757e-10	-0.0034843	1.02253e-06	
1.44141e-10	-0.00476899	-1.13289e-07	
-1.6616e-13	-0.00252317	5.57351e-09	
2.92795e-05	-0.00507999	4.81844e-07	
-4.96774e-09	-0.00516922	7.71364e-08	
-0.000935482	-0.0049372	-1.21731e-05	
1.03631e-09	-0.00492703	-9.80508e-07	
-2.95005e-05	-0.00516916	-2.31475e-07	
-0.00161491	-0.00454186	1.77004e-07	
-0.00161191	-0.00422211	-1.85346e-06	
-0.00136645	-0.00491091	-1.23524e-05	
-0.0045426	-0.00306382	-7.60532e-07	
-0.000132747	-0.00506156	-1.222e-06	
-0.000156335	-0.00398895	8.71174e-06	
-0.00149307	-0.00452673	-1.52058e-05	
-0.0015223	-0.00372149	-6.65287e-07	
0.000633204	-0.00486793	1.3688e-05	
0.000264404	-0.00506523	5.35116e-07	
-8.50506e-10	-0.00442778	-2.55376e-06	
1.86642e-10	-0.00348261	-1.02276e-06	
-9.76491e-11	-0.00475764	7.69535e-08	
-0.00397871	-0.00252214	-1.42452e-07	
-1.42398e-11	-0.00507974	-3.27679e-07	
-0.00905322	-0.00175539	-1.4205e-08	
0.000942023	-0.00493881	1.21733e-05	
-1.02855e-09	-0.00493039	9.74513e-07	
0.0161201	-0.00213401	2.50904e-07	
0.00200592	-0.005996	-7.98865e-08	
0.00223469	-0.00551887	2.40404e-06	
0.00581168	-0.0038454	9.63586e-07	
0.000186728	-0.00676528	1.63315e-06	
0.000498522	-0.00516441	-1.119e-05	
0.00160598	-0.00599189	1.9148e-05	
0.00196424	-0.00477562	8.56003e-07	
4.20364e-05	-0.00645869	-1.46137e-05	
-0.000208707	-0.0067474	-7.33013e-07	
0.000942491	-0.00654203	1.32023e-05	
1.14539e-09	-0.00580118	3.74271e-06	
-2.36583e-10	-0.00441389	1.29533e-06	
1.91144e-10	-0.00632414	-1.50232e-07	
-2.0524e-13	-0.00311661	6.88437e-09	
4.59247e-05	-0.00677424	6.42465e-07	
2.36159e-08	-0.00688465	1.02734e-07	
-0.000869134	-0.00657875	-1.58406e-05	
1.38202e-09	-0.00657063	-1.3076e-06	
-4.61433e-05	-0.00688468	-3.08109e-07	
-0.00199478	-0.00599005	2.08836e-07	
-0.00217604	-0.00550974	-2.32594e-06	
-0.00155085	-0.00655071	-1.62739e-05	
-0.00580887	-0.00384436	-9.61947e-07	
-0.000184396	-0.00676511	-1.63444e-06	
-0.000501828	-0.00516475	1.11917e-05	
-0.00163436	-0.00598389	-1.96686e-05	
-0.00196325	-0.00477472	-8.56173e-07	
0.000500057	-0.00646056	1.77358e-05	
0.000216165	-0.0067482	7.30226e-07	
-1.11317e-09	-0.00579522	-3.34244e-06	
2.36492e-10	-0.00441277	-1.29592e-06	
-1.29669e-10	-0.00631769	1.02187e-07	
-0.00497916	-0.00311569	-1.76496e-07	
-1.899e-11	-0.00677427	-4.36988e-07	
-0.0111351	-0.00213341	-1.69465e-08	
0.000878078	-0.00658138	1.58425e-05	
-1.37179e-09	-0.0065757	1.29972e-06	
0.0185334	-0.00167609	2.41468e-07	
0.00230416	-0.00467182	-1.6205e-07	
0.00268739	-0.00429627	1.29466e-06	
0.00679417	-0.00300135	8.97906e-07	
0.000238526	-0.00532024	1.27413e-06	
0.000763791	-0.00402249	-8.60548e-06	
0.00171399	-0.00467594	1.55316e-05	
0.00230247	-0.00372252	8.65555e-07	
0.000214847	-0.00505034	-1.14093e-05	
-0.000158258	-0.00530988	-5.77606e-07	
0.00102768	-0.0051116	1.0638e-05	
8.93834e-10	-0.00452708	2.92071e-06	
-1.84703e-10	-0.00344597	1.01128e-06	
1.49138e-10	-0.00493434	-1.17217e-07	
-1.60649e-13	-0.00243949	5.38867e-09	
6.7081e-05	-0.00534168	5.06238e-07	
2.90012e-08	-0.00543697	8.11317e-08	
-0.000803227	-0.00516617	-1.25608e-05	
1.08235e-09	-0.0051459	-1.02407e-06	
-6.7353e-05	-0.00543697	-2.42481e-07	
-0.00228963	-0.00466589	2.95419e-07	
-0.00262325	-0.00428968	-1.24352e-06	
-0.0017039	-0.005117	-1.30129e-05	
-0.00679107	-0.00300053	-8.9612e-07	
-0.000235642	-0.00531997	-1.27536e-06	
-0.000768796	-0.00402273	8.60601e-06	
-0.00174292	-0.00466744	-1.59375e-05	
-0.00230105	-0.00372106	-8.65387e-07	
0.000383044	-0.00505094	1.38561e-05	
0.000167308	-0.00531039	5.74997e-07	
-8.68555e-10	-0.00452175	-2.60795e-06	
1.84623e-10	-0.00344492	-1.01169e-06	
-1.01107e-10	-0.00492612	7.96787e-08	
-0.00575666	-0.00243875	-1.5319e-07	
-1.4974e-11	-0.00534163	-3.44573e-07	
-0.0127702	-0.00167561	-3.64759e-09	
0.00081404	-0.00516826	1.25661e-05	
-1.07435e-09	-0.00514989	1.0179e-06	
0.0208387	-0.00158929	2.5447e-07	
0.00262907	-0.00462614	-2.07039e-07	
0.0031653	-0.00422313	9.3827e-07	
0.00777502	-0.00288738	9.44413e-07	
0.000296267	-0.00533993	1.2732e-06	
0.00104183	-0.0039359	-8.33374e-06	
0.00183476	-0.00464226	1.55899e-05	
0.00265155	-0.00362397	9.48057e-07	
0.000407864	-0.00503689	-1.12201e-05	
-0.000104276	-0.00532342	-5.85985e-07	
0.00112019	-0.00511033	1.0738e-05	
8.81612e-10	-0.00446518	2.88078e-06	
-1.78735e-10	-0.00333464	9.78605e-07	
1.4848e-10	-0.00491256	-1.167e-07	
-1.53456e-13	-0.00233025	5.14737e-09	
8.79949e-05	-0.00536116	5.07842e-07	
8.22841e-08	-0.00545647	8.14225e-08	
-0.000733591	-0.00517594	-1.25129e-05	
1.08364e-09	-0.00515201	-1.02528e-06	
-8.82264e-05	-0.00545653	-2.42793e-07	
-0.00261198	-0.00462093	3.54604e-07	
-0.00309602	-0.00421663	-8.90967e-07	
-0.00187579	-0.00511683	-1.31058e-05	
-0.00777177	-0.00288675	-9.42455e-07	
-0.000292677	-0.00533991	-1.27464e-06	
-0.00104814	-0.00393637	8.33438e-06	
-0.0018648	-0.00463515	-1.59977e-05	
-0.00265002	-0.00362314	-9.4786e-07	
0.000258991	-0.0050383	1.36657e-05	
0.000114907	-0.00532423	5.83217e-07	
-8.56779e-10	-0.00446044	-2.57259e-06	
1.78673e-10	-0.0033339	-9.79086e-07	
-1.00701e-10	-0.00490635	7.93589e-08	
-0.00651085	-0.00232967	-1.54522e-07	
-1.5029e-11	-0.00536126	-3.45839e-07	
-0.0143207	-0.00158891	1.85017e-09	
0.000746331	-0.00517831	1.25208e-05	
-1.07569e-09	-0.00515635	1.01917e-06	
0.0227091	-0.00128645	2.50757e-07	
0.00290336	-0.00379397	-2.70284e-07	
0.00356918	-0.00345341	1.64268e-07	
0.00858326	-0.00234646	9.14379e-07	
0.000349268	-0.00441864	1.04239e-06	
0.00127228	-0.00321529	-6.68423e-06	
0.00193726	-0.00381432	1.33588e-05	
0.00293932	-0.00295716	9.73031e-07	
0.000574365	-0.00414955	-9.1531e-06	
-5.40835e-05	-0.00440662	-4.89161e-07	
0.00120421	-0.00421026	9.15815e-06	
7.22905e-10	-0.00366136	2.36218e-06	
-1.45689e-10	-0.00271809	7.9767e-07	
1.22099e-10	-0.00403972	-9.5965e-08	
-1.24502e-13	-0.00189058	4.17617e-09	
0.000109086	-0.00444312	4.20454e-07	
1.16029e-07	-0.00452596	6.75371e-08	
-0.000669231	-0.00427905	-1.04079e-05	
8.94425e-10	-0.00425244	-8.46261e-07	
-0.00010931	-0.004526	-2.00407e-07	
-0.00288361	-0.00378882	4.24535e-07	
-0.00349535	-0.00344804	-1.33967e-07	
-0.00202579	-0.00421504	-1.10859e-05	
-0.00857978	-0.00234587	-9.12275e-07	
-0.000345126	-0.00441854	-1.04383e-06	
-0.00127985	-0.00321549	6.68365e-06	
-0.00196801	-0.00380741	-1.36962e-05	
-0.0029375	-0.00295611	-9.72615e-07	
0.000148683	-0.00415026	1.11752e-05	
6.60486e-05	-0.00440722	4.86465e-07	
-7.02439e-10	-0.00365694	-2.10917e-06	
1.45629e-10	-0.00271733	-7.98015e-07	
-8.27826e-11	-0.00403332	6.52378e-08	
-0.00712563	-0.00189004	-1.40276e-07	
-1.24553e-11	-0.00444316	-2.86615e-07	
-0.0155758	-0.00128609	1.10633e-08	
0.000683532	-0.00428097	1.0418e-05	
-8.87855e-10	-0.00425594	8.41206e-07	
0.0242547	-0.00105486	2.49098e-07	
0.003158	-0.00324744	-3.21776e-07	
0.00393716	-0.00293385	-4.18775e-07	
0.00928178	-0.00195245	8.99982e-07	
0.000400575	-0.00384031	8.958e-07	
0.00147858	-0.00272046	-5.53742e-06	
0.00203428	-0.00327536	1.19452e-05	
0.00319367	-0.00249078	1.00414e-06	
0.0007325	-0.00358133	-7.78649e-06	
-6.04401e-06	-0.00382808	-4.30139e-07	
0.00128495	-0.0036399	8.18747e-06	
6.16924e-10	-0.00312459	2.01587e-06	
-1.22062e-10	-0.00227729	6.68309e-07	
1.05123e-10	-0.00347805	-8.26225e-08	
-1.02889e-13	-0.00156239	3.45121e-09	
0.000129246	-0.00386511	3.65352e-07	
1.60346e-07	-0.00393904	5.87786e-08	
-0.000608203	-0.00371284	-9.0584e-06	
7.74976e-10	-0.00368453	-7.33244e-07	
-0.000129438	-0.00393908	-1.73487e-07	
-0.00313606	-0.00324275	4.83765e-07	
-0.00385938	-0.00292916	4.37364e-07	
-0.00216958	-0.00364422	-9.83569e-06	
-0.00927811	-0.00195193	-8.97754e-07	
-0.000395908	-0.0038403	-8.97299e-07	
-0.00148713	-0.00272057	5.53617e-06	
-0.00206583	-0.00326941	-1.22394e-05	
-0.00319161	-0.0024899	-1.00358e-06	
4.52302e-05	-0.00358204	9.54011e-06	
1.91694e-05	-0.00382869	4.27468e-07	
-5.99431e-10	-0.00312067	-1.79987e-06	
1.22011e-10	-0.00227663	-6.68593e-07	
-7.12768e-11	-0.00347273	5.61705e-08	
-0.00764174	-0.00156193	-1.30106e-07	
-1.08351e-11	-0.00386519	-2.49332e-07	
-0.0166048	-0.00105456	1.82745e-08	
0.000623864	-0.00371459	9.07065e-06	
-7.69304e-10	-0.00368767	7.28884e-07	
0.0253755	-0.000756958	2.40114e-07	
0.00336665	-0.002455	-3.74924e-07	
0.00423624	-0.00219864	-1.10115e-06	
0.0098179	-0.00142777	8.55158e-07	
0.000445656	-0.00295842	6.75591e-07	
0.00164155	-0.00203009	-3.97411e-06	
0.00211507	-0.0024866	9.79813e-06	
0.00339215	-0.00184969	1.00805e-06	
0.000865161	-0.00273563	-5.83738e-06	
3.64484e-05	-0.00294954	-3.36644e-07	
0.00135603	-0.00278343	6.67432e-06	
4.65281e-10	-0.00235655	1.52036e-06	
-9.01226e-11	-0.0016814	4.93436e-07	
8.00268e-11	-0.00264774	-6.28981e-08	
-7.46097e-14	-0.00113296	2.50264e-09	
0.000148085	-0.00298369	2.81465e-07	
1.87507e-07	-0.00304411	4.54242e-08	
-0.000554726	-0.00285529	-7.05379e-06	
5.94596e-10	-0.00282694	-5.62577e-07	
-0.000148268	-0.00304414	-1.32762e-07	
-0.00334277	-0.00245056	5.40964e-07	
-0.00415517	-0.00219488	1.10429e-06	
-0.0022921	-0.00278639	-7.9061e-06	
-0.00981399	-0.00142726	-8.52828e-07	
-0.000440608	-0.00295837	-6.77063e-07	
-0.00165091	-0.0020299	3.97172e-06	
-0.00214726	-0.00248127	-1.00266e-05	
-0.00338977	-0.0018487	-1.00729e-06	
-4.31015e-05	-0.00273583	7.18817e-06	
-2.24276e-05	-0.00294996	3.34092e-07	
-4.51977e-10	-0.00235302	-1.35712e-06	
9.00741e-11	-0.00168072	-4.93586e-07	
-5.42443e-11	-0.00264288	4.27478e-08	
-0.00802374	-0.00113252	-1.14423e-07	
-8.36414e-12	-0.00298372	-1.92471e-07	
-0.0173432	-0.000756672	2.61464e-08	
0.000571402	-0.0028566	7.06768e-06	
-5.9023e-10	-0.00282928	5.59219e-07	
0.0260858	-0.000467852	2.2859e-07	
0.00353572	-0.00170783	-4.2131e-07	
0.00447348	-0.0015017	-1.71762e-06	
0.0102014	-0.000923018	8.0365e-07	
0.000485065	-0.00213331	4.69938e-07	
0.00176561	-0.00137332	-2.49598e-06	
0.00218241	-0.00174399	7.76552e-06	
0.0035398	-0.00123752	1.00101e-06	
0.000976277	-0.00194174	-4.01843e-06	
7.35259e-05	-0.00212645	-2.48702e-07	
0.00141826	-0.00198137	5.2525e-06	
3.21764e-10	-0.00162967	1.0514e-06	
-5.94882e-11	-0.00110986	3.25708e-07	
5.64546e-11	-0.00186784	-4.43712e-08	
-4.72797e-14	-0.000717951	1.5859e-09	
0.000165128	-0.00215805	2.02896e-07	
2.07348e-07	-0.00220525	3.29065e-08	
-0.000508675	-0.00205207	-5.18026e-06	
4.25721e-10	-0.00202404	-4.02796e-07	
-0.000165306	-0.00220527	-9.46049e-08	
-0.00351032	-0.00170381	5.89947e-07	
-0.00438985	-0.00149881	1.70648e-06	
-0.00239668	-0.0019833	-6.0957e-06	
-0.0101972	-0.000922534	-8.01249e-07	
-0.000479743	-0.00213327	-4.71378e-07	
-0.00177551	-0.00137289	2.49268e-06	
-0.00221518	-0.00173956	-7.93299e-06	
-0.0035371	-0.00123656	-1.00007e-06	
-0.00011742	-0.00194164	4.99168e-06	
-5.88626e-05	-0.00212675	2.46292e-07	
-3.1245e-10	-0.00162663	-9.38172e-07	
5.9445e-11	-0.0011092	-3.25746e-07	
-3.82552e-11	-0.00186386	3.01475e-08	
-0.00827731	-0.00071755	-9.83325e-08	
-6.04964e-12	-0.00215807	-1.39211e-07	
-0.0177995	-0.000467595	3.31606e-08	
0.000526056	-0.00205301	5.19554e-06	
-4.2259e-10	-0.00202569	4.00387e-07	
0.0263539	-0.0001581	2.12422e-07	
0.0036558	-0.000879484	-4.63705e-07	
0.00463708	-0.000734417	-2.33329e-06	
0.0104146	-0.000376748	7.34853e-07	
0.000516884	-0.00120483	2.39821e-07	
0.00184426	-0.000653035	-8.91777e-07	
0.00223238	-0.000918371	5.4739e-06	
0.0036291	-0.000568863	9.74825e-07	
0.00105948	-0.00105475	-2.0198e-06	
0.000103651	-0.00120111	-1.48368e-07	
0.00146889	-0.00108321	3.63923e-06	
1.63203e-10	-0.000826589	5.33286e-07	
-2.61797e-11	-0.000488431	1.43338e-07	
3.01741e-11	-0.000998332	-2.37158e-08	
-1.78491e-14	-0.000271042	5.98712e-10	
0.000179992	-0.00122862	1.145e-07	
2.1003e-07	-0.00126078	1.88129e-08	
-0.00047194	-0.00114995	-3.0911e-06	
2.36254e-10	-0.00112324	-2.23532e-07	
-0.000180185	-0.00126079	-5.17604e-08	
-0.00362928	-0.000875872	6.32218e-07	
-0.00455167	-0.000732473	2.30696e-06	
-0.00247756	-0.00108383	-4.04895e-06	
-0.0104101	-0.000376265	-7.32411e-07	
-0.000511438	-0.00120476	-2.41179e-07	
-0.00185446	-0.000652306	8.87469e-07	
-0.0022656	-0.000914795	-5.573e-06	
-0.00362605	-0.000567843	-9.73684e-07	
-0.000174374	-0.0010542	2.57027e-06	
-8.86319e-05	-0.00120122	1.46156e-07	
-1.58285e-10	-0.000824039	-4.75271e-07	
2.61399e-11	-0.000487751	-1.43241e-07	
-2.04242e-11	-0.000995102	1.60955e-08	
-0.00839102	-0.000270661	-7.97149e-08	
-3.44411e-12	-0.00122861	-7.92539e-08	
-0.0179536	-0.000157859	3.98722e-08	
0.000489668	-0.00115041	3.10735e-06	
-2.34496e-10	-0.00112406	2.22176e-07	
				</DataArray>
			</CellData>
			<Points>
				<DataArray type="Float64" Name="Position" NumberOfComponents="3" Format="ascii">
2.36974	1.93	0.278414	
2.33802	1.09442	0.312289	
2.34395	1.30557	0.303733	
2.36438	1.72213	0.264923	
2.33249	0.265518	0.333023	
2.34916	1.41063	0.293686	
2.34001	0.991831	0.307664	
2.35524	1.51422	0.281729	
2.33381	0.786338	0.314569	
2.33021	0.371958	0.331621	
2.33359	0.681806	0.317081	
2.34113	1.2001	0.309566	
2.36024	1.618	0.271289	
2.34013	0.890152	0.307216	
2.37026	1.82866	0.260607	
2.33377	0.159972	0.332237	
2.33421	0.0535602	0.331791	
2.3337	0.476131	0.322943	
2.33698	0.578484	0.316421	
2.33418	-0.0534968	0.331812	
2.33814	-1.09425	0.311615	
2.34412	-1.30548	0.302867	
2.33283	-0.681489	0.318665	
2.36566	-1.72126	0.263671	
2.33256	-0.265443	0.332863	
2.34934	-1.4104	0.292305	
2.34042	-0.991747	0.306881	
2.35556	-1.51385	0.279939	
2.33309	-0.786405	0.316263	
2.33035	-0.371864	0.331275	
2.34116	-1.19972	0.308673	
2.36104	-1.61747	0.26903	
2.34087	-0.890216	0.306757	
2.36811	-1.82557	0.270243	
2.33374	-0.159931	0.332203	
2.36901	-1.92926	0.288409	
2.33402	-0.475949	0.322501	
2.3376	-0.578177	0.316192	
2.26792	1.92795	0.251068	
2.24906	1.09487	0.254273	
2.25141	1.3051	0.250022	
2.27298	1.72534	0.212431	
2.24356	0.265274	0.275428	
2.25801	1.41018	0.240546	
2.25556	0.993352	0.247198	
2.26601	1.51492	0.227196	
2.25068	0.786291	0.252582	
2.24204	0.371256	0.273092	
2.25071	0.682067	0.25524	
2.24986	1.19992	0.253962	
2.2716	1.62016	0.215535	
2.25894	0.891033	0.244387	
2.27551	1.83411	0.214415	
2.24502	0.159947	0.274696	
2.24546	0.0535625	0.274772	
2.24862	0.47494	0.263219	
2.25559	0.578117	0.25369	
2.24538	-0.0535015	0.274827	
2.24887	-1.09451	0.253423	
2.25155	-1.30501	0.249025	
2.24959	-0.681827	0.257189	
2.27484	-1.72527	0.21027	
2.24368	-0.265204	0.275212	
2.25831	-1.41	0.238775	
2.25582	-0.993349	0.246763	
2.26662	-1.51471	0.2247	
2.24928	-0.786185	0.25488	
2.24223	-0.371173	0.272689	
2.24985	-1.19986	0.253579	
2.27301	-1.62012	0.212119	
2.25965	-0.891041	0.244138	
2.2721	-1.82848	0.22763	
2.24496	-0.159911	0.274679	
2.26637	-1.92507	0.265231	
2.24912	-0.474782	0.262702	
2.25641	-0.57792	0.253368	
2.16589	1.92812	0.22287	
2.16526	1.09728	0.196195	
2.16711	1.30742	0.1935	
2.17892	1.73189	0.164339	
2.16414	0.26501	0.21613	
2.17065	1.41253	0.186916	
2.17316	0.995853	0.188117	
2.17548	1.51806	0.176376	
2.1681	0.787184	0.194287	
2.1625	0.370597	0.213734	
2.169	0.68271	0.196253	
2.1661	1.20238	0.196637	
2.18007	1.62507	0.164213	
2.17535	0.892685	0.186521	
2.17916	1.84412	0.171929	
2.16549	0.159903	0.2159	
2.16606	0.0534939	0.216198	
2.16815	0.474389	0.204243	
2.17326	0.578317	0.195814	
2.16597	-0.0534454	0.216275	
2.16524	-1.09723	0.195815	
2.16734	-1.30739	0.192343	
2.16781	-0.682516	0.198401	
2.18156	-1.73316	0.161242	
2.1643	-0.264924	0.216154	
2.17105	-1.41248	0.184801	
2.17356	-0.995825	0.187621	
2.17628	-1.51815	0.173291	
2.16684	-0.787011	0.196592	
2.16274	-0.370548	0.213266	
2.16623	-1.20233	0.196186	
2.18188	-1.62577	0.159729	
2.17637	-0.892607	0.185927	
2.17455	-1.83511	0.188484	
2.16542	-0.159879	0.215895	
2.16381	-1.92235	0.240626	
2.16875	-0.474301	0.203555	
2.17423	-0.57822	0.195455	
2.0674	1.93205	0.191875	
2.086	1.1009	0.135775	
2.08538	1.31157	0.134222	
2.08626	1.74082	0.115959	
2.08826	0.264961	0.15329	
2.0862	1.41696	0.130431	
2.09314	0.998826	0.126113	
2.08792	1.52322	0.122553	
2.08785	0.788567	0.133852	
2.08658	0.370376	0.151021	
2.08967	0.68377	0.135275	
2.08614	1.20613	0.136039	
2.09026	1.63192	0.111715	
2.09454	0.894777	0.125854	
2.08352	1.85587	0.129705	
2.08908	0.159933	0.153403	
2.08989	0.0534893	0.153542	
2.0908	0.474503	0.14233	
2.09392	0.578913	0.134753	
2.08977	-0.0534533	0.153668	
2.08618	-1.10087	0.135361	
2.08561	-1.3116	0.13291	
2.08864	-0.68367	0.137581	
2.08899	-1.74352	0.112432	
2.0884	-0.264924	0.153042	
2.08658	-1.41705	0.128101	
2.0936	-0.998769	0.125546	
2.08872	-1.52364	0.119089	
2.08649	-0.788324	0.136768	
2.08677	-0.370359	0.150608	
2.08639	-1.20611	0.135484	
2.09216	-1.63347	0.106566	
2.09575	-0.894641	0.125171	
2.07892	-1.84451	0.148494	
2.08897	-0.159926	0.153454	
2.06519	-1.92358	0.211602	
2.09138	-0.474479	0.14158	
2.09487	-0.578927	0.134298	
1.96689	1.93437	0.166069	
1.98714	1.10285	0.0906162	
1.98599	1.31429	0.0908402	
1.98391	1.7457	0.0817178	
1.99124	0.265151	0.10468	
1.98588	1.41987	0.0899013	
1.99309	1.0003	0.0808723	
1.98641	1.52644	0.0844174	
1.98777	0.789494	0.0900334	
1.98943	0.37083	0.103049	
1.98942	0.684502	0.0906923	
1.98621	1.20838	0.0923265	
1.98822	1.63615	0.0746171	
1.99428	0.895926	0.0804612	
1.98116	1.86217	0.0987745	
1.99203	0.160076	0.104897	
1.99299	0.0535156	0.10472	
1.99185	0.475158	0.0956793	
1.99404	0.579623	0.0887339	
1.99285	-0.0534947	0.104918	
1.98739	-1.10285	0.0901598	
1.98627	-1.31438	0.0894464	
1.98835	-0.684367	0.0931808	
1.9864	-1.74915	0.0777623	
1.99138	-0.265121	0.104424	
1.98624	-1.42008	0.0874697	
1.99355	-1.00024	0.080286	
1.98719	-1.52709	0.0807754	
1.98669	-0.789263	0.0927017	
1.98964	-0.370832	0.102534	
1.9866	-1.2084	0.091669	
1.98996	-1.63814	0.0690543	
1.99509	-0.895794	0.0801206	
1.9771	-1.84922	0.11876	
1.9919	-0.160076	0.10503	
1.96498	-1.92453	0.186727	
1.99245	-0.475148	0.0947507	
1.9949	-0.579642	0.0881721	
1.86701	1.93763	0.140977	
1.88509	1.10429	0.0544119	
1.88361	1.31634	0.0561616	
1.8806	1.74842	0.0540431	
1.88908	0.265382	0.0658325	
1.8831	1.42203	0.057315	
1.88966	1.00131	0.0448058	
1.88329	1.52873	0.053786	
1.88493	0.790195	0.0546119	
1.88815	0.371279	0.0638349	
1.88647	0.685142	0.0544688	
1.88412	1.21013	0.0566115	
1.8843	1.6387	0.0449871	
1.88947	0.896552	0.0446838	
1.87823	1.86477	0.0722465	
1.89044	0.160249	0.0653995	
1.89153	0.0535554	0.064766	
1.88938	0.475749	0.0577211	
1.89057	0.580256	0.0516034	
1.89139	-0.0535497	0.0650297	
1.88539	-1.1043	0.0539661	
1.88397	-1.31649	0.0547955	
1.88596	-0.685024	0.0567386	
1.88262	-1.75207	0.0497871	
1.88923	-0.265353	0.0655588	
1.8834	-1.4223	0.0549258	
1.8901	-1.00125	0.044216	
1.88394	-1.52946	0.0501763	
1.88417	-0.789926	0.0571919	
1.88835	-0.371287	0.0633004	
1.88457	-1.21017	0.0559343	
1.88566	-1.64075	0.0395322	
1.89094	-0.896581	0.0434925	
1.87509	-1.85201	0.0924669	
1.89031	-0.160252	0.065594	
1.86556	-1.92768	0.161604	
1.88989	-0.475749	0.0568291	
1.89139	-0.58027	0.0508489	
1.76691	1.94109	0.116733	
1.77995	1.10503	0.0287308	
1.7787	1.31741	0.0313601	
1.77631	1.7486	0.033433	
1.78367	0.265641	0.0372705	
1.77843	1.42316	0.0338742	
1.78307	1.00168	0.0197599	
1.77853	1.52974	0.0316667	
1.77913	0.790519	0.0303653	
1.78281	0.371638	0.0356883	
1.78057	0.68554	0.0283705	
1.77917	1.21113	0.0308288	
1.77872	1.63921	0.0245263	
1.78247	0.896861	0.0202826	
1.77472	1.8637	0.0505279	
1.78425	0.160397	0.0372415	
1.7859	0.0535949	0.0358898	
1.7833	0.47619	0.0307153	
1.78369	0.580689	0.0254217	
1.78578	-0.0535997	0.0361951	
1.78016	-1.105	0.0284624	
1.77905	-1.31757	0.0301258	
1.78037	-0.685425	0.0304144	
1.77779	-1.75192	0.0290571	
1.78382	-0.265609	0.036992	
1.77867	-1.42343	0.0316776	
1.78354	-1.00163	0.0192294	
1.77904	-1.53044	0.0282929	
1.77898	-0.790362	0.0317135	
1.783	-0.371644	0.0351544	
1.77979	-1.21112	0.0302334	
1.77975	-1.64114	0.0191162	
1.78309	-0.896756	0.0198134	
1.77257	-1.85263	0.0699921	
1.78415	-0.160401	0.0374789	
1.76597	-1.93225	0.136376	
1.78369	-0.476186	0.0298426	
1.78442	-0.580677	0.0245696	
1.66644	1.94461	0.092487	
1.67322	1.10498	0.0121297	
1.67317	1.31768	0.0137534	
1.67206	1.74697	0.0180984	
1.6773	0.265811	0.0167059	
1.67331	1.42343	0.0169373	
1.6757	1.0014	0.00338027	
1.67302	1.52959	0.0168017	
1.67299	0.790652	0.0127797	
1.67559	0.371884	0.0168472	
1.67402	0.685721	0.0102819	
1.67358	1.21133	0.0129137	
1.67347	1.63835	0.00962312	
1.67523	0.896813	0.00386999	
1.67103	1.85982	0.0326603	
1.67774	0.160505	0.0165989	
1.67852	0.0536062	0.0165124	
1.67627	0.476511	0.0119944	
1.67543	0.5809	0.00851875	
1.67845	-0.0536115	0.0168223	
1.67363	-1.10501	0.0118241	
1.67351	-1.31783	0.012735	
1.67398	-0.685648	0.0120342	
1.6729	-1.74952	0.0138507	
1.67742	-0.265773	0.0164542	
1.67349	-1.42366	0.0150689	
1.67585	-1.00128	0.00329969	
1.6734	-1.53018	0.013877	
1.67291	-0.790448	0.0148685	
1.67574	-0.371884	0.0163636	
1.67392	-1.21137	0.0124263	
1.67419	-1.63987	0.00480889	
1.67579	-0.896713	0.00345662	
1.66982	-1.85163	0.0501696	
1.67768	-0.160508	0.0168477	
1.66596	-1.93781	0.110063	
1.67653	-0.476497	0.0113414	
1.67599	-0.580838	0.00769465	
1.56488	1.94721	0.0691801	
1.56727	1.10476	0.00138548	
1.5671	1.31715	0.00304489	
1.56765	1.74403	0.00780743	
1.57056	0.266038	0.00430765	
1.56758	1.42278	0.00660562	
1.56842	1.00085	-0.00384646	
1.56806	1.5287	0.00620754	
1.5676	0.790502	0.00193828	
1.56924	0.372034	0.00430377	
1.56814	0.685666	-0.000454119	
1.56721	1.21113	0.00198829	
1.5685	1.63623	0.000665728	
1.56885	0.896451	-0.00531957	
1.56733	1.85433	0.0189432	
1.57098	0.160777	0.00367418	
1.57122	0.0536991	0.00409571	
1.56805	0.476541	0.00306517	
1.5689	0.580871	-0.00210467	
1.57119	-0.0537052	0.00437788	
1.56758	-1.10469	0.00154714	
1.5675	-1.3173	0.00228689	
1.56815	-0.685608	0.000897368	
1.56808	-1.74565	0.00408851	
1.57072	-0.265956	0.00410633	
1.56775	-1.42296	0.00517002	
1.56877	-1.00081	-0.00419583	
1.56838	-1.52916	0.00392281	
1.56771	-0.790332	0.00357954	
1.56938	-0.372021	0.00377917	
1.56764	-1.21119	0.00164044	
1.56898	-1.6373	-0.00320942	
1.56948	-0.896384	-0.00566587	
1.56683	-1.84951	0.0331831	
1.57095	-0.16078	0.00390386	
1.56473	-1.94297	0.0834595	
1.56827	-0.476502	0.00240264	
1.56938	-0.580713	-0.00281546	
1.46297	1.94956	0.0448047	
1.46243	1.10459	-0.0028807	
1.46215	1.31628	-0.000884581	
1.46398	1.74044	0.0019518	
1.46432	0.26586	-0.00180026	
1.463	1.42171	0.00102558	
1.46304	1.00031	-0.0071412	
1.46358	1.52707	0.000399007	
1.46337	0.790335	-0.00300611	
1.46334	0.371447	-0.000935038	
1.4628	0.684995	-0.0047896	
1.46318	1.21084	-0.00284883	
1.46393	1.63344	-0.00293897	
1.46276	0.895899	-0.00613567	
1.46353	1.84829	0.00993442	
1.46409	0.160288	-0.00124671	
1.46468	0.0538083	-0.00191021	
1.46326	0.476227	-0.00277645	
1.46275	0.580368	-0.0049119	
1.46467	-0.0538104	-0.00170144	
1.46291	-1.10463	-0.00296697	
1.46244	-1.31639	-0.00135666	
1.46308	-0.684888	-0.00392017	
1.46417	-1.74113	-0.00077933	
1.46454	-0.265733	-0.00193972	
1.46307	-1.4218	9.17575e-05	
1.4634	-1.00025	-0.00731264	
1.46385	-1.52735	-0.00108639	
1.46364	-0.790186	-0.00192789	
1.46345	-0.371431	-0.00120812	
1.46342	-1.21081	-0.00286809	
1.46414	-1.63392	-0.00552864	
1.4631	-0.895887	-0.00636429	
1.46345	-1.84652	0.0195948	
1.46408	-0.160288	-0.00107758	
1.46299	-1.94768	0.0545531	
1.46346	-0.476144	-0.00323223	
1.463	-0.580294	-0.00543555	
1.361	1.95014	0.0194767	
1.36001	1.10402	-0.00158001	
1.36051	1.316	-0.00100276	
1.35998	1.73718	0.000240513	
1.36056	0.265193	-0.000637074	
1.36019	1.42114	-0.000414803	
1.36002	1.00026	-0.00414168	
1.36045	1.52584	-0.00100711	
1.36008	0.790175	-0.0010795	
1.36006	0.371238	-0.000257907	
1.36008	0.684661	-0.00196574	
1.36047	1.21005	-0.00155402	
1.36019	1.63121	-0.00200712	
1.3601	0.895951	-0.00414812	
1.36065	1.84363	0.00336487	
1.36094	0.159642	-0.000792389	
1.36124	0.0537906	-0.00143364	
1.3603	0.475663	-0.00200522	
1.36023	0.57966	-0.00344651	
1.36124	-0.0537917	-0.00134417	
1.36021	-1.10407	-0.00156566	
1.36066	-1.31606	-0.00118519	
1.36029	-0.684695	-0.00167351	
1.36003	-1.73728	-0.000920263	
1.36057	-0.265191	-0.000693649	
1.36034	-1.42121	-0.000832186	
1.36019	-1.00026	-0.00416597	
1.36057	-1.52593	-0.00163708	
1.3604	-0.790066	-0.000657278	
1.36025	-0.371198	-0.000388172	
1.36059	-1.21005	-0.00161266	
1.36028	-1.63132	-0.00307964	
1.36027	-0.895933	-0.00421734	
1.36065	-1.84362	0.00743888	
1.36095	-0.159641	-0.000717251	
1.36104	-1.94988	0.0237556	
1.36051	-0.475649	-0.00221603	
1.36049	-0.57962	-0.00370048	
1.2602	1.94667	3.49507e-06	
1.2602	1.10408	-3.48466e-05	
1.2602	1.31564	-0.000166556	
1.2602	1.73535	1.80272e-05	
1.2602	0.264648	-3.17281e-05	
1.2602	1.42085	-6.71898e-05	
1.2602	1	0.000149944	
1.2602	1.52507	7.16615e-05	
1.2602	0.790149	0.000185923	
1.2602	0.370241	-4.04786e-05	
1.2602	0.68436	0.000165193	
1.2602	1.20985	-7.96294e-05	
1.2602	1.62976	4.75235e-05	
1.2602	0.89592	0.000331057	
1.2602	1.84074	7.75721e-06	
1.2602	0.15926	-9.3058e-06	
1.2602	0.0533282	-2.06975e-06	
1.2602	0.474927	0.00011447	
1.2602	0.579147	0.000275008	
1.2602	-0.0533282	-4.0704e-06	
1.2602	-1.10408	-4.68344e-05	
1.2602	-1.31564	-0.000167835	
1.2602	-0.68436	0.000133222	
1.2602	-1.73535	1.79762e-05	
1.2602	-0.264648	-3.17372e-05	
1.2602	-1.42085	-6.7221e-05	
1.2602	-1	0.000143041	
1.2602	-1.52507	7.16447e-05	
1.2602	-0.790149	0.000153996	
1.2602	-0.370241	-4.05136e-05	
1.2602	-1.20985	-8.66569e-05	
1.2602	-1.62976	4.74835e-05	
1.2602	-0.89592	0.000330176	
1.2602	-1.84074	4.97966e-06	