<VTKFile type="UnstructuredGrid" version="0.1" byte_order="LittleEndian">
	<UnstructuredGrid>
		<Piece NumberOfPoints="76" NumberOfCells="76">
			<CellData Scalars="scalars">
				<DataArray type="Float64" Name="Strength" NumberOfComponents="3" Format="ascii">
0.00503251	-0.0036439	2.59746e-07	
0.000776786	-0.00782196	1.43204e-07	
0.000488137	-0.00660014	4.25326e-06	
0.00160011	-0.00601116	1.02597e-06	
9.24734e-05	-0.00810609	1.96953e-06	
-0.000538076	-0.00672158	-1.49127e-05	
0.0011661	-0.00782343	2.3811e-05	
0.00058836	-0.00719863	6.80368e-07	
-0.000580666	-0.00831945	-1.91801e-05	
-0.000308181	-0.0080048	-8.61917e-07	
0.00068892	-0.00866977	1.68762e-05	
1.43973e-09	-0.00729191	4.70448e-06	
-3.60752e-10	-0.00673051	1.97518e-06	
2.79776e-10	-0.0092566	-2.19894e-07	
-3.34998e-13	-0.005087	1.12368e-08	
2.77075e-06	-0.00806727	7.65708e-07	
1.55457e-07	-0.00818128	1.22082e-07	
-0.00102562	-0.00817119	-1.96206e-05	
1.95095e-09	-0.00927555	-1.84589e-06	
-2.51726e-06	-0.00818144	-3.67564e-07	
-0.000777156	-0.00773318	-5.46977e-08	
-0.000455789	-0.00657905	-4.13242e-06	
-0.00104563	-0.00868063	-2.09965e-05	
-0.00159973	-0.00600915	-1.02509e-06	
-9.16015e-05	-0.00810648	-1.97069e-06	
0.000539702	-0.00671911	1.49102e-05	
-0.00118961	-0.00778955	-2.44097e-05	
-0.000589284	-0.00719781	-6.81524e-07	
0.000922058	-0.00831884	2.31891e-05	
0.000309631	-0.0080061	8.59581e-07	
-1.39386e-09	-0.00725653	-4.18526e-06	
3.60611e-10	-0.00672873	-1.97607e-06	
-1.89761e-10	-0.00924551	1.49544e-07	
-0.00147606	-0.00508563	-2.3428e-07	
-2.26158e-11	-0.00806769	-5.20423e-07	
-0.00355509	-0.00364311	-6.60555e-08	
0.00102729	-0.00817392	1.96124e-05	
-1.93594e-09	-0.00927997	1.83423e-06	
0.00587241	-0.00056685	7.67753e-08	
0.000909214	-0.00162729	-7.1725e-08	
0.00066467	-0.00146684	7.13505e-07	
0.00198284	-0.00104916	2.90833e-07	
8.82899e-05	-0.00184996	4.40319e-07	
-0.000470663	-0.00139381	-3.19782e-06	
0.00121149	-0.00166823	6.30819e-06	
0.000684119	-0.0013143	2.72484e-07	
-0.000529471	-0.00183274	-5.02424e-06	
-0.00030108	-0.00188959	-1.74461e-07	
0.000733286	-0.00182	4.19435e-06	
3.13667e-10	-0.00158866	1.02495e-06	
-6.64992e-11	-0.00124067	3.64094e-07	
5.34182e-11	-0.00176738	-4.19847e-08	
-5.59089e-14	-0.000848986	1.87535e-09	
2.18581e-05	-0.00187805	1.78005e-07	
1.0294e-07	-0.00192349	2.87023e-08	
-0.00100631	-0.00184927	-5.21998e-06	
3.88341e-10	-0.00184632	-3.67429e-07	
-2.17772e-05	-0.00192343	-8.58379e-08	
-0.000905309	-0.00161618	1.22846e-07	
-0.000626292	-0.00146247	-7.01031e-07	
-0.00108324	-0.00181803	-5.02372e-06	
-0.00198143	-0.00104803	-2.9014e-07	
-8.74425e-05	-0.00184945	-4.40588e-07	
0.00047066	-0.00139154	3.19332e-06	
-0.00123495	-0.00165586	-6.4391e-06	
-0.000683075	-0.00131042	-2.72051e-07	
0.00085038	-0.00182954	5.919e-06	
0.000303352	-0.00188934	1.73554e-07	
-3.03537e-10	-0.00158023	-9.1141e-07	
6.63861e-11	-0.00123872	-3.63781e-07	
-3.60119e-11	-0.00175456	2.83796e-08	
-0.00176244	-0.000848083	-5.13352e-08	
-5.26401e-12	-0.00187782	-1.21133e-07	
-0.00410771	-0.000566295	-1.73253e-09	
0.00100852	-0.00184984	5.21897e-06	
-3.85403e-10	-0.00184744	3.65154e-07	
				</DataArray>
			</CellData>
			<Points>
				<DataArray type="Float64" Name="Position" NumberOfComponents="3" Format="ascii">
1.36187	1.94673	0.0168608	
1.36084	1.10402	0.0230721	
1.36105	1.31575	0.0226231	
1.36092	1.73558	0.0179725	
1.3609	0.264914	0.0248883	
1.36096	1.42087	0.0214153	
1.36078	1.00017	0.0231084	
1.36104	1.52521	0.0197492	
1.36077	0.790179	0.0240095	
1.3608	0.370805	0.0250565	
1.36077	0.684592	0.023887	
1.36102	1.2099	0.02288	
1.36093	1.63013	0.0189073	
1.36082	0.896039	0.0223928	
1.36142	1.84095	0.0166301	
1.36102	0.159489	0.0248294	
1.36112	0.0536067	0.0248327	
1.36078	0.475482	0.024439	
1.36077	0.57956	0.0231402	
1.36112	-0.0536065	0.0248307	
1.36091	-1.10406	0.0230982	
1.36109	-1.31577	0.0225997	
1.36087	-0.684614	0.0239144	
1.36093	-1.73559	0.0177991	
1.36091	-0.264913	0.0248811	
1.36099	-1.42089	0.0213652	
1.36082	-1.00017	0.0230695	
1.36106	-1.52523	0.0196816	
1.36086	-0.790172	0.0240456	
1.3609	-0.370782	0.0250354	
1.36105	-1.2099	0.0228694	
1.36095	-1.63015	0.0187918	
1.36086	-0.896035	0.0223233	
1.36142	-1.84095	0.017	
1.36102	-0.159487	0.0248249	
1.36187	-1.94673	0.0172344	
1.36089	-0.475475	0.0244015	
1.36089	-0.57956	0.0230829	
1.2602	1.94667	3.49507e-06	
1.2602	1.10408	-3.48466e-05	
1.2602	1.31564	-0.000166556	
1.2602	1.73535	1.80271e-05	
1.2602	0.264648	-3.1728e-05	
1.2602	1.42085	-6.71897e-05	
1.2602	1	0.000149944	
1.2602	1.52507	7.16615e-05	
1.2602	0.790149	0.000185923	
1.2602	0.370241	-4.04786e-05	
1.2602	0.68436	0.000165193	
1.2602	1.20985	-7.96293e-05	
1.2602	1.62976	4.75234e-05	
1.2602	0.89592	0.000331057	
1.2602	1.84074	7.7572e-06	
1.2602	0.15926	-9.30579e-06	
1.2602	0.0533282	-2.06975e-06	
1.2602	0.474927	0.00011447	
1.2602	0.579147	0.000275008	
1.2602	-0.0533282	-4.07039e-06	
1.2602	-1.10408	-4.68344e-05	
1.2602	-1.31564	-0.000167835	
1.2602	-0.68436	0.000133222	
1.2602	-1.73535	1.79762e-05	
1.2602	-0.264648	-3.17372e-05	
1.2602	-1.42085	-6.72209e-05	
1.2602	-1	0.000143041	
1.2602	-1.52507	7.16446e-05	
1.2602	-0.790149	0.000153995	
1.2602	-0.370241	-4.05135e-05	
1.2602	-1.20985	-8.66568e-05	
1.2602	-1.62976	4.74834e-05	
1.2602	-0.89592	0.000330175	
1.2602	-1.84074	4.97966e-06	
1.2602	-0.15926	-1.13074e-05	
1.2602	-1.94667	7.40128e-07	
1.2602	-0.474927	0.000114297	
1.2602	-0.579147	0.000274628	
				</DataArray>
			</Points>
			<Cells>
				<DataArray type="Int32" Name="connectivity" Format="ascii">
0	
1	
2	
3	
4	
5	
6	
7	
8	
9	
10	
11	
12	
13	
14	
15	
16	
17	
18	
19	
20	
21	
22	
23	
24	
25	
26	
27	
28	
29	
30	
31	
32	
33	
34	
35	
36	
37	
38	
39	
40	
41	
42	
43	
44	
45	
46	
47	
48	
49	
50	
51	
52	
53	
54	
55	
56	
57	
58	
59	
60	
61	
62	
63	
64	
65	
66	
67	
68	
69	
70	
71	
72	
73	
74	
75	
				</DataArray>
				<DataArray type="Int32" Name="offsets" Format="ascii">
1	
2	
3	
4	
5	
6	
7	
8	
9	
10	
11	
12	
13	
14	
15	
16	
17	
18	
19	
20	
21	
22	
23	
24	
25	
26	
27	
28	
29	
30	
31	
32	
33	
34	
35	
36	
37	
38	
39	
40	
41	
42	
43	
44	
45	
46	
47	
48	
49	
50	
51	
52	
53	
54	
55	
56	
57	
58	
59	
60	
61	
62	
63	
64	
65	
66	
67	
68	
69	
70	
71	
72	
73	
74	
75	
76	
				</DataArray>
				<DataArray type="Int32" Name="types" Format="ascii">
1	
1	
1	
1	
1	
1	
1	
1	
1	
1	
1	
1	
1	
1	
1	
1	
1	
1	
1	
1	
1	
1	
1	
1	
1	
1	
1	
1	
1	
1	
1	
1	
1	
1	
1	
1	
1	
1	
1	
1	
1	
1	
1	
1	
1	
1	
1	
1	
1	
1	
1	
1	
1	
1	
1	
1	
1	
1	
1	
1	
1	
1	
1	
1	
1	
1	
1	
1	
1	
1	
1	
1	
1	
1	
1	
1	
				</DataArray>
			</Cells>
		</Piece>
	</UnstructuredGrid>
</VTKFile>
