<VTKFile type="UnstructuredGrid" version="0.1" byte_order="LittleEndian">
	<UnstructuredGrid>
		<Piece NumberOfPoints="646" NumberOfCells="646">
			<CellData Scalars="scalars">
				<DataArray type="Float64" Name="Strength" NumberOfComponents="3" Format="ascii">
0.00503251	-0.0036439	2.59746e-07	
0.000776786	-0.00782196	1.43204e-07	
0.000488137	-0.00660014	4.25326e-06	
0.00160011	-0.00601116	1.02597e-06	
9.24734e-05	-0.00810609	1.96953e-06	
-0.000538076	-0.00672158	-1.49127e-05	
0.0011661	-0.00782343	2.3811e-05	
0.00058836	-0.00719863	6.80368e-07	
-0.000580666	-0.00831945	-1.91801e-05	
-0.000308181	-0.0080048	-8.61917e-07	
0.00068892	-0.00866977	1.68762e-05	
1.43973e-09	-0.00729191	4.70448e-06	
-3.60752e-10	-0.00673051	1.97518e-06	
2.79776e-10	-0.0092566	-2.19894e-07	
-3.34998e-13	-0.005087	1.12368e-08	
2.77075e-06	-0.00806727	7.65708e-07	
1.55457e-07	-0.00818128	1.22082e-07	
-0.00102562	-0.00817119	-1.96206e-05	
1.95095e-09	-0.00927555	-1.84589e-06	
-2.51726e-06	-0.00818144	-3.67564e-07	
-0.000777156	-0.00773318	-5.46977e-08	
-0.000455789	-0.00657905	-4.13242e-06	
-0.00104563	-0.00868063	-2.09965e-05	
-0.00159973	-0.00600915	-1.02509e-06	
-9.16015e-05	-0.00810648	-1.97069e-06	
0.000539702	-0.00671911	1.49102e-05	
-0.00118961	-0.00778955	-2.44097e-05	
-0.000589284	-0.00719781	-6.81524e-07	
0.000922058	-0.00831884	2.31891e-05	
0.000309631	-0.0080061	8.59581e-07	
-1.39386e-09	-0.00725653	-4.18526e-06	
3.60611e-10	-0.00672873	-1.97607e-06	
-1.89761e-10	-0.00924551	1.49544e-07	
-0.00147606	-0.00508563	-2.3428e-07	
-2.26158e-11	-0.00806769	-5.20423e-07	
-0.00355509	-0.00364311	-6.60555e-08	
0.00102729	-0.00817392	1.96124e-05	
-1.93594e-09	-0.00927997	1.83423e-06	
0.00587241	-0.00056685	7.67753e-08	
0.000909214	-0.00162729	-7.1725e-08	
0.00066467	-0.00146684	7.13505e-07	
0.00198284	-0.00104916	2.90833e-07	
8.82899e-05	-0.00184996	4.40319e-07	
-0.000470663	-0.00139381	-3.19782e-06	
0.00121149	-0.00166823	6.30819e-06	
0.000684119	-0.0013143	2.72484e-07	
-0.000529471	-0.00183274	-5.02424e-06	
-0.00030108	-0.00188959	-1.74461e-07	
0.000733286	-0.00182	4.19435e-06	
3.13667e-10	-0.00158866	1.02495e-06	
-6.64992e-11	-0.00124067	3.64094e-07	
5.34182e-11	-0.00176738	-4.19847e-08	
-5.59089e-14	-0.000848986	1.87535e-09	
2.18581e-05	-0.00187805	1.78005e-07	
1.0294e-07	-0.00192349	2.87023e-08	
-0.00100631	-0.00184927	-5.21998e-06	
3.88341e-10	-0.00184632	-3.67429e-07	
-2.17772e-05	-0.00192343	-8.58379e-08	
-0.000905309	-0.00161618	1.22846e-07	
-0.000626292	-0.00146247	-7.01031e-07	
-0.00108324	-0.00181803	-5.02372e-06	
-0.00198143	-0.00104803	-2.9014e-07	
-8.74425e-05	-0.00184945	-4.40588e-07	
0.00047066	-0.00139154	3.19332e-06	
-0.00123495	-0.00165586	-6.4391e-06	
-0.000683075	-0.00131042	-2.72051e-07	
0.00085038	-0.00182954	5.919e-06	
0.000303352	-0.00188934	1.73554e-07	
-3.03537e-10	-0.00158023	-9.1141e-07	
6.63861e-11	-0.00123872	-3.63781e-07	
-3.60119e-11	-0.00175456	2.83796e-08	
-0.00176244	-0.000848083	-5.13352e-08	
-5.26401e-12	-0.00187782	-1.21133e-07	
-0.00410771	-0.000566295	-1.73253e-09	
0.00100852	-0.00184984	5.21897e-06	
-3.85403e-10	-0.00184744	3.65154e-07	
0.0105407	-0.00331362	2.80659e-07	
0.00137494	-0.008229	7.58724e-08	
0.00127007	-0.0076894	4.47844e-06	
0.00360771	-0.00570732	1.10683e-06	
0.000100279	-0.00891654	2.16833e-06	
-7.63251e-05	-0.00726646	-1.59731e-05	
0.00138054	-0.00816595	2.50624e-05	
0.00122127	-0.00680918	8.14459e-07	
-0.000305077	-0.00871607	-1.98096e-05	
-0.000297793	-0.00888571	-9.62396e-07	
0.000780253	-0.00882824	1.72718e-05	
1.57204e-09	-0.00796203	5.13682e-06	
-3.42289e-10	-0.00638604	1.87409e-06	
2.59851e-10	-0.00859735	-2.04233e-07	
-3.10753e-13	-0.00471884	1.04236e-08	
1.05121e-05	-0.00886341	8.41186e-07	
5.56507e-08	-0.00897393	1.33911e-07	
-0.000989321	-0.0087261	-2.08464e-05	
1.84814e-09	-0.00878675	-1.74862e-06	
-1.05465e-05	-0.00897388	-4.02954e-07	
-0.00137059	-0.00822201	3.99435e-08	
-0.00122353	-0.00767276	-4.34898e-06	
-0.00125166	-0.00883976	-2.14554e-05	
-0.00360576	-0.00570519	-1.10544e-06	
-9.89901e-05	-0.00891596	-2.1695e-06	
7.66336e-05	-0.00726495	1.59725e-05	
-0.00140745	-0.00815599	-2.5764e-05	
-0.00122121	-0.00680799	-8.15216e-07	
0.000736125	-0.00871691	2.40077e-05	
0.000301828	-0.00888599	9.59373e-07	
-1.52749e-09	-0.0079522	-4.58649e-06	
3.42127e-10	-0.00638383	-1.87478e-06	
-1.76319e-10	-0.00859057	1.3895e-07	
-0.00319656	-0.00471718	-2.3209e-07	
-2.4846e-11	-0.00886325	-5.71742e-07	
-0.00734025	-0.00331256	-5.02001e-08	
0.000994133	-0.00872814	2.08387e-05	
-1.83403e-09	-0.00879143	1.73766e-06	
0.0130368	-0.00175605	2.03261e-07	
0.00162377	-0.00454903	-7.47477e-08	
0.00166438	-0.00422873	1.90939e-06	
0.0045452	-0.003065	7.619e-07	
0.000134329	-0.00506218	1.22117e-06	
0.000154272	-0.00398939	-8.71185e-06	
0.00146647	-0.00453743	1.482e-05	
0.00152348	-0.00372428	6.65414e-07	
-0.000170316	-0.00486866	-1.13351e-05	
-0.0002588	-0.00506518	-5.37291e-07	
0.000848683	-0.00490753	1.00606e-05	
8.75504e-10	-0.00443424	2.86082e-06	
-1.86757e-10	-0.0034843	1.02253e-06	
1.44141e-10	-0.00476899	-1.13289e-07	
-1.6616e-13	-0.00252317	5.57351e-09	
2.92795e-05	-0.00507999	4.81844e-07	
-4.96774e-09	-0.00516922	7.71364e-08	
-0.000935482	-0.0049372	-1.21731e-05	
1.03631e-09	-0.00492703	-9.80508e-07	
-2.95005e-05	-0.00516916	-2.31475e-07	
-0.00161491	-0.00454186	1.77004e-07	
-0.00161191	-0.00422211	-1.85346e-06	
-0.00136645	-0.00491091	-1.23524e-05	
-0.0045426	-0.00306382	-7.60532e-07	
-0.000132747	-0.00506156	-1.222e-06	
-0.000156335	-0.00398895	8.71174e-06	
-0.00149307	-0.00452673	-1.52058e-05	
-0.0015223	-0.00372149	-6.65287e-07	
0.000633204	-0.00486793	1.3688e-05	
0.000264404	-0.00506523	5.35116e-07	
-8.50506e-10	-0.00442778	-2.55376e-06	
1.86642e-10	-0.00348261	-1.02276e-06	
-9.76491e-11	-0.00475764	7.69535e-08	
-0.00397871	-0.00252214	-1.42452e-07	
-1.42398e-11	-0.00507974	-3.27679e-07	
-0.00905322	-0.00175539	-1.4205e-08	
0.000942023	-0.00493881	1.21733e-05	
-1.02855e-09	-0.00493039	9.74513e-07	
0.0161201	-0.00213401	2.50904e-07	
0.00200592	-0.005996	-7.98865e-08	
0.00223469	-0.00551887	2.40404e-06	
0.00581168	-0.0038454	9.63586e-07	
0.000186728	-0.00676528	1.63315e-06	
0.000498522	-0.00516441	-1.119e-05	
0.00160598	-0.00599189	1.9148e-05	
0.00196424	-0.00477562	8.56003e-07	
4.20364e-05	-0.00645869	-1.46137e-05	
-0.000208707	-0.0067474	-7.33013e-07	
0.000942491	-0.00654203	1.32023e-05	
1.14539e-09	-0.00580118	3.74271e-06	
-2.36583e-10	-0.00441389	1.29533e-06	
1.91144e-10	-0.00632414	-1.50232e-07	
-2.0524e-13	-0.00311661	6.88437e-09	
4.59247e-05	-0.00677424	6.42465e-07	
2.36159e-08	-0.00688465	1.02734e-07	
-0.000869134	-0.00657875	-1.58406e-05	
1.38202e-09	-0.00657063	-1.3076e-06	
-4.61433e-05	-0.00688468	-3.08109e-07	
-0.00199478	-0.00599005	2.08836e-07	
-0.00217604	-0.00550974	-2.32594e-06	
-0.00155085	-0.00655071	-1.62739e-05	
-0.00580887	-0.00384436	-9.61947e-07	
-0.000184396	-0.00676511	-1.63444e-06	
-0.000501828	-0.00516475	1.11917e-05	
-0.00163436	-0.00598389	-1.96686e-05	
-0.00196325	-0.00477472	-8.56173e-07	
0.000500057	-0.00646056	1.77358e-05	
0.000216165	-0.0067482	7.30226e-07	
-1.11317e-09	-0.00579522	-3.34244e-06	
2.36492e-10	-0.00441277	-1.29592e-06	
-1.29669e-10	-0.00631769	1.02187e-07	
-0.00497916	-0.00311569	-1.76496e-07	
-1.899e-11	-0.00677427	-4.36988e-07	
-0.0111351	-0.00213341	-1.69465e-08	
0.000878078	-0.00658138	1.58425e-05	
-1.37179e-09	-0.0065757	1.29972e-06	
0.0185334	-0.00167609	2.41468e-07	
0.00230416	-0.00467182	-1.6205e-07	
0.00268739	-0.00429627	1.29466e-06	
0.00679417	-0.00300135	8.97906e-07	
0.000238526	-0.00532024	1.27413e-06	
0.000763791	-0.00402249	-8.60548e-06	
0.00171399	-0.00467594	1.55316e-05	
0.00230247	-0.00372252	8.65555e-07	
0.000214847	-0.00505034	-1.14093e-05	
-0.000158258	-0.00530988	-5.77606e-07	
0.00102768	-0.0051116	1.0638e-05	
8.93834e-10	-0.00452708	2.92071e-06	
-1.84703e-10	-0.00344597	1.01128e-06	
1.49138e-10	-0.00493434	-1.17217e-07	
-1.60649e-13	-0.00243949	5.38867e-09	
6.7081e-05	-0.00534168	5.06238e-07	
2.90012e-08	-0.00543697	8.11317e-08	
-0.000803227	-0.00516617	-1.25608e-05	
1.08235e-09	-0.0051459	-1.02407e-06	
-6.7353e-05	-0.00543697	-2.42481e-07	
-0.00228963	-0.00466589	2.95419e-07	
-0.00262325	-0.00428968	-1.24352e-06	
-0.0017039	-0.005117	-1.30129e-05	
-0.00679107	-0.00300053	-8.9612e-07	
-0.000235642	-0.00531997	-1.27536e-06	
-0.000768796	-0.00402273	8.60601e-06	
-0.00174292	-0.00466744	-1.59375e-05	
-0.00230105	-0.00372106	-8.65387e-07	
0.000383044	-0.00505094	1.38561e-05	
0.000167308	-0.00531039	5.74997e-07	
-8.68555e-10	-0.00452175	-2.60795e-06	
1.84623e-10	-0.00344492	-1.01169e-06	
-1.01107e-10	-0.00492612	7.96787e-08	
-0.00575666	-0.00243875	-1.5319e-07	
-1.4974e-11	-0.00534163	-3.44573e-07	
-0.0127702	-0.00167561	-3.64759e-09	
0.00081404	-0.00516826	1.25661e-05	
-1.07435e-09	-0.00514989	1.0179e-06	
0.0208387	-0.00158929	2.5447e-07	
0.00262907	-0.00462614	-2.07039e-07	
0.0031653	-0.00422313	9.3827e-07	
0.00777502	-0.00288738	9.44413e-07	
0.000296267	-0.00533993	1.2732e-06	
0.00104183	-0.0039359	-8.33374e-06	
0.00183476	-0.00464226	1.55899e-05	
0.00265155	-0.00362397	9.48057e-07	
0.000407864	-0.00503689	-1.12201e-05	
-0.000104276	-0.00532342	-5.85985e-07	
0.00112019	-0.00511033	1.0738e-05	
8.81612e-10	-0.00446518	2.88078e-06	
-1.78735e-10	-0.00333464	9.78605e-07	
1.4848e-10	-0.00491256	-1.167e-07	
-1.53456e-13	-0.00233025	5.14737e-09	
8.79949e-05	-0.00536116	5.07842e-07	
8.22841e-08	-0.00545647	8.14225e-08	
-0.000733591	-0.00517594	-1.25129e-05	
1.08364e-09	-0.00515201	-1.02528e-06	
-8.82264e-05	-0.00545653	-2.42793e-07	
-0.00261198	-0.00462093	3.54604e-07	
-0.00309602	-0.00421663	-8.90967e-07	
-0.00187579	-0.00511683	-1.31058e-05	
-0.00777177	-0.00288675	-9.42455e-07	
-0.000292677	-0.00533991	-1.27464e-06	
-0.00104814	-0.00393637	8.33438e-06	
-0.0018648	-0.00463515	-1.59977e-05	
-0.00265002	-0.00362314	-9.4786e-07	
0.000258991	-0.0050383	1.36657e-05	
0.000114907	-0.00532423	5.83217e-07	
-8.56779e-10	-0.00446044	-2.57259e-06	
1.78673e-10	-0.0033339	-9.79086e-07	
-1.00701e-10	-0.00490635	7.93589e-08	
-0.00651085	-0.00232967	-1.54522e-07	
-1.5029e-11	-0.00536126	-3.45839e-07	
-0.0143207	-0.00158891	1.85017e-09	
0.000746331	-0.00517831	1.25208e-05	
-1.07569e-09	-0.00515635	1.01917e-06	
0.0227091	-0.00128645	2.50757e-07	
0.00290336	-0.00379397	-2.70284e-07	
0.00356918	-0.00345341	1.64268e-07	
0.00858326	-0.00234646	9.14379e-07	
0.000349268	-0.00441864	1.04239e-06	
0.00127228	-0.00321529	-6.68423e-06	
0.00193726	-0.00381432	1.33588e-05	
0.00293932	-0.00295716	9.73031e-07	
0.000574365	-0.00414955	-9.1531e-06	
-5.40835e-05	-0.00440662	-4.89161e-07	
0.00120421	-0.00421026	9.15815e-06	
7.22905e-10	-0.00366136	2.36218e-06	
-1.45689e-10	-0.00271809	7.9767e-07	
1.22099e-10	-0.00403972	-9.5965e-08	
-1.24502e-13	-0.00189058	4.17617e-09	
0.000109086	-0.00444312	4.20454e-07	
1.16029e-07	-0.00452596	6.75371e-08	
-0.000669231	-0.00427905	-1.04079e-05	
8.94425e-10	-0.00425244	-8.46261e-07	
-0.00010931	-0.004526	-2.00407e-07	
-0.00288361	-0.00378882	4.24535e-07	
-0.00349535	-0.00344804	-1.33967e-07	
-0.00202579	-0.00421504	-1.10859e-05	
-0.00857978	-0.00234587	-9.12275e-07	
-0.000345126	-0.00441854	-1.04383e-06	
-0.00127985	-0.00321549	6.68365e-06	
-0.00196801	-0.00380741	-1.36962e-05	
-0.0029375	-0.00295611	-9.72615e-07	
0.000148683	-0.00415026	1.11752e-05	
6.60486e-05	-0.00440722	4.86465e-07	
-7.02439e-10	-0.00365694	-2.10917e-06	
1.45629e-10	-0.00271733	-7.98015e-07	
-8.27826e-11	-0.00403332	6.52378e-08	
-0.00712563	-0.00189004	-1.40276e-07	
-1.24553e-11	-0.00444316	-2.86615e-07	
-0.0155758	-0.00128609	1.10633e-08	
0.000683532	-0.00428097	1.0418e-05	
-8.87855e-10	-0.00425594	8.41206e-07	
0.0242547	-0.00105486	2.49098e-07	
0.003158	-0.00324744	-3.21776e-07	
0.00393716	-0.00293385	-4.18775e-07	
0.00928178	-0.00195245	8.99982e-07	
0.000400575	-0.00384031	8.958e-07	
0.00147858	-0.00272046	-5.53742e-06	
0.00203428	-0.00327536	1.19452e-05	
0.00319367	-0.00249078	1.00414e-06	
0.0007325	-0.00358133	-7.78649e-06	
-6.04401e-06	-0.00382808	-4.30139e-07	
0.00128495	-0.0036399	8.18747e-06	
6.16924e-10	-0.00312459	2.01587e-06	
-1.22062e-10	-0.00227729	6.68309e-07	
1.05123e-10	-0.00347805	-8.26225e-08	
-1.02889e-13	-0.00156239	3.45121e-09	
0.000129246	-0.00386511	3.65352e-07	
1.60346e-07	-0.00393904	5.87786e-08	
-0.000608203	-0.00371284	-9.0584e-06	
7.74976e-10	-0.00368453	-7.33244e-07	
-0.000129438	-0.00393908	-1.73487e-07	
-0.00313606	-0.00324275	4.83765e-07	
-0.00385938	-0.00292916	4.37364e-07	
-0.00216958	-0.00364422	-9.83569e-06	
-0.00927811	-0.00195193	-8.97754e-07	
-0.000395908	-0.0038403	-8.97299e-07	
-0.00148713	-0.00272057	5.53617e-06	
-0.00206583	-0.00326941	-1.22394e-05	
-0.00319161	-0.0024899	-1.00358e-06	
4.52302e-05	-0.00358204	9.54011e-06	
1.91694e-05	-0.00382869	4.27468e-07	
-5.99431e-10	-0.00312067	-1.79987e-06	
1.22011e-10	-0.00227663	-6.68593e-07	
-7.12768e-11	-0.00347273	5.61705e-08	
-0.00764174	-0.00156193	-1.30106e-07	
-1.08351e-11	-0.00386519	-2.49332e-07	
-0.0166048	-0.00105456	1.82745e-08	
0.000623864	-0.00371459	9.07065e-06	
-7.69304e-10	-0.00368767	7.28884e-07	
0.0253755	-0.000756958	2.40114e-07	
0.00336665	-0.002455	-3.74924e-07	
0.00423624	-0.00219864	-1.10115e-06	
0.0098179	-0.00142777	8.55158e-07	
0.000445656	-0.00295842	6.75591e-07	
0.00164155	-0.00203009	-3.97411e-06	
0.00211507	-0.0024866	9.79813e-06	
0.00339215	-0.00184969	1.00805e-06	
0.000865161	-0.00273563	-5.83738e-06	
3.64484e-05	-0.00294954	-3.36644e-07	
0.00135603	-0.00278343	6.67432e-06	
4.65281e-10	-0.00235655	1.52036e-06	
-9.01226e-11	-0.0016814	4.93436e-07	
8.00268e-11	-0.00264774	-6.28981e-08	
-7.46097e-14	-0.00113296	2.50264e-09	
0.000148085	-0.00298369	2.81465e-07	
1.87507e-07	-0.00304411	4.54242e-08	
-0.000554726	-0.00285529	-7.05379e-06	
5.94596e-10	-0.00282694	-5.62577e-07	
-0.000148268	-0.00304414	-1.32762e-07	
-0.00334277	-0.00245056	5.40964e-07	
-0.00415517	-0.00219488	1.10429e-06	
-0.0022921	-0.00278639	-7.9061e-06	
-0.00981399	-0.00142726	-8.52828e-07	
-0.000440608	-0.00295837	-6.77063e-07	
-0.00165091	-0.0020299	3.97172e-06	
-0.00214726	-0.00248127	-1.00266e-05	
-0.00338977	-0.0018487	-1.00729e-06	
-4.31015e-05	-0.00273583	7.18817e-06	
-2.24276e-05	-0.00294996	3.34092e-07	
-4.51977e-10	-0.00235302	-1.35712e-06	
9.00741e-11	-0.00168072	-4.93586e-07	
-5.42443e-11	-0.00264288	4.27478e-08	
-0.00802374	-0.00113252	-1.14423e-07	
-8.36414e-12	-0.00298372	-1.92471e-07	
-0.0173432	-0.000756672	2.61464e-08	
0.000571402	-0.0028566	7.06768e-06	
-5.9023e-10	-0.00282928	5.59219e-07	
0.0260858	-0.000467852	2.2859e-07	
0.00353572	-0.00170783	-4.2131e-07	
0.00447348	-0.0015017	-1.71762e-06	
0.0102014	-0.000923018	8.0365e-07	
0.000485065	-0.00213331	4.69938e-07	
0.00176561	-0.00137332	-2.49598e-06	
0.00218241	-0.00174399	7.76552e-06	
0.0035398	-0.00123752	1.00101e-06	
0.000976277	-0.00194174	-4.01843e-06	
7.35259e-05	-0.00212645	-2.48702e-07	
0.00141826	-0.00198137	5.2525e-06	
3.21764e-10	-0.00162967	1.0514e-06	
-5.94882e-11	-0.00110986	3.25708e-07	
5.64546e-11	-0.00186784	-4.43712e-08	
-4.72797e-14	-0.000717951	1.5859e-09	
0.000165128	-0.00215805	2.02896e-07	
2.07348e-07	-0.00220525	3.29065e-08	
-0.000508675	-0.00205207	-5.18026e-06	
4.25721e-10	-0.00202404	-4.02796e-07	
-0.000165306	-0.00220527	-9.46049e-08	
-0.00351032	-0.00170381	5.89947e-07	
-0.00438985	-0.00149881	1.70648e-06	
-0.00239668	-0.0019833	-6.0957e-06	
-0.0101972	-0.000922534	-8.01249e-07	
-0.000479743	-0.00213327	-4.71378e-07	
-0.00177551	-0.00137289	2.49268e-06	
-0.00221518	-0.00173956	-7.93299e-06	
-0.0035371	-0.00123656	-1.00007e-06	
-0.00011742	-0.00194164	4.99168e-06	
-5.88626e-05	-0.00212675	2.46292e-07	
-3.1245e-10	-0.00162663	-9.38172e-07	
5.9445e-11	-0.0011092	-3.25746e-07	
-3.82552e-11	-0.00186386	3.01475e-08	
-0.00827731	-0.00071755	-9.83325e-08	
-6.04964e-12	-0.00215807	-1.39211e-07	
-0.0177995	-0.000467595	3.31606e-08	
0.000526056	-0.00205301	5.19554e-06	
-4.2259e-10	-0.00202569	4.00387e-07	
0.0263539	-0.0001581	2.12422e-07	
0.0036558	-0.000879484	-4.63705e-07	
0.00463708	-0.000734417	-2.33329e-06	
0.0104146	-0.000376748	7.34853e-07	
0.000516884	-0.00120483	2.39821e-07	
0.00184426	-0.000653035	-8.91777e-07	
0.00223238	-0.000918371	5.4739e-06	
0.0036291	-0.000568863	9.74825e-07	
0.00105948	-0.00105475	-2.0198e-06	
0.000103651	-0.00120111	-1.48368e-07	
0.00146889	-0.00108321	3.63923e-06	
1.63203e-10	-0.000826589	5.33286e-07	
-2.61797e-11	-0.000488431	1.43338e-07	
3.01741e-11	-0.000998332	-2.37158e-08	
-1.78491e-14	-0.000271042	5.98712e-10	
0.000179992	-0.00122862	1.145e-07	
2.1003e-07	-0.00126078	1.88129e-08	
-0.00047194	-0.00114995	-3.0911e-06	
2.36254e-10	-0.00112324	-2.23532e-07	
-0.000180185	-0.00126079	-5.17604e-08	
-0.00362928	-0.000875872	6.32218e-07	
-0.00455167	-0.000732473	2.30696e-06	
-0.00247756	-0.00108383	-4.04895e-06	
-0.0104101	-0.000376265	-7.32411e-07	
-0.000511438	-0.00120476	-2.41179e-07	
-0.00185446	-0.000652306	8.87469e-07	
-0.0022656	-0.000914795	-5.573e-06	
-0.00362605	-0.000567843	-9.73684e-07	
-0.000174374	-0.0010542	2.57027e-06	
-8.86319e-05	-0.00120122	1.46156e-07	
-1.58285e-10	-0.000824039	-4.75271e-07	
2.61399e-11	-0.000487751	-1.43241e-07	
-2.04242e-11	-0.000995102	1.60955e-08	
-0.00839102	-0.000270661	-7.97149e-08	
-3.44411e-12	-0.00122861	-7.92539e-08	
-0.0179536	-0.000157859	3.98722e-08	
0.000489668	-0.00115041	3.10735e-06	
-2.34496e-10	-0.00112406	2.22176e-07	
0.0261844	0.000148428	1.93113e-07	
0.00372743	-5.89025e-05	-4.99346e-07	
0.00472738	2.5509e-05	-2.89646e-06	
0.0104586	0.000164173	6.56015e-07	
0.00054092	-0.000283869	1.24008e-08	
0.00187807	6.04895e-05	6.84424e-07	
0.00226515	-0.000100189	3.18151e-06	
0.00366067	9.36611e-05	9.34246e-07	
0.00111506	-0.000175451	-6.03896e-08	
0.000126551	-0.000282922	-4.79205e-08	
0.00150753	-0.000193177	2.0278e-06	
6.05363e-12	-3.06604e-05	1.9781e-08	
6.82743e-12	0.000127378	-3.73813e-08	
4.13043e-12	-0.000136658	-3.24637e-09	
1.12891e-14	0.000171427	-3.78671e-10	
0.00019236	-0.000306123	2.67915e-08	
1.98496e-07	-0.000323017	4.81932e-09	
-0.000444804	-0.000255116	-1.0282e-06	
4.83963e-11	-0.000230094	-4.57902e-08	
-0.000192585	-0.000323005	-9.28452e-09	
-0.00370023	-5.58028e-05	6.65633e-07	
-0.00464099	2.64969e-05	2.85552e-06	
-0.00253472	-0.00019258	-2.00957e-06	
-0.0104538	0.000164641	-6.53565e-07	
-0.000535488	-0.00028378	-1.36557e-08	
-0.0018883	6.14868e-05	-6.89587e-07	
-0.00229873	-9.75881e-05	-3.21321e-06	
-0.00365726	9.46834e-05	-9.32913e-07	
-0.000213737	-0.000174518	1.91668e-07	
-0.000111462	-0.000282865	4.59415e-08	
-5.50591e-12	-2.86641e-05	-1.65322e-08	
-6.86261e-12	0.000128051	3.76056e-08	
-2.7571e-12	-0.000134331	2.17277e-09	
-0.00836614	0.000171775	-6.01708e-08	
-8.58022e-13	-0.00030608	-1.97443e-08	
-0.0178085	0.000148646	4.57994e-08	
0.00046253	-0.000255129	1.0451e-06	
-4.80036e-11	-0.000230106	4.54814e-08	
0.0255764	0.000454596	1.70456e-07	
0.00374751	0.000774486	-5.28477e-07	
0.00474069	0.000794698	-3.41598e-06	
0.0103302	0.000707264	5.65736e-07	
0.000556353	0.000658261	-2.19269e-07	
0.00186539	0.000781505	2.26341e-06	
0.00227928	0.000731982	8.25381e-07	
0.00363272	0.000761971	8.7794e-07	
0.0011408	0.000721017	1.91205e-06	
0.000141553	0.000656131	5.58784e-08	
0.00153291	0.000715015	3.67942e-07	
-1.53327e-10	0.000776568	-5.01014e-07	
4.00527e-11	0.000747257	-2.19295e-07	
-2.23937e-11	0.00074091	1.76006e-08	
4.04717e-14	0.00061457	-1.35754e-09	
0.000201965	0.000637989	-6.29361e-08	
1.69854e-07	0.000636939	-9.50526e-09	
-0.000428024	0.000659543	1.06937e-06	
-1.43509e-10	0.000682297	1.35781e-07	
-0.000202239	0.000636968	3.4114e-08	
-0.00372007	0.000777039	6.90156e-07	
-0.00465417	0.000794714	3.36068e-06	
-0.0025659	0.000716884	8.5479e-08	
-0.0103251	0.00070772	-5.63309e-07	
-0.000551086	0.000658379	2.18152e-07	
-0.0018754	0.000782775	-2.26937e-06	
-0.00231308	0.000733599	-7.88435e-07	
-0.00362894	0.000763005	-8.76416e-07	
-0.000234262	0.000722359	-2.20864e-06	
-0.000126687	0.000656377	-5.7585e-08	
1.4944e-10	0.000777995	4.48715e-07	
-4.00835e-11	0.000747928	2.19649e-07	
1.52366e-11	0.000742353	-1.20074e-08	
-0.00820165	0.00061489	-3.94674e-08	
1.78867e-12	0.000638069	4.11599e-08	
-0.0173647	0.000454794	5.10021e-08	
0.000445389	0.000660007	-1.05223e-06	
1.42511e-10	0.000683128	-1.35023e-07	
0.0245439	0.000750584	1.4515e-07	
0.00371633	0.00158684	-5.50061e-07	
0.00467767	0.0015432	-3.87231e-06	
0.0100331	0.00123377	4.67112e-07	
0.000562998	0.00157995	-4.44994e-07	
0.00180712	0.0014827	3.7855e-06	
0.00227467	0.00154382	-1.49671e-06	
0.00354637	0.00141151	8.07998e-07	
0.00113677	0.00159662	3.81494e-06	
0.000148496	0.00157489	1.58417e-07	
0.00154464	0.00160223	-1.26805e-06	
-3.0862e-10	0.0015631	-1.00846e-06	
7.2315e-11	0.00134917	-3.95937e-07	
-4.82869e-11	0.00159761	3.79517e-08	
6.87275e-14	0.00104364	-2.30533e-09	
0.000208614	0.00156208	-1.50728e-07	
1.25441e-07	0.00157679	-2.35298e-08	
-0.00042168	0.00155411	3.11073e-06	
-3.31133e-10	0.00157433	3.13302e-07	
-0.000208957	0.00157683	7.65292e-08	
-0.0036891	0.00158877	7.04988e-07	
-0.00459184	0.00154225	3.80348e-06	
-0.00257083	0.00160531	2.14502e-06	
-0.0100276	0.0012342	-4.64741e-07	
-0.000558037	0.00158009	4.44037e-07	
-0.00181665	0.00148421	-3.7921e-06	
-0.00230856	0.00154441	1.60046e-06	
-0.00354221	0.00141253	-8.06293e-07	
-0.000235903	0.00159833	-4.52971e-06	
-0.00013414	0.00157532	-1.59821e-07	
3.00404e-10	0.00156392	9.02002e-07	
-7.23407e-11	0.00134982	3.96411e-07	
3.28007e-11	0.00159811	-2.5849e-08	
-0.00790152	0.00104392	-1.82826e-08	
4.37922e-12	0.00156219	1.00772e-07	
-0.0166321	0.000750758	5.53029e-08	
0.000438337	0.00155503	-3.0937e-06	
3.28773e-10	0.00157598	-3.11499e-07	
0.0231082	0.00103102	1.17668e-07	
0.00363409	0.00236783	-5.63798e-07	
0.00453921	0.00226071	-4.25925e-06	
0.00957311	0.00173502	3.61813e-07	
0.000560624	0.00247136	-6.62354e-07	
0.00170438	0.00215402	5.22894e-06	
0.00225109	0.00232535	-3.75657e-06	
0.00340319	0.00203258	7.25538e-07	
0.00110291	0.00244121	5.62617e-06	
0.000147218	0.00246342	2.58597e-07	
0.00154225	0.00245849	-2.86213e-06	
-4.57772e-10	0.00231852	-1.49583e-06	
1.03109e-10	0.00192368	-5.64536e-07	
-7.32419e-11	0.00242326	5.75654e-08	
9.55686e-14	0.00145123	-3.20566e-09	
0.000212153	0.00245628	-2.35647e-07	
6.5191e-08	0.00248651	-3.71045e-08	
-0.00042583	0.00241881	5.07359e-06	
-5.12409e-10	0.00243619	4.84816e-07	
-0.000212581	0.00248657	1.17506e-07	
-0.00360753	0.0023691	7.09907e-07	
-0.0044549	0.00225881	4.17788e-06	
-0.002549	0.00246272	4.14629e-06	
-0.00956724	0.00173543	-3.59529e-07	
-0.000556109	0.00247153	6.61582e-07	
-0.00171318	0.00215574	-5.23605e-06	
-0.00228494	0.0023249	3.92457e-06	
-0.00339866	0.00203356	-7.23664e-07	
-0.000218627	0.00244326	-6.74468e-06	
-0.000133649	0.00246403	-2.59673e-07	
4.45389e-10	0.00231872	1.33734e-06	
-1.03129e-10	0.00192431	5.65123e-07	
4.97278e-11	0.00242283	-3.91886e-08	
-0.00747186	0.00145147	3.01097e-09	
6.88601e-12	0.00245643	1.58457e-07	
-0.0156258	0.00103117	5.86283e-08	
0.000441444	0.00242018	-5.05705e-06	
5.08733e-10	0.00243862	-4.82004e-07	
0.0212999	0.00128952	8.86222e-08	
0.00350263	0.00309774	-5.69309e-07	
0.00432842	0.00292947	-4.56702e-06	
0.00896006	0.00219925	2.52259e-07	
0.000549319	0.00330902	-8.65625e-07	
0.00155959	0.00277902	6.55837e-06	
0.00220896	0.00305667	-5.89689e-06	
0.0032063	0.00261014	6.32468e-07	
0.00104016	0.00323297	7.29913e-06	
0.000137825	0.0032984	3.53779e-07	
0.00152573	0.00326151	-4.37291e-06	
-5.97052e-10	0.00302394	-1.95094e-06	
1.31699e-10	0.00245708	-7.21072e-07	
-9.6618e-11	0.00319667	7.59382e-08	
1.20373e-13	0.00182789	-4.03768e-09	
0.000212507	0.00329705	-3.15457e-07	
-9.46653e-09	0.00334213	-4.9872e-08	
-0.000440197	0.00323101	6.90672e-06	
-6.826e-10	0.00324534	6.45842e-07	
-0.000213036	0.0033422	1.55967e-07	
-0.00347717	0.0030983	7.04746e-07	
-0.00424644	0.00292666	4.47444e-06	
-0.00250087	0.00326682	6.03728e-06	
-0.00895382	0.00219962	-2.50092e-07	
-0.000545381	0.0033092	8.65056e-07	
-0.00156743	0.00278093	-6.56582e-06	
-0.00224263	0.00305517	6.12489e-06	
-0.0032014	0.00261107	-6.30442e-07	
-0.000182998	0.00323532	-8.79646e-06	
-0.000125303	0.00329916	-3.54508e-07	
5.80768e-10	0.00302351	1.74383e-06	
-1.31713e-10	0.00245767	7.21759e-07	
6.55827e-11	0.00319531	-5.16832e-08	
-0.00692183	0.00182809	2.39259e-08	
9.24299e-12	0.00329723	2.12695e-07	
-0.0143674	0.00128964	6.08989e-08	
0.000454457	0.0032328	-6.89102e-06	
6.77689e-10	0.00324851	-6.42082e-07	
				</DataArray>
			</CellData>
			<Points>
				<DataArray type="Float64" Name="Position" NumberOfComponents="3" Format="ascii">
2.87069	1.91501	0.384943	
2.80889	1.08428	0.425652	
2.8224	1.29544	0.414423	
2.86243	1.70904	0.361523	
2.7981	0.265295	0.455621	
2.832	1.40005	0.400994	
2.81242	0.982959	0.420732	
2.8435	1.50258	0.384903	
2.80184	0.781821	0.427675	
2.79341	0.371932	0.452033	
2.8012	0.678185	0.431992	
2.81623	1.19017	0.422664	
2.85404	1.60575	0.369984	
2.81364	0.884053	0.420669	
2.87326	1.81771	0.357956	
2.80011	0.159561	0.455506	
2.79993	0.0534934	0.455967	
2.79981	0.475637	0.442571	
2.8066	0.576399	0.433795	
2.79981	-0.0531644	0.455781	
2.80909	-1.08409	0.424715	
2.82259	-1.29527	0.412966	
2.79966	-0.677543	0.433639	
2.86479	-1.70759	0.360638	
2.79818	-0.265155	0.455307	
2.83234	-1.39962	0.398806	
2.81349	-0.983071	0.419369	
2.84409	-1.50189	0.382167	
2.80028	-0.781914	0.429381	
2.79361	-0.371723	0.451475	
2.81664	-1.1899	0.421331	
2.85556	-1.60485	0.366909	
2.81463	-0.884011	0.420155	
2.86871	-1.81138	0.371513	
2.80001	-0.159427	0.455514	
2.86935	-1.91315	0.399586	
2.80034	-0.475255	0.441973	
2.80758	-0.575808	0.433687	
2.76782	1.90948	0.350184	
2.7304	1.08476	0.350163	
2.73674	1.29338	0.343394	
2.78145	1.71566	0.293076	
2.71737	0.264759	0.38087	
2.75	1.39822	0.330984	
2.74408	0.985578	0.342466	
2.76637	1.50303	0.313683	
2.73496	0.781499	0.34914	
2.71487	0.370658	0.375617	
2.73486	0.678337	0.353191	
2.733	1.18926	0.349927	
2.77799	1.60952	0.297985	
2.75131	0.885251	0.341538	
2.78528	1.82933	0.299983	
2.71958	0.159503	0.381239	
2.72083	0.0533686	0.38068	
2.72962	0.473619	0.36471	
2.74383	0.57561	0.355736	
2.72069	-0.0532317	0.3807	
2.73014	-1.08447	0.349239	
2.73691	-1.29321	0.341671	
2.73239	-0.677842	0.355118	
2.78503	-1.71602	0.291467	
2.71758	-0.264626	0.380475	
2.75068	-1.39793	0.328189	
2.74436	-0.985576	0.341792	
2.7677	-1.50274	0.309964	
2.73199	-0.781352	0.351272	
2.71493	-0.370476	0.375132	
2.73275	-1.18892	0.348726	
2.78085	-1.60979	0.293532	
2.75212	-0.884968	0.340854	
2.7776	-1.81691	0.318027	
2.71974	-0.159391	0.380889	
2.76457	-1.90245	0.370783	
2.73055	-0.473256	0.364236	
2.74531	-0.57526	0.355597	
2.66272	1.90589	0.315787	
2.66086	1.08845	0.274797	
2.66536	1.29615	0.270404	
2.6939	1.72861	0.230724	
2.65387	0.264067	0.306743	
2.67284	1.4013	0.261306	
2.67673	0.989788	0.267213	
2.6839	1.50828	0.246885	
2.66727	0.78268	0.273238	
2.65177	0.369509	0.301031	
2.66854	0.678979	0.277186	
2.66205	1.19255	0.276307	
2.6951	1.61886	0.230937	
2.68127	0.887817	0.26631	
2.69298	1.84994	0.25001	
2.65676	0.15934	0.307313	
2.65788	0.0533814	0.306237	
2.66504	0.472547	0.289891	
2.67642	0.575596	0.280687	
2.6577	-0.0531846	0.306713	
2.6608	-1.08823	0.273565	
2.66568	-1.29609	0.268429	
2.66572	-0.67855	0.279289	
2.69937	-1.73194	0.228693	
2.654	-0.263954	0.306368	
2.67377	-1.40129	0.258005	
2.6773	-0.98977	0.266508	
2.68573	-1.50869	0.242307	
2.66439	-0.782448	0.275589	
2.65231	-0.36939	0.300237	
2.6619	-1.19243	0.275305	
2.69915	-1.62092	0.225119	
2.68307	-0.887739	0.266396	
2.6825	-1.82894	0.2703	
2.65663	-0.15927	0.307189	
2.65787	-1.89151	0.341097	
2.66623	-0.472354	0.289018	
2.6782	-0.575437	0.280632	
2.56636	1.91124	0.279558	
2.61185	1.09634	0.197799	
2.61069	1.30531	0.194114	
2.6137	1.7504	0.167319	
2.61293	0.263811	0.230012	
2.61151	1.41092	0.187885	
2.62794	0.997033	0.18977	
2.61545	1.51989	0.175619	
2.61744	0.785707	0.196897	
2.61072	0.36872	0.224798	
2.62054	0.681323	0.200985	
2.61169	1.20041	0.197886	
2.62223	1.63535	0.159984	
2.63113	0.892663	0.188661	
2.60447	1.87791	0.202674	
2.61508	0.159364	0.230404	
2.61583	0.0533381	0.230043	
2.62105	0.472048	0.213632	
2.62926	0.57644	0.20336	
2.61556	-0.0532465	0.230107	
2.61186	-1.09626	0.196921	
2.61097	-1.30536	0.191864	
2.61777	-0.681209	0.203499	
2.61913	-1.75706	0.165998	
2.61307	-0.263749	0.229645	
2.6124	-1.41127	0.184218	
2.62898	-0.996936	0.188571	
2.61731	-1.52113	0.170528	
2.61415	-0.785233	0.199142	
2.61112	-0.368692	0.223937	
2.61171	-1.2003	0.196718	
2.62654	-1.63951	0.153496	
2.63318	-0.892423	0.18868	
2.5936	-1.84967	0.224596	
2.61486	-0.159337	0.230315	
2.56068	-1.88924	0.305919	
2.62223	-0.472034	0.212624	
2.63115	-0.57663	0.203124	
2.46626	1.91201	0.249938	
2.51885	1.10004	0.129434	
2.51678	1.31124	0.130141	
2.51227	1.76433	0.119484	
2.52508	0.264167	0.15834	
2.51482	1.4173	0.128537	
2.53438	1.00026	0.120538	
2.51608	1.52739	0.120446	
2.52213	0.787683	0.130009	
2.52218	0.369459	0.153888	
2.52546	0.682774	0.132975	
2.51738	1.20523	0.13155	
2.52242	1.64657	0.10528	
2.53655	0.895369	0.12033	
2.50267	1.8966	0.167685	
2.52741	0.159572	0.158091	
2.52862	0.0533981	0.157936	
2.52894	0.473261	0.143503	
2.53554	0.577899	0.133675	
2.52824	-0.0533369	0.158118	
2.51898	-1.09998	0.128444	
2.51715	-1.31145	0.127729	
2.52239	-0.682561	0.135856	
2.51789	-1.77328	0.11817	
2.52536	-0.264157	0.157805	
2.5157	-1.41797	0.124646	
2.53533	-1.00018	0.119	
2.51803	-1.52922	0.114781	
2.5191	-0.787244	0.132083	
2.52266	-0.369488	0.152916	
2.51763	-1.20521	0.130257	
2.52665	-1.6522	0.0981876	
2.53782	-0.895103	0.120223	
2.49225	-1.86116	0.189385	
2.52706	-0.159574	0.158109	
2.46078	-1.88443	0.276611	
2.53036	-0.473305	0.142233	
2.53745	-0.578149	0.133101	
2.36837	1.91511	0.222395	
2.42156	1.10402	0.074052	
2.4184	1.31689	0.0770002	
2.40985	1.77575	0.0795348	
2.42906	0.264725	0.0979672	
2.41502	1.42318	0.0788388	
2.43585	1.00359	0.0620518	
2.41495	1.53413	0.0740557	
2.42311	0.789496	0.0744622	
2.42753	0.370361	0.0946245	
2.42714	0.684408	0.076236	
2.41948	1.21	0.0768757	
2.41993	1.65603	0.0595901	
2.43513	0.897535	0.0638111	
2.40046	1.91038	0.136905	
2.43186	0.159926	0.0973223	
2.43421	0.0534635	0.096554	
2.43218	0.474554	0.0845196	
2.43679	0.579423	0.0754141	
2.43376	-0.0534452	0.096882	