<VTKFile type="UnstructuredGrid" version="0.1" byte_order="LittleEndian">
	<UnstructuredGrid>
		<Piece NumberOfPoints="228" NumberOfCells="228">
			<CellData Scalars="scalars">
				<DataArray type="Float64" Name="Strength" NumberOfComponents="3" Format="ascii">
0.00503251	-0.0036439	2.59746e-07	
0.000776786	-0.00782196	1.43204e-07	
0.000488137	-0.00660014	4.25326e-06	
0.00160011	-0.00601116	1.02597e-06	
9.24734e-05	-0.00810609	1.96953e-06	
-0.000538076	-0.00672158	-1.49127e-05	
0.0011661	-0.00782343	2.3811e-05	
0.00058836	-0.00719863	6.80368e-07	
-0.000580666	-0.00831945	-1.91801e-05	
-0.000308181	-0.0080048	-8.61917e-07	
0.00068892	-0.00866977	1.68762e-05	
1.43973e-09	-0.00729191	4.70448e-06	
-3.60752e-10	-0.00673051	1.97518e-06	
2.79776e-10	-0.0092566	-2.19894e-07	
-3.34998e-13	-0.005087	1.12368e-08	
2.77075e-06	-0.00806727	7.65708e-07	
1.55457e-07	-0.00818128	1.22082e-07	
-0.00102562	-0.00817119	-1.96206e-05	
1.95095e-09	-0.00927555	-1.84589e-06	
-2.51726e-06	-0.00818144	-3.67564e-07	
-0.000777156	-0.00773318	-5.46977e-08	
-0.000455789	-0.00657905	-4.13242e-06	
-0.00104563	-0.00868063	-2.09965e-05	
-0.00159973	-0.00600915	-1.02509e-06	
-9.16015e-05	-0.00810648	-1.97069e-06	
0.000539702	-0.00671911	1.49102e-05	
-0.00118961	-0.00778955	-2.44097e-05	
-0.000589284	-0.00719781	-6.81524e-07	
0.000922058	-0.00831884	2.31891e-05	
0.000309631	-0.0080061	8.59581e-07	
-1.39386e-09	-0.00725653	-4.18526e-06	
3.60611e-10	-0.00672873	-1.97607e-06	
-1.89761e-10	-0.00924551	1.49544e-07	
-0.00147606	-0.00508563	-2.3428e-07	
-2.26158e-11	-0.00806769	-5.20423e-07	
-0.00355509	-0.00364311	-6.60555e-08	
0.00102729	-0.00817392	1.96124e-05	
-1.93594e-09	-0.00927997	1.83423e-06	
0.00587241	-0.00056685	7.67753e-08	
0.000909214	-0.00162729	-7.1725e-08	
0.00066467	-0.00146684	7.13505e-07	
0.00198284	-0.00104916	2.90833e-07	
8.82899e-05	-0.00184996	4.40319e-07	
-0.000470663	-0.00139381	-3.19782e-06	
0.00121149	-0.00166823	6.30819e-06	
0.000684119	-0.0013143	2.72484e-07	
-0.000529471	-0.00183274	-5.02424e-06	
-0.00030108	-0.00188959	-1.74461e-07	
0.000733286	-0.00182	4.19435e-06	
3.13667e-10	-0.00158866	1.02495e-06	
-6.64992e-11	-0.00124067	3.64094e-07	
5.34182e-11	-0.00176738	-4.19847e-08	
-5.59089e-14	-0.000848986	1.87535e-09	
2.18581e-05	-0.00187805	1.78005e-07	
1.0294e-07	-0.00192349	2.87023e-08	
-0.00100631	-0.00184927	-5.21998e-06	
3.88341e-10	-0.00184632	-3.67429e-07	
-2.17772e-05	-0.00192343	-8.58379e-08	
-0.000905309	-0.00161618	1.22846e-07	
-0.000626292	-0.00146247	-7.01031e-07	
-0.00108324	-0.00181803	-5.02372e-06	
-0.00198143	-0.00104803	-2.9014e-07	
-8.74425e-05	-0.00184945	-4.40588e-07	
0.00047066	-0.00139154	3.19332e-06	
-0.00123495	-0.00165586	-6.4391e-06	
-0.000683075	-0.00131042	-2.72051e-07	
0.00085038	-0.00182954	5.919e-06	
0.000303352	-0.00188934	1.73554e-07	
-3.03537e-10	-0.00158023	-9.1141e-07	
6.63861e-11	-0.00123872	-3.63781e-07	
-3.60119e-11	-0.00175456	2.83796e-08	
-0.00176244	-0.000848083	-5.13352e-08	
-5.26401e-12	-0.00187782	-1.21133e-07	
-0.00410771	-0.000566295	-1.73253e-09	
0.00100852	-0.00184984	5.21897e-06	
-3.85403e-10	-0.00184744	3.65154e-07	
0.0105407	-0.00331362	2.80659e-07	
0.00137494	-0.008229	7.58724e-08	
0.00127007	-0.0076894	4.47844e-06	
0.00360771	-0.00570732	1.10683e-06	
0.000100279	-0.00891654	2.16833e-06	
-7.63251e-05	-0.00726646	-1.59731e-05	
0.00138054	-0.00816595	2.50624e-05	
0.00122127	-0.00680918	8.14459e-07	
-0.000305077	-0.00871607	-1.98096e-05	
-0.000297793	-0.00888571	-9.62396e-07	
0.000780253	-0.00882824	1.72718e-05	
1.57204e-09	-0.00796203	5.13682e-06	
-3.42289e-10	-0.00638604	1.87409e-06	
2.59851e-10	-0.00859735	-2.04233e-07	
-3.10753e-13	-0.00471884	1.04236e-08	
1.05121e-05	-0.00886341	8.41186e-07	
5.56507e-08	-0.00897393	1.33911e-07	
-0.000989321	-0.0087261	-2.08464e-05	
1.84814e-09	-0.00878675	-1.74862e-06	
-1.05465e-05	-0.00897388	-4.02954e-07	
-0.00137059	-0.00822201	3.99435e-08	
-0.00122353	-0.00767276	-4.34898e-06	
-0.00125166	-0.00883976	-2.14554e-05	
-0.00360576	-0.00570519	-1.10544e-06	
-9.89901e-05	-0.00891596	-2.1695e-06	
7.66336e-05	-0.00726495	1.59725e-05	
-0.00140745	-0.00815599	-2.5764e-05	
-0.00122121	-0.00680799	-8.15216e-07	
0.000736125	-0.00871691	2.40077e-05	
0.000301828	-0.00888599	9.59373e-07	
-1.52749e-09	-0.0079522	-4.58649e-06	
3.42127e-10	-0.00638383	-1.87478e-06	
-1.76319e-10	-0.00859057	1.3895e-07	
-0.00319656	-0.00471718	-2.3209e-07	
-2.4846e-11	-0.00886325	-5.71742e-07	
-0.00734025	-0.00331256	-5.02001e-08	
0.000994133	-0.00872814	2.08387e-05	
-1.83403e-09	-0.00879143	1.73766e-06	
0.0130368	-0.00175605	2.03261e-07	
0.00162377	-0.00454903	-7.47477e-08	
0.00166438	-0.00422873	1.90939e-06	
0.0045452	-0.003065	7.619e-07	
0.000134329	-0.00506218	1.22117e-06	
0.000154272	-0.00398939	-8.71185e-06	
0.00146647	-0.00453743	1.482e-05	
0.00152348	-0.00372428	6.65414e-07	
-0.000170316	-0.00486866	-1.13351e-05	
-0.0002588	-0.00506518	-5.37291e-07	
0.000848683	-0.00490753	1.00606e-05	
8.75504e-10	-0.00443424	2.86082e-06	
-1.86757e-10	-0.0034843	1.02253e-06	
1.44141e-10	-0.00476899	-1.13289e-07	
-1.6616e-13	-0.00252317	5.57351e-09	
2.92795e-05	-0.00507999	4.81844e-07	
-4.96774e-09	-0.00516922	7.71364e-08	
-0.000935482	-0.0049372	-1.21731e-05	
1.03631e-09	-0.00492703	-9.80508e-07	
-2.95005e-05	-0.00516916	-2.31475e-07	
-0.00161491	-0.00454186	1.77004e-07	
-0.00161191	-0.00422211	-1.85346e-06	
-0.00136645	-0.00491091	-1.23524e-05	
-0.0045426	-0.00306382	-7.60532e-07	
-0.000132747	-0.00506156	-1.222e-06	
-0.000156335	-0.00398895	8.71174e-06	
-0.00149307	-0.00452673	-1.52058e-05	
-0.0015223	-0.00372149	-6.65287e-07	
0.000633204	-0.00486793	1.3688e-05	
0.000264404	-0.00506523	5.35116e-07	
-8.50506e-10	-0.00442778	-2.55376e-06	
1.86642e-10	-0.00348261	-1.02276e-06	
-9.76491e-11	-0.00475764	7.69535e-08	
-0.00397871	-0.00252214	-1.42452e-07	
-1.42398e-11	-0.00507974	-3.27679e-07	
-0.00905322	-0.00175539	-1.4205e-08	
0.000942023	-0.00493881	1.21733e-05	
-1.02855e-09	-0.00493039	9.74513e-07	
0.0161201	-0.00213401	2.50904e-07	
0.00200592	-0.005996	-7.98865e-08	
0.00223469	-0.00551887	2.40404e-06	
0.00581168	-0.0038454	9.63586e-07	
0.000186728	-0.00676528	1.63315e-06	
0.000498522	-0.00516441	-1.119e-05	
0.00160598	-0.00599189	1.9148e-05	
0.00196424	-0.00477562	8.56003e-07	
4.20364e-05	-0.00645869	-1.46137e-05	
-0.000208707	-0.0067474	-7.33013e-07	
0.000942491	-0.00654203	1.32023e-05	
1.14539e-09	-0.00580118	3.74271e-06	
-2.36583e-10	-0.00441389	1.29533e-06	
1.91144e-10	-0.00632414	-1.50232e-07	
-2.0524e-13	-0.00311661	6.88437e-09	
4.59247e-05	-0.00677424	6.42465e-07	
2.36159e-08	-0.00688465	1.02734e-07	
-0.000869134	-0.00657875	-1.58406e-05	
1.38202e-09	-0.00657063	-1.3076e-06	
-4.61433e-05	-0.00688468	-3.08109e-07	
-0.00199478	-0.00599005	2.08836e-07	
-0.00217604	-0.00550974	-2.32594e-06	
-0.00155085	-0.00655071	-1.62739e-05	
-0.00580887	-0.00384436	-9.61947e-07	
-0.000184396	-0.00676511	-1.63444e-06	
-0.000501828	-0.00516475	1.11917e-05	
-0.00163436	-0.00598389	-1.96686e-05	
-0.00196325	-0.00477472	-8.56173e-07	
0.000500057	-0.00646056	1.77358e-05	
0.000216165	-0.0067482	7.30226e-07	
-1.11317e-09	-0.00579522	-3.34244e-06	
2.36492e-10	-0.00441277	-1.29592e-06	
-1.29669e-10	-0.00631769	1.02187e-07	
-0.00497916	-0.00311569	-1.76496e-07	
-1.899e-11	-0.00677427	-4.36988e-07	
-0.0111351	-0.00213341	-1.69465e-08	
0.000878078	-0.00658138	1.58425e-05	
-1.37179e-09	-0.0065757	1.29972e-06	
0.0185334	-0.00167609	2.41468e-07	
0.00230416	-0.00467182	-1.6205e-07	
0.00268739	-0.00429627	1.29466e-06	
0.00679417	-0.00300135	8.97906e-07	
0.000238526	-0.00532024	1.27413e-06	
0.000763791	-0.00402249	-8.60548e-06	
0.00171399	-0.00467594	1.55316e-05	
0.00230247	-0.00372252	8.65555e-07	
0.000214847	-0.00505034	-1.14093e-05	
-0.000158258	-0.00530988	-5.77606e-07	
0.00102768	-0.0051116	1.0638e-05	
8.93834e-10	-0.00452708	2.92071e-06	
-1.84703e-10	-0.00344597	1.01128e-06	
1.49138e-10	-0.00493434	-1.17217e-07	
-1.60649e-13	-0.00243949	5.38867e-09	
6.7081e-05	-0.00534168	5.06238e-07	
2.90012e-08	-0.00543697	8.11317e-08	
-0.000803227	-0.00516617	-1.25608e-05	
1.08235e-09	-0.0051459	-1.02407e-06	
-6.7353e-05	-0.00543697	-2.42481e-07	
-0.00228963	-0.00466589	2.95419e-07	
-0.00262325	-0.00428968	-1.24352e-06	
-0.0017039	-0.005117	-1.30129e-05	
-0.00679107	-0.00300053	-8.9612e-07	
-0.000235642	-0.00531997	-1.27536e-06	
-0.000768796	-0.00402273	8.60601e-06	
-0.00174292	-0.00466744	-1.59375e-05	
-0.00230105	-0.00372106	-8.65387e-07	
0.000383044	-0.00505094	1.38561e-05	
0.000167308	-0.00531039	5.74997e-07	
-8.68555e-10	-0.00452175	-2.60795e-06	
1.84623e-10	-0.00344492	-1.01169e-06	
-1.01107e-10	-0.00492612	7.96787e-08	
-0.00575666	-0.00243875	-1.5319e-07	
-1.4974e-11	-0.00534163	-3.44573e-07	
-0.0127702	-0.00167561	-3.64759e-09	
0.00081404	-0.00516826	1.25661e-05	
-1.07435e-09	-0.00514989	1.0179e-06	
				</DataArray>
			</CellData>
			<Points>
				<DataArray type="Float64" Name="Position" NumberOfComponents="3" Format="ascii">
1.76941	1.94338	0.111939	
1.76035	1.10211	0.129432	
1.76194	1.3141	0.125687	
1.76732	1.73341	0.10704	
1.76001	0.26557	0.137681	
1.76365	1.41945	0.120998	
1.76076	0.998353	0.126765	
1.76528	1.52381	0.115274	
1.75885	0.789766	0.129956	
1.75911	0.371665	0.137282	
1.75892	0.684578	0.130703	
1.76117	1.20808	0.128438	
1.76633	1.62841	0.110368	
1.76068	0.894853	0.125613	
1.76909	1.83875	0.103888	
1.76044	0.160088	0.137145	
1.76077	0.0535998	0.137001	
1.75956	0.476225	0.133248	
1.76011	0.580077	0.129681	
1.76077	-0.053587	0.137013	
1.76049	-1.10214	0.129336	
1.7621	-1.31413	0.125412	
1.75886	-0.684491	0.131374	
1.7676	-1.73319	0.10605	
1.76007	-0.265535	0.1376	
1.76374	-1.41944	0.120482	
1.76099	-0.998344	0.126526	
1.76541	-1.52379	0.114544	
1.75877	-0.789775	0.130654	
1.75918	-0.371637	0.137124	
1.76143	-1.20811	0.128339	
1.76654	-1.62835	0.109269	
1.76096	-0.894872	0.125335	
1.76868	-1.83815	0.107872	
1.76044	-0.160082	0.137129	
1.76923	-1.94336	0.115951	
1.75969	-0.476174	0.132976	
1.76034	-0.579964	0.129393	
1.66735	1.94346	0.0906068	
1.66104	1.10228	0.0961363	
1.66162	1.31399	0.0944399	
1.66683	1.73394	0.0773764	
1.66106	0.265542	0.103659	
1.66362	1.41931	0.0899466	
1.66206	0.998614	0.0918552	
1.66553	1.52399	0.0839433	
1.66058	0.789732	0.0944845	
1.66011	0.37153	0.102855	
1.66051	0.684735	0.0951946	
1.66131	1.20808	0.0962672	
1.6665	1.62885	0.0790489	
1.6623	0.894935	0.0898855	
1.66796	1.83954	0.0765172	
1.66135	0.160143	0.103146	
1.66188	0.0536256	0.10299	
1.661	0.475993	0.0979231	
1.66175	0.580005	0.0935277	
1.66187	-0.0536171	0.103019	
1.66124	-1.10226	0.0962004	
1.66178	-1.31403	0.0941964	
1.66047	-0.684668	0.0959562	
1.66715	-1.73386	0.0759914	
1.66113	-0.265506	0.103567	
1.66373	-1.41932	0.0893844	
1.6622	-0.998603	0.0917193	
1.66571	-1.52402	0.0830565	
1.66052	-0.789705	0.0953205	
1.6602	-0.371509	0.102675	
1.66146	-1.2081	0.0962674	
1.6668	-1.62889	0.0775916	
1.66262	-0.894932	0.0896778	
1.66747	-1.83875	0.0815691	
1.66135	-0.16014	0.103144	
1.66711	-1.94322	0.0957364	
1.66115	-0.475948	0.0976071	
1.66201	-0.579904	0.0931969	
1.5653	1.94497	0.0673878	
1.56351	1.10323	0.0612464	
1.56346	1.31466	0.060174	
1.56617	1.73562	0.0492395	
1.56462	0.265645	0.0668422	
1.56478	1.42004	0.0575304	
1.56478	0.999527	0.057509	
1.56587	1.52483	0.0534958	
1.56383	0.789926	0.0593832	
1.56377	0.371459	0.0661578	
1.56379	0.684991	0.0600374	
1.56321	1.209	0.0614146	
1.56637	1.62998	0.0494037	
1.56471	0.895378	0.0560752	
1.56658	1.8415	0.0499222	
1.56499	0.160365	0.0665719	
1.56528	0.0536058	0.0664646	
1.5641	0.475905	0.0623049	
1.56478	0.580097	0.0588845	
1.56527	-0.0536034	0.0664936	
1.56367	-1.10324	0.0612837	
1.56373	-1.31473	0.0599672	
1.56388	-0.684917	0.0607223	
1.56647	-1.73578	0.0475955	
1.5647	-0.265609	0.0667615	
1.56492	-1.42009	0.0569922	
1.56496	-0.999505	0.0573959	
1.56609	-1.52497	0.0526115	
1.56385	-0.789865	0.0601388	
1.56386	-0.371445	0.0659904	
1.56354	-1.20903	0.0614197	
1.5667	-1.6302	0.0478481	
1.56506	-0.89532	0.0559008	
1.56615	-1.84078	0.0553521	
1.56498	-0.160364	0.0665739	
1.5651	-1.94455	0.0728292	
1.56425	-0.475875	0.0620062	
1.5651	-0.579979	0.0585605	
1.46327	1.94636	0.044086	
1.46238	1.10376	0.0330744	
1.46216	1.3151	0.0327043	
1.464	1.73604	0.0267319	
1.46293	0.265543	0.0368351	
1.46297	1.42024	0.031315	
1.46282	0.999696	0.0304166	
1.4636	1.52494	0.0288631	
1.46269	0.79001	0.0319668	
1.46255	0.371029	0.0363624	
1.46227	0.684624	0.0323552	
1.46273	1.20966	0.0332414	
1.46388	1.6302	0.0260302	
1.46301	0.895622	0.0295675	
1.46387	1.84186	0.0280902	
1.46305	0.160042	0.0367446	
1.46337	0.0536611	0.0367357	
1.4628	0.475814	0.0338211	
1.46265	0.579971	0.0314669	
1.46337	-0.0536593	0.0367674	
1.46264	-1.10381	0.0331145	
1.46237	-1.31517	0.0325454	
1.46245	-0.684556	0.0328381	
1.46416	-1.73621	0.0253017	
1.46305	-0.265486	0.036772	
1.46304	-1.42028	0.0309025	
1.46306	-0.999657	0.0303582	
1.46377	-1.52507	0.028173	
1.46287	-0.789943	0.0325194	
1.46264	-0.371017	0.0362417	
1.46294	-1.20969	0.0332334	
1.46405	-1.63038	0.0247656	
1.46326	-0.895615	0.0294444	
1.46371	-1.84151	0.0325492	
1.46304	-0.160043	0.0367582	
1.46322	-1.94607	0.0484951	
1.46295	-0.475759	0.0335994	
1.46284	-0.579923	0.0312072	
1.36149	1.94817	0.0220213	
1.36208	1.1042	0.0186243	
1.36219	1.31594	0.0185235	
1.36101	1.7364	0.0142423	
1.36278	0.265048	0.0213552	
1.36177	1.421	0.0175038	
1.36202	1.00041	0.0177324	
1.36178	1.52553	0.0156604	
1.36223	0.790206	0.0189253	
1.36242	0.370979	0.02118	
1.36229	0.684675	0.0190462	
1.36233	1.2101	0.0185598	
1.36142	1.6307	0.0141257	
1.36214	0.896074	0.0169896	
1.36137	1.84216	0.0143752	
1.36307	0.159567	0.0213962	
1.36321	0.0537094	0.0213835	
1.36242	0.475467	0.0199736	
1.36234	0.579581	0.0182678	
1.36321	-0.053712	0.0214021	
1.36223	-1.10425	0.0186681	
1.3623	-1.31599	0.0184516	
1.36247	-0.684727	0.0192189	
1.36105	-1.73653	0.0135422	
1.36279	-0.265047	0.0213294	
1.36188	-1.42106	0.0172966	
1.36213	-1.00041	0.017719	
1.36186	-1.52562	0.0153296	
1.36247	-0.790119	0.0191529	
1.36258	-0.370948	0.0211197	
1.36241	-1.21011	0.0185494	
1.36147	-1.63081	0.0135328	
1.36225	-0.896048	0.0169484	
1.36137	-1.84224	0.0165025	
1.36307	-0.159566	0.0214073	
1.36152	-1.94807	0.0241807	
1.36259	-0.475463	0.0198663	
1.36255	-0.579573	0.0181372	
1.2602	1.94667	3.49508e-06	
1.2602	1.10408	-3.48467e-05	
1.2602	1.31564	-0.000166556	
1.2602	1.73535	1.80272e-05	
1.2602	0.264648	-3.17281e-05	
1.2602	1.42085	-6.71899e-05	
1.2602	1	0.000149944	
1.2602	1.52507	7.16616e-05	
1.2602	0.790149	0.000185923	
1.2602	0.370241	-4.04787e-05	
1.2602	0.68436	0.000165193	
1.2602	1.20985	-7.96295e-05	
1.2602	1.62976	4.75235e-05	
1.2602	0.89592	0.000331057	
1.2602	1.84074	7.75721e-06	
1.2602	0.15926	-9.30581e-06	
1.2602	0.0533282	-2.06975e-06	
1.2602	0.474927	0.00011447	
1.2602	0.579147	0.000275008	
1.2602	-0.0533282	-4.0704e-06	
1.2602	-1.10408	-4.68345e-05	
1.2602	-1.31564	-0.000167835	
1.2602	-0.68436	0.000133222	
1.2602	-1.73535	1.79762e-05	
1.2602	-0.264648	-3.17373e-05	
1.2602	-1.42085	-6.7221e-05	
1.2602	-1	0.000143041	
1.2602	-1.52507	7.16448e-05	
1.2602	-0.790149	0.000153996	
1.2602	-0.370241	-4.05136e-05	
1.2602	-1.20985	-8.6657e-05	
1.2602	-1.62976	4.74835e-05	
1.2602	-0.89592	0.000330176	
1.2602	-1.84074	4.97967e-06	
1.2602	-0.15926	-1.13074e-05	
1.2602	-1.94667	7.4013e-07	
1.2602	-0.474927	0.000114297	
1.2602	-0.579147	0.000274628	
				</DataArray>
			</Points>
			<Cells>
				<DataArray type="Int32" Name="connectivity" Format="ascii">
0	
1	
2	
3	
4	
5	
6	
7	
8	
9	
10	
11	
12	
13	
14	
15	
16	
17	
18	
19	
20	
21	
22	
23	
24	
25	
26	
27	
28	
29	
30	
31	
32	
33	
34	
35	
36	
37	
38	
39	
40	
41	
42	
43	
44	
45	
46	
47	
48	
49	
50	
51	
52	
53	
54	
55	
56	
57	
58	
59	
60	
61	
62	
63	
64	
65	
66	
67	
68	
69	
70	
71	
72	
73	
74	
75	
76	
77	
78	
79	
80	
81	
82	
83	
84	
85	
86	
87	
88	
89	
90	
91	
92	
93	
94	
95	
96	
97	
98	
99	
100	
101	
102	
103	
104	
105	
106	
107	
108	
109	
110	
111	
112	
113	
114	
115	
116	
117	
118	
119	
120	
121	
122	
123	
124	
125	
126	
127	
128	
129	
130	
131	
132	
133	
134	
135	
136	
137	
138	
139	
140	
141	
142	
143	
144	
145	
146	
147	
148	
149	
150	
151	
152	
153	
154	
155	
156	
157	
158	
159	
160	
161	
162	
163	
164	
165	
166	
167	
168	
169	
170	
171	
172	
173	
174	
175	
176	
177	
178	
179	
180	
181	
182	
183	
184	
185	
186	
187	
188	
189	
190	
191	
192	
193	
194	
195	
196	
197	
198	
199	
200	
201	
202	
203	
204	
205	
206	
207	
208	
209	
210	
211	
212	
213	
214	
215	
216	
217	
218	
219	
220	
221	
222	
223	
224	
225	
226	
227	
				</DataArray>
				<DataArray type="Int32" Name="offsets" Format="ascii">
1	
2	
3	
4	
5	
6	
7	
8	
9	
10	
11	
12	
13	
14	
15	
16	
17	
18	
19	
20	
21	
22	
23	
24	
25	
26	
27	
28	
29	
30	
31	
32	
33	
34	
35	
36	
37	
38	
39	
40	
41	
42	
43	
44	
45	
46	
47	
48	
49	
50	
51	
52	
53	
54	
55	
56	
57	
58	
59	
60	
61	
62	
63	
64	
65	
66	
67	
68	
69	
70	
71	
72	
73	
74	
75	
76	
77	
78	
79	
80	
81	
82	
83	
84	
85	
86	
87	
88	
89	
90	
91	
92	
93	
94	
95	
96	
97	
98	
99	
100	
101	
102	
103	
104	
105	
106	
107	
108	
109	
110	
111	
112	
113	
114	
115	
116	
117	
118	
119	
120	
121	
122	
123	
124	
125	
126	
127	
128	
129	
130	
131	
132	
133	
134	
135	
136	
137	
138	
139	
140	
141	
142	
143	
144	
145	
146	
147	
148	
149	
150	
151	
152	
153	
154	
155	
156	
157	
158	
159	
160	
161	
162	
163	
164	
165	
166	
167	
168	
169	
170	
171	
172	
173	
174	
175	
176	
177	
178	
179	
180	
181	
182	
183	
184	
185	
186	
187	
188	
189	
190	
191	
192	
193	
194	
195	
196	
197	
198	
199	
200	
201	
202	
203	
204	
205	
206	
207	
208	
209	
210	
211	
212	
213	
214	
215	
216	
217	
218	
219	
220	
221	
222	
223	
224	
225	
226	
227	
228	
				</DataArray>
				<DataArray type="Int32" Name="types" Format="ascii">
1	
1	
1	
1	
1	
1	
1	
1	
1	
1	
1	
1	
1	
1	
1	
1	
1	
1	
1	
1	
1	
1	
1	
1	
1	
1	
1	
1	
1	
1	
1	
1	
1	
1	
1	
1	
1	
1	
1	
1	
1	
1	
1	
1	
1	
1	
1	
1	
1	
1	
1	
1	
1	
1	
1	
1	
1	
1	
1	
1	
1	
1	
1	
1	
1	
1	
1	
1	
1	
1	
1	
1	
1	
1	
1	
1	
1	
1	
1	
1	
1	
1	
1	
1	
1	
1	
1	
1	
1	
1	
1	
1	
1	
1	
1	
1	
1	
1	
1	
1	
1	
1	
1	
1	
1	
1	
1	
1	
1	
1	
1	
1	
1	
1	
1	
1	
1	
1	
1	
1	
1	
1	
1	
1	
1	
1	
1	
1	
1	
1	
1	
1	
1	
1	
1	
1	
1	
1	
1	
1	
1	
1	
1	
1	
1	
1	
1	
1	
1	
1	
1	
1	
1	
1	
1	
1	
1	
1	
1	
1	
1	
1	
1	
1	
1	
1	
1	
1	
1	
1	
1	
1	
1	
1	
1	
1	
1	
1	
1	
1	
1	
1	
1	
1	
1	
1	
1	
1	
1	
1	
1	
1	
1	
1	
1	
1	
1	
1	
1	
1	
1	
1	
1	
1	
1	
1	
1	
1	
1	
1	
1	
1	
1	
1	
1	
1	
1	
1	
1	
1	
1	
1	
1	
1	
1	
1	
1	
1	
				</DataArray>
			</Cells>
		</Piece>
	</UnstructuredGrid>
</VTKFile>
