<VTKFile type="UnstructuredGrid" version="0.1" byte_order="LittleEndian">
	<UnstructuredGrid>
		<Piece NumberOfPoints="152" NumberOfCells="152">
			<CellData Scalars="scalars">
				<DataArray type="Float64" Name="Strength" NumberOfComponents="3" Format="ascii">
0.00503251	-0.0036439	2.59746e-07	
0.000776786	-0.00782196	1.43204e-07	
0.000488137	-0.00660014	4.25326e-06	
0.00160011	-0.00601116	1.02597e-06	
9.24734e-05	-0.00810609	1.96953e-06	
-0.000538076	-0.00672158	-1.49127e-05	
0.0011661	-0.00782343	2.3811e-05	
0.00058836	-0.00719863	6.80368e-07	
-0.000580666	-0.00831945	-1.91801e-05	
-0.000308181	-0.0080048	-8.61917e-07	
0.00068892	-0.00866977	1.68762e-05	
1.43973e-09	-0.00729191	4.70448e-06	
-3.60752e-10	-0.00673051	1.97518e-06	
2.79776e-10	-0.0092566	-2.19894e-07	
-3.34998e-13	-0.005087	1.12368e-08	
2.77075e-06	-0.00806727	7.65708e-07	
1.55457e-07	-0.00818128	1.22082e-07	
-0.00102562	-0.00817119	-1.96206e-05	
1.95095e-09	-0.00927555	-1.84589e-06	
-2.51726e-06	-0.00818144	-3.67564e-07	
-0.000777156	-0.00773318	-5.46977e-08	
-0.000455789	-0.00657905	-4.13242e-06	
-0.00104563	-0.00868063	-2.09965e-05	
-0.00159973	-0.00600915	-1.02509e-06	
-9.16015e-05	-0.00810648	-1.97069e-06	
0.000539702	-0.00671911	1.49102e-05	
-0.00118961	-0.00778955	-2.44097e-05	
-0.000589284	-0.00719781	-6.81524e-07	
0.000922058	-0.00831884	2.31891e-05	
0.000309631	-0.0080061	8.59581e-07	
-1.39386e-09	-0.00725653	-4.18526e-06	
3.60611e-10	-0.00672873	-1.97607e-06	
-1.89761e-10	-0.00924551	1.49544e-07	
-0.00147606	-0.00508563	-2.3428e-07	
-2.26158e-11	-0.00806769	-5.20423e-07	
-0.00355509	-0.00364311	-6.60555e-08	
0.00102729	-0.00817392	1.96124e-05	
-1.93594e-09	-0.00927997	1.83423e-06	
0.00587241	-0.00056685	7.67753e-08	
0.000909214	-0.00162729	-7.1725e-08	
0.00066467	-0.00146684	7.13505e-07	
0.00198284	-0.00104916	2.90833e-07	
8.82899e-05	-0.00184996	4.40319e-07	
-0.000470663	-0.00139381	-3.19782e-06	
0.00121149	-0.00166823	6.30819e-06	
0.000684119	-0.0013143	2.72484e-07	
-0.000529471	-0.00183274	-5.02424e-06	
-0.00030108	-0.00188959	-1.74461e-07	
0.000733286	-0.00182	4.19435e-06	
3.13667e-10	-0.00158866	1.02495e-06	
-6.64992e-11	-0.00124067	3.64094e-07	
5.34182e-11	-0.00176738	-4.19847e-08	
-5.59089e-14	-0.000848986	1.87535e-09	
2.18581e-05	-0.00187805	1.78005e-07	
1.0294e-07	-0.00192349	2.87023e-08	
-0.00100631	-0.00184927	-5.21998e-06	
3.88341e-10	-0.00184632	-3.67429e-07	
-2.17772e-05	-0.00192343	-8.58379e-08	
-0.000905309	-0.00161618	1.22846e-07	
-0.000626292	-0.00146247	-7.01031e-07	
-0.00108324	-0.00181803	-5.02372e-06	
-0.00198143	-0.00104803	-2.9014e-07	
-8.74425e-05	-0.00184945	-4.40588e-07	
0.00047066	-0.00139154	3.19332e-06	
-0.00123495	-0.00165586	-6.4391e-06	
-0.000683075	-0.00131042	-2.72051e-07	
0.00085038	-0.00182954	5.919e-06	
0.000303352	-0.00188934	1.73554e-07	
-3.03537e-10	-0.00158023	-9.1141e-07	
6.63861e-11	-0.00123872	-3.63781e-07	
-3.60119e-11	-0.00175456	2.83796e-08	
-0.00176244	-0.000848083	-5.13352e-08	
-5.26401e-12	-0.00187782	-1.21133e-07	
-0.00410771	-0.000566295	-1.73253e-09	
0.00100852	-0.00184984	5.21897e-06	
-3.85403e-10	-0.00184744	3.65154e-07	
0.0105407	-0.00331362	2.80659e-07	
0.00137494	-0.008229	7.58724e-08	
0.00127007	-0.0076894	4.47844e-06	
0.00360771	-0.00570732	1.10683e-06	
0.000100279	-0.00891654	2.16833e-06	
-7.63251e-05	-0.00726646	-1.59731e-05	
0.00138054	-0.00816595	2.50624e-05	
0.00122127	-0.00680918	8.14459e-07	
-0.000305077	-0.00871607	-1.98096e-05	
-0.000297793	-0.00888571	-9.62396e-07	
0.000780253	-0.00882824	1.72718e-05	
1.57204e-09	-0.00796203	5.13682e-06	
-3.42289e-10	-0.00638604	1.87409e-06	
2.59851e-10	-0.00859735	-2.04233e-07	
-3.10753e-13	-0.00471884	1.04236e-08	
1.05121e-05	-0.00886341	8.41186e-07	
5.56507e-08	-0.00897393	1.33911e-07	
-0.000989321	-0.0087261	-2.08464e-05	
1.84814e-09	-0.00878675	-1.74862e-06	
-1.05465e-05	-0.00897388	-4.02954e-07	
-0.00137059	-0.00822201	3.99435e-08	
-0.00122353	-0.00767276	-4.34898e-06	
-0.00125166	-0.00883976	-2.14554e-05	
-0.00360576	-0.00570519	-1.10544e-06	
-9.89901e-05	-0.00891596	-2.1695e-06	
7.66336e-05	-0.00726495	1.59725e-05	
-0.00140745	-0.00815599	-2.5764e-05	
-0.00122121	-0.00680799	-8.15216e-07	
0.000736125	-0.00871691	2.40077e-05	
0.000301828	-0.00888599	9.59373e-07	
-1.52749e-09	-0.0079522	-4.58649e-06	
3.42127e-10	-0.00638383	-1.87478e-06	
-1.76319e-10	-0.00859057	1.3895e-07	
-0.00319656	-0.00471718	-2.3209e-07	
-2.4846e-11	-0.00886325	-5.71742e-07	
-0.00734025	-0.00331256	-5.02001e-08	
0.000994133	-0.00872814	2.08387e-05	
-1.83403e-09	-0.00879143	1.73766e-06	
0.0130368	-0.00175605	2.03261e-07	
0.00162377	-0.00454903	-7.47477e-08	
0.00166438	-0.00422873	1.90939e-06	
0.0045452	-0.003065	7.619e-07	
0.000134329	-0.00506218	1.22117e-06	
0.000154272	-0.00398939	-8.71185e-06	
0.00146647	-0.00453743	1.482e-05	
0.00152348	-0.00372428	6.65414e-07	
-0.000170316	-0.00486866	-1.13351e-05	
-0.0002588	-0.00506518	-5.37291e-07	
0.000848683	-0.00490753	1.00606e-05	
8.75504e-10	-0.00443424	2.86082e-06	
-1.86757e-10	-0.0034843	1.02253e-06	
1.44141e-10	-0.00476899	-1.13289e-07	
-1.6616e-13	-0.00252317	5.57351e-09	
2.92795e-05	-0.00507999	4.81844e-07	
-4.96774e-09	-0.00516922	7.71364e-08	
-0.000935482	-0.0049372	-1.21731e-05	
1.03631e-09	-0.00492703	-9.80508e-07	
-2.95005e-05	-0.00516916	-2.31475e-07	
-0.00161491	-0.00454186	1.77004e-07	
-0.00161191	-0.00422211	-1.85346e-06	
-0.00136645	-0.00491091	-1.23524e-05	
-0.0045426	-0.00306382	-7.60532e-07	
-0.000132747	-0.00506156	-1.222e-06	
-0.000156335	-0.00398895	8.71174e-06	
-0.00149307	-0.00452673	-1.52058e-05	
-0.0015223	-0.00372149	-6.65287e-07	
0.000633204	-0.00486793	1.3688e-05	
0.000264404	-0.00506523	5.35116e-07	
-8.50506e-10	-0.00442778	-2.55376e-06	
1.86642e-10	-0.00348261	-1.02276e-06	
-9.76491e-11	-0.00475764	7.69535e-08	
-0.00397871	-0.00252214	-1.42452e-07	
-1.42398e-11	-0.00507974	-3.27679e-07	
-0.00905322	-0.00175539	-1.4205e-08	
0.000942023	-0.00493881	1.21733e-05	
-1.02855e-09	-0.00493039	9.74513e-07	
				</DataArray>
			</CellData>
			<Points>
				<DataArray type="Float64" Name="Position" NumberOfComponents="3" Format="ascii">
1.5664	1.94575	0.0605213	
1.56091	1.10326	0.0721079	
1.56147	1.31511	0.0700634	
1.56479	1.73517	0.0587014	
1.56141	0.265653	0.0767948	
1.56268	1.42052	0.0671695	
1.56131	0.999382	0.0706308	
1.5637	1.525	0.063634	
1.56032	0.790158	0.0725803	
1.5607	0.371582	0.0766426	
1.56021	0.684953	0.0729465	
1.56097	1.2092	0.071506	
1.5643	1.62981	0.0607059	
1.561	0.895488	0.0698249	
1.5659	1.84047	0.0563464	
1.56175	0.160211	0.0764179	
1.56196	0.0535895	0.0763253	
1.56061	0.476159	0.0742533	
1.56092	0.580155	0.0718995	
1.56195	-0.0535849	0.0763317	
1.56107	-1.10328	0.0720987	
1.56164	-1.31516	0.0699584	
1.56026	-0.684912	0.0732939	
1.56489	-1.7351	0.0580181	
1.56148	-0.265623	0.0767533	
1.56276	-1.42054	0.0669286	
1.56142	-0.999375	0.0705067	
1.56381	-1.52505	0.063274	
1.56035	-0.790149	0.0729452	
1.56077	-0.371566	0.0765548	
1.5612	-1.20923	0.0714886	
1.56443	-1.62986	0.0600958	
1.56122	-0.895478	0.0696482	
1.56578	-1.84029	0.0584168	
1.56175	-0.160209	0.0764086	
1.56634	-1.94578	0.062606	
1.5607	-0.476132	0.0740933	
1.5611	-0.580061	0.0717029	
1.46352	1.94579	0.0418978	
1.4588	1.10358	0.0478151	
1.45906	1.31504	0.0470264	
1.46239	1.73508	0.0375209	
1.45866	0.265504	0.0515549	
1.46014	1.42015	0.0444898	
1.45913	0.999484	0.0458977	
1.46109	1.52462	0.0411673	
1.45887	0.789999	0.0472561	
1.45843	0.371074	0.0512335	
1.45839	0.684585	0.0474311	
1.45931	1.20943	0.0478551	
1.46175	1.62958	0.0386252	
1.45926	0.895561	0.0448198	
1.46298	1.84035	0.036229	
1.45878	0.159965	0.0512364	
1.45906	0.0536316	0.051178	
1.45875	0.47588	0.0488163	
1.45872	0.579963	0.0463797	
1.45906	-0.0536296	0.0511906	
1.45907	-1.10355	0.0479065	
1.4592	-1.31509	0.046965	
1.45852	-0.684527	0.0477427	
1.46246	-1.73505	0.0367939	
1.45876	-0.265454	0.0515176	
1.46018	-1.42017	0.0442873	
1.45929	-0.999461	0.0458736	
1.4612	-1.52468	0.0408367	
1.45899	-0.789971	0.047604	
1.4585	-0.371059	0.0511582	
1.45945	-1.20945	0.0479021	
1.46185	-1.62963	0.0380102	
1.45944	-0.895572	0.0447118	
1.46291	-1.84022	0.0383105	
1.45878	-0.159964	0.0512356	
1.46349	-1.94581	0.0439783	
1.45886	-0.475837	0.0486755	
1.45884	-0.579919	0.046202	
1.3617	1.94732	0.0210222	
1.36167	1.10414	0.0251646	
1.36179	1.31579	0.0247913	
1.3611	1.73593	0.0188395	
1.36203	0.264964	0.027786	
1.36153	1.42085	0.023276	
1.36164	1.00035	0.0245186	
1.36158	1.52531	0.0210816	
1.36178	0.79016	0.0255003	
1.36181	0.37084	0.027688	
1.36181	0.684634	0.0254354	
1.36186	1.20999	0.0251252	
1.36134	1.63036	0.0196194	
1.36175	0.896058	0.0236105	
1.36148	1.84146	0.0177795	
1.36223	0.159526	0.0277478	
1.36235	0.053659	0.0277505	
1.36184	0.475396	0.0264656	
1.36183	0.579538	0.0246777	
1.36235	-0.0536607	0.0277541	
1.36178	-1.10419	0.0252263	
1.36187	-1.31582	0.024763	
1.36195	-0.684679	0.0255479	
1.36112	-1.736	0.0184061	
1.36204	-0.264963	0.0277697	
1.3616	-1.42089	0.0231634	
1.36172	-1.00034	0.0245071	
1.36165	-1.52536	0.0208983	
1.36195	-0.790103	0.0256511	
1.36195	-0.370813	0.0276454	
1.36191	-1.20999	0.0251415	
1.36138	-1.63043	0.0192823	
1.36183	-0.896038	0.0235605	
1.36147	-1.8415	0.0189485	
1.36223	-0.159524	0.027746	
1.36171	-1.94728	0.0221999	
1.36198	-0.475392	0.0263894	
1.36199	-0.57954	0.0245813	
1.2602	1.94667	3.49508e-06	
1.2602	1.10408	-3.48467e-05	
1.2602	1.31564	-0.000166556	
1.2602	1.73535	1.80272e-05	
1.2602	0.264648	-3.17281e-05	
1.2602	1.42085	-6.71899e-05	
1.2602	1	0.000149944	
1.2602	1.52507	7.16616e-05	
1.2602	0.790149	0.000185923	
1.2602	0.370241	-4.04787e-05	
1.2602	0.68436	0.000165193	
1.2602	1.20985	-7.96295e-05	
1.2602	1.62976	4.75235e-05	
1.2602	0.89592	0.000331057	
1.2602	1.84074	7.75722e-06	
1.2602	0.15926	-9.30581e-06	
1.2602	0.0533282	-2.06975e-06	
1.2602	0.474927	0.00011447	
1.2602	0.579147	0.000275008	
1.2602	-0.0533282	-4.0704e-06	
1.2602	-1.10408	-4.68345e-05	
1.2602	-1.31564	-0.000167835	
1.2602	-0.68436	0.000133222	
1.2602	-1.73535	1.79762e-05	
1.2602	-0.264648	-3.17373e-05	
1.2602	-1.42085	-6.7221e-05	
1.2602	-1	0.000143041	
1.2602	-1.52507	7.16448e-05	
1.2602	-0.790149	0.000153996	
1.2602	-0.370241	-4.05136e-05	
1.2602	-1.20985	-8.6657e-05	
1.2602	-1.62976	4.74835e-05	
1.2602	-0.89592	0.000330176	
1.2602	-1.84074	4.97967e-06	
1.2602	-0.15926	-1.13074e-05	
1.2602	-1.94667	7.4013e-07	
1.2602	-0.474927	0.000114297	
1.2602	-0.579147	0.000274628	
				</DataArray>
			</Points>
			<Cells>
				<DataArray type="Int32" Name="connectivity" Format="ascii">
0	
1	
2	
3	
4	
5	
6	
7	
8	
9	
10	
11	
12	
13	
14	
15	
16	
17	
18	
19	
20	
21	
22	
23	
24	
25	
26	
27	
28	
29	
30	
31	
32	
33	
34	
35	
36	
37	
38	
39	
40	
41	
42	
43	
44	
45	
46	
47	
48	
49	
50	
51	
52	
53	
54	
55	
56	
57	
58	
59	
60	
61	
62	
63	
64	
65	
66	
67	
68	
69	
70	
71	
72	
73	
74	
75	
76	
77	
78	
79	
80	
81	
82	
83	
84	
85	
86	
87	
88	
89	
90	
91	
92	
93	
94	
95	
96	
97	
98	
99	
100	
101	
102	
103	
104	
105	
106	
107	
108	
109	
110	
111	
112	
113	
114	
115	
116	
117	
118	
119	
120	
121	
122	
123	
124	
125	
126	
127	
128	
129	
130	
131	
132	
133	
134	
135	
136	
137	
138	
139	
140	
141	
142	
143	
144	
145	
146	
147	
148	
149	
150	
151	
				</DataArray>
				<DataArray type="Int32" Name="offsets" Format="ascii">
1	
2	
3	
4	
5	
6	
7	
8	
9	
10	
11	
12	
13	
14	
15	
16	
17	
18	
19	
20	
21	
22	
23	
24	
25	
26	
27	
28	
29	
30	
31	
32	
33	
34	
35	
36	
37	
38	
39	
40	
41	
42	
43	
44	
45	
46	
47	
48	
49	
50	
51	
52	
53	
54	
55	
56	
57	
58	
59	
60	
61	
62	
63	
64	
65	
66	
67	
68	
69	
70	
71	
72	
73	
74	
75	
76	
77	
78	
79	
80	
81	
82	
83	
84	
85	
86	
87	
88	
89	
90	
91	
92	
93	
94	
95	
96	
97	
98	
99	
100	
101	
102	
103	
104	
105	
106	
107	
108	
109	
110	
111	
112	
113	
114	
115	
116	
117	
118	
119	
120	
121	
122	
123	
124	
125	
126	
127	
128	
129	
130	
131	
132	
133	
134	
135	
136	
137	
138	
139	
140	
141	
142	
143	
144	
145	
146	
147	
148	
149	
150	
151	
152	
				</DataArray>
				<DataArray type="Int32" Name="types" Format="ascii">
1	
1	
1	
1	
1	
1	
1	
1	
1	
1	
1	
1	
1	
1	
1	
1	
1	
1	
1	
1	
1	
1	
1	
1	
1	
1	
1	
1	
1	
1	
1	
1	
1	
1	
1	
1	
1	
1	
1	
1	
1	
1	
1	
1	
1	
1	
1	
1	
1	
1	
1	
1	
1	
1	
1	
1	
1	
1	
1	
1	
1	
1	
1	
1	
1	
1	
1	
1	
1	
1	
1	
1	
1	
1	
1	
1	
1	
1	
1	
1	
1	
1	
1	
1	
1	
1	
1	
1	
1	
1	
1	
1	
1	
1	
1	
1	
1	
1	
1	
1	
1	
1	
1	
1	
1	
1	
1	
1	
1	
1	
1	
1	
1	
1	
1	
1	
1	
1	
1	
1	
1	
1	
1	
1	
1	
1	
1	
1	
1	
1	
1	
1	
1	
1	
1	
1	
1	
1	
1	
1	
1	
1	
1	
1	
1	
1	
1	
1	
1	
1	
1	
1	
				</DataArray>
			</Cells>
		</Piece>
	</UnstructuredGrid>
</VTKFile>
