<VTKFile type="UnstructuredGrid" version="0.1" byte_order="LittleEndian">
	<UnstructuredGrid>
		<Piece NumberOfPoints="532" NumberOfCells="532">
			<CellData Scalars="scalars">
				<DataArray type="Float64" Name="Strength" NumberOfComponents="3" Format="ascii">
0.00503251	-0.0036439	2.59746e-07	
0.000776786	-0.00782196	1.43204e-07	
0.000488137	-0.00660014	4.25326e-06	
0.00160011	-0.00601116	1.02597e-06	
9.24734e-05	-0.00810609	1.96953e-06	
-0.000538076	-0.00672158	-1.49127e-05	
0.0011661	-0.00782343	2.3811e-05	
0.00058836	-0.00719863	6.80368e-07	
-0.000580666	-0.00831945	-1.91801e-05	
-0.000308181	-0.0080048	-8.61917e-07	
0.00068892	-0.00866977	1.68762e-05	
1.43973e-09	-0.00729191	4.70448e-06	
-3.60752e-10	-0.00673051	1.97518e-06	
2.79776e-10	-0.0092566	-2.19894e-07	
-3.34998e-13	-0.005087	1.12368e-08	
2.77075e-06	-0.00806727	7.65708e-07	
1.55457e-07	-0.00818128	1.22082e-07	
-0.00102562	-0.00817119	-1.96206e-05	
1.95095e-09	-0.00927555	-1.84589e-06	
-2.51726e-06	-0.00818144	-3.67564e-07	
-0.000777156	-0.00773318	-5.46977e-08	
-0.000455789	-0.00657905	-4.13242e-06	
-0.00104563	-0.00868063	-2.09965e-05	
-0.00159973	-0.00600915	-1.02509e-06	
-9.16015e-05	-0.00810648	-1.97069e-06	
0.000539702	-0.00671911	1.49102e-05	
-0.00118961	-0.00778955	-2.44097e-05	
-0.000589284	-0.00719781	-6.81524e-07	
0.000922058	-0.00831884	2.31891e-05	
0.000309631	-0.0080061	8.59581e-07	
-1.39386e-09	-0.00725653	-4.18526e-06	
3.60611e-10	-0.00672873	-1.97607e-06	
-1.89761e-10	-0.00924551	1.49544e-07	
-0.00147606	-0.00508563	-2.3428e-07	
-2.26158e-11	-0.00806769	-5.20423e-07	
-0.00355509	-0.00364311	-6.60555e-08	
0.00102729	-0.00817392	1.96124e-05	
-1.93594e-09	-0.00927997	1.83423e-06	
0.00587241	-0.00056685	7.67753e-08	
0.000909214	-0.00162729	-7.1725e-08	
0.00066467	-0.00146684	7.13505e-07	
0.00198284	-0.00104916	2.90833e-07	
8.82899e-05	-0.00184996	4.40319e-07	
-0.000470663	-0.00139381	-3.19782e-06	
0.00121149	-0.00166823	6.30819e-06	
0.000684119	-0.0013143	2.72484e-07	
-0.000529471	-0.00183274	-5.02424e-06	
-0.00030108	-0.00188959	-1.74461e-07	
0.000733286	-0.00182	4.19435e-06	
3.13667e-10	-0.00158866	1.02495e-06	
-6.64992e-11	-0.00124067	3.64094e-07	
5.34182e-11	-0.00176738	-4.19847e-08	
-5.59089e-14	-0.000848986	1.87535e-09	
2.18581e-05	-0.00187805	1.78005e-07	
1.0294e-07	-0.00192349	2.87023e-08	
-0.00100631	-0.00184927	-5.21998e-06	
3.88341e-10	-0.00184632	-3.67429e-07	
-2.17772e-05	-0.00192343	-8.58379e-08	
-0.000905309	-0.00161618	1.22846e-07	
-0.000626292	-0.00146247	-7.01031e-07	
-0.00108324	-0.00181803	-5.02372e-06	
-0.00198143	-0.00104803	-2.9014e-07	
-8.74425e-05	-0.00184945	-4.40588e-07	
0.00047066	-0.00139154	3.19332e-06	
-0.00123495	-0.00165586	-6.4391e-06	
-0.000683075	-0.00131042	-2.72051e-07	
0.00085038	-0.00182954	5.919e-06	
0.000303352	-0.00188934	1.73554e-07	
-3.03537e-10	-0.00158023	-9.1141e-07	
6.63861e-11	-0.00123872	-3.63781e-07	
-3.60119e-11	-0.00175456	2.83796e-08	
-0.00176244	-0.000848083	-5.13352e-08	
-5.26401e-12	-0.00187782	-1.21133e-07	
-0.00410771	-0.000566295	-1.73253e-09	
0.00100852	-0.00184984	5.21897e-06	
-3.85403e-10	-0.00184744	3.65154e-07	
0.0105407	-0.00331362	2.80659e-07	
0.00137494	-0.008229	7.58724e-08	
0.00127007	-0.0076894	4.47844e-06	
0.00360771	-0.00570732	1.10683e-06	
0.000100279	-0.00891654	2.16833e-06	
-7.63251e-05	-0.00726646	-1.59731e-05	
0.00138054	-0.00816595	2.50624e-05	
0.00122127	-0.00680918	8.14459e-07	
-0.000305077	-0.00871607	-1.98096e-05	
-0.000297793	-0.00888571	-9.62396e-07	
0.000780253	-0.00882824	1.72718e-05	
1.57204e-09	-0.00796203	5.13682e-06	
-3.42289e-10	-0.00638604	1.87409e-06	
2.59851e-10	-0.00859735	-2.04233e-07	
-3.10753e-13	-0.00471884	1.04236e-08	
1.05121e-05	-0.00886341	8.41186e-07	
5.56507e-08	-0.00897393	1.33911e-07	
-0.000989321	-0.0087261	-2.08464e-05	
1.84814e-09	-0.00878675	-1.74862e-06	
-1.05465e-05	-0.00897388	-4.02954e-07	
-0.00137059	-0.00822201	3.99435e-08	
-0.00122353	-0.00767276	-4.34898e-06	
-0.00125166	-0.00883976	-2.14554e-05	
-0.00360576	-0.00570519	-1.10544e-06	
-9.89901e-05	-0.00891596	-2.1695e-06	
7.66336e-05	-0.00726495	1.59725e-05	
-0.00140745	-0.00815599	-2.5764e-05	
-0.00122121	-0.00680799	-8.15216e-07	
0.000736125	-0.00871691	2.40077e-05	
0.000301828	-0.00888599	9.59373e-07	
-1.52749e-09	-0.0079522	-4.58649e-06	
3.42127e-10	-0.00638383	-1.87478e-06	
-1.76319e-10	-0.00859057	1.3895e-07	
-0.00319656	-0.00471718	-2.3209e-07	
-2.4846e-11	-0.00886325	-5.71742e-07	
-0.00734025	-0.00331256	-5.02001e-08	
0.000994133	-0.00872814	2.08387e-05	
-1.83403e-09	-0.00879143	1.73766e-06	
0.0130368	-0.00175605	2.03261e-07	
0.00162377	-0.00454903	-7.47477e-08	
0.00166438	-0.00422873	1.90939e-06	
0.0045452	-0.003065	7.619e-07	
0.000134329	-0.00506218	1.22117e-06	
0.000154272	-0.00398939	-8.71185e-06	
0.00146647	-0.00453743	1.482e-05	
0.00152348	-0.00372428	6.65414e-07	
-0.000170316	-0.00486866	-1.13351e-05	
-0.0002588	-0.00506518	-5.37291e-07	
0.000848683	-0.00490753	1.00606e-05	
8.75504e-10	-0.00443424	2.86082e-06	
-1.86757e-10	-0.0034843	1.02253e-06	
1.44141e-10	-0.00476899	-1.13289e-07	
-1.6616e-13	-0.00252317	5.57351e-09	
2.92795e-05	-0.00507999	4.81844e-07	
-4.96774e-09	-0.00516922	7.71364e-08	
-0.000935482	-0.0049372	-1.21731e-05	
1.03631e-09	-0.00492703	-9.80508e-07	
-2.95005e-05	-0.00516916	-2.31475e-07	
-0.00161491	-0.00454186	1.77004e-07	
-0.00161191	-0.00422211	-1.85346e-06	
-0.00136645	-0.00491091	-1.23524e-05	
-0.0045426	-0.00306382	-7.60532e-07	
-0.000132747	-0.00506156	-1.222e-06	
-0.000156335	-0.00398895	8.71174e-06	
-0.00149307	-0.00452673	-1.52058e-05	
-0.0015223	-0.00372149	-6.65287e-07	
0.000633204	-0.00486793	1.3688e-05	
0.000264404	-0.00506523	5.35116e-07	
-8.50506e-10	-0.00442778	-2.55376e-06	
1.86642e-10	-0.00348261	-1.02276e-06	
-9.76491e-11	-0.00475764	7.69535e-08	
-0.00397871	-0.00252214	-1.42452e-07	
-1.42398e-11	-0.00507974	-3.27679e-07	
-0.00905322	-0.00175539	-1.4205e-08	
0.000942023	-0.00493881	1.21733e-05	
-1.02855e-09	-0.00493039	9.74513e-07	
0.0161201	-0.00213401	2.50904e-07	
0.00200592	-0.005996	-7.98865e-08	
0.00223469	-0.00551887	2.40404e-06	
0.00581168	-0.0038454	9.63586e-07	
0.000186728	-0.00676528	1.63315e-06	
0.000498522	-0.00516441	-1.119e-05	
0.00160598	-0.00599189	1.9148e-05	
0.00196424	-0.00477562	8.56003e-07	
4.20364e-05	-0.00645869	-1.46137e-05	
-0.000208707	-0.0067474	-7.33013e-07	
0.000942491	-0.00654203	1.32023e-05	
1.14539e-09	-0.00580118	3.74271e-06	
-2.36583e-10	-0.00441389	1.29533e-06	
1.91144e-10	-0.00632414	-1.50232e-07	
-2.0524e-13	-0.00311661	6.88437e-09	
4.59247e-05	-0.00677424	6.42465e-07	
2.36159e-08	-0.00688465	1.02734e-07	
-0.000869134	-0.00657875	-1.58406e-05	
1.38202e-09	-0.00657063	-1.3076e-06	
-4.61433e-05	-0.00688468	-3.08109e-07	
-0.00199478	-0.00599005	2.08836e-07	
-0.00217604	-0.00550974	-2.32594e-06	
-0.00155085	-0.00655071	-1.62739e-05	
-0.00580887	-0.00384436	-9.61947e-07	
-0.000184396	-0.00676511	-1.63444e-06	
-0.000501828	-0.00516475	1.11917e-05	
-0.00163436	-0.00598389	-1.96686e-05	
-0.00196325	-0.00477472	-8.56173e-07	
0.000500057	-0.00646056	1.77358e-05	
0.000216165	-0.0067482	7.30226e-07	
-1.11317e-09	-0.00579522	-3.34244e-06	
2.36492e-10	-0.00441277	-1.29592e-06	
-1.29669e-10	-0.00631769	1.02187e-07	
-0.00497916	-0.00311569	-1.76496e-07	
-1.899e-11	-0.00677427	-4.36988e-07	
-0.0111351	-0.00213341	-1.69465e-08	
0.000878078	-0.00658138	1.58425e-05	
-1.37179e-09	-0.0065757	1.29972e-06	
0.0185334	-0.00167609	2.41468e-07	
0.00230416	-0.00467182	-1.6205e-07	
0.00268739	-0.00429627	1.29466e-06	
0.00679417	-0.00300135	8.97906e-07	
0.000238526	-0.00532024	1.27413e-06	
0.000763791	-0.00402249	-8.60548e-06	
0.00171399	-0.00467594	1.55316e-05	
0.00230247	-0.00372252	8.65555e-07	
0.000214847	-0.00505034	-1.14093e-05	
-0.000158258	-0.00530988	-5.77606e-07	
0.00102768	-0.0051116	1.0638e-05	
8.93834e-10	-0.00452708	2.92071e-06	
-1.84703e-10	-0.00344597	1.01128e-06	
1.49138e-10	-0.00493434	-1.17217e-07	
-1.60649e-13	-0.00243949	5.38867e-09	
6.7081e-05	-0.00534168	5.06238e-07	
2.90012e-08	-0.00543697	8.11317e-08	
-0.000803227	-0.00516617	-1.25608e-05	
1.08235e-09	-0.0051459	-1.02407e-06	
-6.7353e-05	-0.00543697	-2.42481e-07	
-0.00228963	-0.00466589	2.95419e-07	
-0.00262325	-0.00428968	-1.24352e-06	
-0.0017039	-0.005117	-1.30129e-05	
-0.00679107	-0.00300053	-8.9612e-07	
-0.000235642	-0.00531997	-1.27536e-06	
-0.000768796	-0.00402273	8.60601e-06	
-0.00174292	-0.00466744	-1.59375e-05	
-0.00230105	-0.00372106	-8.65387e-07	
0.000383044	-0.00505094	1.38561e-05	
0.000167308	-0.00531039	5.74997e-07	
-8.68555e-10	-0.00452175	-2.60795e-06	
1.84623e-10	-0.00344492	-1.01169e-06	
-1.01107e-10	-0.00492612	7.96787e-08	
-0.00575666	-0.00243875	-1.5319e-07	
-1.4974e-11	-0.00534163	-3.44573e-07	
-0.0127702	-0.00167561	-3.64759e-09	
0.00081404	-0.00516826	1.25661e-05	
-1.07435e-09	-0.00514989	1.0179e-06	
0.0208387	-0.00158929	2.5447e-07	
0.00262907	-0.00462614	-2.07039e-07	
0.0031653	-0.00422313	9.3827e-07	
0.00777502	-0.00288738	9.44413e-07	
0.000296267	-0.00533993	1.2732e-06	
0.00104183	-0.0039359	-8.33374e-06	
0.00183476	-0.00464226	1.55899e-05	
0.00265155	-0.00362397	9.48057e-07	
0.000407864	-0.00503689	-1.12201e-05	
-0.000104276	-0.00532342	-5.85985e-07	
0.00112019	-0.00511033	1.0738e-05	
8.81612e-10	-0.00446518	2.88078e-06	
-1.78735e-10	-0.00333464	9.78605e-07	
1.4848e-10	-0.00491256	-1.167e-07	
-1.53456e-13	-0.00233025	5.14737e-09	
8.79949e-05	-0.00536116	5.07842e-07	
8.22841e-08	-0.00545647	8.14225e-08	
-0.000733591	-0.00517594	-1.25129e-05	
1.08364e-09	-0.00515201	-1.02528e-06	
-8.82264e-05	-0.00545653	-2.42793e-07	
-0.00261198	-0.00462093	3.54604e-07	
-0.00309602	-0.00421663	-8.90967e-07	
-0.00187579	-0.00511683	-1.31058e-05	
-0.00777177	-0.00288675	-9.42455e-07	
-0.000292677	-0.00533991	-1.27464e-06	
-0.00104814	-0.00393637	8.33438e-06	
-0.0018648	-0.00463515	-1.59977e-05	
-0.00265002	-0.00362314	-9.4786e-07	
0.000258991	-0.0050383	1.36657e-05	
0.000114907	-0.00532423	5.83217e-07	
-8.56779e-10	-0.00446044	-2.57259e-06	
1.78673e-10	-0.0033339	-9.79086e-07	
-1.00701e-10	-0.00490635	7.93589e-08	
-0.00651085	-0.00232967	-1.54522e-07	
-1.5029e-11	-0.00536126	-3.45839e-07	
-0.0143207	-0.00158891	1.85017e-09	
0.000746331	-0.00517831	1.25208e-05	
-1.07569e-09	-0.00515635	1.01917e-06	
0.0227091	-0.00128645	2.50757e-07	
0.00290336	-0.00379397	-2.70284e-07	
0.00356918	-0.00345341	1.64268e-07	
0.00858326	-0.00234646	9.14379e-07	
0.000349268	-0.00441864	1.04239e-06	
0.00127228	-0.00321529	-6.68423e-06	
0.00193726	-0.00381432	1.33588e-05	
0.00293932	-0.00295716	9.73031e-07	
0.000574365	-0.00414955	-9.1531e-06	
-5.40835e-05	-0.00440662	-4.89161e-07	
0.00120421	-0.00421026	9.15815e-06	
7.22905e-10	-0.00366136	2.36218e-06	
-1.45689e-10	-0.00271809	7.9767e-07	
1.22099e-10	-0.00403972	-9.5965e-08	
-1.24502e-13	-0.00189058	4.17617e-09	
0.000109086	-0.00444312	4.20454e-07	
1.16029e-07	-0.00452596	6.75371e-08	
-0.000669231	-0.00427905	-1.04079e-05	
8.94425e-10	-0.00425244	-8.46261e-07	
-0.00010931	-0.004526	-2.00407e-07	
-0.00288361	-0.00378882	4.24535e-07	
-0.00349535	-0.00344804	-1.33967e-07	
-0.00202579	-0.00421504	-1.10859e-05	
-0.00857978	-0.00234587	-9.12275e-07	
-0.000345126	-0.00441854	-1.04383e-06	
-0.00127985	-0.00321549	6.68365e-06	
-0.00196801	-0.00380741	-1.36962e-05	
-0.0029375	-0.00295611	-9.72615e-07	
0.000148683	-0.00415026	1.11752e-05	
6.60486e-05	-0.00440722	4.86465e-07	
-7.02439e-10	-0.00365694	-2.10917e-06	
1.45629e-10	-0.00271733	-7.98015e-07	
-8.27826e-11	-0.00403332	6.52378e-08	
-0.00712563	-0.00189004	-1.40276e-07	
-1.24553e-11	-0.00444316	-2.86615e-07	
-0.0155758	-0.00128609	1.10633e-08	
0.000683532	-0.00428097	1.0418e-05	
-8.87855e-10	-0.00425594	8.41206e-07	
0.0242547	-0.00105486	2.49098e-07	
0.003158	-0.00324744	-3.21776e-07	
0.00393716	-0.00293385	-4.18775e-07	
0.00928178	-0.00195245	8.99982e-07	
0.000400575	-0.00384031	8.958e-07	
0.00147858	-0.00272046	-5.53742e-06	
0.00203428	-0.00327536	1.19452e-05	
0.00319367	-0.00249078	1.00414e-06	
0.0007325	-0.00358133	-7.78649e-06	
-6.04401e-06	-0.00382808	-4.30139e-07	
0.00128495	-0.0036399	8.18747e-06	
6.16924e-10	-0.00312459	2.01587e-06	
-1.22062e-10	-0.00227729	6.68309e-07	
1.05123e-10	-0.00347805	-8.26225e-08	
-1.02889e-13	-0.00156239	3.45121e-09	
0.000129246	-0.00386511	3.65352e-07	
1.60346e-07	-0.00393904	5.87786e-08	
-0.000608203	-0.00371284	-9.0584e-06	
7.74976e-10	-0.00368453	-7.33244e-07	
-0.000129438	-0.00393908	-1.73487e-07	
-0.00313606	-0.00324275	4.83765e-07	
-0.00385938	-0.00292916	4.37364e-07	
-0.00216958	-0.00364422	-9.83569e-06	
-0.00927811	-0.00195193	-8.97754e-07	
-0.000395908	-0.0038403	-8.97299e-07	
-0.00148713	-0.00272057	5.53617e-06	
-0.00206583	-0.00326941	-1.22394e-05	
-0.00319161	-0.0024899	-1.00358e-06	
4.52302e-05	-0.00358204	9.54011e-06	
1.91694e-05	-0.00382869	4.27468e-07	
-5.99431e-10	-0.00312067	-1.79987e-06	
1.22011e-10	-0.00227663	-6.68593e-07	
-7.12768e-11	-0.00347273	5.61705e-08	
-0.00764174	-0.00156193	-1.30106e-07	
-1.08351e-11	-0.00386519	-2.49332e-07	
-0.0166048	-0.00105456	1.82745e-08	
0.000623864	-0.00371459	9.07065e-06	
-7.69304e-10	-0.00368767	7.28884e-07	
0.0253755	-0.000756958	2.40114e-07	
0.00336665	-0.002455	-3.74924e-07	
0.00423624	-0.00219864	-1.10115e-06	
0.0098179	-0.00142777	8.55158e-07	
0.000445656	-0.00295842	6.75591e-07	
0.00164155	-0.00203009	-3.97411e-06	
0.00211507	-0.0024866	9.79813e-06	
0.00339215	-0.00184969	1.00805e-06	
0.000865161	-0.00273563	-5.83738e-06	
3.64484e-05	-0.00294954	-3.36644e-07	
0.00135603	-0.00278343	6.67432e-06	
4.65281e-10	-0.00235655	1.52036e-06	
-9.01226e-11	-0.0016814	4.93436e-07	
8.00268e-11	-0.00264774	-6.28981e-08	
-7.46097e-14	-0.00113296	2.50264e-09	
0.000148085	-0.00298369	2.81465e-07	
1.87507e-07	-0.00304411	4.54242e-08	
-0.000554726	-0.00285529	-7.05379e-06	
5.94596e-10	-0.00282694	-5.62577e-07	
-0.000148268	-0.00304414	-1.32762e-07	
-0.00334277	-0.00245056	5.40964e-07	
-0.00415517	-0.00219488	1.10429e-06	
-0.0022921	-0.00278639	-7.9061e-06	
-0.00981399	-0.00142726	-8.52828e-07	
-0.000440608	-0.00295837	-6.77063e-07	
-0.00165091	-0.0020299	3.97172e-06	
-0.00214726	-0.00248127	-1.00266e-05	
-0.00338977	-0.0018487	-1.00729e-06	
-4.31015e-05	-0.00273583	7.18817e-06	
-2.24276e-05	-0.00294996	3.34092e-07	
-4.51977e-10	-0.00235302	-1.35712e-06	
9.00741e-11	-0.00168072	-4.93586e-07	
-5.42443e-11	-0.00264288	4.27478e-08	
-0.00802374	-0.00113252	-1.14423e-07	
-8.36414e-12	-0.00298372	-1.92471e-07	
-0.0173432	-0.000756672	2.61464e-08	
0.000571402	-0.0028566	7.06768e-06	
-5.9023e-10	-0.00282928	5.59219e-07	
0.0260858	-0.000467852	2.2859e-07	
0.00353572	-0.00170783	-4.2131e-07	
0.00447348	-0.0015017	-1.71762e-06	
0.0102014	-0.000923018	8.0365e-07	
0.000485065	-0.00213331	4.69938e-07	
0.00176561	-0.00137332	-2.49598e-06	
0.00218241	-0.00174399	7.76552e-06	
0.0035398	-0.00123752	1.00101e-06	
0.000976277	-0.00194174	-4.01843e-06	
7.35259e-05	-0.00212645	-2.48702e-07	
0.00141826	-0.00198137	5.2525e-06	
3.21764e-10	-0.00162967	1.0514e-06	
-5.94882e-11	-0.00110986	3.25708e-07	
5.64546e-11	-0.00186784	-4.43712e-08	
-4.72797e-14	-0.000717951	1.5859e-09	
0.000165128	-0.00215805	2.02896e-07	
2.07348e-07	-0.00220525	3.29065e-08	
-0.000508675	-0.00205207	-5.18026e-06	
4.25721e-10	-0.00202404	-4.02796e-07	
-0.000165306	-0.00220527	-9.46049e-08	
-0.00351032	-0.00170381	5.89947e-07	
-0.00438985	-0.00149881	1.70648e-06	
-0.00239668	-0.0019833	-6.0957e-06	
-0.0101972	-0.000922534	-8.01249e-07	
-0.000479743	-0.00213327	-4.71378e-07	
-0.00177551	-0.00137289	2.49268e-06	
-0.00221518	-0.00173956	-7.93299e-06	
-0.0035371	-0.00123656	-1.00007e-06	
-0.00011742	-0.00194164	4.99168e-06	
-5.88626e-05	-0.00212675	2.46292e-07	
-3.1245e-10	-0.00162663	-9.38172e-07	
5.9445e-11	-0.0011092	-3.25746e-07	
-3.82552e-11	-0.00186386	3.01475e-08	
-0.00827731	-0.00071755	-9.83325e-08	
-6.04964e-12	-0.00215807	-1.39211e-07	
-0.0177995	-0.000467595	3.31606e-08	
0.000526056	-0.00205301	5.19554e-06	
-4.2259e-10	-0.00202569	4.00387e-07	
0.0263539	-0.0001581	2.12422e-07	
0.0036558	-0.000879484	-4.63705e-07	
0.00463708	-0.000734417	-2.33329e-06	
0.0104146	-0.000376748	7.34853e-07	
0.000516884	-0.00120483	2.39821e-07	
0.00184426	-0.000653035	-8.91777e-07	
0.00223238	-0.000918371	5.4739e-06	
0.0036291	-0.000568863	9.74825e-07	
0.00105948	-0.00105475	-2.0198e-06	
0.000103651	-0.00120111	-1.48368e-07	
0.00146889	-0.00108321	3.63923e-06	
1.63203e-10	-0.000826589	5.33286e-07	
-2.61797e-11	-0.000488431	1.43338e-07	
3.01741e-11	-0.000998332	-2.37158e-08	
-1.78491e-14	-0.000271042	5.98712e-10	
0.000179992	-0.00122862	1.145e-07	
2.1003e-07	-0.00126078	1.88129e-08	
-0.00047194	-0.00114995	-3.0911e-06	
2.36254e-10	-0.00112324	-2.23532e-07	
-0.000180185	-0.00126079	-5.17604e-08	
-0.00362928	-0.000875872	6.32218e-07	
-0.00455167	-0.000732473	2.30696e-06	
-0.00247756	-0.00108383	-4.04895e-06	
-0.0104101	-0.000376265	-7.32411e-07	
-0.000511438	-0.00120476	-2.41179e-07	
-0.00185446	-0.000652306	8.87469e-07	
-0.0022656	-0.000914795	-5.573e-06	
-0.00362605	-0.000567843	-9.73684e-07	
-0.000174374	-0.0010542	2.57027e-06	
-8.86319e-05	-0.00120122	1.46156e-07	
-1.58285e-10	-0.000824039	-4.75271e-07	
2.61399e-11	-0.000487751	-1.43241e-07	
-2.04242e-11	-0.000995102	1.60955e-08	
-0.00839102	-0.000270661	-7.97149e-08	
-3.44411e-12	-0.00122861	-7.92539e-08	
-0.0179536	-0.000157859	3.98722e-08	
0.000489668	-0.00115041	3.10735e-06	
-2.34496e-10	-0.00112406	2.22176e-07	
0.0261844	0.000148428	1.93113e-07	
0.00372743	-5.89025e-05	-4.99346e-07	
0.00472738	2.5509e-05	-2.89646e-06	
0.0104586	0.000164173	6.56015e-07	
0.00054092	-0.000283869	1.24008e-08	
0.00187807	6.04895e-05	6.84424e-07	
0.00226515	-0.000100189	3.18151e-06	
0.00366067	9.36611e-05	9.34246e-07	
0.00111506	-0.000175451	-6.03896e-08	
0.000126551	-0.000282922	-4.79205e-08	
0.00150753	-0.000193177	2.0278e-06	
6.05363e-12	-3.06604e-05	1.9781e-08	
6.82743e-12	0.000127378	-3.73813e-08	
4.13043e-12	-0.000136658	-3.24637e-09	
1.12891e-14	0.000171427	-3.78671e-10	
0.00019236	-0.000306123	2.67915e-08	
1.98496e-07	-0.000323017	4.81932e-09	
-0.000444804	-0.000255116	-1.0282e-06	
4.83963e-11	-0.000230094	-4.57902e-08	
-0.000192585	-0.000323005	-9.28452e-09	
-0.00370023	-5.58028e-05	6.65633e-07	
-0.00464099	2.64969e-05	2.85552e-06	
-0.00253472	-0.00019258	-2.00957e-06	
-0.0104538	0.000164641	-6.53565e-07	
-0.000535488	-0.00028378	-1.36557e-08	
-0.0018883	6.14868e-05	-6.89587e-07	
-0.00229873	-9.75881e-05	-3.21321e-06	
-0.00365726	9.46834e-05	-9.32913e-07	
-0.000213737	-0.000174518	1.91668e-07	
-0.000111462	-0.000282865	4.59415e-08	
-5.50591e-12	-2.86641e-05	-1.65322e-08	
-6.86261e-12	0.000128051	3.76056e-08	
-2.7571e-12	-0.000134331	2.17277e-09	
-0.00836614	0.000171775	-6.01708e-08	
-8.58022e-13	-0.00030608	-1.97443e-08	
-0.0178085	0.000148646	4.57994e-08	
0.00046253	-0.000255129	1.0451e-06	
-4.80036e-11	-0.000230106	4.54814e-08	
0.0255764	0.000454596	1.70456e-07	
0.00374751	0.000774486	-5.28477e-07	
0.00474069	0.000794698	-3.41598e-06	
0.0103302	0.000707264	5.65736e-07	
0.000556353	0.000658261	-2.19269e-07	
0.00186539	0.000781505	2.26341e-06	
0.00227928	0.000731982	8.25381e-07	
0.00363272	0.000761971	8.7794e-07	
0.0011408	0.000721017	1.91205e-06	
0.000141553	0.000656131	5.58784e-08	
0.00153291	0.000715015	3.67942e-07	
-1.53327e-10	0.000776568	-5.01014e-07	
4.00527e-11	0.000747257	-2.19295e-07	
-2.23937e-11	0.00074091	1.76006e-08	
4.04717e-14	0.00061457	-1.35754e-09	
0.000201965	0.000637989	-6.29361e-08	
1.69854e-07	0.000636939	-9.50526e-09	
-0.000428024	0.000659543	1.06937e-06	
-1.43509e-10	0.000682297	1.35781e-07	
-0.000202239	0.000636968	3.4114e-08	
-0.00372007	0.000777039	6.90156e-07	
-0.00465417	0.000794714	3.36068e-06	
-0.0025659	0.000716884	8.5479e-08	
-0.0103251	0.00070772	-5.63309e-07	
-0.000551086	0.000658379	2.18152e-07	
-0.0018754	0.000782775	-2.26937e-06	
-0.00231308	0.000733599	-7.88435e-07	
-0.00362894	0.000763005	-8.76416e-07	
-0.000234262	0.000722359	-2.20864e-06	
-0.000126687	0.000656377	-5.7585e-08	
1.4944e-10	0.000777995	4.48715e-07	
-4.00835e-11	0.000747928	2.19649e-07	
1.52366e-11	0.000742353	-1.20074e-08	
-0.00820165	0.00061489	-3.94674e-08	
1.78867e-12	0.000638069	4.11599e-08	
-0.0173647	0.000454794	5.10021e-08	
0.000445389	0.000660007	-1.05223e-06	
1.42511e-10	0.000683128	-1.35023e-07	
				</DataArray>
			</CellData>
			<Points>
				<DataArray type="Float64" Name="Position" NumberOfComponents="3" Format="ascii">
2.56966	1.92406	0.327381	
2.52686	1.09059	0.365105	
2.53548	1.30166	0.354969	
2.56308	1.71697	0.309875	
2.51921	0.265399	0.389288	
2.54231	1.40624	0.343111	
2.52961	0.988501	0.359915	
2.55034	1.50951	0.329668	
2.52135	0.784523	0.367669	
2.51634	0.371933	0.386907	
2.5212	0.680433	0.370252	
2.53148	1.19636	0.362109	
2.55714	1.61298	0.317846	
2.53016	0.887757	0.359275	
2.57095	1.82433	0.305479	
2.52084	0.159828	0.388679	
2.52128	0.0535517	0.388138	
2.52105	0.475937	0.377841	
2.52544	0.577747	0.370556	
2.52124	-0.0534568	0.388149	
2.52702	-1.09042	0.364347	
2.53565	-1.30153	0.353892	
2.52014	-0.679988	0.371842	
2.56478	-1.71586	0.308724	
2.51929	-0.265294	0.389052	
2.54254	-1.40591	0.341425	
2.53016	-0.988428	0.359089	
2.55076	-1.50899	0.32752	
2.52028	-0.784585	0.369275	
2.5165	-0.371791	0.386452	
2.53161	-1.19608	0.361262	
2.55821	-1.61229	0.315268	
2.5309	-0.887704	0.358642	
2.56793	-1.82004	0.316812	
2.52078	-0.159722	0.388765	
2.56869	-1.92292	0.339314	
2.52144	-0.475682	0.377282	
2.5262	-0.577333	0.370287	
2.46766	1.92104	0.296761	
2.44214	1.09119	0.299569	
2.44559	1.30049	0.293942	
2.47553	1.7215	0.251065	
2.43377	0.265062	0.32473	
2.45462	1.40553	0.282938	
2.45131	0.990517	0.291532	
2.46577	1.51046	0.267942	
2.44471	0.784451	0.298107	
2.43179	0.371039	0.321531	
2.44456	0.68059	0.300995	
2.44347	1.19594	0.2991	
2.4735	1.61606	0.254781	
2.45575	0.888821	0.289527	
2.47869	1.83209	0.254283	
2.43568	0.159767	0.324279	
2.43635	0.0535336	0.323607	
2.44173	0.474471	0.310063	
2.45128	0.577164	0.300513	
2.43625	-0.0534442	0.32365	
2.442	-1.09092	0.298865	
2.44573	-1.30035	0.292671	
2.44293	-0.680254	0.302952	
2.47807	-1.72154	0.248996	
2.43393	-0.264968	0.324427	
2.45504	-1.40528	0.280763	
2.45159	-0.990512	0.291004	
2.46663	-1.51018	0.264948	
2.44273	-0.784335	0.300345	
2.43205	-0.370916	0.320983	
2.44322	-1.19549	0.297934	
2.47545	-1.61608	0.250887	
2.45664	-0.888825	0.289333	
2.47366	-1.82394	0.270271	
2.4356	-0.159706	0.324216	
2.46548	-1.9167	0.313675	
2.44239	-0.474243	0.309503	
2.45235	-0.576913	0.300152	
2.36447	1.91975	0.267263	
2.36378	1.09404	0.234168	
2.36641	1.30327	0.230664	
2.38401	1.73041	0.196737	
2.3606	0.264627	0.25901	
2.37126	1.40834	0.223136	
2.37443	0.993687	0.226243	
2.37827	1.51435	0.210637	
2.36775	0.785509	0.232318	
2.35872	0.370191	0.255412	
2.36868	0.681351	0.235101	
2.36461	1.19859	0.234573	
2.38531	1.62261	0.196688	
2.37768	0.89093	0.224388	
2.38401	1.84604	0.208468	
2.36257	0.159744	0.258539	
2.3631	0.0534382	0.258766	
2.36698	0.473675	0.245009	
2.3746	0.577235	0.235531	
2.36297	-0.0533622	0.258824	
2.36358	-1.09371	0.232843	
2.36666	-1.30321	0.229184	
2.36687	-0.681076	0.237274	
2.38775	-1.73237	0.193802	
2.36072	-0.26454	0.258805	
2.37183	-1.40827	0.220534	
2.3749	-0.993661	0.225659	
2.37942	-1.5145	0.206919	
2.36592	-0.785321	0.234615	
2.35907	-0.370118	0.254773	
2.36463	-1.19849	0.233914	
2.38793	-1.62373	0.191545	
2.37903	-0.89085	0.224009	
2.37722	-1.83263	0.22729	
2.36248	-0.159703	0.258483	
2.36139	-1.91096	0.28844	
2.36779	-0.473551	0.244212	
2.37589	-0.577122	0.235154	
2.26695	1.92438	0.233869	
2.29507	1.09907	0.165091	
2.29445	1.30923	0.163261	
2.29598	1.7439	0.141453	
2.29739	0.264553	0.188521	
2.29522	1.41466	0.158658	
2.30584	0.998231	0.156479	
2.29766	1.52183	0.149218	
2.29846	0.787507	0.164041	
2.29532	0.369765	0.185302	
2.30083	0.682883	0.166041	
2.29528	1.20403	0.165858	
2.30165	1.63288	0.136017	
2.3078	0.894016	0.155369	
2.29127	1.86397	0.162335	
2.29858	0.159748	0.18842	
2.2993	0.0534441	0.188818	
2.30172	0.473563	0.175409	
2.30667	0.578024	0.166295	
2.29912	-0.0533885	0.188934	
2.29519	-1.09901	0.164495	
2.29469	-1.30925	0.161568	
2.29917	-0.682779	0.168471	
2.29991	-1.74805	0.138313	
2.29753	-0.264499	0.188343	
2.29578	-1.41481	0.155762	
2.30654	-0.998098	0.155202	
2.29883	-1.52249	0.145027	
2.29624	-0.787162	0.166237	
2.29557	-0.369747	0.184673	
2.29545	-1.20396	0.165076	
2.30445	-1.63529	0.130115	
2.30939	-0.893842	0.154909	
2.28431	-1.84637	0.183613	
2.29842	-0.159736	0.188416	
2.2635	-1.91108	0.257159	
2.3025	-0.473549	0.174521	
2.30799	-0.578106	0.165772	
2.16671	1.92632	0.206546	
2.19842	1.10184	0.111507	
2.19708	1.31314	0.111568	
2.19411	1.75191	0.101352	
2.2037	0.264809	0.13063	
2.19628	1.41885	0.110514	
2.20803	1.00025	0.100279	
2.19705	1.52659	0.103975	
2.20002	0.78882	0.110582	
2.20123	0.370296	0.128113	
2.20255	0.683899	0.112018	
2.19736	1.20722	0.113042	
2.20037	1.63951	0.091831	
2.20961	0.895745	0.100915	
2.18923	1.87489	0.128384	
2.20475	0.159908	0.130535	
2.20588	0.053471	0.130588	
2.20527	0.474486	0.119391	
2.20903	0.579021	0.111156	
2.20565	-0.0534387	0.130795	
2.19863	-1.10181	0.110841	
2.19739	-1.31325	0.109742	
2.20076	-0.683742	0.114706	
2.19785	-1.75738	0.0978132	
2.20389	-0.26479	0.130246	
2.19683	-1.41918	0.107438	
2.20858	-1.00017	0.0995208	
2.19821	-1.52761	0.0994966	
2.19825	-0.788535	0.113392	
2.20154	-0.370313	0.127377	
2.19769	-1.20721	0.112131	
2.20304	-1.64272	0.0853315	
2.21062	-0.895563	0.100621	
2.18275	-1.85364	0.151011	
2.20454	-0.159911	0.130631	
2.16353	-1.91013	0.231037	
2.20617	-0.474502	0.118253	
2.21028	-0.579131	0.110438	
2.06764	1.92975	0.180614	
2.09821	1.10425	0.0672058	
2.09617	1.31651	0.0692299	
2.09115	1.75753	0.0683177	
2.10373	0.265164	0.0823568	
2.09458	1.42238	0.0709639	
2.10616	1.00214	0.0553382	
2.09465	1.53047	0.0668499	
2.09869	0.789979	0.0670762	
2.10245	0.370929	0.0804166	
2.10123	0.684913	0.0673452	
2.09689	1.21006	0.069349	
2.09697	1.64444	0.055761	
2.10607	0.896966	0.0569525	
2.08663	1.88153	0.0986382	
2.10554	0.160136	0.0822089	
2.10695	0.0535215	0.0817584	
2.10485	0.47534	0.0727395	
2.10734	0.579991	0.0651049	
2.10671	-0.0535149	0.0820658	
2.09847	-1.10424	0.0665242	
2.09656	-1.31671	0.0673753	
2.10012	-0.684788	0.0700102	
2.09437	-1.76372	0.064391	
2.10394	-0.265152	0.0819435	
2.09505	-1.42282	0.0678385	
2.10667	-1.00207	0.054526	
2.09565	-1.53169	0.0622712	
2.09727	-0.78965	0.0699714	
2.10274	-0.370962	0.0796304	
2.09731	-1.2101	0.0683825	
2.09918	-1.64798	0.0491169	
2.10835	-0.897034	0.0550284	
2.08121	-1.85886	0.12207	
2.10532	-0.160147	0.0824091	
2.065	-1.91219	0.205571	
2.10562	-0.475384	0.0715167	
2.1086	-0.58013	0.064095	
1.96855	1.93361	0.156138	
1.9931	1.10573	0.034591	
1.99116	1.3186	0.0379425	
1.98657	1.7596	0.0429641	
1.99847	0.26552	0.0460154	
1.98961	1.4245	0.0418983	
1.99921	1.00317	0.022649	
1.98963	1.53263	0.0393108	
1.99257	0.790634	0.0356517	
1.99731	0.371479	0.0448559	
1.99535	0.685641	0.0341232	
1.99201	1.21198	0.0368973	
1.99093	1.64648	0.0293322	
1.99861	0.897731	0.0234206	
1.98314	1.88317	0.0732381	
1.99928	0.160336	0.04626	
2.0015	0.053576	0.0451061	
1.99864	0.476039	0.0382129	
2.00019	0.580714	0.0311986	
2.00127	-0.053588	0.045498	
1.9932	-1.10567	0.0340411	
1.99152	-1.31882	0.0361542	
1.99463	-0.685516	0.036718	
1.98914	-1.76582	0.0386279	
1.99868	-0.265508	0.045581	
1.98998	-1.42498	0.038859	
1.9997	-1.00311	0.0218644	
1.99045	-1.53389	0.0347981	
1.99214	-0.790439	0.0378509	
1.9976	-0.371517	0.0440379	
1.99255	-1.21197	0.0359826	
1.99274	-1.65011	0.0224304	
1.99959	-0.897653	0.0224264	
1.97898	-1.86112	0.0969967	
1.99909	-0.160351	0.0465407	
1.96658	-1.91634	0.181034	
1.99928	-0.476088	0.0369297	
2.00133	-0.580842	0.0299881	
1.86939	1.93815	0.132148	
1.88593	1.10629	0.0113444	
1.88543	1.31977	0.0144443	
1.882	1.75898	0.0231627	
1.89195	0.265818	0.0184047	
1.88434	1.42565	0.0197334	
1.89092	1.00346	-0.000819304	
1.8836	1.53312	0.0192676	
1.88585	0.790973	0.0129043	
1.88965	0.371835	0.0190968	
1.88844	0.68606	0.00922265	
1.88621	1.21303	0.012787	
1.88518	1.64666	0.00916728	
1.89061	0.898161	-0.000108684	
1.87951	1.88058	0.0509527	
1.89258	0.160496	0.0184717	
1.89338	0.0536271	0.0181873	
1.89119	0.476511	0.0125002	
1.89098	0.581118	0.00685592	
1.8932	-0.0536458	0.0186327	
1.88639	-1.10631	0.0107721	
1.88576	-1.31999	0.0128114	
1.88799	-0.685975	0.01169	
1.88375	-1.76461	0.0184692	
1.89213	-0.265802	0.0179802	
1.8846	-1.4261	0.0169039	
1.8911	-1.00328	-0.001219	
1.88421	-1.53428	0.0149993	
1.88532	-0.790731	0.0149842	
1.88981	-0.371872	0.0184163	
1.88657	-1.21308	0.0119397	
1.88653	-1.64995	0.00248124	
1.89148	-0.898088	-0.00107882	
1.87666	-1.86117	0.074372	
1.89243	-0.160513	0.0188105	
1.8681	-1.92261	0.156296	
1.89162	-0.476554	0.0113129	
1.89188	-0.581199	0.00558098	
1.76929	1.94178	0.108849	
1.77956	1.10648	-0.00468697	
1.77922	1.31991	-0.00115735	
1.77724	1.75596	0.00888169	
1.78424	0.265951	0.000734837	
1.77842	1.42551	0.00504872	
1.7815	1.00281	-0.0139929	
1.77848	1.53289	0.00459218	
1.77906	0.791158	-0.00329429	
1.78268	0.372078	0.000830609	
1.7809	0.68622	-0.00702589	
1.77976	1.21324	-0.00292741	
1.77929	1.64487	-0.00410261	
1.78234	0.898113	-0.0150947	
1.77576	1.87461	0.0324809	
1.78508	0.160596	-0.000566194	
1.78562	0.0536536	-0.000607333	
1.78156	0.476648	-0.00284285	
1.78286	0.581327	-0.00979181	
1.7855	-0.0536775	-0.00014348	
1.77983	-1.10634	-0.00482721	
1.77954	-1.32011	-0.0025862	
1.78067	-0.68615	-0.00481441	
1.77834	-1.76058	0.00406224	
1.78443	-0.265891	0.000344275	
1.77861	-1.42589	0.0025378	
1.78215	-1.00286	-0.0150893	
1.77892	-1.53386	0.000736562	
1.77885	-0.790898	-0.000666694	
1.78291	-0.372099	-1.16959e-05	
1.78018	-1.2133	-0.00365672	
1.78016	-1.64757	-0.0102944	
1.78308	-0.8981	-0.0160096	
1.7741	-1.85929	0.0545986	
1.78497	-0.160612	-0.000203555	
1.7686	-1.92925	0.131413	
1.78196	-0.476661	-0.00412943	
1.78354	-0.581365	-0.0110265	
1.66871	1.94591	0.0851542	
1.67282	1.10572	-0.012726	
1.67251	1.31894	-0.00913274	
1.67259	1.75135	-0.000425011	
1.67696	0.266018	-0.0105394	
1.67299	1.42483	-0.00423366	
1.67445	1.00225	-0.0221211	
1.67344	1.53174	-0.00453965	
1.67266	0.791115	-0.0127728	
1.67511	0.372217	-0.00963252	
1.67359	0.686183	-0.0163356	
1.67336	1.21263	-0.0120524	
1.67353	1.64171	-0.0111347	