<VTKFile type="UnstructuredGrid" version="0.1" byte_order="LittleEndian">
	<UnstructuredGrid>
		<Piece NumberOfPoints="266" NumberOfCells="266">
			<CellData Scalars="scalars">
				<DataArray type="Float64" Name="Strength" NumberOfComponents="3" Format="ascii">
0.00503251	-0.0036439	2.59746e-07	
0.000776786	-0.00782196	1.43204e-07	
0.000488137	-0.00660014	4.25326e-06	
0.00160011	-0.00601116	1.02597e-06	
9.24734e-05	-0.00810609	1.96953e-06	
-0.000538076	-0.00672158	-1.49127e-05	
0.0011661	-0.00782343	2.3811e-05	
0.00058836	-0.00719863	6.80368e-07	
-0.000580666	-0.00831945	-1.91801e-05	
-0.000308181	-0.0080048	-8.61917e-07	
0.00068892	-0.00866977	1.68762e-05	
1.43973e-09	-0.00729191	4.70448e-06	
-3.60752e-10	-0.00673051	1.97518e-06	
2.79776e-10	-0.0092566	-2.19894e-07	
-3.34998e-13	-0.005087	1.12368e-08	
2.77075e-06	-0.00806727	7.65708e-07	
1.55457e-07	-0.00818128	1.22082e-07	
-0.00102562	-0.00817119	-1.96206e-05	
1.95095e-09	-0.00927555	-1.84589e-06	
-2.51726e-06	-0.00818144	-3.67564e-07	
-0.000777156	-0.00773318	-5.46977e-08	
-0.000455789	-0.00657905	-4.13242e-06	
-0.00104563	-0.00868063	-2.09965e-05	
-0.00159973	-0.00600915	-1.02509e-06	
-9.16015e-05	-0.00810648	-1.97069e-06	
0.000539702	-0.00671911	1.49102e-05	
-0.00118961	-0.00778955	-2.44097e-05	
-0.000589284	-0.00719781	-6.81524e-07	
0.000922058	-0.00831884	2.31891e-05	
0.000309631	-0.0080061	8.59581e-07	
-1.39386e-09	-0.00725653	-4.18526e-06	
3.60611e-10	-0.00672873	-1.97607e-06	
-1.89761e-10	-0.00924551	1.49544e-07	
-0.00147606	-0.00508563	-2.3428e-07	
-2.26158e-11	-0.00806769	-5.20423e-07	
-0.00355509	-0.00364311	-6.60555e-08	
0.00102729	-0.00817392	1.96124e-05	
-1.93594e-09	-0.00927997	1.83423e-06	
0.00587241	-0.00056685	7.67753e-08	
0.000909214	-0.00162729	-7.1725e-08	
0.00066467	-0.00146684	7.13505e-07	
0.00198284	-0.00104916	2.90833e-07	
8.82899e-05	-0.00184996	4.40319e-07	
-0.000470663	-0.00139381	-3.19782e-06	
0.00121149	-0.00166823	6.30819e-06	
0.000684119	-0.0013143	2.72484e-07	
-0.000529471	-0.00183274	-5.02424e-06	
-0.00030108	-0.00188959	-1.74461e-07	
0.000733286	-0.00182	4.19435e-06	
3.13667e-10	-0.00158866	1.02495e-06	
-6.64992e-11	-0.00124067	3.64094e-07	
5.34182e-11	-0.00176738	-4.19847e-08	
-5.59089e-14	-0.000848986	1.87535e-09	
2.18581e-05	-0.00187805	1.78005e-07	
1.0294e-07	-0.00192349	2.87023e-08	
-0.00100631	-0.00184927	-5.21998e-06	
3.88341e-10	-0.00184632	-3.67429e-07	
-2.17772e-05	-0.00192343	-8.58379e-08	
-0.000905309	-0.00161618	1.22846e-07	
-0.000626292	-0.00146247	-7.01031e-07	
-0.00108324	-0.00181803	-5.02372e-06	
-0.00198143	-0.00104803	-2.9014e-07	
-8.74425e-05	-0.00184945	-4.40588e-07	
0.00047066	-0.00139154	3.19332e-06	
-0.00123495	-0.00165586	-6.4391e-06	
-0.000683075	-0.00131042	-2.72051e-07	
0.00085038	-0.00182954	5.919e-06	
0.000303352	-0.00188934	1.73554e-07	
-3.03537e-10	-0.00158023	-9.1141e-07	
6.63861e-11	-0.00123872	-3.63781e-07	
-3.60119e-11	-0.00175456	2.83796e-08	
-0.00176244	-0.000848083	-5.13352e-08	
-5.26401e-12	-0.00187782	-1.21133e-07	
-0.00410771	-0.000566295	-1.73253e-09	
0.00100852	-0.00184984	5.21897e-06	
-3.85403e-10	-0.00184744	3.65154e-07	
0.0105407	-0.00331362	2.80659e-07	
0.00137494	-0.008229	7.58724e-08	
0.00127007	-0.0076894	4.47844e-06	
0.00360771	-0.00570732	1.10683e-06	
0.000100279	-0.00891654	2.16833e-06	
-7.63251e-05	-0.00726646	-1.59731e-05	
0.00138054	-0.00816595	2.50624e-05	
0.00122127	-0.00680918	8.14459e-07	
-0.000305077	-0.00871607	-1.98096e-05	
-0.000297793	-0.00888571	-9.62396e-07	
0.000780253	-0.00882824	1.72718e-05	
1.57204e-09	-0.00796203	5.13682e-06	
-3.42289e-10	-0.00638604	1.87409e-06	
2.59851e-10	-0.00859735	-2.04233e-07	
-3.10753e-13	-0.00471884	1.04236e-08	
1.05121e-05	-0.00886341	8.41186e-07	
5.56507e-08	-0.00897393	1.33911e-07	
-0.000989321	-0.0087261	-2.08464e-05	
1.84814e-09	-0.00878675	-1.74862e-06	
-1.05465e-05	-0.00897388	-4.02954e-07	
-0.00137059	-0.00822201	3.99435e-08	
-0.00122353	-0.00767276	-4.34898e-06	
-0.00125166	-0.00883976	-2.14554e-05	
-0.00360576	-0.00570519	-1.10544e-06	
-9.89901e-05	-0.00891596	-2.1695e-06	
7.66336e-05	-0.00726495	1.59725e-05	
-0.00140745	-0.00815599	-2.5764e-05	
-0.00122121	-0.00680799	-8.15216e-07	
0.000736125	-0.00871691	2.40077e-05	
0.000301828	-0.00888599	9.59373e-07	
-1.52749e-09	-0.0079522	-4.58649e-06	
3.42127e-10	-0.00638383	-1.87478e-06	
-1.76319e-10	-0.00859057	1.3895e-07	
-0.00319656	-0.00471718	-2.3209e-07	
-2.4846e-11	-0.00886325	-5.71742e-07	
-0.00734025	-0.00331256	-5.02001e-08	
0.000994133	-0.00872814	2.08387e-05	
-1.83403e-09	-0.00879143	1.73766e-06	
0.0130368	-0.00175605	2.03261e-07	
0.00162377	-0.00454903	-7.47477e-08	
0.00166438	-0.00422873	1.90939e-06	
0.0045452	-0.003065	7.619e-07	
0.000134329	-0.00506218	1.22117e-06	
0.000154272	-0.00398939	-8.71185e-06	
0.00146647	-0.00453743	1.482e-05	
0.00152348	-0.00372428	6.65414e-07	
-0.000170316	-0.00486866	-1.13351e-05	
-0.0002588	-0.00506518	-5.37291e-07	
0.000848683	-0.00490753	1.00606e-05	
8.75504e-10	-0.00443424	2.86082e-06	
-1.86757e-10	-0.0034843	1.02253e-06	
1.44141e-10	-0.00476899	-1.13289e-07	
-1.6616e-13	-0.00252317	5.57351e-09	
2.92795e-05	-0.00507999	4.81844e-07	
-4.96774e-09	-0.00516922	7.71364e-08	
-0.000935482	-0.0049372	-1.21731e-05	
1.03631e-09	-0.00492703	-9.80508e-07	
-2.95005e-05	-0.00516916	-2.31475e-07	
-0.00161491	-0.00454186	1.77004e-07	
-0.00161191	-0.00422211	-1.85346e-06	
-0.00136645	-0.00491091	-1.23524e-05	
-0.0045426	-0.00306382	-7.60532e-07	
-0.000132747	-0.00506156	-1.222e-06	
-0.000156335	-0.00398895	8.71174e-06	
-0.00149307	-0.00452673	-1.52058e-05	
-0.0015223	-0.00372149	-6.65287e-07	
0.000633204	-0.00486793	1.3688e-05	
0.000264404	-0.00506523	5.35116e-07	
-8.50506e-10	-0.00442778	-2.55376e-06	
1.86642e-10	-0.00348261	-1.02276e-06	
-9.76491e-11	-0.00475764	7.69535e-08	
-0.00397871	-0.00252214	-1.42452e-07	
-1.42398e-11	-0.00507974	-3.27679e-07	
-0.00905322	-0.00175539	-1.4205e-08	
0.000942023	-0.00493881	1.21733e-05	
-1.02855e-09	-0.00493039	9.74513e-07	
0.0161201	-0.00213401	2.50904e-07	
0.00200592	-0.005996	-7.98865e-08	
0.00223469	-0.00551887	2.40404e-06	
0.00581168	-0.0038454	9.63586e-07	
0.000186728	-0.00676528	1.63315e-06	
0.000498522	-0.00516441	-1.119e-05	
0.00160598	-0.00599189	1.9148e-05	
0.00196424	-0.00477562	8.56003e-07	
4.20364e-05	-0.00645869	-1.46137e-05	
-0.000208707	-0.0067474	-7.33013e-07	
0.000942491	-0.00654203	1.32023e-05	
1.14539e-09	-0.00580118	3.74271e-06	
-2.36583e-10	-0.00441389	1.29533e-06	
1.91144e-10	-0.00632414	-1.50232e-07	
-2.0524e-13	-0.00311661	6.88437e-09	
4.59247e-05	-0.00677424	6.42465e-07	
2.36159e-08	-0.00688465	1.02734e-07	
-0.000869134	-0.00657875	-1.58406e-05	
1.38202e-09	-0.00657063	-1.3076e-06	
-4.61433e-05	-0.00688468	-3.08109e-07	
-0.00199478	-0.00599005	2.08836e-07	
-0.00217604	-0.00550974	-2.32594e-06	
-0.00155085	-0.00655071	-1.62739e-05	
-0.00580887	-0.00384436	-9.61947e-07	
-0.000184396	-0.00676511	-1.63444e-06	
-0.000501828	-0.00516475	1.11917e-05	
-0.00163436	-0.00598389	-1.96686e-05	
-0.00196325	-0.00477472	-8.56173e-07	
0.000500057	-0.00646056	1.77358e-05	
0.000216165	-0.0067482	7.30226e-07	
-1.11317e-09	-0.00579522	-3.34244e-06	
2.36492e-10	-0.00441277	-1.29592e-06	
-1.29669e-10	-0.00631769	1.02187e-07	
-0.00497916	-0.00311569	-1.76496e-07	
-1.899e-11	-0.00677427	-4.36988e-07	
-0.0111351	-0.00213341	-1.69465e-08	
0.000878078	-0.00658138	1.58425e-05	
-1.37179e-09	-0.0065757	1.29972e-06	
0.0185334	-0.00167609	2.41468e-07	
0.00230416	-0.00467182	-1.6205e-07	
0.00268739	-0.00429627	1.29466e-06	
0.00679417	-0.00300135	8.97906e-07	
0.000238526	-0.00532024	1.27413e-06	
0.000763791	-0.00402249	-8.60548e-06	
0.00171399	-0.00467594	1.55316e-05	
0.00230247	-0.00372252	8.65555e-07	
0.000214847	-0.00505034	-1.14093e-05	
-0.000158258	-0.00530988	-5.77606e-07	
0.00102768	-0.0051116	1.0638e-05	
8.93834e-10	-0.00452708	2.92071e-06	
-1.84703e-10	-0.00344597	1.01128e-06	
1.49138e-10	-0.00493434	-1.17217e-07	
-1.60649e-13	-0.00243949	5.38867e-09	
6.7081e-05	-0.00534168	5.06238e-07	
2.90012e-08	-0.00543697	8.11317e-08	
-0.000803227	-0.00516617	-1.25608e-05	
1.08235e-09	-0.0051459	-1.02407e-06	
-6.7353e-05	-0.00543697	-2.42481e-07	
-0.00228963	-0.00466589	2.95419e-07	
-0.00262325	-0.00428968	-1.24352e-06	
-0.0017039	-0.005117	-1.30129e-05	
-0.00679107	-0.00300053	-8.9612e-07	
-0.000235642	-0.00531997	-1.27536e-06	
-0.000768796	-0.00402273	8.60601e-06	
-0.00174292	-0.00466744	-1.59375e-05	
-0.00230105	-0.00372106	-8.65387e-07	
0.000383044	-0.00505094	1.38561e-05	
0.000167308	-0.00531039	5.74997e-07	
-8.68555e-10	-0.00452175	-2.60795e-06	
1.84623e-10	-0.00344492	-1.01169e-06	
-1.01107e-10	-0.00492612	7.96787e-08	
-0.00575666	-0.00243875	-1.5319e-07	
-1.4974e-11	-0.00534163	-3.44573e-07	
-0.0127702	-0.00167561	-3.64759e-09	
0.00081404	-0.00516826	1.25661e-05	
-1.07435e-09	-0.00514989	1.0179e-06	
0.0208387	-0.00158929	2.5447e-07	
0.00262907	-0.00462614	-2.07039e-07	
0.0031653	-0.00422313	9.3827e-07	
0.00777502	-0.00288738	9.44413e-07	
0.000296267	-0.00533993	1.2732e-06	
0.00104183	-0.0039359	-8.33374e-06	
0.00183476	-0.00464226	1.55899e-05	
0.00265155	-0.00362397	9.48057e-07	
0.000407864	-0.00503689	-1.12201e-05	
-0.000104276	-0.00532342	-5.85985e-07	
0.00112019	-0.00511033	1.0738e-05	
8.81612e-10	-0.00446518	2.88078e-06	
-1.78735e-10	-0.00333464	9.78605e-07	
1.4848e-10	-0.00491256	-1.167e-07	
-1.53456e-13	-0.00233025	5.14737e-09	
8.79949e-05	-0.00536116	5.07842e-07	
8.22841e-08	-0.00545647	8.14225e-08	
-0.000733591	-0.00517594	-1.25129e-05	
1.08364e-09	-0.00515201	-1.02528e-06	
-8.82264e-05	-0.00545653	-2.42793e-07	
-0.00261198	-0.00462093	3.54604e-07	
-0.00309602	-0.00421663	-8.90967e-07	
-0.00187579	-0.00511683	-1.31058e-05	
-0.00777177	-0.00288675	-9.42455e-07	
-0.000292677	-0.00533991	-1.27464e-06	
-0.00104814	-0.00393637	8.33438e-06	
-0.0018648	-0.00463515	-1.59977e-05	
-0.00265002	-0.00362314	-9.4786e-07	
0.000258991	-0.0050383	1.36657e-05	
0.000114907	-0.00532423	5.83217e-07	
-8.56779e-10	-0.00446044	-2.57259e-06	
1.78673e-10	-0.0033339	-9.79086e-07	
-1.00701e-10	-0.00490635	7.93589e-08	
-0.00651085	-0.00232967	-1.54522e-07	
-1.5029e-11	-0.00536126	-3.45839e-07	
-0.0143207	-0.00158891	1.85017e-09	
0.000746331	-0.00517831	1.25208e-05	
-1.07569e-09	-0.00515635	1.01917e-06	
				</DataArray>
			</CellData>
			<Points>
				<DataArray type="Float64" Name="Position" NumberOfComponents="3" Format="ascii">
1.87003	1.94172	0.139616	
1.85833	1.10122	0.159968	
1.86045	1.31321	0.15533	
1.86758	1.7321	0.13315	
1.85746	0.265594	0.170031	
1.86256	1.41852	0.149785	
1.859	0.99761	0.156779	
1.8647	1.52278	0.14302	
1.85668	0.789419	0.160657	
1.85634	0.371724	0.169599	
1.85669	0.6843	0.161591	
1.85944	1.2072	0.158468	
1.86618	1.62725	0.137161	
1.85912	0.894393	0.15579	
1.86985	1.83753	0.129646	
1.85794	0.160085	0.169584	
1.85829	0.053599	0.169425	
1.85716	0.476247	0.164855	
1.8581	0.579934	0.160665	
1.85828	-0.0535819	0.169446	
1.85848	-1.10125	0.159813	
1.86061	-1.31323	0.154958	
1.85657	-0.68419	0.16255	
1.86798	-1.73179	0.132052	
1.85753	-0.265558	0.169969	
1.86266	-1.41849	0.149123	
1.85924	-0.997609	0.156471	
1.86485	-1.52271	0.142106	
1.85653	-0.789438	0.161506	
1.85643	-0.371691	0.169462	
1.85967	-1.20722	0.158309	
1.86647	-1.62712	0.135839	
1.85938	-0.894354	0.155179	
1.86924	-1.83663	0.1346	
1.85793	-0.160078	0.169586	
1.86978	-1.94163	0.144619	
1.85732	-0.476184	0.16461	
1.85839	-0.579801	0.160446	
1.76827	1.94163	0.116993	
1.76063	1.10159	0.122366	
1.76152	1.31312	0.120166	
1.76842	1.73295	0.0994204	
1.76003	0.265526	0.131901	
1.764	1.4184	0.114729	
1.76233	0.998094	0.117041	
1.76647	1.52302	0.107437	
1.76042	0.78939	0.120348	
1.75912	0.371464	0.130877	
1.76048	0.684447	0.121105	
1.76108	1.20733	0.122309	
1.76794	1.62786	0.101429	
1.76302	0.894571	0.114716	
1.76967	1.83881	0.098831	
1.76049	0.160125	0.13135	
1.76101	0.0536175	0.131156	
1.76079	0.475886	0.124892	
1.76209	0.57981	0.119514	
1.761	-0.0536048	0.1312	
1.7608	-1.10156	0.122392	
1.76167	-1.31314	0.119804	
1.76032	-0.684362	0.122252	
1.76891	-1.73284	0.0977948	
1.76011	-0.265488	0.131827	
1.76413	-1.41839	0.113963	
1.76256	-0.998071	0.116853	
1.76669	-1.52302	0.106264	
1.76024	-0.789363	0.121407	
1.75922	-0.371438	0.130714	
1.7613	-1.20736	0.12227	
1.76836	-1.62788	0.0995853	
1.76339	-0.89457	0.114457	
1.76886	-1.83749	0.105362	
1.76047	-0.160119	0.131372	
1.76788	-1.94113	0.123665	
1.76098	-0.475831	0.124594	
1.76242	-0.579698	0.119255	
1.6666	1.9432	0.0930105	
1.66548	1.1027	0.0833818	
1.66576	1.31413	0.0818949	
1.66871	1.7352	0.0677278	
1.6665	0.265445	0.0910108	
1.66717	1.41945	0.0785249	
1.66709	0.999179	0.0783626	
1.66854	1.5244	0.0733299	
1.66561	0.789783	0.0811026	
1.66548	0.371368	0.0900104	
1.66563	0.684808	0.0818586	
1.66555	1.20835	0.0836318	
1.66914	1.62969	0.0678934	
1.66724	0.895194	0.0765323	
1.66908	1.84165	0.0692013	
1.66686	0.160176	0.090696	
1.66753	0.0535376	0.0905817	
1.66632	0.475727	0.0849877	
1.66719	0.580018	0.0805471	
1.66752	-0.0535317	0.0906308	
1.66561	-1.10271	0.0833637	
1.66599	-1.31419	0.0815388	
1.66557	-0.684736	0.0830144	
1.66926	-1.73545	0.0656499	
1.66658	-0.265409	0.0909476	
1.66731	-1.41949	0.0777184	
1.66728	-0.999157	0.0781681	
1.66881	-1.52451	0.0720475	
1.66552	-0.789717	0.0821514	
1.66559	-0.371352	0.089854	
1.6658	-1.20837	0.0835727	
1.66953	-1.62989	0.0657461	
1.66755	-0.895179	0.0762944	
1.66824	-1.84013	0.0767672	
1.66685	-0.160174	0.0907279	
1.66621	-1.9423	0.100617	
1.66651	-0.475692	0.0846906	
1.66753	-0.579935	0.0802917	
1.5652	1.94517	0.0681698	
1.56649	1.10334	0.0488473	
1.56612	1.31486	0.0482048	
1.56751	1.73668	0.0402621	
1.56813	0.265661	0.0543852	
1.56716	1.42031	0.0465285	
1.56782	0.999686	0.0446436	
1.5679	1.52527	0.0431984	
1.56679	0.789974	0.0473181	
1.56714	0.371452	0.0536416	
1.56677	0.685054	0.0475671	
1.56617	1.20911	0.0491076	
1.56817	1.63071	0.03897	
1.56777	0.895494	0.0434635	
1.56744	1.84322	0.043159	
1.56846	0.160422	0.0542828	
1.56881	0.0536136	0.0542476	
1.56736	0.475937	0.0499152	
1.56785	0.58016	0.0464456	
1.5688	-0.0536089	0.0543112	
1.56669	-1.10335	0.048831	
1.56635	-1.31494	0.0478854	
1.56685	-0.684965	0.0485972	
1.56802	-1.73704	0.038151	
1.56821	-0.265624	0.0543399	
1.56731	-1.42038	0.0458092	
1.56804	-0.999658	0.0444924	
1.56814	-1.52545	0.0420142	
1.5668	-0.78989	0.048544	
1.56723	-0.37144	0.053522	
1.56657	-1.20915	0.0490478	
1.56857	-1.63108	0.0369081	
1.56834	-0.895443	0.0432782	
1.5669	-1.842	0.050413	
1.56845	-0.160422	0.0543367	
1.56497	-1.94425	0.0754255	
1.56753	-0.475904	0.0496747	
1.5682	-0.580024	0.0462323	
1.46299	1.94681	0.045294	
1.46309	1.10402	0.026185	
1.46282	1.31529	0.0261634	
1.46419	1.73678	0.0222236	
1.46425	0.265593	0.029622	
1.46354	1.42049	0.0255015	
1.46375	0.999829	0.0232416	
1.46406	1.5253	0.0235111	
1.46376	0.790108	0.0255184	
1.46377	0.37113	0.0291953	
1.46325	0.684689	0.0253009	
1.46356	1.20988	0.0263733	
1.46425	1.63074	0.020572	
1.46395	0.895707	0.0225102	
1.46387	1.84295	0.0248641	
1.46437	0.160098	0.0295501	
1.46468	0.0536785	0.0295146	
1.46389	0.475872	0.0269278	
1.46369	0.580038	0.024405	
1.46468	-0.0536763	0.0295814	
1.46338	-1.10408	0.0261939	
1.46306	-1.31538	0.0259366	
1.46343	-0.684608	0.0260864	
1.46439	-1.73706	0.0204906	
1.46436	-0.265532	0.0296022	
1.46362	-1.42054	0.0249716	
1.46402	-0.999785	0.023158	
1.46429	-1.52549	0.0226414	
1.46394	-0.79002	0.0264947	
1.46386	-0.371116	0.029137	
1.46381	-1.20991	0.026323	
1.46446	-1.63099	0.0190006	
1.46423	-0.895697	0.0223661	
1.46368	-1.8424	0.0304751	
1.46436	-0.160098	0.029618	
1.46292	-1.94628	0.0508312	
1.46406	-0.475806	0.0267014	
1.46387	-0.579981	0.0242715	
1.36133	1.94861	0.0223667	
1.36185	1.1042	0.0155864	
1.362	1.316	0.0156114	
1.36081	1.73662	0.0121617	
1.36266	0.265094	0.0181713	
1.36155	1.42107	0.014882	
1.36177	1.00042	0.0145568	
1.36158	1.52564	0.0132172	
1.36202	0.790221	0.0162689	
1.36225	0.371056	0.0179996	
1.36209	0.684697	0.0159296	
1.36213	1.21014	0.0155302	
1.36122	1.63085	0.0116599	
1.36191	0.896073	0.0138801	
1.3612	1.84252	0.0128556	
1.36299	0.159592	0.0181925	
1.36314	0.0537326	0.0181774	
1.36224	0.47552	0.0169679	
1.36215	0.579612	0.0151361	
1.36314	-0.0537347	0.018215	
1.36202	-1.10425	0.0156176	
1.36212	-1.31606	0.0155126	
1.36226	-0.684745	0.0162786	
1.36084	-1.73676	0.0113468	
1.36267	-0.265092	0.0181795	
1.36167	-1.42114	0.0146254	
1.3619	-1.00042	0.014537	
1.36167	-1.52574	0.0128152	
1.36226	-0.790116	0.0167504	
1.36241	-0.37102	0.0179877	
1.36223	-1.21015	0.0155018	
1.36128	-1.63098	0.0109516	
1.36204	-0.896048	0.013835	
1.3612	-1.84259	0.0154236	
1.36299	-0.159589	0.0182362	
1.36137	-1.94847	0.0249885	
1.36242	-0.47551	0.0168628	
1.36236	-0.579595	0.0150987	
1.2602	1.94667	3.49507e-06	
1.2602	1.10408	-3.48466e-05	
1.2602	1.31564	-0.000166556	
1.2602	1.73535	1.80271e-05	
1.2602	0.264648	-3.1728e-05	
1.2602	1.42085	-6.71897e-05	
1.2602	1	0.000149944	
1.2602	1.52507	7.16615e-05	
1.2602	0.790149	0.000185923	
1.2602	0.370241	-4.04786e-05	
1.2602	0.68436	0.000165193	
1.2602	1.20985	-7.96293e-05	
1.2602	1.62976	4.75234e-05	
1.2602	0.89592	0.000331057	
1.2602	1.84074	7.7572e-06	
1.2602	0.15926	-9.30579e-06	
1.2602	0.0533282	-2.06975e-06	
1.2602	0.474927	0.00011447	
1.2602	0.579147	0.000275008	
1.2602	-0.0533282	-4.07039e-06	
1.2602	-1.10408	-4.68344e-05	
1.2602	-1.31564	-0.000167835	
1.2602	-0.68436	0.000133222	
1.2602	-1.73535	1.79762e-05	
1.2602	-0.264648	-3.17372e-05	
1.2602	-1.42085	-6.72209e-05	
1.2602	-1	0.000143041	
1.2602	-1.52507	7.16446e-05	
1.2602	-0.790149	0.000153995	
1.2602	-0.370241	-4.05135e-05	
1.2602	-1.20985	-8.66568e-05	
1.2602	-1.62976	4.74834e-05	
1.2602	-0.89592	0.000330175	
1.2602	-1.84074	4.97966e-06	
1.2602	-0.15926	-1.13074e-05	
1.2602	-1.94667	7.40128e-07	
1.2602	-0.474927	0.000114297	
1.2602	-0.579147	0.000274628	
				</DataArray>
			</Points>
			<Cells>
				<DataArray type="Int32" Name="connectivity" Format="ascii">
0	
1	
2	
3	
4	
5	
6	
7	
8	
9	
10	
11	
12	
13	
14	
15	
16	
17	
18	
19	
20	
21	
22	
23	
24	
25	
26	
27	
28	
29	
30	
31	
32	
33	
34	
35	
36	
37	
38	
39	
40	
41	
42	
43	
44	
45	
46	
47	
48	
49	
50	
51	
52	
53	
54	
55	
56	
57	
58	
59	
60	
61	
62	
63	
64	
65	
66	
67	
68	
69	
70	
71	
72	
73	
74	
75	
76	
77	
78	
79	
80	
81	
82	
83	
84	
85	
86	
87	
88	
89	
90	
91	
92	
93	
94	
95	
96	
97	
98	
99	
100	
101	
102	
103	
104	
105	
106	
107	
108	
109	
110	
111	
112	
113	
114	
115	
116	
117	
118	
119	
120	
121	
122	
123	
124	
125	
126	
127	
128	
129	
130	
131	
132	
133	
134	
135	
136	
137	
138	
139	
140	
141	
142	
143	
144	
145	
146	
147	
148	
149	
150	
151	
152	
153	
154	
155	
156	
157	
158	
159	
160	
161	
162	
163	
164	
165	
166	
167	
168	
169	
170	
171	
172	
173	
174	
175	
176	
177	
178	
179	
180	
181	
182	
183	
184	
185	
186	
187	
188	
189	
190	
191	
192	
193	
194	
195	
196	
197	
198	
199	
200	
201	
202	
203	
204	
205	
206	
207	
208	
209	
210	
211	
212	
213	
214	
215	
216	
217	
218	
219	
220	
221	
222	
223	
224	
225	
226	
227	
228	
229	
230	
231	
232	
233	
234	
235	
236	
237	
238	
239	
240	
241	
242	
243	
244	
245	
246	
247	
248	
249	
250	
251	
252	
253	
254	
255	
256	
257	
258	
259	
260	
261	
262	
263	
264	
265	
				</DataArray>
				<DataArray type="Int32" Name="offsets" Format="ascii">
1	
2	
3	
4	
5	
6	
7	
8	
9	
10	
11	
12	
13	
14	
15	
16	
17	
18	
19	
20	
21	
22	
23	
24	
25	
26	
27	
28	
29	
30	
31	
32	
33	
34	
35	
36	
37	
38	
39	
40	
41	
42	
43	
44	
45	
46	
47	
48	
49	
50	
51	
52	
53	
54	
55	
56	
57	
58	
59	
60	
61	
62	
63	
64	
65	
66	
67	
68	
69	
70	
71	
72	
73	
74	
75	
76	
77	
78	
79	
80	
81	
82	
83	
84	
85	
86	
87	
88	
89	
90	
91	
92	
93	
94	
95	
96	
97	
98	
99	
100	
101	
102	
103	
104	
105	
106	
107	
108	
109	
110	
111	
112	
113	
114	
115	
116	
117	
118	
119	
120	
121	
122	
123	
124	
125	
126	
127	
128	
129	
130	
131	
132	
133	
134	
135	
136	
137	
138	
139	
140	
141	
142	
143	
144	
145	
146	
147	
148	
149	
150	
151	
152	
153	
154	
155	
156	
157	
158	
159	
160	
161	
162	
163	
164	
165	
166	
167	
168	
169	
170	
171	
172	
173	
174	
175	
176	
177	
178	
179	
180	
181	
182	
183	
184	
185	
186	
187	
188	
189	
190	
191	
192	
193	
194	
195	
196	
197	
198	
199	
200	
201	
202	
203	
204	
205	
206	
207	
208	
209	
210	
211	
212	
213	
214	
215	
216	
217	
218	
219	
220	
221	
222	
223	
224	
225	
226	
227	
228	
229	
230	
231	
232	
233	
234	
235	
236	
237	
238	
239	
240	
241	
242	
243	
244	
245	
246	
247	
248	
249	
250	
251	
252	
253	
254	
255	
256	
257	
258	
259	
260	
261	
262	
263	
264	
265	
266	
				</DataArray>
				<DataArray type="Int32" Name="types" Format="ascii">
1	
1	
1	
1	
1	
1	
1	
1	
1	
1	
1	
1	
1	
1	
1	
1	
1	
1	
1	
1	
1	
1	
1	
1	
1	
1	
1	
1	
1	
1	
1	
1	
1	
1	
1	
1	
1	
1	
1	
1	
1	
1	
1	
1	
1	
1	
1	
1	
1	
1	
1	
1	
1	
1	
1	
1	
1	
1	
1	
1	
1	
1	
1	
1	
1	
1	
1	
1	
1	
1	
1	
1	
1	
1	
1	
1	
1	
1	
1	
1	
1	
1	
1	
1	
1	
1	
1	
1	
1	
1	
1	
1	
1	
1	
1	
1	
1	
1	
1	
1	
1	
1	
1	
1	
1	
1	
1	
1	
1	
1	
1	
1	
1	
1	
1	
1	
1	
1	
1	
1	
1	
1	
1	
1	
1	
1	
1	
1	
1	
1	
1	
1	
1	
1	
1	
1	
1	
1	
1	
1	
1	
1	
1	
1	
1	
1	
1	
1	
1	
1	
1	
1	
1	
1	
1	
1	
1	
1	
1	
1	
1	
1	
1	
1	
1	
1	
1	
1	
1	
1	
1	
1	
1	
1	
1	
1	
1	
1	
1	
1	
1	
1	
1	
1	
1	
1	
1	
1	
1	
1	
1	
1	
1	
1	
1	
1	
1	
1	
1	
1	
1	
1	
1	
1	
1	
1	
1	
1	
1	
1	
1	
1	
1	
1	
1	
1	
1	
1	
1	
1	
1	
1	
1	
1	
1	
1	
1	
1	
1	
1	
1	
1	
1	
1	
1	
1	
1	
1	
1	
1	
1	
1	
1	
1	
1	
1	
1	
1	
1	
1	
1	
1	
1	
1	
1	
1	
1	
1	
1	
1	
1	
1	
1	
1	
1	
1	
				</DataArray>
			</Cells>
		</Piece>
	</UnstructuredGrid>
</VTKFile>
