<VTKFile type="UnstructuredGrid" version="0.1" byte_order="LittleEndian">
	<UnstructuredGrid>
		<Piece NumberOfPoints="494" NumberOfCells="494">
			<CellData Scalars="scalars">
				<DataArray type="Float64" Name="Strength" NumberOfComponents="3" Format="ascii">
0.00503251	-0.0036439	2.59746e-07	
0.000776786	-0.00782196	1.43204e-07	
0.000488137	-0.00660014	4.25326e-06	
0.00160011	-0.00601116	1.02597e-06	
9.24734e-05	-0.00810609	1.96953e-06	
-0.000538076	-0.00672158	-1.49127e-05	
0.0011661	-0.00782343	2.3811e-05	
0.00058836	-0.00719863	6.80368e-07	
-0.000580666	-0.00831945	-1.91801e-05	
-0.000308181	-0.0080048	-8.61917e-07	
0.00068892	-0.00866977	1.68762e-05	
1.43973e-09	-0.00729191	4.70448e-06	
-3.60752e-10	-0.00673051	1.97518e-06	
2.79776e-10	-0.0092566	-2.19894e-07	
-3.34998e-13	-0.005087	1.12368e-08	
2.77075e-06	-0.00806727	7.65708e-07	
1.55457e-07	-0.00818128	1.22082e-07	
-0.00102562	-0.00817119	-1.96206e-05	
1.95095e-09	-0.00927555	-1.84589e-06	
-2.51726e-06	-0.00818144	-3.67564e-07	
-0.000777156	-0.00773318	-5.46977e-08	
-0.000455789	-0.00657905	-4.13242e-06	
-0.00104563	-0.00868063	-2.09965e-05	
-0.00159973	-0.00600915	-1.02509e-06	
-9.16015e-05	-0.00810648	-1.97069e-06	
0.000539702	-0.00671911	1.49102e-05	
-0.00118961	-0.00778955	-2.44097e-05	
-0.000589284	-0.00719781	-6.81524e-07	
0.000922058	-0.00831884	2.31891e-05	
0.000309631	-0.0080061	8.59581e-07	
-1.39386e-09	-0.00725653	-4.18526e-06	
3.60611e-10	-0.00672873	-1.97607e-06	
-1.89761e-10	-0.00924551	1.49544e-07	
-0.00147606	-0.00508563	-2.3428e-07	
-2.26158e-11	-0.00806769	-5.20423e-07	
-0.00355509	-0.00364311	-6.60555e-08	
0.00102729	-0.00817392	1.96124e-05	
-1.93594e-09	-0.00927997	1.83423e-06	
0.00587241	-0.00056685	7.67753e-08	
0.000909214	-0.00162729	-7.1725e-08	
0.00066467	-0.00146684	7.13505e-07	
0.00198284	-0.00104916	2.90833e-07	
8.82899e-05	-0.00184996	4.40319e-07	
-0.000470663	-0.00139381	-3.19782e-06	
0.00121149	-0.00166823	6.30819e-06	
0.000684119	-0.0013143	2.72484e-07	
-0.000529471	-0.00183274	-5.02424e-06	
-0.00030108	-0.00188959	-1.74461e-07	
0.000733286	-0.00182	4.19435e-06	
3.13667e-10	-0.00158866	1.02495e-06	
-6.64992e-11	-0.00124067	3.64094e-07	
5.34182e-11	-0.00176738	-4.19847e-08	
-5.59089e-14	-0.000848986	1.87535e-09	
2.18581e-05	-0.00187805	1.78005e-07	
1.0294e-07	-0.00192349	2.87023e-08	
-0.00100631	-0.00184927	-5.21998e-06	
3.88341e-10	-0.00184632	-3.67429e-07	
-2.17772e-05	-0.00192343	-8.58379e-08	
-0.000905309	-0.00161618	1.22846e-07	
-0.000626292	-0.00146247	-7.01031e-07	
-0.00108324	-0.00181803	-5.02372e-06	
-0.00198143	-0.00104803	-2.9014e-07	
-8.74425e-05	-0.00184945	-4.40588e-07	
0.00047066	-0.00139154	3.19332e-06	
-0.00123495	-0.00165586	-6.4391e-06	
-0.000683075	-0.00131042	-2.72051e-07	
0.00085038	-0.00182954	5.919e-06	
0.000303352	-0.00188934	1.73554e-07	
-3.03537e-10	-0.00158023	-9.1141e-07	
6.63861e-11	-0.00123872	-3.63781e-07	
-3.60119e-11	-0.00175456	2.83796e-08	
-0.00176244	-0.000848083	-5.13352e-08	
-5.26401e-12	-0.00187782	-1.21133e-07	
-0.00410771	-0.000566295	-1.73253e-09	
0.00100852	-0.00184984	5.21897e-06	
-3.85403e-10	-0.00184744	3.65154e-07	
0.0105407	-0.00331362	2.80659e-07	
0.00137494	-0.008229	7.58724e-08	
0.00127007	-0.0076894	4.47844e-06	
0.00360771	-0.00570732	1.10683e-06	
0.000100279	-0.00891654	2.16833e-06	
-7.63251e-05	-0.00726646	-1.59731e-05	
0.00138054	-0.00816595	2.50624e-05	
0.00122127	-0.00680918	8.14459e-07	
-0.000305077	-0.00871607	-1.98096e-05	
-0.000297793	-0.00888571	-9.62396e-07	
0.000780253	-0.00882824	1.72718e-05	
1.57204e-09	-0.00796203	5.13682e-06	
-3.42289e-10	-0.00638604	1.87409e-06	
2.59851e-10	-0.00859735	-2.04233e-07	
-3.10753e-13	-0.00471884	1.04236e-08	
1.05121e-05	-0.00886341	8.41186e-07	
5.56507e-08	-0.00897393	1.33911e-07	
-0.000989321	-0.0087261	-2.08464e-05	
1.84814e-09	-0.00878675	-1.74862e-06	
-1.05465e-05	-0.00897388	-4.02954e-07	
-0.00137059	-0.00822201	3.99435e-08	
-0.00122353	-0.00767276	-4.34898e-06	
-0.00125166	-0.00883976	-2.14554e-05	
-0.00360576	-0.00570519	-1.10544e-06	
-9.89901e-05	-0.00891596	-2.1695e-06	
7.66336e-05	-0.00726495	1.59725e-05	
-0.00140745	-0.00815599	-2.5764e-05	
-0.00122121	-0.00680799	-8.15216e-07	
0.000736125	-0.00871691	2.40077e-05	
0.000301828	-0.00888599	9.59373e-07	
-1.52749e-09	-0.0079522	-4.58649e-06	
3.42127e-10	-0.00638383	-1.87478e-06	
-1.76319e-10	-0.00859057	1.3895e-07	
-0.00319656	-0.00471718	-2.3209e-07	
-2.4846e-11	-0.00886325	-5.71742e-07	
-0.00734025	-0.00331256	-5.02001e-08	
0.000994133	-0.00872814	2.08387e-05	
-1.83403e-09	-0.00879143	1.73766e-06	
0.0130368	-0.00175605	2.03261e-07	
0.00162377	-0.00454903	-7.47477e-08	
0.00166438	-0.00422873	1.90939e-06	
0.0045452	-0.003065	7.619e-07	
0.000134329	-0.00506218	1.22117e-06	
0.000154272	-0.00398939	-8.71185e-06	
0.00146647	-0.00453743	1.482e-05	
0.00152348	-0.00372428	6.65414e-07	
-0.000170316	-0.00486866	-1.13351e-05	
-0.0002588	-0.00506518	-5.37291e-07	
0.000848683	-0.00490753	1.00606e-05	
8.75504e-10	-0.00443424	2.86082e-06	
-1.86757e-10	-0.0034843	1.02253e-06	
1.44141e-10	-0.00476899	-1.13289e-07	
-1.6616e-13	-0.00252317	5.57351e-09	
2.92795e-05	-0.00507999	4.81844e-07	
-4.96774e-09	-0.00516922	7.71364e-08	
-0.000935482	-0.0049372	-1.21731e-05	
1.03631e-09	-0.00492703	-9.80508e-07	
-2.95005e-05	-0.00516916	-2.31475e-07	
-0.00161491	-0.00454186	1.77004e-07	
-0.00161191	-0.00422211	-1.85346e-06	
-0.00136645	-0.00491091	-1.23524e-05	
-0.0045426	-0.00306382	-7.60532e-07	
-0.000132747	-0.00506156	-1.222e-06	
-0.000156335	-0.00398895	8.71174e-06	
-0.00149307	-0.00452673	-1.52058e-05	
-0.0015223	-0.00372149	-6.65287e-07	
0.000633204	-0.00486793	1.3688e-05	
0.000264404	-0.00506523	5.35116e-07	
-8.50506e-10	-0.00442778	-2.55376e-06	
1.86642e-10	-0.00348261	-1.02276e-06	
-9.76491e-11	-0.00475764	7.69535e-08	
-0.00397871	-0.00252214	-1.42452e-07	
-1.42398e-11	-0.00507974	-3.27679e-07	
-0.00905322	-0.00175539	-1.4205e-08	
0.000942023	-0.00493881	1.21733e-05	
-1.02855e-09	-0.00493039	9.74513e-07	
0.0161201	-0.00213401	2.50904e-07	
0.00200592	-0.005996	-7.98865e-08	
0.00223469	-0.00551887	2.40404e-06	
0.00581168	-0.0038454	9.63586e-07	
0.000186728	-0.00676528	1.63315e-06	
0.000498522	-0.00516441	-1.119e-05	
0.00160598	-0.00599189	1.9148e-05	
0.00196424	-0.00477562	8.56003e-07	
4.20364e-05	-0.00645869	-1.46137e-05	
-0.000208707	-0.0067474	-7.33013e-07	
0.000942491	-0.00654203	1.32023e-05	
1.14539e-09	-0.00580118	3.74271e-06	
-2.36583e-10	-0.00441389	1.29533e-06	
1.91144e-10	-0.00632414	-1.50232e-07	
-2.0524e-13	-0.00311661	6.88437e-09	
4.59247e-05	-0.00677424	6.42465e-07	
2.36159e-08	-0.00688465	1.02734e-07	
-0.000869134	-0.00657875	-1.58406e-05	
1.38202e-09	-0.00657063	-1.3076e-06	
-4.61433e-05	-0.00688468	-3.08109e-07	
-0.00199478	-0.00599005	2.08836e-07	
-0.00217604	-0.00550974	-2.32594e-06	
-0.00155085	-0.00655071	-1.62739e-05	
-0.00580887	-0.00384436	-9.61947e-07	
-0.000184396	-0.00676511	-1.63444e-06	
-0.000501828	-0.00516475	1.11917e-05	
-0.00163436	-0.00598389	-1.96686e-05	
-0.00196325	-0.00477472	-8.56173e-07	
0.000500057	-0.00646056	1.77358e-05	
0.000216165	-0.0067482	7.30226e-07	
-1.11317e-09	-0.00579522	-3.34244e-06	
2.36492e-10	-0.00441277	-1.29592e-06	
-1.29669e-10	-0.00631769	1.02187e-07	
-0.00497916	-0.00311569	-1.76496e-07	
-1.899e-11	-0.00677427	-4.36988e-07	
-0.0111351	-0.00213341	-1.69465e-08	
0.000878078	-0.00658138	1.58425e-05	
-1.37179e-09	-0.0065757	1.29972e-06	
0.0185334	-0.00167609	2.41468e-07	
0.00230416	-0.00467182	-1.6205e-07	
0.00268739	-0.00429627	1.29466e-06	
0.00679417	-0.00300135	8.97906e-07	
0.000238526	-0.00532024	1.27413e-06	
0.000763791	-0.00402249	-8.60548e-06	
0.00171399	-0.00467594	1.55316e-05	
0.00230247	-0.00372252	8.65555e-07	
0.000214847	-0.00505034	-1.14093e-05	
-0.000158258	-0.00530988	-5.77606e-07	
0.00102768	-0.0051116	1.0638e-05	
8.93834e-10	-0.00452708	2.92071e-06	
-1.84703e-10	-0.00344597	1.01128e-06	
1.49138e-10	-0.00493434	-1.17217e-07	
-1.60649e-13	-0.00243949	5.38867e-09	
6.7081e-05	-0.00534168	5.06238e-07	
2.90012e-08	-0.00543697	8.11317e-08	
-0.000803227	-0.00516617	-1.25608e-05	
1.08235e-09	-0.0051459	-1.02407e-06	
-6.7353e-05	-0.00543697	-2.42481e-07	
-0.00228963	-0.00466589	2.95419e-07	
-0.00262325	-0.00428968	-1.24352e-06	
-0.0017039	-0.005117	-1.30129e-05	
-0.00679107	-0.00300053	-8.9612e-07	
-0.000235642	-0.00531997	-1.27536e-06	
-0.000768796	-0.00402273	8.60601e-06	
-0.00174292	-0.00466744	-1.59375e-05	
-0.00230105	-0.00372106	-8.65387e-07	
0.000383044	-0.00505094	1.38561e-05	
0.000167308	-0.00531039	5.74997e-07	
-8.68555e-10	-0.00452175	-2.60795e-06	
1.84623e-10	-0.00344492	-1.01169e-06	
-1.01107e-10	-0.00492612	7.96787e-08	
-0.00575666	-0.00243875	-1.5319e-07	
-1.4974e-11	-0.00534163	-3.44573e-07	
-0.0127702	-0.00167561	-3.64759e-09	
0.00081404	-0.00516826	1.25661e-05	
-1.07435e-09	-0.00514989	1.0179e-06	
0.0208387	-0.00158929	2.5447e-07	
0.00262907	-0.00462614	-2.07039e-07	
0.0031653	-0.00422313	9.3827e-07	
0.00777502	-0.00288738	9.44413e-07	
0.000296267	-0.00533993	1.2732e-06	
0.00104183	-0.0039359	-8.33374e-06	
0.00183476	-0.00464226	1.55899e-05	
0.00265155	-0.00362397	9.48057e-07	
0.000407864	-0.00503689	-1.12201e-05	
-0.000104276	-0.00532342	-5.85985e-07	
0.00112019	-0.00511033	1.0738e-05	
8.81612e-10	-0.00446518	2.88078e-06	
-1.78735e-10	-0.00333464	9.78605e-07	
1.4848e-10	-0.00491256	-1.167e-07	
-1.53456e-13	-0.00233025	5.14737e-09	
8.79949e-05	-0.00536116	5.07842e-07	
8.22841e-08	-0.00545647	8.14225e-08	
-0.000733591	-0.00517594	-1.25129e-05	
1.08364e-09	-0.00515201	-1.02528e-06	
-8.82264e-05	-0.00545653	-2.42793e-07	
-0.00261198	-0.00462093	3.54604e-07	
-0.00309602	-0.00421663	-8.90967e-07	
-0.00187579	-0.00511683	-1.31058e-05	
-0.00777177	-0.00288675	-9.42455e-07	
-0.000292677	-0.00533991	-1.27464e-06	
-0.00104814	-0.00393637	8.33438e-06	
-0.0018648	-0.00463515	-1.59977e-05	
-0.00265002	-0.00362314	-9.4786e-07	
0.000258991	-0.0050383	1.36657e-05	
0.000114907	-0.00532423	5.83217e-07	
-8.56779e-10	-0.00446044	-2.57259e-06	
1.78673e-10	-0.0033339	-9.79086e-07	
-1.00701e-10	-0.00490635	7.93589e-08	
-0.00651085	-0.00232967	-1.54522e-07	
-1.5029e-11	-0.00536126	-3.45839e-07	
-0.0143207	-0.00158891	1.85017e-09	
0.000746331	-0.00517831	1.25208e-05	
-1.07569e-09	-0.00515635	1.01917e-06	
0.0227091	-0.00128645	2.50757e-07	
0.00290336	-0.00379397	-2.70284e-07	
0.00356918	-0.00345341	1.64268e-07	
0.00858326	-0.00234646	9.14379e-07	
0.000349268	-0.00441864	1.04239e-06	
0.00127228	-0.00321529	-6.68423e-06	
0.00193726	-0.00381432	1.33588e-05	
0.00293932	-0.00295716	9.73031e-07	
0.000574365	-0.00414955	-9.1531e-06	
-5.40835e-05	-0.00440662	-4.89161e-07	
0.00120421	-0.00421026	9.15815e-06	
7.22905e-10	-0.00366136	2.36218e-06	
-1.45689e-10	-0.00271809	7.9767e-07	
1.22099e-10	-0.00403972	-9.5965e-08	
-1.24502e-13	-0.00189058	4.17617e-09	
0.000109086	-0.00444312	4.20454e-07	
1.16029e-07	-0.00452596	6.75371e-08	
-0.000669231	-0.00427905	-1.04079e-05	
8.94425e-10	-0.00425244	-8.46261e-07	
-0.00010931	-0.004526	-2.00407e-07	
-0.00288361	-0.00378882	4.24535e-07	
-0.00349535	-0.00344804	-1.33967e-07	
-0.00202579	-0.00421504	-1.10859e-05	
-0.00857978	-0.00234587	-9.12275e-07	
-0.000345126	-0.00441854	-1.04383e-06	
-0.00127985	-0.00321549	6.68365e-06	
-0.00196801	-0.00380741	-1.36962e-05	
-0.0029375	-0.00295611	-9.72615e-07	
0.000148683	-0.00415026	1.11752e-05	
6.60486e-05	-0.00440722	4.86465e-07	
-7.02439e-10	-0.00365694	-2.10917e-06	
1.45629e-10	-0.00271733	-7.98015e-07	
-8.27826e-11	-0.00403332	6.52378e-08	
-0.00712563	-0.00189004	-1.40276e-07	
-1.24553e-11	-0.00444316	-2.86615e-07	
-0.0155758	-0.00128609	1.10633e-08	
0.000683532	-0.00428097	1.0418e-05	
-8.87855e-10	-0.00425594	8.41206e-07	
0.0242547	-0.00105486	2.49098e-07	
0.003158	-0.00324744	-3.21776e-07	
0.00393716	-0.00293385	-4.18775e-07	
0.00928178	-0.00195245	8.99982e-07	
0.000400575	-0.00384031	8.958e-07	
0.00147858	-0.00272046	-5.53742e-06	
0.00203428	-0.00327536	1.19452e-05	
0.00319367	-0.00249078	1.00414e-06	
0.0007325	-0.00358133	-7.78649e-06	
-6.04401e-06	-0.00382808	-4.30139e-07	
0.00128495	-0.0036399	8.18747e-06	
6.16924e-10	-0.00312459	2.01587e-06	
-1.22062e-10	-0.00227729	6.68309e-07	
1.05123e-10	-0.00347805	-8.26225e-08	
-1.02889e-13	-0.00156239	3.45121e-09	
0.000129246	-0.00386511	3.65352e-07	
1.60346e-07	-0.00393904	5.87786e-08	
-0.000608203	-0.00371284	-9.0584e-06	
7.74976e-10	-0.00368453	-7.33244e-07	
-0.000129438	-0.00393908	-1.73487e-07	
-0.00313606	-0.00324275	4.83765e-07	
-0.00385938	-0.00292916	4.37364e-07	
-0.00216958	-0.00364422	-9.83569e-06	
-0.00927811	-0.00195193	-8.97754e-07	
-0.000395908	-0.0038403	-8.97299e-07	
-0.00148713	-0.00272057	5.53617e-06	
-0.00206583	-0.00326941	-1.22394e-05	
-0.00319161	-0.0024899	-1.00358e-06	
4.52302e-05	-0.00358204	9.54011e-06	
1.91694e-05	-0.00382869	4.27468e-07	
-5.99431e-10	-0.00312067	-1.79987e-06	
1.22011e-10	-0.00227663	-6.68593e-07	
-7.12768e-11	-0.00347273	5.61705e-08	
-0.00764174	-0.00156193	-1.30106e-07	
-1.08351e-11	-0.00386519	-2.49332e-07	
-0.0166048	-0.00105456	1.82745e-08	
0.000623864	-0.00371459	9.07065e-06	
-7.69304e-10	-0.00368767	7.28884e-07	
0.0253755	-0.000756958	2.40114e-07	
0.00336665	-0.002455	-3.74924e-07	
0.00423624	-0.00219864	-1.10115e-06	
0.0098179	-0.00142777	8.55158e-07	
0.000445656	-0.00295842	6.75591e-07	
0.00164155	-0.00203009	-3.97411e-06	
0.00211507	-0.0024866	9.79813e-06	
0.00339215	-0.00184969	1.00805e-06	
0.000865161	-0.00273563	-5.83738e-06	
3.64484e-05	-0.00294954	-3.36644e-07	
0.00135603	-0.00278343	6.67432e-06	
4.65281e-10	-0.00235655	1.52036e-06	
-9.01226e-11	-0.0016814	4.93436e-07	
8.00268e-11	-0.00264774	-6.28981e-08	
-7.46097e-14	-0.00113296	2.50264e-09	
0.000148085	-0.00298369	2.81465e-07	
1.87507e-07	-0.00304411	4.54242e-08	
-0.000554726	-0.00285529	-7.05379e-06	
5.94596e-10	-0.00282694	-5.62577e-07	
-0.000148268	-0.00304414	-1.32762e-07	
-0.00334277	-0.00245056	5.40964e-07	
-0.00415517	-0.00219488	1.10429e-06	
-0.0022921	-0.00278639	-7.9061e-06	
-0.00981399	-0.00142726	-8.52828e-07	
-0.000440608	-0.00295837	-6.77063e-07	
-0.00165091	-0.0020299	3.97172e-06	
-0.00214726	-0.00248127	-1.00266e-05	
-0.00338977	-0.0018487	-1.00729e-06	
-4.31015e-05	-0.00273583	7.18817e-06	
-2.24276e-05	-0.00294996	3.34092e-07	
-4.51977e-10	-0.00235302	-1.35712e-06	
9.00741e-11	-0.00168072	-4.93586e-07	
-5.42443e-11	-0.00264288	4.27478e-08	
-0.00802374	-0.00113252	-1.14423e-07	
-8.36414e-12	-0.00298372	-1.92471e-07	
-0.0173432	-0.000756672	2.61464e-08	
0.000571402	-0.0028566	7.06768e-06	
-5.9023e-10	-0.00282928	5.59219e-07	
0.0260858	-0.000467852	2.2859e-07	
0.00353572	-0.00170783	-4.2131e-07	
0.00447348	-0.0015017	-1.71762e-06	
0.0102014	-0.000923018	8.0365e-07	
0.000485065	-0.00213331	4.69938e-07	
0.00176561	-0.00137332	-2.49598e-06	
0.00218241	-0.00174399	7.76552e-06	
0.0035398	-0.00123752	1.00101e-06	
0.000976277	-0.00194174	-4.01843e-06	
7.35259e-05	-0.00212645	-2.48702e-07	
0.00141826	-0.00198137	5.2525e-06	
3.21764e-10	-0.00162967	1.0514e-06	
-5.94882e-11	-0.00110986	3.25708e-07	
5.64546e-11	-0.00186784	-4.43712e-08	
-4.72797e-14	-0.000717951	1.5859e-09	
0.000165128	-0.00215805	2.02896e-07	
2.07348e-07	-0.00220525	3.29065e-08	
-0.000508675	-0.00205207	-5.18026e-06	
4.25721e-10	-0.00202404	-4.02796e-07	
-0.000165306	-0.00220527	-9.46049e-08	
-0.00351032	-0.00170381	5.89947e-07	
-0.00438985	-0.00149881	1.70648e-06	
-0.00239668	-0.0019833	-6.0957e-06	
-0.0101972	-0.000922534	-8.01249e-07	
-0.000479743	-0.00213327	-4.71378e-07	
-0.00177551	-0.00137289	2.49268e-06	
-0.00221518	-0.00173956	-7.93299e-06	
-0.0035371	-0.00123656	-1.00007e-06	
-0.00011742	-0.00194164	4.99168e-06	
-5.88626e-05	-0.00212675	2.46292e-07	
-3.1245e-10	-0.00162663	-9.38172e-07	
5.9445e-11	-0.0011092	-3.25746e-07	
-3.82552e-11	-0.00186386	3.01475e-08	
-0.00827731	-0.00071755	-9.83325e-08	
-6.04964e-12	-0.00215807	-1.39211e-07	
-0.0177995	-0.000467595	3.31606e-08	
0.000526056	-0.00205301	5.19554e-06	
-4.2259e-10	-0.00202569	4.00387e-07	
0.0263539	-0.0001581	2.12422e-07	
0.0036558	-0.000879484	-4.63705e-07	
0.00463708	-0.000734417	-2.33329e-06	
0.0104146	-0.000376748	7.34853e-07	
0.000516884	-0.00120483	2.39821e-07	
0.00184426	-0.000653035	-8.91777e-07	
0.00223238	-0.000918371	5.4739e-06	
0.0036291	-0.000568863	9.74825e-07	
0.00105948	-0.00105475	-2.0198e-06	
0.000103651	-0.00120111	-1.48368e-07	
0.00146889	-0.00108321	3.63923e-06	
1.63203e-10	-0.000826589	5.33286e-07	
-2.61797e-11	-0.000488431	1.43338e-07	
3.01741e-11	-0.000998332	-2.37158e-08	
-1.78491e-14	-0.000271042	5.98712e-10	
0.000179992	-0.00122862	1.145e-07	
2.1003e-07	-0.00126078	1.88129e-08	
-0.00047194	-0.00114995	-3.0911e-06	
2.36254e-10	-0.00112324	-2.23532e-07	
-0.000180185	-0.00126079	-5.17604e-08	
-0.00362928	-0.000875872	6.32218e-07	
-0.00455167	-0.000732473	2.30696e-06	
-0.00247756	-0.00108383	-4.04895e-06	
-0.0104101	-0.000376265	-7.32411e-07	
-0.000511438	-0.00120476	-2.41179e-07	
-0.00185446	-0.000652306	8.87469e-07	
-0.0022656	-0.000914795	-5.573e-06	
-0.00362605	-0.000567843	-9.73684e-07	
-0.000174374	-0.0010542	2.57027e-06	
-8.86319e-05	-0.00120122	1.46156e-07	
-1.58285e-10	-0.000824039	-4.75271e-07	
2.61399e-11	-0.000487751	-1.43241e-07	
-2.04242e-11	-0.000995102	1.60955e-08	
-0.00839102	-0.000270661	-7.97149e-08	
-3.44411e-12	-0.00122861	-7.92539e-08	
-0.0179536	-0.000157859	3.98722e-08	
0.000489668	-0.00115041	3.10735e-06	
-2.34496e-10	-0.00112406	2.22176e-07	
0.0261844	0.000148428	1.93113e-07	
0.00372743	-5.89025e-05	-4.99346e-07	
0.00472738	2.5509e-05	-2.89646e-06	
0.0104586	0.000164173	6.56015e-07	
0.00054092	-0.000283869	1.24008e-08	
0.00187807	6.04895e-05	6.84424e-07	
0.00226515	-0.000100189	3.18151e-06	
0.00366067	9.36611e-05	9.34246e-07	
0.00111506	-0.000175451	-6.03896e-08	
0.000126551	-0.000282922	-4.79205e-08	
0.00150753	-0.000193177	2.0278e-06	
6.05363e-12	-3.06604e-05	1.9781e-08	
6.82743e-12	0.000127378	-3.73813e-08	
4.13043e-12	-0.000136658	-3.24637e-09	
1.12891e-14	0.000171427	-3.78671e-10	
0.00019236	-0.000306123	2.67915e-08	
1.98496e-07	-0.000323017	4.81932e-09	
-0.000444804	-0.000255116	-1.0282e-06	
4.83963e-11	-0.000230094	-4.57902e-08	
-0.000192585	-0.000323005	-9.28452e-09	
-0.00370023	-5.58028e-05	6.65633e-07	
-0.00464099	2.64969e-05	2.85552e-06	
-0.00253472	-0.00019258	-2.00957e-06	
-0.0104538	0.000164641	-6.53565e-07	
-0.000535488	-0.00028378	-1.36557e-08	
-0.0018883	6.14868e-05	-6.89587e-07	
-0.00229873	-9.75881e-05	-3.21321e-06	
-0.00365726	9.46834e-05	-9.32913e-07	
-0.000213737	-0.000174518	1.91668e-07	
-0.000111462	-0.000282865	4.59415e-08	
-5.50591e-12	-2.86641e-05	-1.65322e-08	
-6.86261e-12	0.000128051	3.76056e-08	
-2.7571e-12	-0.000134331	2.17277e-09	
-0.00836614	0.000171775	-6.01708e-08	
-8.58022e-13	-0.00030608	-1.97443e-08	
-0.0178085	0.000148646	4.57994e-08	
0.00046253	-0.000255129	1.0451e-06	
-4.80036e-11	-0.000230106	4.54814e-08	
				</DataArray>
			</CellData>
			<Points>
				<DataArray type="Float64" Name="Position" NumberOfComponents="3" Format="ascii">
2.46967	1.92713	0.303631	
2.43264	1.09263	0.339727	
2.43963	1.3035	0.330337	
2.4636	1.71957	0.288587	
2.42592	0.265473	0.362516	
2.4458	1.40852	0.319255	
2.435	0.990268	0.33476	
2.45282	1.51195	0.306557	
2.42779	0.785502	0.342375	
2.42355	0.371975	0.360115	
2.42748	0.681103	0.344935	
2.43644	1.19837	0.336901	
2.45869	1.61557	0.295421	
2.43524	0.888959	0.333918	
2.47056	1.82657	0.283598	
2.42728	0.159938	0.361632	
2.42797	0.053559	0.360906	
2.42762	0.476077	0.351313	
2.43149	0.578194	0.344393	
2.42793	-0.0534784	0.360917	
2.43277	-1.09246	0.33902	
2.4398	-1.30338	0.329369	
2.42655	-0.680711	0.346408	
2.46509	-1.71859	0.287374	
2.42598	-0.265379	0.362287	
2.44601	-1.40824	0.317723	
2.43548	-0.990191	0.333961	
2.45319	-1.51151	0.30459	
2.42685	-0.785544	0.343841	
2.42369	-0.371852	0.359666	
2.43656	-1.1981	0.336116	
2.45962	-1.61496	0.292999	
2.43609	-0.889037	0.333498	
2.468	-1.8229	0.2941	
2.42728	-0.159816	0.361833	
2.46882	-1.9262	0.314602	
2.42797	-0.475856	0.350758	
2.43216	-0.577826	0.34404	
2.3678	1.9246	0.274497	
2.34577	1.09316	0.277941	
2.34855	1.30288	0.272938	
2.37415	1.72347	0.232574	
2.33875	0.265158	0.301169	
2.35626	1.40793	0.262849	
2.35355	0.992025	0.270143	
2.36585	1.51276	0.248357	
2.34782	0.785432	0.276552	
2.33712	0.371175	0.298424	
2.34766	0.681375	0.279353	
2.34659	1.19785	0.277313	
2.37247	1.61817	0.235939	
2.35742	0.890006	0.267926	
2.37694	1.83307	0.235446	
2.34051	0.159895	0.300328	
2.34101	0.0535359	0.300322	
2.34537	0.474764	0.287329	
2.35347	0.577613	0.278103	
2.34092	-0.053459	0.300362	
2.34566	-1.0929	0.277298	
2.34868	-1.30277	0.271807	
2.34628	-0.681084	0.281182	
2.37634	-1.72345	0.230438	
2.33889	-0.265075	0.300873	
2.35662	-1.40771	0.260878	
2.35382	-0.992022	0.269673	
2.36658	-1.51252	0.245611	
2.34612	-0.785323	0.278658	
2.33735	-0.37107	0.297892	
2.34653	-1.19776	0.276839	
2.37414	-1.61815	0.232273	
2.35823	-0.890013	0.267708	
2.37281	-1.82628	0.249766	
2.34043	-0.159846	0.300267	
2.36594	-1.92103	0.290061	
2.34594	-0.474575	0.286727	
2.3544	-0.577388	0.277644	
2.2652	1.92409	0.245981	
2.26452	1.09561	0.215676	
2.26677	1.30543	0.212975	
2.28133	1.73115	0.181334	
2.26254	0.264835	0.238648	
2.27093	1.41052	0.205925	
2.27384	0.994864	0.208174	
2.27676	1.51626	0.194529	
2.26791	0.786367	0.214312	
2.26075	0.37042	0.235644	
2.26889	0.682071	0.216705	
2.26541	1.20057	0.21649	
2.28258	1.62387	0.181193	
2.27653	0.891878	0.206391	
2.28149	1.84503	0.190842	
2.26415	0.159827	0.238183	
2.26463	0.0534774	0.238593	
2.26758	0.474	0.225615	
2.27398	0.577807	0.216562	
2.26452	-0.0534152	0.238656	
2.26447	-1.09555	0.215205	
2.26701	-1.30538	0.211658	
2.2674	-0.681841	0.218735	
2.2845	-1.73274	0.178275	
2.26265	-0.264755	0.238468	
2.27141	-1.41045	0.203565	
2.27429	-0.99484	0.207645	
2.27773	-1.51638	0.191122	
2.26636	-0.786191	0.216349	
2.26104	-0.370361	0.235027	
2.26549	-1.2005	0.215939	
2.28478	-1.62476	0.176359	
2.27774	-0.891801	0.205906	
2.27582	-1.8339	0.208647	
2.26406	-0.159796	0.238126	
2.26264	-1.91689	0.265506	
2.26828	-0.473897	0.224868	
2.2751	-0.577705	0.216062	
2.16719	1.92837	0.213772	
2.19031	1.10003	0.151353	
2.18974	1.31045	0.149434	
2.19092	1.74224	0.129337	
2.19269	0.264792	0.171479	
2.19054	1.41586	0.145262	
2.19938	0.998611	0.142269	
2.19259	1.52254	0.136605	
2.19296	0.788053	0.149803	
2.19077	0.370053	0.168949	
2.19505	0.683349	0.151465	
2.19055	1.20513	0.151626	
2.19573	1.63235	0.12449	
2.20095	0.894439	0.141353	
2.18728	1.85976	0.146422	
2.19369	0.159844	0.171611	
2.19445	0.053467	0.171913	
2.19609	0.474056	0.159563	
2.20004	0.578493	0.15146	
2.19431	-0.0534247	0.172028	
2.19047	-1.09999	0.150847	
2.18998	-1.31047	0.147931	
2.19373	-0.683257	0.153689	
2.19425	-1.74564	0.12593	
2.19287	-0.264731	0.171467	
2.191	-1.41597	0.142644	
2.1998	-0.998391	0.140544	
2.19357	-1.52307	0.132765	
2.19118	-0.787791	0.152246	
2.19098	-0.37004	0.168366	
2.19076	-1.20509	0.150959	
2.19807	-1.6343	0.11893	
2.20238	-0.894289	0.140782	
2.18153	-1.8454	0.166647	
2.19356	-0.159838	0.171612	
2.16439	-1.9176	0.235413	
2.19677	-0.474045	0.158747	
2.20117	-0.578548	0.15083	
2.06684	1.93053	0.187241	
2.09258	1.10239	0.101801	
2.09134	1.31374	0.101884	
2.08882	1.7486	0.0921009	
2.09727	0.265005	0.118243	
2.0909	1.41938	0.100915	
2.10026	1.00029	0.0911891	
2.09153	1.52651	0.0949025	
2.09368	0.78917	0.101392	
2.09514	0.370577	0.116396	
2.09575	0.684213	0.102155	
2.09159	1.20783	0.103314	
2.09404	1.63772	0.0840233	
2.10169	0.895864	0.09147	
2.08509	1.86826	0.113772	
2.09815	0.160001	0.11854	
2.09923	0.0534929	0.118395	
2.09833	0.474838	0.108336	
2.10127	0.579337	0.100731	
2.09905	-0.0534713	0.118592	
2.09282	-1.10237	0.101241	
2.09163	-1.31385	0.100269	
2.09435	-0.684083	0.104595	
2.09192	-1.75302	0.0882515	
2.09744	-0.264986	0.117882	
2.09135	-1.41964	0.0981506	
2.10079	-1.00022	0.0905202	
2.09249	-1.52732	0.0908206	
2.09227	-0.788937	0.103817	
2.0954	-0.370593	0.115706	
2.09196	-1.20783	0.10253	
2.09623	-1.64028	0.0779393	
2.10263	-0.89571	0.0911664	
2.07986	-1.85133	0.135375	
2.09798	-0.160007	0.118638	
2.06432	-1.91767	0.210025	
2.09909	-0.47485	0.107221	
2.10233	-0.579412	0.0999467	
1.96738	1.93391	0.16174	
1.99142	1.10429	0.0615003	
1.98967	1.31643	0.0633292	
1.98567	1.75265	0.0616631	
1.99613	0.265263	0.0746601	
1.98864	1.4222	0.0648045	
1.99757	1.00172	0.050658	
1.98876	1.52955	0.0609827	
1.99156	0.790083	0.0619152	
1.99507	0.371113	0.072893	
1.99357	0.685031	0.0618268	
1.99026	1.21011	0.0637111	
1.99039	1.64139	0.0509849	
1.99758	0.896788	0.0518434	
1.98233	1.87274	0.0854134	
1.99773	0.160194	0.0744519	
1.99898	0.0535373	0.0739648	
1.99684	0.475553	0.0659972	
1.99865	0.580129	0.0591139	
1.9988	-0.0535371	0.0742457	
1.99171	-1.10429	0.0609367	
1.99004	-1.3166	0.061712	
1.99279	-0.684928	0.0641444	
1.98828	-1.75751	0.057438	
1.9963	-0.265249	0.0742731	
1.98902	-1.42255	0.062032	
1.99807	-1.00166	0.0499566	
1.98958	-1.5305	0.0568587	
1.9905	-0.789815	0.0643337	
1.99532	-0.371141	0.0721669	
1.9907	-1.21014	0.0628862	
1.99215	-1.64413	0.0448709	
1.99931	-0.896802	0.0492424	
1.97808	-1.85527	0.107634	
1.99757	-0.160207	0.0746283	
1.96537	-1.92035	0.184822	
1.99748	-0.475586	0.0648429	
1.99969	-0.580217	0.0580889	
1.86779	1.93761	0.137392	
1.88631	1.1054	0.032326	
1.88469	1.31799	0.0352546	
1.88125	1.75367	0.0386243	
1.89082	0.265583	0.0422912	
1.88382	1.42381	0.0385336	
1.89084	1.00241	0.0217807	
1.88389	1.53111	0.0361202	
1.88565	0.79056	0.0339394	
1.88984	0.371562	0.0410163	
1.88774	0.685585	0.0320308	
1.88535	1.21155	0.0344535	
1.88458	1.64257	0.0274379	
1.89025	0.897251	0.0228513	
1.87883	1.87284	0.0616875	
1.89152	0.160367	0.0423874	
1.89345	0.0535836	0.0411851	
1.89071	0.476116	0.0352203	
1.89167	0.580694	0.0290628	
1.89328	-0.0535985	0.0415292	
1.88645	-1.10535	0.0319164	
1.88505	-1.31817	0.0337343	
1.88731	-0.685485	0.0342068	
1.88326	-1.75836	0.0341073	
1.891	-0.265568	0.0418916	
1.88412	-1.42417	0.035897	
1.89132	-1.00236	0.0211255	
1.88454	-1.53206	0.032141	
1.88543	-0.790418	0.0355354	
1.89008	-0.371592	0.0402761	
1.88592	-1.21154	0.0336959	
1.88599	-1.64528	0.0212023	
1.89106	-0.897197	0.0216842	
1.87572	-1.85663	0.0837719	
1.89138	-0.160383	0.0426245	
1.86637	-1.92483	0.160016	
1.89122	-0.476149	0.0340497	
1.8926	-0.580763	0.0278954	
1.768	1.94172	0.113253	
1.77942	1.10566	0.0122757	
1.77918	1.31868	0.01468	
1.77688	1.75243	0.0210117	
1.78439	0.265814	0.0181752	
1.77873	1.4245	0.0189537	
1.78297	1.0024	0.00183032	
1.77815	1.53119	0.0185434	
1.77916	0.790792	0.0137011	
1.78249	0.371818	0.0184688	
1.78097	0.685847	0.0106404	
1.77974	1.21219	0.0135854	
1.77914	1.64212	0.00986925	
1.78263	0.897437	0.00273233	
1.77519	1.86939	0.0415258	
1.78494	0.160495	0.0181458	
1.78565	0.0536264	0.0179201	
1.78354	0.476475	0.0129711	
1.78292	0.580978	0.00833021	
1.78554	-0.0536451	0.0182934	
1.77995	-1.10569	0.011841	
1.77951	-1.31886	0.0133464	
1.78077	-0.685789	0.0126143	
1.77815	-1.75641	0.0163629	
1.78455	-0.265795	0.0177956	
1.77895	-1.42483	0.0165804	
1.78323	-1.00224	0.0015955	
1.77863	-1.53203	0.0149045	
1.77887	-0.790573	0.0160235	
1.78264	-0.371851	0.017976	
1.78017	-1.21226	0.0129187	
1.78015	-1.64445	0.00402917	
1.78335	-0.897389	0.00164025	
1.77322	-1.85606	0.0624935	
1.78484	-0.160511	0.0184195	
1.76715	-1.9309	0.134511	
1.78387	-0.476498	0.0119365	
1.78365	-0.580996	0.00715331	
1.66721	1.94483	0.0898622	
1.6733	1.10548	-0.00111374	
1.67319	1.3185	0.00152736	
1.67234	1.74936	0.00871683	
1.67727	0.265911	0.00307136	
1.67301	1.42412	0.00644667	
1.67455	1.00162	-0.0080954	
1.67329	1.53073	0.00590728	
1.67288	0.790866	0.00014441	
1.67582	0.37207	0.00319184	
1.67397	0.685941	-0.00304554	
1.6736	1.21201	5.77774e-05	
1.67362	1.64021	-0.00106773	
1.67502	0.897186	-0.0093636	
1.67144	1.86344	0.0254598	
1.67788	0.160574	0.00217736	
1.67852	0.0536189	0.00223119	
1.67453	0.476565	0.000699678	
1.67542	0.581117	-0.00529932	
1.67844	-0.05364	0.00259986	
1.67353	-1.10539	-0.00109824	
1.67353	-1.31866	0.000427691	
1.67391	-0.685896	-0.0013887	
1.67308	-1.75232	0.00425408	
1.67745	-0.265847	0.00273663	
1.67317	-1.42437	0.00445377	
1.675	-1.00168	-0.00926215	
1.67364	-1.53139	0.00279198	
1.67287	-0.790678	0.002119	
1.67601	-0.372081	0.00247025	
1.67394	-1.21206	-0.000481847	
1.67424	-1.64197	-0.00619563	
1.67562	-0.897214	-0.0103502	
1.67042	-1.85397	0.0441145	
1.67782	-0.16059	0.00245408	
1.66683	-1.93691	0.108675	
1.67484	-0.476557	-0.000443224	
1.67597	-0.58109	-0.00638744	
1.56586	1.94803	0.0658028	
1.567	1.10487	-0.00654301	
1.56664	1.31738	-0.00456212	
1.56785	1.74524	0.00114707	
1.57042	0.266101	-0.00567342	
1.5676	1.42323	-0.00109813	
1.56843	1.00112	-0.0138814	
1.56822	1.5293	-0.0015524	
1.56748	0.790628	-0.0070837	
1.56874	0.372126	-0.00479591	
1.56793	0.685786	-0.00990652	
1.5671	1.21146	-0.00693966	
1.5685	1.63714	-0.00658943	
1.56781	0.896392	-0.013166	
1.56748	1.85581	0.0139437	
1.5704	0.1608	-0.00545653	
1.57114	0.0537482	-0.00646084	
1.56832	0.476662	-0.00757219	
1.56819	0.580937	-0.0105991	
1.57111	-0.0537659	-0.00614158	
1.56755	-1.10499	-0.00745143	
1.56704	-1.31753	-0.0053707	
1.5681	-0.685738	-0.00866849	
1.56821	-1.74704	-0.00273085	
1.57058	-0.266031	-0.00594643	
1.56776	-1.42342	-0.00261133	
1.56881	-1.00114	-0.0147842	
1.56852	-1.52978	-0.00395351	
1.56764	-0.790484	-0.00558416	
1.56887	-0.372129	-0.00531758	
1.56744	-1.21145	-0.00713859	
1.56892	-1.6383	-0.0106518	
1.56838	-0.896336	-0.0131825	
1.56712	-1.85039	0.028924	
1.57037	-0.160812	-0.00522009	
1.56577	-1.94322	0.0808948	
1.56855	-0.476636	-0.0085312	
1.56866	-0.580799	-0.011531	
1.46359	1.95008	0.0419743	
1.46235	1.1046	-0.00802681	
1.46247	1.31645	-0.00682888	
1.46413	1.74083	-0.00223168	
1.46411	0.265871	-0.00790613	
1.4632	1.42191	-0.0043151	
1.46315	1.00041	-0.0135404	
1.46368	1.5273	-0.00415927	
1.46321	0.790348	-0.00834678	
1.46343	0.371481	-0.0068847	
1.46259	0.685004	-0.0103993	
1.46302	1.21077	-0.00757526	
1.46399	1.63371	-0.0075929	
1.46292	0.89598	-0.012854	
1.46397	1.84906	0.00571525	
1.46416	0.160296	-0.00824311	
1.46478	0.0538157	-0.00867202	
1.46351	0.476285	-0.00972061	
1.46289	0.580434	-0.0117226	
1.46478	-0.053827	-0.00844999	
1.46285	-1.10471	-0.0086761	
1.46268	-1.31655	-0.0073303	
1.46288	-0.684917	-0.00965985	
1.46428	-1.74155	-0.0050493	