<VTKFile type="UnstructuredGrid" version="0.1" byte_order="LittleEndian">
	<UnstructuredGrid>
		<Piece NumberOfPoints="114" NumberOfCells="114">
			<CellData Scalars="scalars">
				<DataArray type="Float64" Name="Strength" NumberOfComponents="3" Format="ascii">
0.00503251	-0.0036439	2.59746e-07	
0.000776786	-0.00782196	1.43204e-07	
0.000488137	-0.00660014	4.25326e-06	
0.00160011	-0.00601116	1.02597e-06	
9.24734e-05	-0.00810609	1.96953e-06	
-0.000538076	-0.00672158	-1.49127e-05	
0.0011661	-0.00782343	2.3811e-05	
0.00058836	-0.00719863	6.80368e-07	
-0.000580666	-0.00831945	-1.91801e-05	
-0.000308181	-0.0080048	-8.61917e-07	
0.00068892	-0.00866977	1.68762e-05	
1.43973e-09	-0.00729191	4.70448e-06	
-3.60752e-10	-0.00673051	1.97518e-06	
2.79776e-10	-0.0092566	-2.19894e-07	
-3.34998e-13	-0.005087	1.12368e-08	
2.77075e-06	-0.00806727	7.65708e-07	
1.55457e-07	-0.00818128	1.22082e-07	
-0.00102562	-0.00817119	-1.96206e-05	
1.95095e-09	-0.00927555	-1.84589e-06	
-2.51726e-06	-0.00818144	-3.67564e-07	
-0.000777156	-0.00773318	-5.46977e-08	
-0.000455789	-0.00657905	-4.13242e-06	
-0.00104563	-0.00868063	-2.09965e-05	
-0.00159973	-0.00600915	-1.02509e-06	
-9.16015e-05	-0.00810648	-1.97069e-06	
0.000539702	-0.00671911	1.49102e-05	
-0.00118961	-0.00778955	-2.44097e-05	
-0.000589284	-0.00719781	-6.81524e-07	
0.000922058	-0.00831884	2.31891e-05	
0.000309631	-0.0080061	8.59581e-07	
-1.39386e-09	-0.00725653	-4.18526e-06	
3.60611e-10	-0.00672873	-1.97607e-06	
-1.89761e-10	-0.00924551	1.49544e-07	
-0.00147606	-0.00508563	-2.3428e-07	
-2.26158e-11	-0.00806769	-5.20423e-07	
-0.00355509	-0.00364311	-6.60555e-08	
0.00102729	-0.00817392	1.96124e-05	
-1.93594e-09	-0.00927997	1.83423e-06	
0.00587241	-0.00056685	7.67753e-08	
0.000909214	-0.00162729	-7.1725e-08	
0.00066467	-0.00146684	7.13505e-07	
0.00198284	-0.00104916	2.90833e-07	
8.82899e-05	-0.00184996	4.40319e-07	
-0.000470663	-0.00139381	-3.19782e-06	
0.00121149	-0.00166823	6.30819e-06	
0.000684119	-0.0013143	2.72484e-07	
-0.000529471	-0.00183274	-5.02424e-06	
-0.00030108	-0.00188959	-1.74461e-07	
0.000733286	-0.00182	4.19435e-06	
3.13667e-10	-0.00158866	1.02495e-06	
-6.64992e-11	-0.00124067	3.64094e-07	
5.34182e-11	-0.00176738	-4.19847e-08	
-5.59089e-14	-0.000848986	1.87535e-09	
2.18581e-05	-0.00187805	1.78005e-07	
1.0294e-07	-0.00192349	2.87023e-08	
-0.00100631	-0.00184927	-5.21998e-06	
3.88341e-10	-0.00184632	-3.67429e-07	
-2.17772e-05	-0.00192343	-8.58379e-08	
-0.000905309	-0.00161618	1.22846e-07	
-0.000626292	-0.00146247	-7.01031e-07	
-0.00108324	-0.00181803	-5.02372e-06	
-0.00198143	-0.00104803	-2.9014e-07	
-8.74425e-05	-0.00184945	-4.40588e-07	
0.00047066	-0.00139154	3.19332e-06	
-0.00123495	-0.00165586	-6.4391e-06	
-0.000683075	-0.00131042	-2.72051e-07	
0.00085038	-0.00182954	5.919e-06	
0.000303352	-0.00188934	1.73554e-07	
-3.03537e-10	-0.00158023	-9.1141e-07	
6.63861e-11	-0.00123872	-3.63781e-07	
-3.60119e-11	-0.00175456	2.83796e-08	
-0.00176244	-0.000848083	-5.13352e-08	
-5.26401e-12	-0.00187782	-1.21133e-07	
-0.00410771	-0.000566295	-1.73253e-09	
0.00100852	-0.00184984	5.21897e-06	
-3.85403e-10	-0.00184744	3.65154e-07	
0.0105407	-0.00331362	2.80659e-07	
0.00137494	-0.008229	7.58724e-08	
0.00127007	-0.0076894	4.47844e-06	
0.00360771	-0.00570732	1.10683e-06	
0.000100279	-0.00891654	2.16833e-06	
-7.63251e-05	-0.00726646	-1.59731e-05	
0.00138054	-0.00816595	2.50624e-05	
0.00122127	-0.00680918	8.14459e-07	
-0.000305077	-0.00871607	-1.98096e-05	
-0.000297793	-0.00888571	-9.62396e-07	
0.000780253	-0.00882824	1.72718e-05	
1.57204e-09	-0.00796203	5.13682e-06	
-3.42289e-10	-0.00638604	1.87409e-06	
2.59851e-10	-0.00859735	-2.04233e-07	
-3.10753e-13	-0.00471884	1.04236e-08	
1.05121e-05	-0.00886341	8.41186e-07	
5.56507e-08	-0.00897393	1.33911e-07	
-0.000989321	-0.0087261	-2.08464e-05	
1.84814e-09	-0.00878675	-1.74862e-06	
-1.05465e-05	-0.00897388	-4.02954e-07	
-0.00137059	-0.00822201	3.99435e-08	
-0.00122353	-0.00767276	-4.34898e-06	
-0.00125166	-0.00883976	-2.14554e-05	
-0.00360576	-0.00570519	-1.10544e-06	
-9.89901e-05	-0.00891596	-2.1695e-06	
7.66336e-05	-0.00726495	1.59725e-05	
-0.00140745	-0.00815599	-2.5764e-05	
-0.00122121	-0.00680799	-8.15216e-07	
0.000736125	-0.00871691	2.40077e-05	
0.000301828	-0.00888599	9.59373e-07	
-1.52749e-09	-0.0079522	-4.58649e-06	
3.42127e-10	-0.00638383	-1.87478e-06	
-1.76319e-10	-0.00859057	1.3895e-07	
-0.00319656	-0.00471718	-2.3209e-07	
-2.4846e-11	-0.00886325	-5.71742e-07	
-0.00734025	-0.00331256	-5.02001e-08	
0.000994133	-0.00872814	2.08387e-05	
-1.83403e-09	-0.00879143	1.73766e-06	
				</DataArray>
			</CellData>
			<Points>
				<DataArray type="Float64" Name="Position" NumberOfComponents="3" Format="ascii">
1.46399	1.94627	0.0378518	
1.46031	1.10386	0.0471492	
1.46055	1.31551	0.0458586	
1.46291	1.73552	0.0377888	
1.46044	0.265454	0.0502611	
1.46132	1.42064	0.0438026	
1.46048	0.999725	0.0463308	
1.46199	1.52505	0.0412795	
1.46031	0.790192	0.0477133	
1.46027	0.371124	0.0502408	
1.45987	0.684668	0.0478927	
1.46076	1.20973	0.0467637	
1.46238	1.63001	0.0393066	
1.46056	0.89579	0.0457438	
1.4634	1.84077	0.0358102	
1.46057	0.15991	0.0500031	
1.46075	0.0536207	0.0499549	
1.46036	0.475901	0.0487358	
1.46016	0.579996	0.0470771	
1.46075	-0.0536182	0.0499581	
1.46043	-1.10389	0.0471654	
1.46065	-1.31554	0.0458066	
1.45997	-0.684631	0.0480782	
1.46296	-1.7355	0.0373328	
1.46053	-0.265411	0.0502345	
1.46135	-1.42065	0.0436745	
1.46059	-0.999711	0.0462654	
1.46207	-1.52509	0.0410896	
1.46038	-0.790175	0.0479129	
1.46033	-0.37111	0.0501894	
1.46086	-1.20975	0.0467607	
1.46244	-1.63003	0.0389599	
1.4607	-0.895808	0.0456178	
1.46336	-1.8407	0.0369635	
1.46057	-0.15991	0.0499986	
1.46397	-1.9463	0.0390097	
1.46044	-0.475875	0.0486385	
1.46026	-0.579968	0.0469429	
1.36195	1.94698	0.0228292	
1.36183	1.10408	0.0345566	
1.36191	1.31576	0.0337651	
1.36136	1.73572	0.025645	
1.36209	0.264932	0.0374933	
1.36172	1.42083	0.0317594	
1.36182	1.00028	0.0342315	
1.36176	1.52524	0.0290693	
1.3619	0.790144	0.035426	
1.36194	0.370799	0.0374289	
1.36193	0.684628	0.0354795	
1.36196	1.20994	0.0342649	
1.36154	1.63022	0.0272758	
1.36191	0.896047	0.0334233	
1.36172	1.84116	0.0232621	
1.36223	0.159502	0.037345	
1.36233	0.0536242	0.0372905	
1.36195	0.475407	0.0363092	
1.36196	0.579544	0.03459	
1.36233	-0.0536245	0.0372952	
1.36191	-1.10412	0.0346257	
1.36196	-1.31579	0.0337317	
1.36205	-0.684667	0.0355684	
1.36138	-1.73576	0.0253738	
1.36209	-0.264931	0.0374789	
1.36177	-1.42086	0.0316839	
1.36187	-1.00028	0.0342227	
1.3618	-1.52527	0.0289591	
1.36202	-0.790109	0.0355295	
1.36206	-0.370774	0.0373959	
1.36199	-1.20994	0.0342789	
1.36157	-1.63025	0.0270716	
1.36196	-0.896035	0.0333745	
1.36171	-1.84117	0.0239332	
1.36223	-0.159501	0.0373445	
1.36196	-1.94696	0.023507	
1.36207	-0.475401	0.0362525	
1.36209	-0.579547	0.0345176	
1.2602	1.94667	3.49508e-06	
1.2602	1.10408	-3.48467e-05	
1.2602	1.31564	-0.000166556	
1.2602	1.73535	1.80272e-05	
1.2602	0.264648	-3.17281e-05	
1.2602	1.42085	-6.71899e-05	
1.2602	1	0.000149944	
1.2602	1.52507	7.16616e-05	
1.2602	0.790149	0.000185923	
1.2602	0.370241	-4.04787e-05	
1.2602	0.68436	0.000165193	
1.2602	1.20985	-7.96295e-05	
1.2602	1.62976	4.75235e-05	
1.2602	0.89592	0.000331057	
1.2602	1.84074	7.75721e-06	
1.2602	0.15926	-9.30581e-06	
1.2602	0.0533282	-2.06975e-06	
1.2602	0.474927	0.00011447	
1.2602	0.579147	0.000275008	
1.2602	-0.0533282	-4.0704e-06	
1.2602	-1.10408	-4.68345e-05	
1.2602	-1.31564	-0.000167835	
1.2602	-0.68436	0.000133222	
1.2602	-1.73535	1.79762e-05	
1.2602	-0.264648	-3.17373e-05	
1.2602	-1.42085	-6.7221e-05	
1.2602	-1	0.000143041	
1.2602	-1.52507	7.16447e-05	
1.2602	-0.790149	0.000153996	
1.2602	-0.370241	-4.05136e-05	
1.2602	-1.20985	-8.6657e-05	
1.2602	-1.62976	4.74835e-05	
1.2602	-0.89592	0.000330176	
1.2602	-1.84074	4.97967e-06	
1.2602	-0.15926	-1.13074e-05	
1.2602	-1.94667	7.4013e-07	
1.2602	-0.474927	0.000114297	
1.2602	-0.579147	0.000274628	
				</DataArray>
			</Points>
			<Cells>
				<DataArray type="Int32" Name="connectivity" Format="ascii">
0	
1	
2	
3	
4	
5	
6	
7	
8	
9	
10	
11	
12	
13	
14	
15	
16	
17	
18	
19	
20	
21	
22	
23	
24	
25	
26	
27	
28	
29	
30	
31	
32	
33	
34	
35	
36	
37	
38	
39	
40	
41	
42	
43	
44	
45	
46	
47	
48	
49	
50	
51	
52	
53	
54	
55	
56	
57	
58	
59	
60	
61	
62	
63	
64	
65	
66	
67	
68	
69	
70	
71	
72	
73	
74	
75	
76	
77	
78	
79	
80	
81	
82	
83	
84	
85	
86	
87	
88	
89	
90	
91	
92	
93	
94	
95	
96	
97	
98	
99	
100	
101	
102	
103	
104	
105	
106	
107	
108	
109	
110	
111	
112	
113	
				</DataArray>
				<DataArray type="Int32" Name="offsets" Format="ascii">
1	
2	
3	
4	
5	
6	
7	
8	
9	
10	
11	
12	
13	
14	
15	
16	
17	
18	
19	
20	
21	
22	
23	
24	
25	
26	
27	
28	
29	
30	
31	
32	
33	
34	
35	
36	
37	
38	
39	
40	
41	
42	
43	
44	
45	
46	
47	
48	
49	
50	
51	
52	
53	
54	
55	
56	
57	
58	
59	
60	
61	
62	
63	
64	
65	
66	
67	
68	
69	
70	
71	
72	
73	
74	
75	
76	
77	
78	
79	
80	
81	
82	
83	
84	
85	
86	
87	
88	
89	
90	
91	
92	
93	
94	
95	
96	
97	
98	
99	
100	
101	
102	
103	
104	
105	
106	
107	
108	
109	
110	
111	
112	
113	
114	
				</DataArray>
				<DataArray type="Int32" Name="types" Format="ascii">
1	
1	
1	
1	
1	
1	
1	
1	
1	
1	
1	
1	
1	
1	
1	
1	
1	
1	
1	
1	
1	
1	
1	
1	
1	
1	
1	
1	
1	
1	
1	
1	
1	
1	
1	
1	
1	
1	
1	
1	
1	
1	
1	
1	
1	
1	
1	
1	
1	
1	
1	
1	
1	
1	
1	
1	
1	
1	
1	
1	
1	
1	
1	
1	
1	
1	
1	
1	
1	
1	
1	
1	
1	
1	
1	
1	
1	
1	
1	
1	
1	
1	
1	
1	
1	
1	
1	
1	
1	
1	
1	
1	
1	
1	
1	
1	
1	
1	
1	
1	
1	
1	
1	
1	
1	
1	
1	
1	
1	
1	
1	
1	
1	
1	
				</DataArray>
			</Cells>
		</Piece>
	</UnstructuredGrid>
</VTKFile>
