<VTKFile type="UnstructuredGrid" version="0.1" byte_order="LittleEndian">
	<UnstructuredGrid>
		<Piece NumberOfPoints="608" NumberOfCells="608">
			<CellData Scalars="scalars">
				<DataArray type="Float64" Name="Strength" NumberOfComponents="3" Format="ascii">
0.00503251	-0.0036439	2.59746e-07	
0.000776786	-0.00782196	1.43204e-07	
0.000488137	-0.00660014	4.25326e-06	
0.00160011	-0.00601116	1.02597e-06	
9.24734e-05	-0.00810609	1.96953e-06	
-0.000538076	-0.00672158	-1.49127e-05	
0.0011661	-0.00782343	2.3811e-05	
0.00058836	-0.00719863	6.80368e-07	
-0.000580666	-0.00831945	-1.91801e-05	
-0.000308181	-0.0080048	-8.61917e-07	
0.00068892	-0.00866977	1.68762e-05	
1.43973e-09	-0.00729191	4.70448e-06	
-3.60752e-10	-0.00673051	1.97518e-06	
2.79776e-10	-0.0092566	-2.19894e-07	
-3.34998e-13	-0.005087	1.12368e-08	
2.77075e-06	-0.00806727	7.65708e-07	
1.55457e-07	-0.00818128	1.22082e-07	
-0.00102562	-0.00817119	-1.96206e-05	
1.95095e-09	-0.00927555	-1.84589e-06	
-2.51726e-06	-0.00818144	-3.67564e-07	
-0.000777156	-0.00773318	-5.46977e-08	
-0.000455789	-0.00657905	-4.13242e-06	
-0.00104563	-0.00868063	-2.09965e-05	
-0.00159973	-0.00600915	-1.02509e-06	
-9.16015e-05	-0.00810648	-1.97069e-06	
0.000539702	-0.00671911	1.49102e-05	
-0.00118961	-0.00778955	-2.44097e-05	
-0.000589284	-0.00719781	-6.81524e-07	
0.000922058	-0.00831884	2.31891e-05	
0.000309631	-0.0080061	8.59581e-07	
-1.39386e-09	-0.00725653	-4.18526e-06	
3.60611e-10	-0.00672873	-1.97607e-06	
-1.89761e-10	-0.00924551	1.49544e-07	
-0.00147606	-0.00508563	-2.3428e-07	
-2.26158e-11	-0.00806769	-5.20423e-07	
-0.00355509	-0.00364311	-6.60555e-08	
0.00102729	-0.00817392	1.96124e-05	
-1.93594e-09	-0.00927997	1.83423e-06	
0.00587241	-0.00056685	7.67753e-08	
0.000909214	-0.00162729	-7.1725e-08	
0.00066467	-0.00146684	7.13505e-07	
0.00198284	-0.00104916	2.90833e-07	
8.82899e-05	-0.00184996	4.40319e-07	
-0.000470663	-0.00139381	-3.19782e-06	
0.00121149	-0.00166823	6.30819e-06	
0.000684119	-0.0013143	2.72484e-07	
-0.000529471	-0.00183274	-5.02424e-06	
-0.00030108	-0.00188959	-1.74461e-07	
0.000733286	-0.00182	4.19435e-06	
3.13667e-10	-0.00158866	1.02495e-06	
-6.64992e-11	-0.00124067	3.64094e-07	
5.34182e-11	-0.00176738	-4.19847e-08	
-5.59089e-14	-0.000848986	1.87535e-09	
2.18581e-05	-0.00187805	1.78005e-07	
1.0294e-07	-0.00192349	2.87023e-08	
-0.00100631	-0.00184927	-5.21998e-06	
3.88341e-10	-0.00184632	-3.67429e-07	
-2.17772e-05	-0.00192343	-8.58379e-08	
-0.000905309	-0.00161618	1.22846e-07	
-0.000626292	-0.00146247	-7.01031e-07	
-0.00108324	-0.00181803	-5.02372e-06	
-0.00198143	-0.00104803	-2.9014e-07	
-8.74425e-05	-0.00184945	-4.40588e-07	
0.00047066	-0.00139154	3.19332e-06	
-0.00123495	-0.00165586	-6.4391e-06	
-0.000683075	-0.00131042	-2.72051e-07	
0.00085038	-0.00182954	5.919e-06	
0.000303352	-0.00188934	1.73554e-07	
-3.03537e-10	-0.00158023	-9.1141e-07	
6.63861e-11	-0.00123872	-3.63781e-07	
-3.60119e-11	-0.00175456	2.83796e-08	
-0.00176244	-0.000848083	-5.13352e-08	
-5.26401e-12	-0.00187782	-1.21133e-07	
-0.00410771	-0.000566295	-1.73253e-09	
0.00100852	-0.00184984	5.21897e-06	
-3.85403e-10	-0.00184744	3.65154e-07	
0.0105407	-0.00331362	2.80659e-07	
0.00137494	-0.008229	7.58724e-08	
0.00127007	-0.0076894	4.47844e-06	
0.00360771	-0.00570732	1.10683e-06	
0.000100279	-0.00891654	2.16833e-06	
-7.63251e-05	-0.00726646	-1.59731e-05	
0.00138054	-0.00816595	2.50624e-05	
0.00122127	-0.00680918	8.14459e-07	
-0.000305077	-0.00871607	-1.98096e-05	
-0.000297793	-0.00888571	-9.62396e-07	
0.000780253	-0.00882824	1.72718e-05	
1.57204e-09	-0.00796203	5.13682e-06	
-3.42289e-10	-0.00638604	1.87409e-06	
2.59851e-10	-0.00859735	-2.04233e-07	
-3.10753e-13	-0.00471884	1.04236e-08	
1.05121e-05	-0.00886341	8.41186e-07	
5.56507e-08	-0.00897393	1.33911e-07	
-0.000989321	-0.0087261	-2.08464e-05	
1.84814e-09	-0.00878675	-1.74862e-06	
-1.05465e-05	-0.00897388	-4.02954e-07	
-0.00137059	-0.00822201	3.99435e-08	
-0.00122353	-0.00767276	-4.34898e-06	
-0.00125166	-0.00883976	-2.14554e-05	
-0.00360576	-0.00570519	-1.10544e-06	
-9.89901e-05	-0.00891596	-2.1695e-06	
7.66336e-05	-0.00726495	1.59725e-05	
-0.00140745	-0.00815599	-2.5764e-05	
-0.00122121	-0.00680799	-8.15216e-07	
0.000736125	-0.00871691	2.40077e-05	
0.000301828	-0.00888599	9.59373e-07	
-1.52749e-09	-0.0079522	-4.58649e-06	
3.42127e-10	-0.00638383	-1.87478e-06	
-1.76319e-10	-0.00859057	1.3895e-07	
-0.00319656	-0.00471718	-2.3209e-07	
-2.4846e-11	-0.00886325	-5.71742e-07	
-0.00734025	-0.00331256	-5.02001e-08	
0.000994133	-0.00872814	2.08387e-05	
-1.83403e-09	-0.00879143	1.73766e-06	
0.0130368	-0.00175605	2.03261e-07	
0.00162377	-0.00454903	-7.47477e-08	
0.00166438	-0.00422873	1.90939e-06	
0.0045452	-0.003065	7.619e-07	
0.000134329	-0.00506218	1.22117e-06	
0.000154272	-0.00398939	-8.71185e-06	
0.00146647	-0.00453743	1.482e-05	
0.00152348	-0.00372428	6.65414e-07	
-0.000170316	-0.00486866	-1.13351e-05	
-0.0002588	-0.00506518	-5.37291e-07	
0.000848683	-0.00490753	1.00606e-05	
8.75504e-10	-0.00443424	2.86082e-06	
-1.86757e-10	-0.0034843	1.02253e-06	
1.44141e-10	-0.00476899	-1.13289e-07	
-1.6616e-13	-0.00252317	5.57351e-09	
2.92795e-05	-0.00507999	4.81844e-07	
-4.96774e-09	-0.00516922	7.71364e-08	
-0.000935482	-0.0049372	-1.21731e-05	
1.03631e-09	-0.00492703	-9.80508e-07	
-2.95005e-05	-0.00516916	-2.31475e-07	
-0.00161491	-0.00454186	1.77004e-07	
-0.00161191	-0.00422211	-1.85346e-06	
-0.00136645	-0.00491091	-1.23524e-05	
-0.0045426	-0.00306382	-7.60532e-07	
-0.000132747	-0.00506156	-1.222e-06	
-0.000156335	-0.00398895	8.71174e-06	
-0.00149307	-0.00452673	-1.52058e-05	
-0.0015223	-0.00372149	-6.65287e-07	
0.000633204	-0.00486793	1.3688e-05	
0.000264404	-0.00506523	5.35116e-07	
-8.50506e-10	-0.00442778	-2.55376e-06	
1.86642e-10	-0.00348261	-1.02276e-06	
-9.76491e-11	-0.00475764	7.69535e-08	
-0.00397871	-0.00252214	-1.42452e-07	
-1.42398e-11	-0.00507974	-3.27679e-07	
-0.00905322	-0.00175539	-1.4205e-08	
0.000942023	-0.00493881	1.21733e-05	
-1.02855e-09	-0.00493039	9.74513e-07	
0.0161201	-0.00213401	2.50904e-07	
0.00200592	-0.005996	-7.98865e-08	
0.00223469	-0.00551887	2.40404e-06	
0.00581168	-0.0038454	9.63586e-07	
0.000186728	-0.00676528	1.63315e-06	
0.000498522	-0.00516441	-1.119e-05	
0.00160598	-0.00599189	1.9148e-05	
0.00196424	-0.00477562	8.56003e-07	
4.20364e-05	-0.00645869	-1.46137e-05	
-0.000208707	-0.0067474	-7.33013e-07	
0.000942491	-0.00654203	1.32023e-05	
1.14539e-09	-0.00580118	3.74271e-06	
-2.36583e-10	-0.00441389	1.29533e-06	
1.91144e-10	-0.00632414	-1.50232e-07	
-2.0524e-13	-0.00311661	6.88437e-09	
4.59247e-05	-0.00677424	6.42465e-07	
2.36159e-08	-0.00688465	1.02734e-07	
-0.000869134	-0.00657875	-1.58406e-05	
1.38202e-09	-0.00657063	-1.3076e-06	
-4.61433e-05	-0.00688468	-3.08109e-07	
-0.00199478	-0.00599005	2.08836e-07	
-0.00217604	-0.00550974	-2.32594e-06	
-0.00155085	-0.00655071	-1.62739e-05	
-0.00580887	-0.00384436	-9.61947e-07	
-0.000184396	-0.00676511	-1.63444e-06	
-0.000501828	-0.00516475	1.11917e-05	
-0.00163436	-0.00598389	-1.96686e-05	
-0.00196325	-0.00477472	-8.56173e-07	
0.000500057	-0.00646056	1.77358e-05	
0.000216165	-0.0067482	7.30226e-07	
-1.11317e-09	-0.00579522	-3.34244e-06	
2.36492e-10	-0.00441277	-1.29592e-06	
-1.29669e-10	-0.00631769	1.02187e-07	
-0.00497916	-0.00311569	-1.76496e-07	
-1.899e-11	-0.00677427	-4.36988e-07	
-0.0111351	-0.00213341	-1.69465e-08	
0.000878078	-0.00658138	1.58425e-05	
-1.37179e-09	-0.0065757	1.29972e-06	
0.0185334	-0.00167609	2.41468e-07	
0.00230416	-0.00467182	-1.6205e-07	
0.00268739	-0.00429627	1.29466e-06	
0.00679417	-0.00300135	8.97906e-07	
0.000238526	-0.00532024	1.27413e-06	
0.000763791	-0.00402249	-8.60548e-06	
0.00171399	-0.00467594	1.55316e-05	
0.00230247	-0.00372252	8.65555e-07	
0.000214847	-0.00505034	-1.14093e-05	
-0.000158258	-0.00530988	-5.77606e-07	
0.00102768	-0.0051116	1.0638e-05	
8.93834e-10	-0.00452708	2.92071e-06	
-1.84703e-10	-0.00344597	1.01128e-06	
1.49138e-10	-0.00493434	-1.17217e-07	
-1.60649e-13	-0.00243949	5.38867e-09	
6.7081e-05	-0.00534168	5.06238e-07	
2.90012e-08	-0.00543697	8.11317e-08	
-0.000803227	-0.00516617	-1.25608e-05	
1.08235e-09	-0.0051459	-1.02407e-06	
-6.7353e-05	-0.00543697	-2.42481e-07	
-0.00228963	-0.00466589	2.95419e-07	
-0.00262325	-0.00428968	-1.24352e-06	
-0.0017039	-0.005117	-1.30129e-05	
-0.00679107	-0.00300053	-8.9612e-07	
-0.000235642	-0.00531997	-1.27536e-06	
-0.000768796	-0.00402273	8.60601e-06	
-0.00174292	-0.00466744	-1.59375e-05	
-0.00230105	-0.00372106	-8.65387e-07	
0.000383044	-0.00505094	1.38561e-05	
0.000167308	-0.00531039	5.74997e-07	
-8.68555e-10	-0.00452175	-2.60795e-06	
1.84623e-10	-0.00344492	-1.01169e-06	
-1.01107e-10	-0.00492612	7.96787e-08	
-0.00575666	-0.00243875	-1.5319e-07	
-1.4974e-11	-0.00534163	-3.44573e-07	
-0.0127702	-0.00167561	-3.64759e-09	
0.00081404	-0.00516826	1.25661e-05	
-1.07435e-09	-0.00514989	1.0179e-06	
0.0208387	-0.00158929	2.5447e-07	
0.00262907	-0.00462614	-2.07039e-07	
0.0031653	-0.00422313	9.3827e-07	
0.00777502	-0.00288738	9.44413e-07	
0.000296267	-0.00533993	1.2732e-06	
0.00104183	-0.0039359	-8.33374e-06	
0.00183476	-0.00464226	1.55899e-05	
0.00265155	-0.00362397	9.48057e-07	
0.000407864	-0.00503689	-1.12201e-05	
-0.000104276	-0.00532342	-5.85985e-07	
0.00112019	-0.00511033	1.0738e-05	
8.81612e-10	-0.00446518	2.88078e-06	
-1.78735e-10	-0.00333464	9.78605e-07	
1.4848e-10	-0.00491256	-1.167e-07	
-1.53456e-13	-0.00233025	5.14737e-09	
8.79949e-05	-0.00536116	5.07842e-07	
8.22841e-08	-0.00545647	8.14225e-08	
-0.000733591	-0.00517594	-1.25129e-05	
1.08364e-09	-0.00515201	-1.02528e-06	
-8.82264e-05	-0.00545653	-2.42793e-07	
-0.00261198	-0.00462093	3.54604e-07	
-0.00309602	-0.00421663	-8.90967e-07	
-0.00187579	-0.00511683	-1.31058e-05	
-0.00777177	-0.00288675	-9.42455e-07	
-0.000292677	-0.00533991	-1.27464e-06	
-0.00104814	-0.00393637	8.33438e-06	
-0.0018648	-0.00463515	-1.59977e-05	
-0.00265002	-0.00362314	-9.4786e-07	
0.000258991	-0.0050383	1.36657e-05	
0.000114907	-0.00532423	5.83217e-07	
-8.56779e-10	-0.00446044	-2.57259e-06	
1.78673e-10	-0.0033339	-9.79086e-07	
-1.00701e-10	-0.00490635	7.93589e-08	
-0.00651085	-0.00232967	-1.54522e-07	
-1.5029e-11	-0.00536126	-3.45839e-07	
-0.0143207	-0.00158891	1.85017e-09	
0.000746331	-0.00517831	1.25208e-05	
-1.07569e-09	-0.00515635	1.01917e-06	
0.0227091	-0.00128645	2.50757e-07	
0.00290336	-0.00379397	-2.70284e-07	
0.00356918	-0.00345341	1.64268e-07	
0.00858326	-0.00234646	9.14379e-07	
0.000349268	-0.00441864	1.04239e-06	
0.00127228	-0.00321529	-6.68423e-06	
0.00193726	-0.00381432	1.33588e-05	
0.00293932	-0.00295716	9.73031e-07	
0.000574365	-0.00414955	-9.1531e-06	
-5.40835e-05	-0.00440662	-4.89161e-07	
0.00120421	-0.00421026	9.15815e-06	
7.22905e-10	-0.00366136	2.36218e-06	
-1.45689e-10	-0.00271809	7.9767e-07	
1.22099e-10	-0.00403972	-9.5965e-08	
-1.24502e-13	-0.00189058	4.17617e-09	
0.000109086	-0.00444312	4.20454e-07	
1.16029e-07	-0.00452596	6.75371e-08	
-0.000669231	-0.00427905	-1.04079e-05	
8.94425e-10	-0.00425244	-8.46261e-07	
-0.00010931	-0.004526	-2.00407e-07	
-0.00288361	-0.00378882	4.24535e-07	
-0.00349535	-0.00344804	-1.33967e-07	
-0.00202579	-0.00421504	-1.10859e-05	
-0.00857978	-0.00234587	-9.12275e-07	
-0.000345126	-0.00441854	-1.04383e-06	
-0.00127985	-0.00321549	6.68365e-06	
-0.00196801	-0.00380741	-1.36962e-05	
-0.0029375	-0.00295611	-9.72615e-07	
0.000148683	-0.00415026	1.11752e-05	
6.60486e-05	-0.00440722	4.86465e-07	
-7.02439e-10	-0.00365694	-2.10917e-06	
1.45629e-10	-0.00271733	-7.98015e-07	
-8.27826e-11	-0.00403332	6.52378e-08	
-0.00712563	-0.00189004	-1.40276e-07	
-1.24553e-11	-0.00444316	-2.86615e-07	
-0.0155758	-0.00128609	1.10633e-08	
0.000683532	-0.00428097	1.0418e-05	
-8.87855e-10	-0.00425594	8.41206e-07	
0.0242547	-0.00105486	2.49098e-07	
0.003158	-0.00324744	-3.21776e-07	
0.00393716	-0.00293385	-4.18775e-07	
0.00928178	-0.00195245	8.99982e-07	
0.000400575	-0.00384031	8.958e-07	
0.00147858	-0.00272046	-5.53742e-06	
0.00203428	-0.00327536	1.19452e-05	
0.00319367	-0.00249078	1.00414e-06	
0.0007325	-0.00358133	-7.78649e-06	
-6.04401e-06	-0.00382808	-4.30139e-07	
0.00128495	-0.0036399	8.18747e-06	
6.16924e-10	-0.00312459	2.01587e-06	
-1.22062e-10	-0.00227729	6.68309e-07	
1.05123e-10	-0.00347805	-8.26225e-08	
-1.02889e-13	-0.00156239	3.45121e-09	
0.000129246	-0.00386511	3.65352e-07	
1.60346e-07	-0.00393904	5.87786e-08	
-0.000608203	-0.00371284	-9.0584e-06	
7.74976e-10	-0.00368453	-7.33244e-07	
-0.000129438	-0.00393908	-1.73487e-07	
-0.00313606	-0.00324275	4.83765e-07	
-0.00385938	-0.00292916	4.37364e-07	
-0.00216958	-0.00364422	-9.83569e-06	
-0.00927811	-0.00195193	-8.97754e-07	
-0.000395908	-0.0038403	-8.97299e-07	
-0.00148713	-0.00272057	5.53617e-06	
-0.00206583	-0.00326941	-1.22394e-05	
-0.00319161	-0.0024899	-1.00358e-06	
4.52302e-05	-0.00358204	9.54011e-06	
1.91694e-05	-0.00382869	4.27468e-07	
-5.99431e-10	-0.00312067	-1.79987e-06	
1.22011e-10	-0.00227663	-6.68593e-07	
-7.12768e-11	-0.00347273	5.61705e-08	
-0.00764174	-0.00156193	-1.30106e-07	
-1.08351e-11	-0.00386519	-2.49332e-07	
-0.0166048	-0.00105456	1.82745e-08	
0.000623864	-0.00371459	9.07065e-06	
-7.69304e-10	-0.00368767	7.28884e-07	
0.0253755	-0.000756958	2.40114e-07	
0.00336665	-0.002455	-3.74924e-07	
0.00423624	-0.00219864	-1.10115e-06	
0.0098179	-0.00142777	8.55158e-07	
0.000445656	-0.00295842	6.75591e-07	
0.00164155	-0.00203009	-3.97411e-06	
0.00211507	-0.0024866	9.79813e-06	
0.00339215	-0.00184969	1.00805e-06	
0.000865161	-0.00273563	-5.83738e-06	
3.64484e-05	-0.00294954	-3.36644e-07	
0.00135603	-0.00278343	6.67432e-06	
4.65281e-10	-0.00235655	1.52036e-06	
-9.01226e-11	-0.0016814	4.93436e-07	
8.00268e-11	-0.00264774	-6.28981e-08	
-7.46097e-14	-0.00113296	2.50264e-09	
0.000148085	-0.00298369	2.81465e-07	
1.87507e-07	-0.00304411	4.54242e-08	
-0.000554726	-0.00285529	-7.05379e-06	
5.94596e-10	-0.00282694	-5.62577e-07	
-0.000148268	-0.00304414	-1.32762e-07	
-0.00334277	-0.00245056	5.40964e-07	
-0.00415517	-0.00219488	1.10429e-06	
-0.0022921	-0.00278639	-7.9061e-06	
-0.00981399	-0.00142726	-8.52828e-07	
-0.000440608	-0.00295837	-6.77063e-07	
-0.00165091	-0.0020299	3.97172e-06	
-0.00214726	-0.00248127	-1.00266e-05	
-0.00338977	-0.0018487	-1.00729e-06	
-4.31015e-05	-0.00273583	7.18817e-06	
-2.24276e-05	-0.00294996	3.34092e-07	
-4.51977e-10	-0.00235302	-1.35712e-06	
9.00741e-11	-0.00168072	-4.93586e-07	
-5.42443e-11	-0.00264288	4.27478e-08	
-0.00802374	-0.00113252	-1.14423e-07	
-8.36414e-12	-0.00298372	-1.92471e-07	
-0.0173432	-0.000756672	2.61464e-08	
0.000571402	-0.0028566	7.06768e-06	
-5.9023e-10	-0.00282928	5.59219e-07	
0.0260858	-0.000467852	2.2859e-07	
0.00353572	-0.00170783	-4.2131e-07	
0.00447348	-0.0015017	-1.71762e-06	
0.0102014	-0.000923018	8.0365e-07	
0.000485065	-0.00213331	4.69938e-07	
0.00176561	-0.00137332	-2.49598e-06	
0.00218241	-0.00174399	7.76552e-06	
0.0035398	-0.00123752	1.00101e-06	
0.000976277	-0.00194174	-4.01843e-06	
7.35259e-05	-0.00212645	-2.48702e-07	
0.00141826	-0.00198137	5.2525e-06	
3.21764e-10	-0.00162967	1.0514e-06	
-5.94882e-11	-0.00110986	3.25708e-07	
5.64546e-11	-0.00186784	-4.43712e-08	
-4.72797e-14	-0.000717951	1.5859e-09	
0.000165128	-0.00215805	2.02896e-07	
2.07348e-07	-0.00220525	3.29065e-08	
-0.000508675	-0.00205207	-5.18026e-06	
4.25721e-10	-0.00202404	-4.02796e-07	
-0.000165306	-0.00220527	-9.46049e-08	
-0.00351032	-0.00170381	5.89947e-07	
-0.00438985	-0.00149881	1.70648e-06	
-0.00239668	-0.0019833	-6.0957e-06	
-0.0101972	-0.000922534	-8.01249e-07	
-0.000479743	-0.00213327	-4.71378e-07	
-0.00177551	-0.00137289	2.49268e-06	
-0.00221518	-0.00173956	-7.93299e-06	
-0.0035371	-0.00123656	-1.00007e-06	
-0.00011742	-0.00194164	4.99168e-06	
-5.88626e-05	-0.00212675	2.46292e-07	
-3.1245e-10	-0.00162663	-9.38172e-07	
5.9445e-11	-0.0011092	-3.25746e-07	
-3.82552e-11	-0.00186386	3.01475e-08	
-0.00827731	-0.00071755	-9.83325e-08	
-6.04964e-12	-0.00215807	-1.39211e-07	
-0.0177995	-0.000467595	3.31606e-08	
0.000526056	-0.00205301	5.19554e-06	
-4.2259e-10	-0.00202569	4.00387e-07	
0.0263539	-0.0001581	2.12422e-07	
0.0036558	-0.000879484	-4.63705e-07	
0.00463708	-0.000734417	-2.33329e-06	
0.0104146	-0.000376748	7.34853e-07	
0.000516884	-0.00120483	2.39821e-07	
0.00184426	-0.000653035	-8.91777e-07	
0.00223238	-0.000918371	5.4739e-06	
0.0036291	-0.000568863	9.74825e-07	
0.00105948	-0.00105475	-2.0198e-06	
0.000103651	-0.00120111	-1.48368e-07	
0.00146889	-0.00108321	3.63923e-06	
1.63203e-10	-0.000826589	5.33286e-07	
-2.61797e-11	-0.000488431	1.43338e-07	
3.01741e-11	-0.000998332	-2.37158e-08	
-1.78491e-14	-0.000271042	5.98712e-10	
0.000179992	-0.00122862	1.145e-07	
2.1003e-07	-0.00126078	1.88129e-08	
-0.00047194	-0.00114995	-3.0911e-06	
2.36254e-10	-0.00112324	-2.23532e-07	
-0.000180185	-0.00126079	-5.17604e-08	
-0.00362928	-0.000875872	6.32218e-07	
-0.00455167	-0.000732473	2.30696e-06	
-0.00247756	-0.00108383	-4.04895e-06	
-0.0104101	-0.000376265	-7.32411e-07	
-0.000511438	-0.00120476	-2.41179e-07	
-0.00185446	-0.000652306	8.87469e-07	
-0.0022656	-0.000914795	-5.573e-06	
-0.00362605	-0.000567843	-9.73684e-07	
-0.000174374	-0.0010542	2.57027e-06	
-8.86319e-05	-0.00120122	1.46156e-07	
-1.58285e-10	-0.000824039	-4.75271e-07	
2.61399e-11	-0.000487751	-1.43241e-07	
-2.04242e-11	-0.000995102	1.60955e-08	
-0.00839102	-0.000270661	-7.97149e-08	
-3.44411e-12	-0.00122861	-7.92539e-08	
-0.0179536	-0.000157859	3.98722e-08	
0.000489668	-0.00115041	3.10735e-06	
-2.34496e-10	-0.00112406	2.22176e-07	
0.0261844	0.000148428	1.93113e-07	
0.00372743	-5.89025e-05	-4.99346e-07	
0.00472738	2.5509e-05	-2.89646e-06	
0.0104586	0.000164173	6.56015e-07	
0.00054092	-0.000283869	1.24008e-08	
0.00187807	6.04895e-05	6.84424e-07	
0.00226515	-0.000100189	3.18151e-06	
0.00366067	9.36611e-05	9.34246e-07	
0.00111506	-0.000175451	-6.03896e-08	
0.000126551	-0.000282922	-4.79205e-08	
0.00150753	-0.000193177	2.0278e-06	
6.05363e-12	-3.06604e-05	1.9781e-08	
6.82743e-12	0.000127378	-3.73813e-08	
4.13043e-12	-0.000136658	-3.24637e-09	
1.12891e-14	0.000171427	-3.78671e-10	
0.00019236	-0.000306123	2.67915e-08	
1.98496e-07	-0.000323017	4.81932e-09	
-0.000444804	-0.000255116	-1.0282e-06	
4.83963e-11	-0.000230094	-4.57902e-08	
-0.000192585	-0.000323005	-9.28452e-09	
-0.00370023	-5.58028e-05	6.65633e-07	
-0.00464099	2.64969e-05	2.85552e-06	
-0.00253472	-0.00019258	-2.00957e-06	
-0.0104538	0.000164641	-6.53565e-07	
-0.000535488	-0.00028378	-1.36557e-08	
-0.0018883	6.14868e-05	-6.89587e-07	
-0.00229873	-9.75881e-05	-3.21321e-06	
-0.00365726	9.46834e-05	-9.32913e-07	
-0.000213737	-0.000174518	1.91668e-07	
-0.000111462	-0.000282865	4.59415e-08	
-5.50591e-12	-2.86641e-05	-1.65322e-08	
-6.86261e-12	0.000128051	3.76056e-08	
-2.7571e-12	-0.000134331	2.17277e-09	
-0.00836614	0.000171775	-6.01708e-08	
-8.58022e-13	-0.00030608	-1.97443e-08	
-0.0178085	0.000148646	4.57994e-08	
0.00046253	-0.000255129	1.0451e-06	
-4.80036e-11	-0.000230106	4.54814e-08	
0.0255764	0.000454596	1.70456e-07	
0.00374751	0.000774486	-5.28477e-07	
0.00474069	0.000794698	-3.41598e-06	
0.0103302	0.000707264	5.65736e-07	
0.000556353	0.000658261	-2.19269e-07	
0.00186539	0.000781505	2.26341e-06	
0.00227928	0.000731982	8.25381e-07	
0.00363272	0.000761971	8.7794e-07	
0.0011408	0.000721017	1.91205e-06	
0.000141553	0.000656131	5.58784e-08	
0.00153291	0.000715015	3.67942e-07	
-1.53327e-10	0.000776568	-5.01014e-07	
4.00527e-11	0.000747257	-2.19295e-07	
-2.23937e-11	0.00074091	1.76006e-08	
4.04717e-14	0.00061457	-1.35754e-09	
0.000201965	0.000637989	-6.29361e-08	
1.69854e-07	0.000636939	-9.50526e-09	
-0.000428024	0.000659543	1.06937e-06	
-1.43509e-10	0.000682297	1.35781e-07	
-0.000202239	0.000636968	3.4114e-08	
-0.00372007	0.000777039	6.90156e-07	
-0.00465417	0.000794714	3.36068e-06	
-0.0025659	0.000716884	8.5479e-08	
-0.0103251	0.00070772	-5.63309e-07	
-0.000551086	0.000658379	2.18152e-07	
-0.0018754	0.000782775	-2.26937e-06	
-0.00231308	0.000733599	-7.88435e-07	
-0.00362894	0.000763005	-8.76416e-07	
-0.000234262	0.000722359	-2.20864e-06	
-0.000126687	0.000656377	-5.7585e-08	
1.4944e-10	0.000777995	4.48715e-07	
-4.00835e-11	0.000747928	2.19649e-07	
1.52366e-11	0.000742353	-1.20074e-08	
-0.00820165	0.00061489	-3.94674e-08	
1.78867e-12	0.000638069	4.11599e-08	
-0.0173647	0.000454794	5.10021e-08	
0.000445389	0.000660007	-1.05223e-06	
1.42511e-10	0.000683128	-1.35023e-07	
0.0245439	0.000750584	1.4515e-07	
0.00371633	0.00158684	-5.50061e-07	
0.00467767	0.0015432	-3.87231e-06	
0.0100331	0.00123377	4.67112e-07	
0.000562998	0.00157995	-4.44994e-07	
0.00180712	0.0014827	3.7855e-06	
0.00227467	0.00154382	-1.49671e-06	
0.00354637	0.00141151	8.07998e-07	
0.00113677	0.00159662	3.81494e-06	
0.000148496	0.00157489	1.58417e-07	
0.00154464	0.00160223	-1.26805e-06	
-3.0862e-10	0.0015631	-1.00846e-06	
7.2315e-11	0.00134917	-3.95937e-07	
-4.82869e-11	0.00159761	3.79517e-08	
6.87275e-14	0.00104364	-2.30533e-09	
0.000208614	0.00156208	-1.50728e-07	
1.25441e-07	0.00157679	-2.35298e-08	
-0.00042168	0.00155411	3.11073e-06	
-3.31133e-10	0.00157433	3.13302e-07	
-0.000208957	0.00157683	7.65292e-08	
-0.0036891	0.00158877	7.04988e-07	
-0.00459184	0.00154225	3.80348e-06	
-0.00257083	0.00160531	2.14502e-06	
-0.0100276	0.0012342	-4.64741e-07	
-0.000558037	0.00158009	4.44037e-07	
-0.00181665	0.00148421	-3.7921e-06	
-0.00230856	0.00154441	1.60046e-06	
-0.00354221	0.00141253	-8.06293e-07	
-0.000235903	0.00159833	-4.52971e-06	
-0.00013414	0.00157532	-1.59821e-07	
3.00404e-10	0.00156392	9.02002e-07	
-7.23407e-11	0.00134982	3.96411e-07	
3.28007e-11	0.00159811	-2.5849e-08	
-0.00790152	0.00104392	-1.82826e-08	
4.37922e-12	0.00156219	1.00772e-07	
-0.0166321	0.000750758	5.53029e-08	
0.000438337	0.00155503	-3.0937e-06	
3.28773e-10	0.00157598	-3.11499e-07	
0.0231082	0.00103102	1.17668e-07	
0.00363409	0.00236783	-5.63798e-07	
0.00453921	0.00226071	-4.25925e-06	
0.00957311	0.00173502	3.61813e-07	
0.000560624	0.00247136	-6.62354e-07	
0.00170438	0.00215402	5.22894e-06	
0.00225109	0.00232535	-3.75657e-06	
0.00340319	0.00203258	7.25538e-07	
0.00110291	0.00244121	5.62617e-06	
0.000147218	0.00246342	2.58597e-07	
0.00154225	0.00245849	-2.86213e-06	
-4.57772e-10	0.00231852	-1.49583e-06	
1.03109e-10	0.00192368	-5.64536e-07	
-7.32419e-11	0.00242326	5.75654e-08	
9.55686e-14	0.00145123	-3.20566e-09	
0.000212153	0.00245628	-2.35647e-07	
6.5191e-08	0.00248651	-3.71045e-08	
-0.00042583	0.00241881	5.07359e-06	
-5.12409e-10	0.00243619	4.84816e-07	
-0.000212581	0.00248657	1.17506e-07	
-0.00360753	0.0023691	7.09907e-07	
-0.0044549	0.00225881	4.17788e-06	
-0.002549	0.00246272	4.14629e-06	
-0.00956724	0.00173543	-3.59529e-07	
-0.000556109	0.00247153	6.61582e-07	
-0.00171318	0.00215574	-5.23605e-06	
-0.00228494	0.0023249	3.92457e-06	
-0.00339866	0.00203356	-7.23664e-07	
-0.000218627	0.00244326	-6.74468e-06	
-0.000133649	0.00246403	-2.59673e-07	
4.45389e-10	0.00231872	1.33734e-06	
-1.03129e-10	0.00192431	5.65123e-07	
4.97278e-11	0.00242283	-3.91886e-08	
-0.00747186	0.00145147	3.01097e-09	
6.88601e-12	0.00245643	1.58457e-07	
-0.0156258	0.00103117	5.86283e-08	
0.000441444	0.00242018	-5.05705e-06	
5.08733e-10	0.00243862	-4.82004e-07	
				</DataArray>
			</CellData>
			<Points>
				<DataArray type="Float64" Name="Position" NumberOfComponents="3" Format="ascii">
2.77019	1.91807	0.368141	
2.71488	1.08634	0.408437	
2.72669	1.29748	0.397518	
2.76246	1.71148	0.346678	
2.70546	0.265343	0.436077	
2.73537	1.40214	0.384641	
2.71823	0.984769	0.403317	
2.74569	1.5049	0.369027	
2.70858	0.782788	0.410293	
2.70128	0.371931	0.433055	
2.70806	0.678972	0.414113	
2.72124	1.19219	0.405416	
2.75494	1.60821	0.354938	
2.71932	0.885323	0.402834	
2.77226	1.81968	0.342875	
2.70722	0.159658	0.435861	
2.70717	0.05346	0.435986	
2.70707	0.47572	0.423872	
2.71293	0.576874	0.415627	
2.70709	-0.0532625	0.436229	
2.71506	-1.08616	0.40757	
2.72687	-1.29732	0.396191	
2.70668	-0.678397	0.41574	
2.7646	-1.71014	0.345715	
2.70555	-0.265214	0.435783	
2.73567	-1.40175	0.382623	
2.71907	-0.984888	0.402205	
2.74623	-1.50427	0.366492	
2.70719	-0.782869	0.411988	
2.70148	-0.371743	0.432521	
2.72162	-1.19192	0.404137	
2.75631	-1.60736	0.35204	
2.72022	-0.885259	0.402244	
2.76826	-1.81405	0.355759	
2.70714	-0.159531	0.43589	
2.76897	-1.91646	0.381912	
2.70756	-0.475376	0.423284	
2.71384	-0.576344	0.415443	
2.66769	1.91352	0.334774	
2.63446	1.08703	0.335985	
2.6397	1.29581	0.32945	
2.67918	1.71763	0.281418	
2.62299	0.264874	0.365131	
2.65143	1.40047	0.317097	
2.64658	0.987325	0.327985	
2.66603	1.50563	0.300854	
2.6382	0.782409	0.334834	
2.62079	0.370793	0.360212	
2.63818	0.679104	0.338296	
2.63659	1.19161	0.335618	
2.67619	1.61169	0.286331	
2.65286	0.886496	0.326472	
2.68289	1.83029	0.286894	
2.62519	0.159592	0.3649	
2.62631	0.0534413	0.364226	
2.63388	0.473916	0.349036	
2.6465	0.576157	0.339712	
2.62618	-0.0533212	0.364256	
2.63424	-1.08675	0.335147	
2.63986	-1.29564	0.327885	
2.636	-0.678665	0.340243	
2.68241	-1.71786	0.279618	
2.62318	-0.264754	0.36476	
2.65202	-1.40018	0.314513	
2.64686	-0.987321	0.327368	
2.66719	-1.50533	0.297374	
2.63556	-0.782271	0.337034	
2.62085	-0.370633	0.359804	
2.63637	-1.19127	0.334515	
2.67874	-1.61185	0.282041	
2.6537	-0.886328	0.325987	
2.67614	-1.81937	0.304289	
2.6251	-0.159509	0.364801	
2.66481	-1.90746	0.354214	
2.63472	-0.473601	0.348506	
2.64784	-0.575843	0.339459	
2.5633	1.91076	0.302041	
2.56186	1.09044	0.26387	
2.56569	1.29867	0.259689	
2.59031	1.72919	0.221631	
2.55614	0.264209	0.293424	
2.57219	1.40377	0.251061	
2.57596	0.991177	0.255865	
2.58185	1.5104	0.237163	
2.56741	0.78368	0.2621	
2.55422	0.369749	0.288445	
2.56858	0.679824	0.265546	
2.56299	1.19465	0.264857	
2.59159	1.62014	0.221795	
2.58005	0.888925	0.254661	
2.58976	1.84856	0.238112	
2.5589	0.159478	0.29363	
2.55972	0.0533968	0.292918	
2.56578	0.472941	0.277284	
2.57585	0.576153	0.267908	
2.55955	-0.0532919	0.292956	
2.56179	-1.09021	0.262706	
2.56597	-1.2986	0.257889	
2.5661	-0.679451	0.267693	
2.5952	-1.73202	0.219211	
2.55626	-0.264105	0.293104	
2.57299	-1.40372	0.247994	
2.57649	-0.991155	0.255202	
2.58344	-1.51071	0.232861	
2.56488	-0.783463	0.264472	
2.55469	-0.369647	0.287691	
2.56289	-1.19453	0.263979	
2.59513	-1.62185	0.216159	
2.58171	-0.888845	0.254573	
2.58056	-1.83019	0.258193	
2.55878	-0.159418	0.293526	
2.55909	-1.89839	0.326132	
2.56684	-0.472772	0.276407	
2.57747	-0.576013	0.267699	
2.46645	1.91581	0.267257	
2.50595	1.09729	0.18879	
2.50494	1.3067	0.185885	
2.50738	1.74803	0.160628	
2.50747	0.264072	0.218102	
2.50573	1.41224	0.180234	
2.52009	0.997468	0.18069	
2.50909	1.52054	0.168924	
2.51069	0.786348	0.187848	
2.50528	0.369095	0.213514	
2.51352	0.681882	0.191238	
2.50586	1.2017	0.189255	
2.51493	1.63442	0.15399	
2.52291	0.89315	0.17929	
2.49989	1.8732	0.190618	
2.50934	0.159508	0.218153	
2.51	0.053379	0.218113	
2.51415	0.472578	0.202865	
2.52133	0.57701	0.192659	
2.50975	-0.0533008	0.218199	
2.50599	-1.09721	0.188005	
2.50521	-1.30673	0.183834	
2.51113	-0.681773	0.193744	
2.51237	-1.75383	0.158559	
2.50761	-0.264015	0.217798	
2.5065	-1.4125	0.176824	
2.52101	-0.997358	0.179449	
2.5107	-1.52155	0.164113	
2.50779	-0.785917	0.19009	
2.50562	-0.369073	0.212721	
2.50593	-1.2016	0.188224	
2.51872	-1.63794	0.147623	
2.52482	-0.892933	0.179136	
2.49036	-1.84863	0.212765	
2.50914	-0.159488	0.218093	
2.46155	-1.89688	0.292937	
2.51519	-0.472565	0.201867	
2.52304	-0.577164	0.192277	
2.3664	1.91693	0.238077	
2.41154	1.10065	0.125461	
2.40985	1.31188	0.125953	
2.40584	1.75975	0.115103	
2.41757	0.2644	0.150958	
2.40829	1.41781	0.124597	
2.42513	1.00027	0.115633	
2.40935	1.52708	0.117025	
2.41434	0.788091	0.125375	
2.41474	0.369749	0.147192	
2.41744	0.683181	0.127787	
2.41026	1.20591	0.127386	
2.4146	1.6439	0.102506	
2.42705	0.895517	0.115642	
2.39806	1.88918	0.15542	
2.41937	0.159716	0.150414	
2.42057	0.0534233	0.150662	
2.42056	0.473706	0.137316	
2.42614	0.578309	0.12793	
2.42024	-0.0533739	0.150858	
2.41169	-1.10059	0.124586	
2.41019	-1.31206	0.123749	
2.41483	-0.68299	0.130619	
2.41085	-1.76751	0.112847	
2.41781	-0.264389	0.150474	
2.40905	-1.41835	0.120972	
2.42597	-1.00017	0.114071	
2.41099	-1.52851	0.111448	
2.41167	-0.787696	0.127762	
2.41516	-0.369775	0.14629	
2.41054	-1.20589	0.126225	
2.41829	-1.64866	0.0955162	
2.42825	-0.895279	0.115462	
2.38897	-1.85857	0.178131	
2.41907	-0.159719	0.150463	
2.36175	-1.89333	0.264559	
2.4218	-0.473742	0.136057	
2.42783	-0.578512	0.127257	
2.26809	1.92034	0.211151	
2.31329	1.10411	0.0737894	
2.31061	1.31677	0.0764267	
2.30323	1.76911	0.0773989	
2.32019	0.264884	0.0945055	
2.30778	1.42281	0.0778593	
2.32531	1.00304	0.0604627	
2.30777	1.53268	0.0732722	
2.31451	0.789663	0.0736615	
2.31864	0.370515	0.0914047	
2.31808	0.684608	0.0749999	
2.31158	1.21004	0.0763395	
2.31176	1.65173	0.0601873	
2.32487	0.897323	0.0630261	
2.29573	1.90067	0.124455	
2.32261	0.160001	0.0939665	
2.32457	0.0534835	0.0932404	
2.3225	0.474838	0.082226	
2.32631	0.579632	0.0736808	
2.32419	-0.0534712	0.0935678	
2.31352	-1.1041	0.0728886	
2.31104	-1.31698	0.0734727	
2.31625	-0.684461	0.0780261	
2.30769	-1.77817	0.0749433	
2.32045	-0.264887	0.0939774	
2.30845	-1.42353	0.074143	
2.3259	-1.00297	0.0594485	
2.3092	-1.53458	0.0679876	
2.31225	-0.789228	0.0769907	
2.31904	-0.370568	0.090413	
2.31196	-1.21008	0.0751087	
2.31492	-1.65714	0.0529362	
2.32789	-0.897415	0.0614128	
2.28784	-1.86665	0.147625	
2.32227	-0.160016	0.0941483	
2.26404	-1.89383	0.237879	
2.32359	-0.474921	0.0807881	
2.32808	-0.579901	0.0726101	
2.16996	1.9243	0.186246	
2.20795	1.10643	0.0349423	
2.20551	1.31997	0.0381085	
2.19835	1.77389	0.0479367	
2.21526	0.265373	0.0504242	
2.20256	1.42609	0.0431357	
2.21791	1.00483	0.0203046	
2.2024	1.53627	0.0405355	
2.20786	0.790692	0.0354292	
2.2134	0.371281	0.0491302	
2.21202	0.685656	0.0344948	
2.20671	1.21291	0.0365782	
2.20493	1.65594	0.0287864	
2.2171	0.898647	0.0230195	
2.1923	1.90618	0.0970115	
2.21619	0.160262	0.0503662	
2.21925	0.0535531	0.0490551	
2.21612	0.475828	0.0404131	
2.21884	0.580671	0.0319475	
2.21888	-0.0535678	0.04951	
2.20796	-1.10635	0.0341442	
2.20589	-1.3203	0.0358782	
2.21062	-0.685498	0.0376182	
2.20208	-1.78348	0.045038	
2.21553	-0.265379	0.0498613	
2.2031	-1.4269	0.0394374	
2.21848	-1.00477	0.0193112	
2.2036	-1.53831	0.0352084	
2.20688	-0.790404	0.0383892	
2.21389	-0.371337	0.0479387	
2.20721	-1.21291	0.0353794	