<VTKFile type="UnstructuredGrid" version="0.1" byte_order="LittleEndian">
	<UnstructuredGrid>
		<Piece NumberOfPoints="1759" NumberOfCells="3358">
			<CellData Scalars="scalars">
				<DataArray type="Float64" Name="Doublet Strengths" NumberOfComponents="1" Format="ascii">
0.0120288	
0.0215686	
0.010454	
0.0719089	
0.025995	
0.0694692	
0.0146401	
0.0712939	
0.0698068	
0.0689805	
0.0694512	
0.0160546	
0.0697485	
0.0449218	
-0.00717875	
-0.00640001	
0.00680943	
0.00196115	
0.0152009	
0.0691039	
0.0679449	
0.072168	
0.0652658	
0.0619284	
0.0485382	
0.0102929	
0.0339207	
0.0300793	
0.02752	
0.00641506	
0.0366806	
0.0331112	
0.0294568	
0.0348914	
0.0154417	
0.0276481	
0.0171616	
0.024148	
0.0406981	
0.0389626	
0.0505484	
0.0727184	
0.0749279	
0.068802	
0.0729277	
0.0658295	
0.0691885	
0.0590321	
0.0681823	
0.0729896	
0.00868929	
0.0100574	
0.00744576	
0.00380794	
0.0133445	
0.00768543	
0.00907023	
0.0687094	
0.0639461	
0.0716845	
0.0718369	
0.0709309	
0.0624238	
0.063821	
0.0725611	
0.0726804	
0.0668753	
0.0627967	
0.0717561	
0.0735139	
0.0738326	
0.0357872	
0.0740689	
0.0744198	
0.0698752	
0.0734468	
0.0274623	
0.0688143	
0.0738019	
0.0664839	
0.00319859	
0.000879046	
0.00214209	
0.0108371	
0.0111722	
0.0110551	
0.0674755	
0.0537245	
0.0579026	
0.0583571	
0.0195292	
0.024165	
0.041368	
0.0446062	
0.070819	
0.0705525	
0.00399596	
0.00544382	
0.00528	
0.00535091	
0.0734107	
0.0737402	
0.0627375	
0.0662702	
0.0605475	
0.00985297	
0.0108124	
0.00812071	
0.00885734	
0.0690746	
0.0704573	
0.0685894	
0.0684921	
0.0688358	
0.0492308	
0.0487706	
0.0734609	
0.0265491	
0.0240837	
0.0722886	
0.0726361	
0.0700282	
0.0711966	
0.0106684	
0.00651551	
0.0245092	
0.0718758	
0.0610079	
0.0585143	
0.0590163	
0.053843	
0.059492	
0.0711737	
0.0722385	
0.0351085	
0.0663421	
0.0654012	
0.0347792	
0.0650052	
0.0344642	
0.0314356	
0.067489	
0.0689508	
0.0701088	
0.0703191	
0.0645384	
0.0563674	
0.0617931	
0.0570889	
0.0570261	
0.0534797	
0.0702068	
0.0445696	
0.05222	
0.0492895	
0.0563391	
0.0469535	
0.0188806	
0.0734351	
0.0738339	
0.0669814	
0.0691846	
0.0666661	
0.0425807	
0.0675335	
0.0270746	
0.00126737	
-0.00151803	
0.0179827	
0.0118593	
0.0219567	
0.0471449	
0.0372526	
0.064408	
0.0675329	
0.0658545	
0.0173459	
0.0135444	
0.0170043	
0.0233907	
0.0186199	
0.0235475	
0.0727014	
0.0675236	
0.065827	
0.0624727	
0.0712311	
0.0704068	
0.0630571	
0.0642265	
0.06485	
0.0705106	
0.0707062	
0.0733814	
0.0685716	
0.0747714	
0.0720286	
0.0725476	
0.0438876	
0.0732126	
0.0716512	
0.0664724	
0.072781	
0.0741091	
0.0136164	
0.000965358	
0.0530647	
0.0479698	
0.0530738	
0.0563387	
0.0544727	
0.0362991	
0.0301589	
0.0211408	
0.0265006	
0.0289571	
0.0705778	
0.0710649	
0.0696483	
0.0328227	
0.02736	
0.0359619	
0.0328965	
0.0624668	
0.0679822	
0.0630003	
0.0669618	
0.0622923	
0.0600312	
0.0673671	
0.0715073	
0.0713434	
0.0617284	
0.0107211	
0.0146051	
0.0704472	
0.0702167	
0.0631739	
0.0656878	
0.00831713	
0.00437804	
0.00506044	
0.038388	
0.0445258	
0.0481132	
0.0706639	
0.0710489	
0.0125157	
0.0104851	
0.0711395	
0.00383053	
0.0112977	
0.0099495	
0.00975818	
0.025952	
0.0219258	
0.023153	
0.044132	
0.0390305	
0.044249	
0.0706446	
0.0109757	
0.0104549	
0.0116691	
0.0616521	
0.0570191	
0.0200354	
0.0244659	
0.00491276	
0.010074	
0.028794	
0.030895	
0.0599137	
0.0643378	
0.0628805	
0.0636756	
0.0670015	
0.0665984	
0.0598847	
0.0647614	
0.0599608	
0.00748971	
0.00479452	
0.00612606	
0.00693621	
0.00684257	
0.0538157	
0.0471218	
0.0466266	
0.0135948	
0.0142002	
0.0178967	
0.0174234	
0.014148	
0.0119203	
0.00680911	
0.00426467	
0.00663946	
0.00338571	
0.00545892	
0.037773	
0.038714	
0.0416545	
0.0733466	
0.0531047	
0.0543367	
0.0563252	
0.055956	
0.0712556	
0.0710398	
0.0629295	
0.0605568	
0.0616862	
0.039861	
0.0431714	
0.0702944	
0.0723452	
0.072156	
0.0732499	
0.0719343	
0.0703504	
0.0730908	
0.070449	
0.0730549	
0.0167575	
0.0102207	
0.0123484	
0.0474977	
0.0127763	
0.0621477	
-0.00223501	
0.000992565	
0.0100382	
0.011552	
0.00963274	
0.0114241	
0.0737166	
0.0106589	
0.0137628	
0.0100178	
0.0131316	
0.00222046	
0.00288615	
0.0668787	
0.0679972	
0.0642298	
0.0219226	
0.0243728	
0.0179362	
0.0213892	
0.0646805	
0.0640949	
0.063162	
0.0181253	
0.01635	
0.0680679	
0.0702996	
0.0675605	
0.0699383	
0.0346356	
0.0354102	
0.0288254	
0.072837	
0.0741046	
-0.00268072	
-0.00329872	
0.0146773	
0.0122094	
0.060202	
0.0208681	
0.0257936	
0.0230555	
0.0278717	
0.0732692	
0.0700802	
0.0698536	
0.0528122	
0.0517614	
0.0472997	
0.0120886	
0.0100282	
0.00710116	
0.0740634	
0.0728001	
0.0717674	
0.0175007	
0.019949	
0.01401	
0.00958766	
0.00673825	
0.0455058	
0.0039484	
0.00329766	
0.0139391	
0.0177172	
0.0170423	
0.0200258	
0.0689754	
0.0710376	
0.0709924	
0.0696475	
0.0660182	
0.0717896	
0.0718904	
0.0713344	
0.0725673	
0.0561979	
0.0526572	
0.0669967	
0.0631048	
0.069488	
0.0723681	
0.0736108	
0.0719243	
0.0720207	
0.00774323	
0.00934156	
0.0147648	
0.0133322	
0.060155	
0.015684	
0.011869	
0.0164669	
0.0138166	
0.052716	
0.0516725	
0.0261781	
0.0194083	
0.017774	
0.0731995	
0.0736493	
0.0712841	
0.0550331	
0.0602072	
0.0574967	
0.0557556	
0.0512754	
0.000532199	
-0.000623102	
0.00974015	
0.00978561	
0.0644899	
0.0627352	
0.024304	
0.0195673	
0.0455547	
0.0455099	
0.0479143	
0.012932	
0.014348	
0.0734878	
0.0722064	
0.0721569	
0.0740606	
0.0738889	
0.0249945	
0.0195508	
0.0293503	
0.0191244	
0.0620169	
0.0363067	
0.0325229	
0.0663987	
0.0608185	
0.0673453	
0.0641609	
0.0728618	
0.0737252	
0.0733001	
0.0392938	
0.0444193	
0.0722983	
0.0707306	
0.0723512	
0.0723164	
0.0688384	
0.0701916	
0.0198555	
0.0168273	
0.0718702	
0.0701385	
0.0395891	
0.0453824	
0.0487102	
0.0643102	
0.0674556	
0.0680973	
0.070423	
0.0628626	
0.0641643	
0.0689229	
0.0706439	
0.0680192	
0.0729713	
0.0708066	
0.0721453	
0.0706086	
0.0320535	
0.0321069	
0.0560801	
0.0544299	
0.0626037	
0.0647456	
0.0276705	
0.0254376	
0.0290706	
0.0554195	
0.0719267	
0.0717217	
0.0738536	
0.073294	
0.0729189	
0.0731006	
0.0742295	
0.070116	
0.0568286	
0.0533057	
0.0739987	
0.0581733	
0.0686514	
0.0710916	
0.0686053	
0.0721654	
0.0717649	
0.0728477	
0.0732869	
0.0101855	
0.00965709	
0.0102969	
0.00963904	
-0.00577445	
-0.00325002	
-0.00355267	
-0.00211523	
0.0697379	
0.0737143	
0.0747785	
0.0738537	
0.073489	
0.0732374	
0.0733644	
0.0733758	
0.0719033	
0.0719476	
0.0709923	
0.0685888	
0.0685698	
0.074422	
0.0736536	
0.0735836	
0.0732899	
0.0726046	
0.0728117	
0.0127543	
0.0124727	
0.0103629	
0.0640535	
0.0626504	
0.0485135	
0.0572736	
0.0689416	
0.0636417	
0.0702254	
0.0698723	
0.0682124	
0.0710357	
0.0645063	
0.0143407	
0.0112003	
0.0120278	
0.057937	
0.0565011	
0.072009	
0.0715416	
0.01012	
0.062884	
0.0635835	
0.0707736	
0.0720581	
0.0729652	
0.0737461	
0.0726354	
0.0597703	
0.0598016	
0.0730256	
0.0739372	
0.062083	
0.0582799	
0.0701119	
0.0734772	
0.0736155	
0.0670267	
0.0687693	
0.0737999	
0.0718994	
0.0711808	
0.0471786	
0.0729131	
0.0735893	
0.0729194	
0.0724919	
0.0738592	
0.0732176	
0.0715073	
0.0729118	
0.0575704	
0.0693524	
0.0675249	
0.0608439	
0.0613194	
0.0586843	
0.0734771	
0.0733133	
0.0725757	
0.0706338	
0.0670946	
0.0679223	
0.0687249	
0.0665604	
0.0675176	
0.0655939	
0.0674354	
0.0719008	
0.0733467	
0.073526	
0.0726517	
0.0705101	
0.0562042	
0.0545543	
0.055109	
0.0703682	
0.0686715	
0.0697456	
0.0704599	
0.0739666	
0.0177472	
0.010863	
0.0126708	
0.010932	
0.0733527	
0.0130637	
0.0146948	
0.0606003	
0.0740671	
0.0705137	
0.0742043	
0.0358257	
0.0294393	
0.0386988	
0.0377405	
0.0689366	
0.0734121	
0.0737951	
0.0735564	
0.0404945	
0.0651696	
0.0625393	
0.0612868	
0.0607869	
0.0740827	
0.0472766	
0.0679766	
0.0701412	
0.065164	
0.0673452	
0.0498039	
0.0455334	
0.0397227	
0.0434973	
0.0349607	
0.0368223	
0.0714376	
0.0717914	
0.0716283	
0.070682	
0.0680078	
0.0721445	
0.0679812	
0.0492796	
0.0484796	
0.0407225	
0.0388091	
0.0330416	
0.0362877	
0.0314947	
0.0637271	
0.0668561	
0.0734498	
0.0736431	
0.0730291	
0.0748766	
0.0644082	
0.066074	
0.0659946	
0.0741126	
0.0701908	
0.0739147	
0.0741376	
0.0712807	
0.0659641	
0.0665604	
0.0681127	
0.0213216	
0.026015	
0.0211274	
0.0382119	
0.038173	
0.0348214	
0.0286034	
0.0739146	
0.0743931	
0.070289	
0.0690101	
0.0689942	
0.0728513	
0.069119	
0.0728895	
0.054308	
0.0509839	
0.0600423	
0.0590974	
0.0318574	
0.0366995	
0.0280683	
0.0353245	
0.0556768	
0.0534895	
0.0533346	
0.0443615	
0.0551858	
0.0492793	
0.0563182	
0.0543515	
0.0613194	
0.0622089	
0.058828	
0.0547831	
0.051776	
0.066461	
0.0678046	
0.0680244	
0.0679844	
0.0583097	
0.0562361	
0.0530047	
0.0522864	
0.0696199	
0.073574	
0.0720263	
0.0723987	
0.0733659	
0.0693553	
0.0721783	
0.0711565	
0.0731044	
0.0690969	
0.0617787	
0.0628135	
0.0734879	
0.0688449	
0.0734061	
0.0737048	
0.071516	
0.0695477	
0.0107419	
0.0126892	
0.0107737	
0.0115735	
0.0325747	
0.051801	
0.0538984	
0.0742418	
0.0742447	
0.0721046	
0.0724052	
0.0721106	
0.0734009	
0.0725217	
0.0572826	
0.056055	
0.0433082	
0.0708608	
0.0731467	
0.0732661	
0.0418906	
0.0463502	
0.0721101	
0.070288	
0.0741978	
0.0710287	
0.0490729	
0.0563316	
0.0453634	
0.0475442	
0.04829	
0.0458228	
0.0439796	
0.0405258	
0.0433239	
0.0397478	
0.0368002	
0.0338328	
0.0417787	
0.0427321	
0.0714162	
0.0720345	
0.0680482	
0.0727445	
0.0619276	
-0.0619363	
0.0606499	
0.0605595	
-0.067311	
-0.085524	
-0.0882586	
-0.0785971	
0.0607478	
0.0604279	
0.0590591	
0.0607045	
0.0586365	
0.0594666	
-0.0388328	
0.0442774	
0.0598807	
0.0600537	
-0.0367328	
-0.0392091	
-0.0427169	
0.0617778	
0.0610289	
0.0584874	
-0.0621549	
-0.0541214	
-0.073346	
-0.0292614	
-0.0456615	
-0.0441849	
-0.0207944	
-0.0643751	
-0.0559669	
-0.0415905	
-0.07891	
-0.00157133	
0.0612714	
0.0535641	
0.0541206	
0.0386024	
0.0381359	
0.0375628	
-0.0588373	
-0.0103901	
-0.0189599	
-0.00896414	
-0.0842817	
-0.0797552	
-0.0873031	
-0.0857345	
-0.0874232	
-0.0859386	
-0.0271333	
-0.00802675	
-0.0874563	
-0.083361	
-0.0865843	
-0.000359842	
0.0107201	
-0.0767111	
0.0403178	
0.0134131	
0.0183563	
0.0425782	
0.0420794	
0.0414242	
0.041767	
0.0424149	
0.0448462	
0.0437747	
0.0345018	
0.0430383	
0.0415485	
0.0441206	
0.0510935	
-0.073906	
0.0332213	
-0.000996546	
0.0330738	
-0.0834701	
-0.0882329	
-0.06365	
-0.0653178	
-0.0691172	
-0.0882046	
-0.00220954	
0.0102211	
-0.0185857	
-0.00730922	
-0.026352	
0.0243555	
0.0282897	
0.0182045	
-0.0235479	
0.0242006	
0.0225545	
0.0213101	
-0.0885507	
-0.0884326	
-0.0884054	
-0.0885542	
0.0233782	
-0.0736845	
-0.0767568	
-0.0748963	
-0.0831336	
-0.0851571	
-0.0813826	
-0.0860398	
-0.0861738	
0.0101628	
-0.0111493	
-0.0525111	
-0.0722381	
0.00545041	
0.0349311	
0.0299198	
0.00623664	
0.02075	
-0.0522104	
0.0185214	
0.0301739	
0.0264261	
-0.0619395	
-0.0711129	
-0.0577037	
-0.0306543	
-0.0312232	
-0.0302667	
-0.0185811	
-0.0806065	
-0.0871351	
-0.0844656	
-0.0530823	
-0.065628	
0.0279702	
-0.0677471	
-0.0645158	
-0.0660954	
-0.0686953	
-0.0643122	
-0.00640628	
-0.0173867	
-0.0168639	
-0.0122891	
0.0364826	
-0.0448145	
-0.0546005	
-0.0827564	
-0.0878198	
0.0475159	
0.0402803	
-0.0822077	
-0.0737119	
-0.072014	
0.0221297	
0.0124418	
0.0125922	
0.013547	
0.00017989	
-0.0346976	
-0.0242289	
-0.000336751	
-0.00602229	
0.00518029	
0.00191089	
-0.036219	
-0.0291513	
0.046931	
0.044719	
0.0552553	
0.0570756	
0.0464532	
0.0465076	
0.0586516	
0.0472628	
0.0471964	
0.0584693	
0.0464422	
-0.0789898	
-0.0825619	
0.0591313	
0.0585495	
0.0482189	
0.0486533	
-0.0724259	
-0.0863899	
-0.062171	
0.0205819	
0.0168296	
0.0164066	
-0.0346611	
-0.0141566	
-0.000995065	
0.0419707	
0.0431429	
0.0359375	
0.003675	
-0.00490484	
-0.0373882	
0.0129359	
0.0266463	
0.014044	
0.0123315	
0.00498088	
-0.0248318	
0.0105652	
0.000850982	
0.0437427	
0.0478277	
-0.0729981	
-0.0612729	
0.0339469	
0.0317996	
0.0250976	
0.0291708	
0.0359115	
0.0353966	
0.0325703	
0.0300771	
0.0320342	
0.0328859	
-0.0783183	
-0.0803648	
-0.0789881	
0.0309799	
0.0365552	
0.0362479	
-0.0238232	
-0.0145158	
-0.00490191	
-0.0841354	
-0.08858	
-0.0878444	
-0.033582	
-0.0248921	
-0.0219742	
0.0316828	
0.0330764	
-0.00710314	
-0.0111967	
0.047923	
0.0478	
0.0562391	
0.0347066	
0.0336078	
0.0106286	
0.0090208	
-0.088428	
0.0582981	
-0.0721985	
-0.0775737	
-0.0754093	
0.0241412	
0.0265522	
-0.00346581	
0.0122407	
0.0167053	
0.0296384	
0.0376935	
0.0452073	
-0.0862908	
0.00604777	
0.00775244	
0.0372603	
0.0383094	
0.0209219	
0.0322275	
-0.0760063	
-0.0808146	
-0.0826701	
-0.0810703	
-0.0833739	
-0.0875382	
-0.0870366	
-0.0868289	
-0.0879262	
0.00735465	
0.0161158	
0.00439915	
0.021506	
0.0200413	
0.031638	
0.0347178	
0.0189514	
0.0255266	
-0.0408497	
-0.0337562	
-0.0490833	
0.0256796	
0.0112637	
0.0032247	
0.000933142	
0.0163345	
-0.00239287	
0.00478674	
-0.00426585	
-0.0553207	
-0.046939	
-0.0482484	
-0.0394223	
0.0270169	
-0.0378452	
-0.0760894	
-0.0812099	
-0.0746353	
-0.080521	
0.0334964	
0.0399234	
0.0310496	
-0.0823964	
-0.087882	
-0.085583	
0.0375999	
0.0462249	
0.0605375	
0.0583144	
0.0570859	
0.0451215	
0.0475483	
0.0587392	
0.0465901	
0.0601252	
0.0580899	
-0.0654396	
-0.073769	
-0.0733474	
-0.0687989	
-0.0736791	
-0.0716538	
-0.0764962	
-0.0593232	
-0.0506104	
-0.0445298	
-0.0435172	
0.0286832	
0.0328601	
0.0266681	
-0.0554087	
-0.0573613	
-0.0881738	
-0.0829817	
-0.0801981	
-0.0749536	
-0.0814838	
-0.0796098	
-0.0852199	
-0.0819934	
-0.0857229	
-0.0825315	
-0.0879234	
-0.0855557	
0.0325447	
-0.00464475	
-0.0104667	
-0.020316	
-0.0200065	
-0.0202595	
-0.0290043	
-0.0500613	
0.0232733	
0.0295209	
0.0280823	
0.0415267	
0.0403948	
0.0140943	
0.0116346	
-0.0536831	
-0.0606532	
-0.0510624	
-0.0655998	
-0.0708211	
-0.068401	
0.027828	
0.036987	
0.0250599	
-0.0477224	
-0.0529204	
-0.0712149	
-0.0658096	
-0.0661226	
-0.0623251	
-0.0723961	
-0.0716055	
-0.0724874	
-0.0647024	
-0.0696511	
-0.0459787	
-0.0392111	
-0.0876188	
-0.0857987	
0.0229391	
0.0173691	
0.0119815	
-0.0699318	
-0.0749532	
-0.0606818	
-0.073032	
-0.0815005	
-0.084393	
-0.086888	
-0.0751351	
-0.0782398	
-0.0831921	
-0.0875253	
0.0352932	
0.0303733	
0.0177122	
0.0285315	
0.0162219	
0.027097	
-0.0572825	
-0.0528347	
-0.0619891	
-0.0560129	
-0.0828758	
-0.0867102	
-0.0794929	
-0.0807837	
0.0109749	
0.0159033	
0.0435249	
0.0452177	
0.0552721	
0.0444744	
0.0381208	
0.0565954	
0.0449173	
-0.0586123	
-0.0597166	
-0.0544674	
-0.0622684	
-0.0661819	
-0.0543597	
-0.0467679	
-0.0493446	
-0.0342669	
0.0040521	
-0.0632083	
-0.0718734	
-0.0698139	
-0.0746529	
0.0437567	
0.0536486	
-0.0438783	
-0.062119	
-0.0627506	
-0.0857185	
-0.0879273	
-0.0512325	
-0.0579574	
-0.0557368	
-0.0604328	
-0.004253	
0.00627504	
0.00375544	
-0.0603171	
-0.0520714	
-0.0413121	
-0.0430112	
-0.0364019	
0.0471375	
0.0575888	
0.0299116	
0.0242049	
0.0365871	
0.0476535	
0.0421813	
0.0351835	
0.0318165	
0.0332206	
0.0237918	
0.0610174	
-0.0012027	
0.0424489	
0.0363297	
0.0591327	
0.0611726	
0.0606947	
0.044128	
0.041273	
0.0388341	
0.0167911	
0.0175291	
0.0186161	
0.0262224	
0.0151047	
0.0235823	
0.0343157	
0.0345524	
-0.0619469	
-0.0553197	
-0.068324	
-0.0679015	
0.0595459	
0.0573141	
0.0304121	
0.0362032	
0.0611761	
0.0587018	
0.0604969	
0.0581677	
0.0590146	
0.0615049	
0.0602581	
0.0575518	
0.0277733	
0.0286771	
0.0612987	
0.0587013	
0.0567861	
-0.0234164	
-0.0241635	
-0.0329699	
-0.0409515	
-0.0752003	
-0.0795502	
-0.073047	
-0.0761889	
0.018957	
0.02201	
0.0161266	
0.0210922	
-0.00204363	
0.0283009	
0.032673	
0.0265709	
0.00273029	
0.0606357	
0.0605291	
0.0497241	
0.0591271	
0.0343398	
0.0613708	
0.0609496	
-0.0877209	
-0.0827141	
-0.087494	
-0.0850449	
-0.0528469	
-0.0522192	
-0.044506	
-0.0368333	
-0.00657586	
-0.0770042	
-0.0743995	
-0.0692198	
-0.0688115	
0.0254689	
0.0137243	
0.0175332	
0.00932037	
0.0336877	
0.0362089	
0.0212635	
0.0285246	
0.0249382	
0.0282538	
0.0137559	
0.0560656	
0.0434916	
0.0583384	
0.0603369	
0.0367237	
0.0388155	
0.0469985	
0.0574768	
0.0594511	
0.0413713	
0.0525688	
0.0404211	
0.0573559	
0.0602847	
0.0441888	
0.0569045	
0.0449544	
0.00666804	
0.0150877	
0.0581849	
0.0459651	
0.0179555	
0.0261716	
0.0186032	
0.0447146	
0.0430595	
0.0579372	
0.0462867	
0.0593459	
0.0520234	
0.0554657	
0.00648857	
0.00856874	
0.0549807	
0.0577314	
0.046538	
0.0543452	
0.0426532	
0.055745	
0.0517564	
0.0601953	
0.0575231	
0.0434114	
0.0489552	
0.0421789	
0.0439108	
0.0567903	
0.0528131	
0.0576298	
0.0600468	
0.0333734	
0.0603209	
0.0398656	
0.0446203	
0.0458537	
0.0318149	
0.0309113	
0.0297628	
0.0254769	
0.0571126	
0.0592644	
0.0372244	
0.0282326	
-0.00937994	
-0.01431	
-0.00603653	
0.0169141	
-0.0133978	
0.0524066	
0.0295322	
0.0300436	
0.0526786	
0.0562155	
0.026315	
0.0313478	
-0.0280556	
-0.0374488	
-0.0218952	
0.0194581	
0.0323898	
0.0434043	
0.0481128	
0.055106	
0.0441185	
0.0462815	
-0.0790897	
-0.0811111	
-0.0755337	
-0.0773054	
0.0546788	
0.0513788	
0.0400707	
0.0456163	
-0.0266771	
0.0412404	
0.0444823	
0.0271389	
0.0402949	
0.057597	
0.0367197	
0.0331022	
-0.0785687	
-0.0845324	
-0.0816606	
-0.0850549	
0.0459614	
0.0546488	
0.0435434	
0.0398049	
-0.0430051	
-0.0204309	
-0.0405448	
0.0459663	
0.0500202	
0.0365357	
0.0391077	
0.0477588	
0.0570927	
0.0464496	
-0.0297355	
-0.0458977	
-0.0195559	
-0.0117305	
0.0567835	
0.0610406	
-0.0011932	
0.0047186	
0.00439186	
0.0470756	
0.0579476	
0.0611405	
-0.0118985	
-0.0356234	
-0.022695	
-0.0422725	
-0.0392375	
-0.04577	
-0.0450873	
-0.0378038	
-0.0306008	
0.0201922	
-0.0224783	
-0.0323404	
0.0572123	
0.059066	
0.0579871	
0.0598754	
0.0558252	
0.0586202	
0.0477844	
0.043054	
0.0346548	
0.0566606	
0.0535289	
0.0442836	
0.0575852	
0.0597372	
0.0547395	
0.0141819	
-0.0272307	
-0.0368236	
-0.0220905	
-0.0304818	
0.00977349	
-0.00452441	
-0.00911715	
0.0460499	
0.0605182	
0.0423118	
0.0581916	
0.0499735	
0.0476189	
0.05927	
0.0267645	
0.0275473	
-0.0433945	
-0.0515926	
-0.0562257	
-0.00198656	
-0.00142366	
0.0290291	
0.0175201	
0.0249953	
0.0130364	
0.0565398	
0.0466524	
0.0611852	
0.0470766	
0.0584785	
0.0607368	
0.00819711	
0.00910769	
0.0593813	
0.0546852	
0.0574731	
0.0461869	
0.057951	
0.0601906	
0.0460369	
0.0564757	
0.0459388	
0.0558246	
0.0567534	
0.0582768	
0.0135638	
0.017038	
0.0511239	
0.0490055	
0.0150563	
0.0148008	
0.0589017	
0.0478252	
0.0422284	
0.0442429	
-0.0325634	
-0.0229676	
0.0615959	
0.0481214	
0.0588059	
0.0608907	
0.0565033	
-0.0107049	
-6.54638e-05	
-0.0437385	
-0.0519795	
0.0399069	
0.0370073	
0.0288211	
0.0291588	
-0.00871594	
0.0162713	
-0.0116197	
-0.0151127	
0.0110447	
0.01018	
0.0203488	
0.024195	
-0.0419079	
-0.029578	
0.00538805	
0.000806146	
-0.00864883	
-0.00818866	
-0.0169011	
-0.00893235	
0.00469343	
-0.000201549	
-0.0331774	
-0.0262568	
-0.018341	
-0.0151431	
-0.011694	
-0.0266656	
-0.0529205	
-0.051557	
-0.0625642	
-0.0660558	
0.00471763	
0.0133397	
0.00173943	
0.0122228	
0.0481227	
0.0588106	
-0.0138309	
-0.00895906	
-0.00125862	
-0.0053619	
0.00289003	
0.00784683	
0.0122843	
0.0194265	
0.0214361	
0.0163355	
-0.01436	
-0.0115623	
-0.00836119	
-0.000832808	
-0.00468097	
0.00380413	
0.0191967	
0.0224043	
0.0125898	
0.0164318	
0.00857702	
-0.0119113	
0.0151805	
0.0109214	
0.00134304	
-0.00446798	
0.00626163	
-0.0114139	
-0.0143699	
-0.0162194	
-0.0162022	
-0.0085121	
0.0191129	
0.0175462	
0.0139504	
0.0054977	
0.00992653	
0.000452147	
-0.0153159	
-0.0137981	
-0.0110377	
-0.00796023	
-0.00430017	
0.0216084	
0.0101849	
0.0215677	
0.0104544	
0.0718747	
0.0259923	
0.0694718	
0.0146593	
0.0704229	
0.0697147	
0.0689976	
0.0695256	
0.01607	
0.0697342	
0.0434682	
-0.00324437	
-0.00639652	
0.00681182	
0.00196816	
0.0151851	
0.0690786	
0.0679405	
0.0664656	
0.0721456	
0.0618951	
0.0485521	
0.0103032	
0.0339173	
0.030078	
0.0275205	
0.00642558	
0.0368643	
0.0324058	
0.0300995	
0.0350036	
0.0156323	
0.0282017	
0.0242076	
0.0407369	
0.039083	
0.0505417	
0.0727391	
0.0748702	
0.0687973	
0.0393202	
0.0656268	
0.0692878	
0.0640994	
0.0682355	
0.0729221	
0.0699102	
0.0091733	
0.00974164	
0.00748777	
0.00392537	
0.0116763	
0.00771713	
0.00878034	
0.0687301	
0.0640027	
0.0716885	
0.0718343	
0.0709348	
0.0624979	
0.0642633	
0.0725792	
0.0724081	
0.0673518	
0.0721913	
0.0735084	
0.0737963	
0.0390664	
0.0734387	
0.0737252	
0.0699145	
0.0734731	
0.0273502	
0.0688246	
0.0737932	
0.00321093	
0.000904107	
0.00216115	
0.0108401	
0.0110645	
0.0111601	
0.0675277	
0.0582482	
0.0522458	
0.0584893	
0.0195552	
0.0241695	
0.0415067	
0.0447288	
0.0705575	
0.0708246	
0.00548593	
0.00404504	
0.0053148	
0.00538182	
0.0735091	
0.0740195	
0.0657325	
0.0625693	
0.0583183	
0.0110195	
0.00890167	
0.00839299	
0.00989733	
0.0690826	
0.0704892	
0.0686285	
0.0689034	
0.0684386	
0.0513806	
0.0467149	
0.0734732	
0.026556	
0.0240784	
0.0725194	
0.0707015	
0.0711812	
0.0699419	
0.00776636	
0.00654137	
0.0245112	
0.0719401	
0.0575969	
0.0585616	
0.0722342	
0.0712017	
0.0423968	
0.0350329	
0.0658651	
0.0654022	
0.0491878	
0.039123	
0.0340402	
0.0650677	
0.0307086	
0.0338163	
0.0689604	
0.0680062	
0.0706516	
0.0701143	
0.0644968	
0.0616197	
0.0561712	
0.0571156	
0.0571028	
0.0534802	
0.0708186	
0.0447586	
0.0493604	
0.0498988	
0.0547189	
0.0470445	
0.0189258	
0.0740776	
0.0739443	
0.069271	
0.0625792	
0.0669094	
0.0425704	
0.0670112	
0.0264143	
0.00127798	
-0.0015083	
0.0179814	
0.0118679	
0.022367	
0.0372836	
0.0443879	
0.0668338	
0.0675406	
0.0602212	
0.0658894	
0.0660411	
0.0131153	
0.0193406	
0.0169474	
0.0233217	
0.0184955	
0.0729059	
0.0674379	
0.0618896	
0.0652823	
0.0712213	
0.071062	
0.0639019	
0.0631043	
0.0648132	
0.0705166	
0.0707099	
0.0733987	
0.0719754	
0.0747426	
0.0723755	
0.0732088	
0.0717455	
0.0727915	
0.0740473	
0.0139467	
0.000974615	
0.049616	
0.0583431	
0.0489417	
0.0538443	
0.0530886	
0.0485335	
0.057033	
0.0248187	
0.0353026	
0.0270952	
0.0217928	
0.0291352	
0.0706029	
0.069658	
0.0710674	
0.0273677	
0.0326877	
0.0329335	
0.0359749	
0.0680787	
0.0670909	
0.0630428	
0.0700593	
0.0601486	
0.0608045	
0.0673772	
0.0713708	
0.0715404	
0.062099	
0.0146636	
0.0107613	
0.07027	
0.0705217	
0.063244	
0.0657478	
0.00834268	
0.0051108	
0.0043994	
0.0445501	
0.0481289	
0.0455261	
0.070669	
0.0710551	
0.012551	
0.0105084	
0.0711961	
0.00385511	
0.0112999	
0.00975638	
0.00994628	
0.0258641	
0.028668	
0.0218068	
0.0445577	
0.0445963	
0.0393797	
0.0276899	
0.0703251	
0.0104623	
0.010987	
0.013318	
0.0616603	
0.0563569	
0.0245847	
0.0203181	
0.0049292	
0.010099	
0.0289306	
0.0281346	
0.0602989	
0.0643905	
0.0636842	
0.0647745	
0.0666056	
0.0675405	
0.0599102	
0.0599784	
0.0628935	
0.0076872	
0.00620038	
0.00489895	
0.00711505	
0.00697814	
0.0535234	
0.0465547	
0.0470632	
0.0135826	
0.0178814	
0.0141735	
0.0141213	
0.0179594	
0.0119201	
0.00428774	
0.00681986	
0.00665428	
0.00548215	
0.00341338	
0.0381017	
0.0418419	
0.0387518	
0.0745161	
0.0733678	
0.0542963	
0.0531127	
0.0575937	
0.0500733	
0.0573817	
0.0543521	
0.071261	
0.07103	
0.0605435	
0.0629031	
0.0617248	
0.0386266	
0.0443149	
0.0426687	
0.046863	
0.0723467	
0.0703097	
0.0721609	
0.0732445	
0.0719629	
0.0722528	
0.0730867	
0.0703744	
0.0721681	
0.0168655	
0.012415	
0.0102394	
0.0474592	
0.0119176	
0.0625082	
-0.00222511	
0.00100211	
0.0100428	
0.0115497	
0.0115366	
0.00972147	
0.0737018	
0.0134095	
0.0104631	
0.0134542	
0.010174	
0.00290145	
0.00224214	
0.0668874	
0.0642429	
0.0675009	
0.0244643	
0.0219855	
0.0214367	
0.0174461	
0.064191	
0.0647333	
0.0631715	
0.0163732	
0.0181376	
0.0675995	
0.0699732	
0.0681109	
0.0703289	
0.0384146	
0.0346699	
0.0288719	
0.0728528	
0.0741045	
-0.00329135	
-0.00267532	
0.0122082	
0.0146791	
0.0252087	
0.0199185	
0.0292089	
0.0230889	
0.0732792	
0.0698555	
0.0700837	
0.0544933	
0.0507358	
0.045811	
0.012118	
0.00713485	
0.0100585	
0.0728183	
0.0718134	
0.0740645	
0.0207463	
0.017399	
0.0139941	
0.00676255	
0.0096092	
0.00331957	
0.00396288	
0.0177241	
0.013618	
0.020017	
0.0170334	
0.0690215	
0.0710635	
0.0709703	
0.0693526	
0.0719194	
0.0718113	
0.0713385	
0.072597	
0.0526474	
0.0559911	
0.0670071	
0.0630797	
0.072391	
0.0736352	
0.0695203	
0.0720284	
0.0719383	
0.00937575	
0.0106833	
0.0133692	
0.014766	
0.0601797	
0.0128052	
0.0156977	
0.01384	
0.0164773	
0.0533471	
0.0512041	
0.0232237	
0.0259808	
0.0177168	
0.0731931	
0.0736383	
0.0703789	
0.0563575	
0.061099	
0.0601407	
0.051683	
0.0555565	
-0.000615215	
0.000543768	
0.00978866	
0.00973895	
0.0664996	
0.0627625	
0.0645073	
0.0195157	
0.0241906	
0.0455342	
0.0479264	
0.0143205	
0.0129221	
0.0735338	
0.0731326	
0.0722247	
0.073894	
0.0740961	
0.019429	
0.0295541	
0.0189868	
0.022933	
0.0620277	
0.0325599	
0.0363337	
0.0625061	
0.0665926	
0.0630359	
0.0680065	
0.0728576	
0.0733066	
0.074423	
0.0445067	
0.0707094	
0.0722802	
0.0722284	
0.0704477	
0.0701736	
0.0688151	
0.0168211	
0.0198413	
0.0701337	
0.0718686	
0.0454284	
0.039576	
0.0645677	
0.0645503	
0.0682011	
0.0665777	
0.0681114	
0.0702974	
0.0641234	
0.0628161	
0.0689262	
0.0679573	
0.0706355	
0.0722302	
0.0730845	
0.0705055	
0.0721419	
0.0322527	
0.0321723	
0.0556971	
0.0570133	
0.0599988	
0.0630392	
0.025465	
0.0291021	
0.0354378	
0.0554206	
0.0718749	
0.0720096	
0.0734038	
0.0738127	
0.0729864	
0.0743562	
0.072917	
0.0706488	
0.056919	
0.0533752	
0.0738515	
0.0581968	
0.069834	
0.0652675	
0.0713696	
0.0685884	
0.0717934	
0.0721945	
0.0728819	
0.0732203	
0.00965693	
0.0120276	
0.00963396	
0.010296	
-0.00717476	
-0.00576885	
-0.00210707	
-0.00354607	
0.069738	
0.0747406	
0.0740129	
0.0737177	
0.0731862	
0.0726984	
0.0734923	
0.0728162	
0.0728681	
0.0708367	
0.0719047	
0.0685767	
0.0685941	
0.0736211	
0.0743038	
0.0739144	
0.0735764	
0.0709968	
0.0735272	
0.0728124	
0.0726039	
0.0124792	
0.0108466	
0.0103636	
0.0626633	
0.0640635	
0.0572775	
0.0544808	
0.0660318	
0.0651177	
0.0690505	
0.0672282	
0.0703579	
0.0645511	
0.0682028	
0.0706227	
0.014304	
0.0119802	
0.0111925	
0.0565175	
0.0579516	
0.0720328	
0.0715667	
0.0100912	
0.0638521	
0.0627911	
0.0720522	
0.0707652	
0.072953	
0.0725379	
0.073024	
0.0674756	
0.0685829	
0.0739	
0.07292	
0.0622956	
0.0590071	
0.0603342	
0.0601118	
0.0700519	
0.0735722	
0.0734197	
0.0687713	
0.0670273	
0.0717351	
0.0736768	
0.0703754	
0.0737291	
0.0731671	
0.066456	
0.0450513	
0.0724257	
0.0728903	
0.0736927	
0.0734016	
0.066369	
0.0674558	
0.0665789	
0.0679958	
0.0729782	
0.071546	
0.0575779	
0.0696494	
0.0675305	
0.0586959	
0.0608916	
0.0613139	
0.073321	
0.0734817	
0.0710326	
0.0725764	
0.0675301	
0.0684165	
0.0718706	
0.071959	
0.0734055	
0.0730976	
0.0694103	
0.0723742	
0.0551075	
0.056184	
0.0545731	
0.0704363	
0.0697485	
0.0686496	
0.0722123	
0.0733654	
0.0735749	
0.0127558	
0.0177273	
0.0109385	
0.0126377	
0.0733737	
0.0741712	
0.0146673	
0.0115845	
0.0609096	
0.0614526	
0.0407583	
0.0606093	
0.074064	
0.0704329	
0.0741633	
0.0312346	
0.0362086	
0.0343403	
0.039396	
0.0405128	
0.0652121	
0.0627405	
0.0732194	
0.0740603	
0.0680709	
0.0702196	
0.0651973	
0.0673422	
0.045621	
0.0523035	
0.0349563	
0.0368141	
0.0397195	
0.0449039	
0.0718131	
0.0714474	
0.0483147	
0.0454871	
0.0420855	
0.0382647	
0.0362466	
0.0313497	
0.0405856	
0.0324624	
0.0705024	
0.0681068	
0.0685458	
0.0662135	
0.0659695	
0.0638791	
0.0669413	
0.0633619	
0.0613835	
0.0736861	
0.0745241	
0.0490748	
0.0484953	
0.0281903	
0.0364809	
0.0704469	
0.025858	
0.0212224	
0.0210111	
0.0382052	
0.03485	
0.0382333	
0.0740323	
0.0701285	
0.0737824	
0.0690146	
0.0689988	
0.0727225	
0.0728462	
0.073451	
0.0543324	
0.0510766	
0.0600589	
0.0591168	
0.0318256	
0.0366729	
0.0535073	
0.0556928	
0.0471654	
0.0475676	
0.0677964	
0.0687217	
0.0675264	
0.0680307	
0.056335	
0.0543649	
0.0613541	
0.0622391	
0.056938	
0.0535962	
0.0561806	
0.0591539	
0.0524392	
0.0556594	
0.0583213	
0.0562554	
0.072012	
0.0726986	
0.0696092	
0.073568	
0.0275606	
0.0349428	
0.0717222	
0.0719429	
0.0734082	
0.0693881	
0.0530558	
0.0531076	
0.0711262	
0.0721074	
0.067942	
0.0726923	
0.0336897	
0.0326371	
0.0734259	
0.0737283	
0.0735524	
0.0688726	
0.0628298	
0.061792	
0.0695554	
0.0715212	
0.0126722	
0.0107301	
0.0130652	
0.010754	
0.0539102	
0.0517941	
0.0727371	
0.0752771	
0.0728641	
0.0728909	
0.0720561	
0.0737252	
0.0724604	
0.0721914	
0.0723019	
0.073334	
0.0724818	
0.0545887	
0.0572106	
0.0710686	
0.0716179	
0.0734662	
0.0733828	
0.0734496	
0.0707602	
0.0550546	
0.0491024	
0.0533514	
0.0454035	
0.068021	
0.0727961	
0.0714026	
0.0720579	
0.0439834	
0.0473598	
0.0192379	
0.0150154	
0.0192549	
0.0153045	
0.0483021	
0.0444085	
0.0455145	
0.0400557	
0.0394437	
0.0619548	
-0.0630368	
0.0607994	
0.0607787	
-0.0672918	
-0.0827143	
-0.0882571	
-0.0785942	
0.0608093	
0.0603631	
0.0590988	
0.0587814	
0.0593956	
-0.038825	
0.0442526	
-0.0367595	
-0.0392168	
-0.0368387	
0.0616108	
0.0612046	
0.0584889	
-0.0701872	
-0.0539856	
-0.073325	
-0.0292217	
-0.0457301	
-0.0435725	
-0.0211874	
-0.0645021	
-0.0561695	
-0.0419815	
-0.0789043	
0.0612264	
0.0541419	
0.0535828	
0.0374616	
0.037502	
-0.0587449	
-0.00992373	
-0.0211317	
-0.0100601	
-0.0843051	
-0.0802161	
-0.0874209	
-0.0857986	
-0.0874289	
-0.0858823	
-0.087443	
-0.0833549	
-0.0866017	
-0.00109112	
0.00958527	
-0.0759114	
-0.0579282	
0.0403031	
0.0149529	
0.0185928	
-0.0095143	
0.00455677	
-0.0115538	
0.0018656	
0.0432591	
0.0422581	
0.0418315	
0.0423251	
0.0419021	
0.0457148	
0.0344441	
0.0415978	
0.0440465	
0.0511137	
-0.0731577	
0.034532	
-0.000725458	
0.0330766	
-0.0834668	
-0.088221	
-0.0636671	
-0.0653213	
-0.0691322	
-0.0881862	
0.00991768	
-0.00164884	
-0.0243449	
-0.00827305	
-0.0264195	
0.0249497	
0.017878	
0.0276794	
-0.0300065	
0.0243165	
0.0265249	
0.0213473	
-0.088518	
-0.0883897	
-0.0885361	
-0.0883852	
0.02349	
-0.074933	
-0.0737035	
-0.0767831	
-0.0816266	
-0.0862393	
-0.0861659	
-0.0852431	
-0.0833899	
0.0148885	
-0.010807	
-0.0524736	
-0.0370608	
-0.0755903	
0.0054454	
0.0298634	
0.0338697	
0.0179342	
0.0161591	
-0.0531178	
0.0258542	
0.0299055	
0.0205567	
0.0295094	
-0.0711053	
-0.0619574	
-0.0575661	
-0.0229443	
-0.0318816	
-0.0318191	
0.0330812	
-0.0181974	
-0.0129838	
-0.0805615	
-0.0871312	
-0.0843961	
-0.0531189	
-0.0647009	
0.0457461	
0.0401698	
0.0278707	
-0.0645191	
-0.0716269	
-0.0655011	
-0.0562802	
-0.0679924	
-0.0066971	
-0.0167103	
-0.0172244	
-0.00999462	
0.0364396	
-0.0448381	
-0.0546126	
-0.0827524	
-0.0878054	
0.039979	
0.0475327	
-0.0822351	
-0.0737224	
-0.0760008	
0.0111511	
0.0117252	
0.012209	
0.00162268	
-0.0340914	
-0.0228683	
-0.00577259	
0.00527569	
-0.00574891	
0.00200047	
-0.00836568	
-0.0363198	
-0.0250752	
-0.0338113	