<VTKFile type="UnstructuredGrid" version="0.1" byte_order="LittleEndian">
	<UnstructuredGrid>
		<Piece NumberOfPoints="1759" NumberOfCells="3358">
			<CellData Scalars="scalars">
				<DataArray type="Float64" Name="Doublet Strengths" NumberOfComponents="1" Format="ascii">
-0.137468	
-0.126056	
-0.140987	
0.0554214	
-0.118579	
0.0589834	
-0.0939995	
0.0558062	
0.0578412	
0.0567555	
0.0574811	
-0.0868009	
0.0564461	
-0.0808648	
-0.0499674	
-0.053292	
-0.0420167	
-0.0513025	
-0.0580378	
0.0563312	
0.0562181	
0.0543525	
0.0549406	
0.0516164	
0.0422502	
-0.0646639	
-0.103848	
-0.111172	
-0.115685	
-0.0552687	
-0.0851158	
-0.101952	
-0.0988005	
-0.0848307	
-0.115487	
-0.103994	
-0.11853	
-0.0990082	
-0.0781729	
-0.0786213	
-0.0678499	
0.0128971	
0.049569	
0.0543131	
0.0504451	
0.0253127	
-0.00878048	
-0.0436981	
-0.0110352	
0.0298512	
-0.130378	
-0.130568	
-0.122953	
-0.127354	
-0.133197	
-0.125977	
-0.129664	
0.00729605	
-0.0161607	
0.0304027	
0.050572	
0.0358884	
0.0299721	
0.0307213	
0.0347277	
0.0322705	
-0.013829	
-0.0276486	
0.0365638	
0.0366588	
0.0290918	
-0.095274	
0.0326967	
0.0315155	
-0.00210319	
0.0225535	
-0.114592	
0.010433	
0.0324504	
0.0186422	
-0.0955688	
-0.0948213	
-0.1013	
-0.138452	
-0.139737	
-0.140045	
-0.00294418	
0.00218545	
0.0139135	
0.0206254	
-0.100073	
-0.0845414	
-0.087689	
-0.0807081	
0.0242171	
0.0257181	
-0.125157	
-0.123085	
-0.120587	
-0.119148	
0.019728	
0.024416	
-0.0270191	
-0.0143252	
-0.0334749	
-0.133512	
-0.130657	
-0.132589	
-0.132871	
0.0142494	
0.00955777	
0.000254527	
-0.0054764	
-0.00440523	
-0.0689796	
-0.0706655	
0.0201	
-0.117083	
-0.121134	
0.0192208	
0.0234759	
0.0035962	
0.0118652	
-0.0732189	
-0.0922063	
-0.120954	
0.0103321	
-0.0291816	
-0.0346401	
-0.0398714	
-0.05339	
-0.0391154	
0.00712002	
0.0157759	
0.0116606	
0.0253846	
-0.021073	
-0.099182	
0.0343163	
-0.10087	
-0.106356	
0.00789949	
0.0156192	
0.0269559	
0.0329125	
-0.0278113	
-0.052447	
-0.0370164	
-0.0130466	
-0.00950739	
-0.023179	
-0.00496688	
-0.0776907	
0.0240379	
0.0296917	
-0.0450435	
-0.0674126	
-0.104921	
0.0392474	
0.027171	
-0.0184194	
-0.00840231	
-0.0194067	
-0.0856852	
0.0189837	
-0.112825	
-0.0640861	
-0.0785775	
-0.131642	
-0.139544	
-0.114151	
-0.056109	
-0.0780592	
-0.0281417	
0.00473032	
-0.00702695	
-0.120362	
-0.126855	
-0.130027	
-0.1204	
-0.127017	
-0.119425	
0.0527556	
-0.00751372	
-0.0152181	
-0.0262655	
0.0383294	
0.053844	
0.0346825	
0.0362669	
0.0495843	
0.0371585	
0.0518907	
0.0485035	
0.0494364	
0.0496048	
0.0550942	
0.0547851	
0.006693	
0.0521959	
0.0557308	
0.0556459	
0.0313879	
0.0327332	
-0.137338	
-0.0871678	
-0.0545398	
-0.0662761	
-0.0276956	
-0.0208803	
-0.0305481	
-0.0414093	
-0.0523832	
-0.110872	
-0.102481	
-0.0957076	
0.00990943	
0.0115287	
0.00366353	
-0.104591	
-0.115146	
-0.0986929	
-0.105078	
-0.0339163	
-0.0141411	
0.0076281	
-0.017607	
-0.034718	
-0.0420136	
0.023222	
0.0217571	
0.0209853	
0.0186456	
-0.116831	
-0.113048	
0.0175455	
0.0169794	
-0.0203715	
-0.0118567	
-0.111034	
-0.117614	
-0.117743	
-0.0717461	
-0.0599462	
-0.0500259	
0.0508486	
0.0505711	
-0.132391	
-0.135437	
-0.000148336	
-0.112765	
-0.137341	
-0.140371	
-0.139722	
-0.0768343	
-0.0783159	
-0.0704565	
-0.0767258	
-0.0860114	
-0.0753364	
0.0295422	
-0.135168	
-0.136341	
-0.135908	
-0.0088427	
-0.0215201	
-0.109808	
-0.101476	
-0.109457	
-0.100217	
-0.105283	
-0.102623	
0.00542452	
0.0188833	
-0.000936038	
-3.0664e-05	
0.0170578	
0.0111122	
-0.00662794	
0.00770019	
-0.00926756	
-0.128096	
-0.129158	
-0.128868	
-0.130718	
-0.13097	
-0.059585	
-0.0755272	
-0.0766251	
-0.136906	
-0.135794	
-0.130544	
-0.123586	
-0.127769	
-0.131748	
-0.0985871	
-0.103208	
-0.103706	
-0.110137	
-0.109576	
-0.0877127	
-0.0837833	
-0.078584	
0.0229917	
0.0409216	
0.0440377	
-0.00340111	
0.000189188	
0.0350841	
0.052292	
0.048458	
0.0509664	
0.0346466	
-0.090031	
-0.0832335	
0.0564009	
0.0522157	
0.0379345	
0.0381271	
0.0540304	
-0.000858728	
0.0201079	
0.000511022	
0.0205374	
-0.126706	
-0.134693	
-0.132194	
-0.0633777	
-0.131842	
0.0159864	
-0.0819019	
-0.0814212	
-0.141102	
-0.137882	
-0.133932	
-0.131529	
0.0351523	
-0.126447	
-0.122256	
-0.124645	
-0.120452	
-0.104893	
-0.102005	
0.00845844	
0.0137115	
-0.00474861	
-0.118083	
-0.112819	
-0.124053	
-0.116732	
0.0249924	
0.0244722	
-0.00526473	
-0.0937996	
-0.101317	
0.0014596	
0.0132419	
7.83831e-05	
0.011665	
-0.0810024	
-0.0750667	
-0.0900372	
0.0132947	
0.0258657	
-0.0559963	
-0.0654084	
-0.136291	
-0.139279	
-0.0252953	
-0.122241	
-0.114252	
-0.117118	
-0.109041	
0.0258075	
0.0337086	
0.0339257	
-0.00488633	
0.00204348	
-0.0178547	
-0.107349	
-0.113642	
-0.115426	
0.0255015	
0.0131386	
0.00466162	
-0.128019	
-0.122939	
-0.132648	
-0.105931	
-0.110619	
-0.05337	
-0.0768619	
-0.0862657	
-0.137058	
-0.131923	
-0.132687	
-0.128277	
0.00398102	
0.0155459	
0.0497385	
0.0277492	
-0.00467591	
0.0225231	
0.0212308	
0.0334205	
0.0250636	
-0.052764	
-0.0622183	
0.047268	
0.0530206	
0.0562331	
0.0339122	
0.048056	
0.0208048	
0.0208867	
-0.0788184	
-0.0869237	
-0.0763826	
-0.0847595	
0.0364535	
-0.128094	
-0.133796	
-0.127967	
-0.132096	
-0.0611158	
-0.0542195	
-0.115977	
-0.126929	
-0.12998	
0.0222693	
0.0262816	
0.0558865	
-0.0435394	
-0.0329702	
-0.0389662	
-0.0455983	
-0.0565554	
-0.0913042	
-0.0909363	
-0.140139	
-0.141044	
0.00901816	
0.00345804	
-0.119893	
-0.12762	
-0.0415168	
-0.047783	
-0.0396783	
-0.0469438	
-0.0361276	
0.0216946	
0.00994128	
0.0100604	
0.0224172	
0.0301311	
-0.0525366	
-0.0605705	
-0.0602412	
-0.0701115	
-0.0111908	
-0.0986745	
-0.106106	
-0.0210984	
-0.0397858	
-0.0169909	
-0.0290998	
0.0526089	
0.0349538	
0.039625	
0.0223291	
0.0280523	
0.054126	
0.0573618	
0.0123093	
0.012797	
-0.00770134	
-0.000555309	
-0.127941	
-0.13275	
0.0545637	
0.0578627	
0.034318	
0.0368464	
-0.0667111	
-0.0259818	
0.0521749	
0.0555704	
0.056926	
0.0522328	
0.0488753	
0.0552614	
0.0532505	
0.0575993	
0.0268626	
0.00810497	
0.0153553	
0.00525774	
-0.098333	
-0.096827	
-0.0510866	
-0.0561841	
-0.0326439	
-0.0250792	
-0.0825472	
-0.0900021	
-0.0864457	
-0.0553043	
0.00587623	
0.00425493	
0.0204049	
0.0160753	
0.0369298	
0.0269796	
0.0492491	
0.0569494	
0.0196883	
0.020834	
0.0251251	
0.0484653	
0.0571969	
0.0562386	
0.0561477	
0.00758075	
0.00426063	
0.0374645	
0.028159	
-0.139856	
-0.141249	
-0.13954	
-0.141136	
-0.0615272	
-0.0606337	
-0.0748623	
-0.0749957	
0.0576009	
0.0327142	
0.0495464	
0.0301012	
0.0326308	
0.0343529	
0.0518481	
0.0303098	
0.0120452	
0.0116079	
0.00481451	
0.0380448	
0.0329442	
0.0505211	
0.0362262	
0.033908	
0.0363371	
0.032561	
0.0310225	
-0.135417	
-0.1356	
-0.138392	
-0.00858745	
-0.0124232	
-0.0440854	
-0.0250346	
-0.0092689	
-0.02968	
-0.00240853	
-0.00489236	
-0.0142602	
-2.47671e-05	
-0.028198	
-0.133813	
-0.137383	
-0.136378	
0.0287656	
0.0286525	
0.0376539	
0.0527289	
-0.139847	
-0.0298263	
-0.0265722	
0.0538588	
0.0502471	
0.0385225	
0.0321521	
0.0530284	
0.0176735	
0.0126955	
0.0535821	
0.0499431	
-0.0350658	
-0.0465209	
0.0576882	
0.051852	
0.0368041	
0.0551081	
0.0519831	
0.0517491	
0.0558085	
0.0555094	
-0.0233332	
0.0158511	
0.0337557	
0.0164731	
0.0106279	
0.0319176	
0.0324429	
0.0548676	
0.0515575	
-0.0263628	
0.0329988	
0.0147855	
0.0312583	
0.0480961	
0.0502839	
0.0185339	
0.0146372	
0.00894886	
-0.00285085	
-0.0140598	
-0.00952305	
0.0514354	
0.0226175	
0.0383069	
0.0182581	
0.0365586	
0.0124371	
0.0247851	
0.0267274	
0.0529226	
0.0571361	
0.0429505	
0.0332981	
0.0475075	
-0.00138542	
0.0541098	
0.0509342	
-0.00374265	
0.0509024	
-0.129717	
-0.137777	
-0.134814	
-0.137074	
0.0171167	
-0.136306	
-0.134063	
-0.0409285	
0.0275916	
0.0565393	
0.048824	
-0.0934015	
-0.107051	
-0.088372	
-0.0919023	
0.0584884	
0.0518672	
0.0499026	
0.0404067	
0.0159208	
-0.0225333	
-0.0318338	
0.00700294	
0.00182511	
0.0280604	
0.00564748	
-0.0125486	
-0.00278557	
-0.0153736	
-0.00708998	
0.0227077	
0.0149688	
-0.0921806	
-0.084069	
-0.101824	
-0.0979577	
0.0287279	
0.0347291	
0.0366759	
0.0427025	
-0.0146634	
0.00672088	
-0.0146558	
-0.0312296	
-0.0294533	
-0.0501786	
-0.0491519	
-0.0588517	
-0.0612802	
-0.0669655	
0.0534294	
0.046646	
0.0350368	
0.0322469	
0.0517019	
0.0498287	
0.0541967	
0.050877	
0.0381973	
0.0494527	
0.0573069	
0.031229	
0.0276608	
0.0557974	
0.0353968	
0.0362298	
0.0493314	
-0.0232612	
-0.0425572	
-0.036048	
-0.0613338	
-0.0673655	
-0.0705478	
-0.0206748	
0.0350942	
0.0492677	
0.0568215	
0.0295403	
0.0372011	
0.0370517	
0.0573573	
0.0366374	
-0.0575134	
-0.0660704	
0.0467302	
0.0356496	
0.00472578	
0.00139189	
-0.0101502	
-0.00654945	
-0.0375525	
-0.0418404	
-0.0452273	
-0.0640831	
-0.0516253	
-0.0660672	
-0.0329501	
-0.0362667	
-0.0243397	
-0.0199425	
-0.042678	
-0.0543473	
-0.0615477	
0.0552264	
0.0517862	
0.0374455	
0.033325	
0.0455976	
0.034866	
-0.017613	
-0.0151077	
0.0560081	
0.0480191	
0.0522049	
0.0351668	
0.0476012	
0.0561763	
0.0327586	
0.052831	
0.0500769	
0.057462	
-0.0181473	
-0.0157888	
0.0495863	
0.0575479	
0.0393356	
0.0499634	
0.0504132	
0.0543365	
-0.139234	
-0.137333	
-0.138633	
-0.137665	
-0.0342551	
0.0131491	
0.0121696	
0.0493659	
0.0503306	
0.054935	
0.0101908	
0.00715713	
0.0381023	
0.0533568	
-0.04625	
-0.0504174	
-0.082174	
-0.000683586	
0.0135169	
0.0164358	
-0.0848759	
-0.0741993	
0.00620554	
-0.00430835	
0.04947	
0.0557186	
-0.0580606	
-0.0385106	
-0.065293	
-0.0585866	
-0.00401694	
-0.00172488	
-0.0148072	
-0.0088721	
-0.0218315	
-0.0165418	
-0.034032	
-0.0247289	
-0.0357565	
-0.0389335	
0.0536116	
0.0426684	
0.0587607	
0.0507199	
0.0730712	
0.0763311	
0.0738601	
0.0739111	
0.0743661	
0.0648139	
0.0634883	
0.0693642	
0.0737229	
0.0727871	
0.071239	
0.0709557	
0.0708657	
0.0709096	
0.0247114	
0.0491301	
0.0715529	
0.0732346	
0.0174846	
0.00779187	
0.0148463	
0.0705232	
0.0727062	
0.0694806	
0.0758184	
0.0790839	
0.0717968	
0.0212914	
0.0329514	
0.0824157	
0.0862732	
0.0591576	
0.0631126	
0.0808568	
0.0638351	
0.0912099	
0.0734673	
0.0641985	
0.064994	
0.0872403	
0.0878428	
0.0701181	
0.0499441	
0.0862675	
0.0874196	
0.0891684	
0.0569345	
0.0595675	
0.0564314	
0.0585443	
0.0610561	
0.0609213	
0.0871809	
0.0906669	
0.0603112	
0.0558129	
0.0590988	
0.0891473	
0.0898612	
0.0686394	
0.067904	
0.0917797	
0.0915043	
0.085072	
0.0855463	
0.0809729	
0.0800485	
0.0838859	
0.0816881	
0.0816201	
0.0879428	
0.0862485	
0.084659	
0.0839365	
0.0668753	
0.0695189	
0.0890415	
0.0911973	
0.0891733	
0.0661314	
0.0629775	
0.0353845	
0.0309781	
0.0351439	
0.063269	
0.0907061	
0.0915286	
0.0860549	
0.0881934	
0.0721528	
0.0878325	
0.0870812	
0.0875897	
0.0587758	
0.080635	
0.0842829	
0.0768073	
0.0592318	
0.0612416	
0.0594234	
0.0603481	
0.0881941	
0.0460926	
0.0457818	
0.0426074	
0.0578797	
0.0569077	
0.0602894	
0.0571728	
0.0574307	
0.0406912	
0.0903001	
0.054779	
0.0594002	
0.0781231	
0.073493	
0.0749021	
0.0853438	
0.0855228	
0.0661594	
0.0853058	
0.0850991	
0.0892207	
0.0729996	
0.06879	
0.0740509	
0.0850957	
0.0841233	
0.0846378	
0.0853173	
0.0674273	
0.0637346	
0.0635005	
0.0352249	
0.0375679	
0.0896362	
0.0450075	
0.0491765	
0.0626491	
0.0632293	
0.0660944	
0.0804169	
0.0758284	
0.0773074	
0.0351696	
0.0872474	
0.0197843	
0.0214158	
0.0672152	
0.0639476	
0.0838134	
0.0872664	
0.0589979	
0.0647726	
0.069478	
0.0885448	
0.0885121	
0.0887235	
0.0837631	
0.0806277	
0.0850084	
0.0876085	
0.0866258	
0.0864363	
0.0880108	
0.0844522	
0.0696431	
0.0814759	
0.0548697	
0.054374	
0.0790562	
0.0735773	
0.0781259	
0.0782876	
0.0768007	
0.082558	
0.0825928	
0.0753194	
0.0813941	
0.0626829	
0.0600956	
0.0778945	
0.0764112	
0.0813681	
0.0811316	
0.0641946	
0.0649592	
0.0300101	
0.0911097	
0.0911971	
0.0911585	
0.0848725	
0.0893091	
0.0908111	
0.0780188	
0.0764704	
0.0781626	
0.0914929	
0.0906025	
0.0830598	
0.0706117	
0.0722003	
0.063753	
0.0684959	
0.062	
0.0757985	
0.0908589	
0.0904084	
0.0859962	
0.0836004	
0.0671856	
0.0719829	
0.0727634	
0.0892199	
0.0904769	
0.0896772	
0.0837996	
0.0836701	
0.0813977	
0.0825433	
0.0803439	
0.0806362	
0.0519085	
0.0533611	
0.0497575	
0.0878176	
0.0827436	
0.0825667	
0.0874037	
0.0894266	
0.0908814	
0.0642972	
0.0610555	
0.0607128	
0.0362818	
0.0835551	
0.0836555	
0.0870871	
0.0867851	
0.0890509	
0.088238	
0.074902	
0.0746965	
0.0713757	
0.0859389	
0.0864576	
0.0920509	
0.0920015	
0.0619203	
0.079625	
0.0542342	
0.0472245	
0.0482901	
0.0464395	
0.0419185	
0.0882451	
0.090092	
0.0897032	
0.0884846	
0.0874701	
0.0848511	
0.0637397	
0.0887756	
0.0894748	
0.0881678	
0.087586	
0.0911552	
0.0893882	
0.0598895	
0.0573224	
0.0553146	
0.0530099	
0.0618858	
0.058416	
0.0578992	
0.0597777	
0.0591234	
0.0877056	
0.0880573	
0.0694508	
0.07414	
0.0725964	
0.0783418	
0.0790139	
0.0778097	
0.0799022	
0.0788931	
0.0813345	
0.0771728	
0.0897314	
0.0906723	
0.0901504	
0.0893852	
0.0899707	
0.0893608	
0.0900019	
0.0777062	
0.0730836	
0.0757214	
0.0767184	
0.0785739	
0.0906276	
0.0814209	
0.0680534	
0.0651076	
0.0677152	
0.0647877	
0.0892631	
0.0873617	
0.0898456	
0.0665576	
0.0622262	
0.0635783	
0.0877742	
0.0832884	
0.072979	
0.0775868	
0.074745	
0.0794367	
0.0818916	
0.0763777	
0.0816611	
0.0722678	
0.0765387	
0.0724796	
0.0408906	
0.04233	
0.0418439	
0.0478734	
0.0531261	
0.0477609	
0.0744707	
0.0779882	
0.0819356	
0.0819415	
0.0905791	
0.089257	
0.0907685	
0.0272254	
0.0225562	
0.0632928	
0.0667326	
0.054893	
0.0581893	
0.0561514	
0.0579952	
0.0606162	
0.0626686	
0.0611511	
0.0632581	
0.0626824	
0.0642244	
0.0889495	
0.0752338	
0.0749274	
0.0709868	
0.0362934	
0.0257379	
0.0286604	
0.0441193	
0.0900471	
0.0892315	
0.0895099	
0.0862537	
0.0789909	
0.089526	
0.0890961	
0.0720363	
0.0695416	
0.0713998	
0.0667994	
0.0370449	
0.0369651	
0.0899926	
0.0878943	
0.0627738	
0.0797497	
0.0777393	
0.0506705	
0.0517137	
0.0562042	
0.0555498	
0.0718674	
0.0447975	
0.0417889	
0.0414496	
0.0381369	
0.014629	
0.0121191	
0.0641621	
0.0654664	
0.0907999	
0.0915284	
0.0914749	
0.072657	
0.0701673	
0.0760413	
0.0706986	
0.066139	
0.0641457	
0.0627996	
0.053356	
0.0500508	
0.0657728	
0.0629989	
0.0883334	
0.090016	
0.0815404	
0.0816308	
0.0821463	
0.0827016	
0.0259723	
0.0261843	
0.0336871	
0.0318623	
0.0671103	
0.064592	
0.0687136	
0.0679706	
0.0918602	
0.0915292	
0.0807662	
0.0837861	
0.0804951	
0.0833874	
0.0867318	
0.0800198	
0.0843105	
0.0678273	
0.0656603	
0.066983	
0.0741404	
0.0730233	
0.0788195	
0.0751142	
0.0728808	
0.0785379	
0.0648477	
0.0759844	
0.0723426	
0.0730757	
0.0710847	
0.075904	
0.0742168	
0.0731525	
0.0300501	
0.0279463	
0.0644557	
0.0632233	
0.0475491	
0.0465616	
0.0401902	
0.0422643	
0.0816799	
0.0914577	
0.0914559	
0.0770482	
0.0800324	
0.0381196	
0.0437752	
0.0483728	
0.0840914	
0.0802617	
0.0877548	
0.088441	
0.0861766	
0.0837945	
0.0867802	
0.0495279	
0.0452088	
0.0395075	
0.0910348	
0.0740374	
0.0655285	
0.0827088	
0.0768148	
0.0783699	
0.0752628	
0.0746326	
0.08556	
0.0483524	
0.0429982	
0.0916836	
0.0915624	
0.0411561	
0.0519359	
0.0462318	
0.0551594	
0.0752567	
0.0757788	
0.0700111	
0.0737847	
0.067791	
0.0688895	
0.0691988	
0.0737531	
0.0769302	
0.077307	
0.0719238	
0.076752	
0.0721605	
0.0763227	
0.0757344	
0.0711678	
0.0765558	
0.0687729	
0.0584519	
0.0609138	
0.0745077	
0.0672537	
0.0716985	
0.0847411	
0.0853208	
0.0820518	
0.0801684	
0.0620633	
0.0596456	
0.0616337	
0.0590682	
0.0909569	
0.0904225	
0.0860495	
0.0861568	
0.085352	
0.0900266	
0.0889921	
0.0904555	
0.0748953	
0.072412	
0.0740863	
0.0575216	
0.0708497	
0.0578773	
0.0718977	
0.0746749	
0.0634923	
0.067059	
0.0635525	
0.065085	
0.0186777	
0.0208939	
0.0113783	
0.00613467	
0.0783579	
0.0560227	
0.0555389	
0.0602085	
0.058651	
0.0906436	
0.0916917	
0.0916632	
0.0918418	
0.0873406	
0.0864639	
0.0889851	
0.0883697	
0.083586	
0.0834195	
0.0905592	
0.0739388	
0.0775332	
0.0711507	
0.0737801	
0.0619574	
0.0590593	
0.0586757	
0.0796943	
0.0770666	
0.0700192	
0.0683581	
0.0714555	
0.0786535	
0.0757585	
0.0849104	
0.0812548	
0.0851596	
0.0794624	
0.0808754	
0.0758567	
0.0810402	
0.0686825	
0.0678119	
0.0666147	
0.0721368	
0.073539	
0.0793924	
0.0838086	
0.0762939	
0.0803004	
0.0808668	
0.0837737	
0.0845277	
0.0780251	
0.0763978	
0.0805988	
0.0692098	
0.0726524	
0.0656209	
0.0712163	
0.0730664	
0.0772669	
0.0849767	
0.0821562	
0.0855754	
0.0744903	
0.0665771	
0.0726939	
0.0808367	
0.0774938	
0.0845894	
0.0754369	
0.0859121	
0.0853556	
0.084477	
0.0860326	
0.0887227	
0.0697117	
0.0707674	
0.0810441	
0.0781586	
0.0884835	
0.0903367	
0.0622683	
0.0692918	
0.0733435	
0.0531105	
0.0559273	
0.0630816	
0.0862457	
0.0855936	
0.0725911	
0.0663388	
0.0891337	
0.0879363	
0.04778	
0.0531109	
0.0534131	
0.0907515	
0.0856014	
0.0831487	
0.0803243	
0.08142	
0.0842228	
0.0828513	
0.0515205	
0.0544889	
0.0544855	
0.0570673	
0.065572	
0.0712383	
0.0864111	
0.0840039	
0.081356	
0.0793005	
0.0783479	
0.0869343	
0.0870019	
0.0801163	
0.0531399	
0.0547944	
0.0688925	
0.0657969	
0.0671459	
0.0652391	
0.080084	
0.0784959	
0.0811092	
0.0871937	
0.0829163	
0.088435	
0.0834844	
0.0843287	
0.0649914	
0.0649173	
0.0628274	
0.0833657	
0.080799	
0.0844366	
0.0764307	
0.0712664	
0.087635	
0.0894328	
0.0809033	
0.0730139	
0.0710025	
0.0711919	
0.0738734	
0.0840244	
0.0795779	
0.073546	
0.0809002	
0.0715142	
0.0776143	
0.0701964	
0.0727417	
0.0557847	
0.0522151	
0.061284	
0.0582985	
0.0865805	
0.0881537	
0.085925	
0.0752729	
0.0720062	
0.0780447	
0.0738849	
0.0753562	
0.0693956	
0.0805102	
0.0827384	
0.084695	
0.067083	
0.0734101	
0.0748663	
0.0780624	
0.0738425	
0.0810931	
0.0831743	
0.0698566	
0.0646833	
0.0676073	
0.062535	
0.0823002	
0.0874275	
0.0872614	
0.0841862	
0.0748838	
0.0865209	
0.0788039	
0.0812644	
0.0829662	
0.0758967	
0.0847689	
0.0842816	
0.0632235	
0.0582969	
0.0584122	
0.0913006	
0.0912667	
0.088798	
0.0902057	
0.0894478	
0.0903384	
0.0804444	
0.0841118	
0.0730102	
0.0836938	
0.0783584	
0.0735273	
0.0912917	
0.0911455	
0.0718756	
0.0790997	
0.0751274	
0.0801235	
0.079634	
0.0762073	
0.0770788	
0.0739622	
0.0774285	
0.0745842	
0.0809398	
0.0780616	
0.0567782	
0.061198	
0.0607565	
0.0619068	
0.0742849	
0.0755544	
0.0782213	
0.0834822	
0.0843455	
0.0832487	
0.0849936	
0.0873707	
0.0731279	
0.0832271	
0.078227	
0.0723752	
0.0797563	
0.0893412	
0.0906065	
0.0655893	
0.0626497	
0.0654546	
0.0674378	
0.0649104	
0.0667087	
0.0823726	
0.0870821	
0.0675387	
0.0636916	
0.0781853	
0.0770131	
0.0794477	
0.0784792	
0.0760478	
0.0790281	
0.0534922	
0.0571366	
0.0526259	
0.043741	
0.0834797	
0.0854584	
0.0459048	
0.0388734	
0.0772459	
0.0784603	
0.0824022	
0.0817872	
0.0832568	
0.0418984	
0.0784656	
0.079222	
0.074732	
0.0737254	
0.0858188	
0.0867939	
0.0863639	
0.087463	
0.0832067	
0.0780555	
-0.0158645	
-0.0158456	
-0.0115916	
-0.0140829	
-0.0063637	
-0.00152644	
0.00387774	
0.0137458	
0.0179628	
0.00848288	
-0.0169772	
-0.0140985	
-0.0121467	
-0.00531039	
-0.00951604	
-0.000798762	
0.0168699	
0.0206192	
0.00871287	
0.0129276	
0.00407755	
-0.017874	
0.0207813	
0.0178906	
0.0096883	
0.00615792	
0.0141647	
-0.00301225	
-0.00634954	
-0.0134773	
-0.00993319	
0.00141611	
0.0228407	
0.0198765	
0.0169408	
0.00935892	
0.0135008	
0.00489979	
-0.0130719	
-0.0101161	
-0.00722131	
-0.0035845	
0.000821518	
0.0230421	
-0.139853	
-0.126053	
-0.140986	
0.0555089	
-0.118575	
0.0589983	
-0.0939668	
0.0570909	
0.0572978	
0.0567317	
0.0574462	
-0.0867894	
0.0564805	
-0.084141	
-0.0606078	
-0.0532713	
-0.0420047	
-0.0512889	
-0.0580439	
0.0562542	
0.0561937	
0.0556151	
0.0543208	
0.0516962	
0.0422914	
-0.064656	
-0.103848	
-0.111173	
-0.115672	
-0.0552558	
-0.0847212	
-0.103265	
-0.0975855	
-0.0845665	
-0.115091	
-0.102959	
-0.0988611	
-0.0780343	
-0.0783352	
-0.0678996	
0.0129342	
0.0494849	
0.0543757	
0.0223887	
0.0183578	
-0.00796561	
-0.0281363	
-0.0108998	
0.0262796	
0.0567072	
-0.129753	
-0.130987	
-0.122855	
-0.127298	
-0.13586	
-0.125851	
-0.130077	
0.00733546	
-0.0160799	
0.0305398	
0.0505599	
0.0358935	
0.0305542	
0.0367318	
0.0347068	
0.0352475	
-0.0120426	
0.0326985	
0.0365301	
0.0284171	
-0.0888127	
0.0392844	
0.0349558	
-0.0019338	
0.0226893	
-0.115139	
0.0104617	
0.0324643	
-0.0955041	
-0.0948003	
-0.101251	
-0.138435	
-0.14005	
-0.139696	
-0.00288057	
0.0151535	
0.00332236	
0.0211683	
-0.100005	
-0.0845259	
-0.0873774	
-0.0804399	
0.0257312	
0.0242363	
-0.122978	
-0.125019	
-0.120455	
-0.119054	
0.0211216	
0.0213099	
-0.0165089	
-0.0282091	
-0.0398099	
-0.130404	
-0.132793	
-0.132268	
-0.133419	
0.014268	
0.00956657	
0.000280156	
-0.0041839	
-0.00585523	
-0.0640889	
-0.073436	
0.0201946	
-0.117057	
-0.121125	
0.0246176	
0.00739464	
0.0116755	
0.0030078	
-0.0788044	
-0.0921745	
-0.120935	
0.0108058	
-0.038644	
-0.0345225	
0.0157846	
0.00731939	
-0.0259309	
0.0117752	
0.0253729	
-0.0211378	
-0.0314525	
-0.0905954	
-0.100532	
0.0347357	
-0.107576	
-0.102008	
0.0156365	
0.0137298	
0.0295555	
0.0269732	
-0.0282319	
-0.0375999	
-0.053047	
-0.0093655	
-0.013062	
-0.023216	
-0.00174402	
-0.077247	
0.0298307	
0.0229782	
-0.0491668	
-0.067001	
-0.104799	
0.0327685	
0.0279248	
-0.00842864	
-0.0336397	
-0.018486	
-0.0857217	
0.0170791	
-0.113954	
-0.0640689	
-0.0785461	
-0.131635	
-0.139554	
-0.1134	
-0.0779508	
-0.0639992	
-0.0195587	
0.00475453	
-0.025255	
-0.00698728	
-0.00463662	
-0.127436	
-0.12696	
-0.130025	
-0.119737	
-0.127154	
0.0524486	
-0.00802136	
-0.0283715	
-0.0174491	
0.0385033	
0.052598	
0.0313978	
0.0352123	
0.0497053	
0.0371647	
0.0518849	
0.0485417	
0.0550583	
0.0495875	
0.054349	
0.0520884	
0.0556705	
0.0314569	
0.0335358	
-0.137065	
-0.0871224	
-0.0618598	
-0.0406079	
-0.0645277	
-0.0531356	
-0.0276917	
-0.0440562	
-0.0214948	
-0.0527476	
-0.043374	
-0.10136	
-0.109658	
-0.0953153	
0.00991318	
0.00358941	
0.0114428	
-0.114704	
-0.104762	
-0.105006	
-0.098656	
-0.0137545	
-0.0179998	
0.00771372	
-0.00409141	
-0.0418012	
-0.0399645	
0.0232494	
0.0209878	
0.0217628	
0.0202007	
-0.112943	
-0.116754	
0.0171442	
0.0177011	
-0.0202205	
-0.0117388	
-0.110935	
-0.117679	
-0.117503	
-0.0599005	
-0.0500055	
-0.0533409	
0.0508769	
0.0505916	
-0.132254	
-0.135324	
0.000147412	
-0.112692	
-0.137308	
-0.139689	
-0.140339	
-0.0769949	
-0.0613015	
-0.0784821	
-0.075823	
-0.0746833	
-0.0853442	
-0.0825113	
0.032927	
-0.136227	
-0.135031	
-0.132995	
-0.00882203	
-0.020856	
-0.101195	
-0.109194	
-0.109377	
-0.10017	
-0.105024	
-0.10864	
0.00655878	
0.0190573	
-8.04367e-06	
0.0077261	
0.0111324	
0.0190014	
-0.00659731	
-0.00924316	
-0.000910386	
-0.127827	
-0.128755	
-0.128999	
-0.130618	
-0.130562	
-0.0603116	
-0.076815	
-0.0756786	
-0.136872	
-0.13055	
-0.135742	
-0.127723	
-0.123964	
-0.131656	
-0.10316	
-0.0985169	
-0.103622	
-0.109495	
-0.110076	
-0.0871017	
-0.0781607	
-0.0836323	
0.0489157	
0.0225999	
0.0440621	
0.0410047	
-0.00023944	
-0.0172864	
0.00395297	
-0.00114945	
0.0350988	
0.0522616	
0.0510173	
0.04855	
0.0349936	
-0.0923216	
-0.0796975	
-0.0841496	
-0.0744377	
0.052234	
0.0564014	
0.0379555	
0.0380823	
0.0537219	
0.0117687	
0.0204601	
-0.000818076	
0.0100579	
-0.126596	
-0.132084	
-0.134512	
-0.0634269	
-0.133767	
0.0173552	
-0.0818661	
-0.0813782	
-0.141102	
-0.137864	
-0.131322	
-0.133815	
0.0352059	
-0.124018	
-0.126861	
-0.120054	
-0.124533	
-0.101938	
-0.104838	
0.00847829	
-0.00473295	
0.00791846	
-0.11262	
-0.117939	
-0.116592	
-0.123494	
0.0249114	
0.025165	
-0.00524671	
-0.101264	
-0.0937667	
0.000114367	
0.0116774	
0.00149013	
0.0132413	
-0.0716925	
-0.0809131	
-0.0899424	
0.0134068	
0.0259145	
-0.0653853	
-0.0559771	
-0.139273	
-0.136294	
-0.115232	
-0.122918	
-0.107575	
-0.11702	
0.0258092	
0.0339457	
0.0337278	
0.00432436	
-0.0104471	
-0.0167789	
-0.107298	
-0.115358	
-0.11357	
0.0132365	
0.00490874	
0.0255213	
-0.122379	
-0.128128	
-0.132599	
-0.110552	
-0.105867	
-0.0862458	
-0.0768395	
-0.131931	
-0.137331	
-0.12825	
-0.132659	
0.00403608	
0.0155238	
0.0497629	
0.0330134	
0.0212778	
0.0225007	
0.0334345	
0.0231822	
-0.0623232	
-0.0533522	
0.0473361	
0.0530913	
0.0338844	
0.0480794	
0.0563091	
0.0208608	
0.0208318	
-0.0868966	
-0.0732169	
-0.0847569	
-0.0764205	
0.0365768	
-0.131763	
-0.128009	
-0.132082	
-0.127933	
-0.0594722	
-0.0564794	
-0.120591	
-0.116263	
-0.129967	
0.0224463	
0.0318785	
0.057108	
-0.0384435	
-0.0289196	
-0.0332123	
-0.0541305	
-0.0458436	
-0.0908821	
-0.091252	
-0.141036	
-0.140118	
0.0186825	
0.00350203	
0.00905245	
-0.127634	
-0.120018	
-0.0477559	
-0.0396832	
-0.0361073	
-0.0469354	
0.0217934	
0.0203823	
0.00996291	
0.0302082	
0.0225849	
-0.0606838	
-0.0533135	
-0.0702673	
-0.070759	
-0.011175	
-0.106028	
-0.0986162	
-0.0341193	
-0.0204	
-0.0325778	
-0.0142487	
0.0526138	
0.0396398	
0.0315211	
0.028165	
0.0574174	
0.0541635	
0.0122657	
0.000440512	
-0.000703165	
-0.00785269	
-0.132732	
-0.127929	
0.0578743	
0.054576	
0.0369005	
0.0343126	
-0.0251758	
0.054221	
0.0492828	
0.0361251	
0.0556021	
0.0575743	
0.0489995	
0.0523285	
0.0552637	
0.0574061	
0.0531953	
0.0187615	
0.0268354	
0.00462792	
0.01524	
-0.0965201	
-0.098093	
-0.0528402	
-0.0486125	
-0.0408958	
-0.0312466	
-0.0899395	
-0.0863787	
-0.0750153	
-0.0553481	
0.00520912	
0.00631166	
0.0171943	
0.0254192	
0.0294392	
0.049007	
0.0369436	
0.0564087	
0.0200201	
0.0210316	
0.0301457	
0.0485003	
0.0558049	
0.0549703	
0.0560208	
0.056102	
0.00442512	
0.00774404	
0.0372948	
0.0279469	
-0.141245	
-0.13746	
-0.141118	
-0.139529	
-0.0499491	
-0.0615037	
-0.0749613	
-0.0748275	
0.0574831	
0.0495462	
0.0252785	
0.0337685	
0.0356174	
0.0527021	
0.0329933	
0.0214065	
0.0214109	
0.00435148	
0.0112063	
0.0329665	
0.0380489	
0.0364458	
0.0507493	
0.031564	
0.0311277	
0.0563815	
0.0323812	
0.0309864	
0.03241	
-0.135553	
-0.137683	
-0.138349	
-0.0124076	
-0.00856422	
-0.0250339	
-0.0305368	
0.0380304	
-0.0238118	
-0.00879944	
-0.0165999	
-0.00177536	
-0.0277785	
-0.0143154	
-0.00292715	
-0.133768	
-0.136245	
-0.137308	
0.028669	
0.0287833	
0.0376102	
0.0527399	
-0.139756	
-0.0256526	
-0.0301893	
0.0502318	
0.053832	
0.0396534	
0.0529621	
0.0394021	
0.0522323	
0.049499	
0.050046	
0.05361	
-0.0344415	
-0.0445116	
0.0146335	
0.0190305	
0.0578091	
0.0375327	
0.0519964	
0.0519777	
0.0551108	
0.05604	
0.0519564	
0.0569733	
0.0293201	
0.018249	
0.0552427	
-0.0268447	
0.0105268	
0.0160669	
0.0314345	
0.0266338	
0.0254818	
0.0366287	
0.0226767	
0.033384	
0.0515234	
0.0548521	
-0.0263597	
0.0277685	
0.0148046	
0.050315	
0.0315672	
0.0481487	
0.0146791	
0.018523	
-5.97004e-05	
0.00893765	
-0.0123531	
-0.0074341	
0.0116768	
0.0129409	
0.0311711	
0.0342291	
0.0581661	
0.0533858	
0.0475409	
0.0430038	
0.0334169	
-0.00112356	
0.0508645	
0.0539781	
0.00719491	
0.0370254	
0.0513999	
-0.135349	
-0.129578	
-0.137003	
-0.134638	
0.0172973	
0.0280088	
-0.134033	
-0.137652	
0.00209777	
0.00741653	
-0.03792	
-0.0409099	
0.0281688	
0.0567158	
0.0488813	
-0.102069	
-0.0927435	
-0.0985323	
-0.0870376	
0.0161128	
-0.0224507	
-0.0312605	
0.0183556	
0.0311646	
-0.0122208	
-0.00248898	
-0.0153707	
-0.00723452	
0.0152902	
0.0243177	
-0.10183	
-0.0979755	
-0.0921884	
-0.0809223	
0.0306881	
0.0382338	
-0.0297625	
-0.0416835	
-0.040168	
-0.0502482	
-0.0613975	
-0.0672629	
-0.0504652	
-0.059926	
-0.00348256	
-0.0143421	
-0.0121306	
0.0508297	
0.0352848	
0.0533833	
0.0466726	
-0.0260763	
-0.0334843	
0.0328352	
0.0500303	
-0.0666836	
-0.0672983	
-0.0205623	
-0.0349615	
0.0567205	
-0.0427573	
-0.0232891	
-0.0361357	
-0.0673164	
-0.0705115	
-0.0613194	
0.0499776	
0.0570906	
0.0359682	
0.0295498	
0.0371983	
0.0352722	
0.0358362	
0.0498157	
-0.0575699	
-0.0658788	
0.0467595	
0.0357353	
0.00486449	
0.00174645	
-0.041796	
-0.0375044	
-0.0560565	
-0.0584981	
0.0518141	
0.0514508	
0.0383758	
0.0374806	
-0.0329174	
-0.0362527	
-0.0242886	
-0.0199034	
-0.0460796	
-0.0546416	
-0.0501259	
-0.0418157	
-0.0600104	
-0.0521762	
0.04563	
0.0349513	
0.0522425	
0.032353	
0.0560196	
0.0480369	
-0.00986764	
-0.00622404	
0.0352904	
0.0518751	
0.0476147	
0.0560193	
-0.0175764	
-0.0133105	
0.0540717	
0.0431906	
0.0587999	
0.0505185	
-0.0246531	
-0.034323	
0.0393112	
0.0499747	
0.0495556	
0.0575139	
-0.0157535	
-0.0181169	
0.05436	
0.0504254	
-0.137291	
-0.13918	
-0.136304	
-0.13855	
0.0122057	
0.0130914	
0.0533328	
0.0484988	
0.0380045	
0.0523196	
0.0549634	
0.051097	
0.0104847	
0.00775325	
0.00780977	
0.0388781	
0.0536061	
-0.0534611	
-0.0465458	
-0.000268221	
0.00377411	
0.0184557	
0.0159589	
0.0513763	
0.056459	
-0.0434708	
-0.0579685	
-0.0451685	
-0.0651776	
0.0588375	
0.050664	
0.0536266	
0.0425802	
0.00720915	
0.00594588	
-0.117242	
-0.123596	
-0.115014	
-0.119865	
-0.00367673	
-0.0139721	
-0.0020419	
-0.0088701	
-0.0165967	
0.0731031	
0.0760508	
0.073603	
0.0738756	
0.0743727	
0.0670543	
0.0634834	
0.0693631	
0.0736101	
0.073001	
0.0711417	
0.0706998	
0.0710598	
0.0246712	
0.0492377	
0.0174916	
0.00777654	
0.00611669	
0.0705424	
0.0726894	
0.0694799	
0.0725479	
0.0791201	
0.0718026	
0.0212288	
0.0331126	
0.0826134	
0.0861328	
0.0590082	
0.0630155	
0.0806759	
0.0637716	
0.073459	
0.0649828	
0.0641892	
0.0877834	
0.0700901	
0.0498508	
0.0864144	
0.0869126	
0.0889829	
0.0568681	
0.0590841	
0.0563355	
0.0584893	
0.0610283	
0.060653	
0.0601983	
0.0557018	
0.0589722	
0.0890209	
0.0897392	
0.0690641	
0.0768592	
0.0678828	
0.0915887	
0.0914937	
0.0556294	
0.0595759	
0.0492884	
0.0540161	
0.0848003	
0.0854661	
0.0807956	
0.0797761	
0.0840167	
0.0803474	
0.0879295	
0.0846189	
0.0839579	
0.0668458	
0.0698778	
0.0888759	
0.0912538	
0.0891719	
0.0661014	
0.0629368	
0.0353258	
0.0309045	
0.0350827	
0.0632184	
0.0914991	
0.0907019	
0.0852033	
0.0879582	
0.0721087	
0.0877416	
0.0880399	
0.087081	
0.0529419	
0.0805779	
0.0843583	
0.0842818	
0.0590639	
0.0611227	
0.0602499	
0.0592729	
0.0881743	
0.0425578	
0.0459738	
0.0456844	
0.0601109	
0.0572995	
0.0570223	
0.0567843	
0.0576012	
0.0456949	
0.0903317	
0.0547097	
0.0836962	
0.0543361	
0.0780678	
0.0748511	
0.0727193	
0.0852863	
0.0859889	
0.0660411	
0.0848095	
0.0851093	
0.0854959	
0.0884796	
0.0687572	
0.0729619	
0.0740474	
0.0868889	
0.0838801	
0.084233	
0.0852459	
0.0851828	
0.0855101	
0.0674023	
0.0637208	
0.0635271	
0.0354006	
0.0414077	
0.084517	
0.0868925	
0.0896207	
0.0491187	
0.0447349	
0.0628419	
0.0692282	
0.0634892	
0.080356	
0.077306	
0.0758494	
0.0312788	
0.087248	
0.0197818	
0.0213866	
0.0672104	
0.0639123	
0.0873406	
0.0838145	
0.058983	
0.0647021	
0.0680789	
0.0886679	
0.0884323	
0.0836914	
0.0804456	
0.0851411	
0.0878928	
0.0858997	
0.0880306	
0.0863533	
0.0844061	
0.0824296	
0.0696487	