<VTKFile type="UnstructuredGrid" version="0.1" byte_order="LittleEndian">
	<UnstructuredGrid>
		<Piece NumberOfPoints="1759" NumberOfCells="3358">
			<CellData Scalars="scalars">
				<DataArray type="Float64" Name="Doublet Strengths" NumberOfComponents="1" Format="ascii">
-0.0765983	
-0.0765689	
-0.0839711	
0.0600486	
-0.0713835	
0.0619823	
-0.0639218	
0.0601285	
0.0612015	
0.0600127	
0.0607566	
-0.0590395	
0.0600053	
-0.0428965	
-0.0375498	
-0.0402487	
-0.0298312	
-0.0375804	
-0.0396562	
0.0596643	
0.0592511	
0.0593147	
0.0575105	
0.0540927	
0.0437365	
-0.045459	
-0.0605819	
-0.0660088	
-0.0693824	
-0.0395748	
-0.0503919	
-0.0605059	
-0.0612402	
-0.0511404	
-0.0756727	
-0.0647162	
-0.0763934	
-0.0637523	
-0.0444881	
-0.0456581	
-0.0327153	
0.0293806	
0.0566208	
0.057955	
0.0564616	
0.0350056	
0.0130922	
-0.0142954	
0.0109261	
0.0413489	
-0.0791862	
-0.0830907	
-0.0811214	
-0.0810214	
-0.0760332	
-0.0822293	
-0.0830865	
0.0230426	
0.00498843	
0.0409489	
0.0559917	
0.0447412	
0.0375422	
0.0384946	
0.0445909	
0.0428474	
0.00822795	
-0.00274457	
0.0456376	
0.0467877	
0.0413984	
-0.055884	
0.0442081	
0.0434525	
0.0175967	
0.0365218	
-0.0690932	
0.025321	
0.0438961	
0.0302663	
-0.0639944	
-0.0665825	
-0.0701994	
-0.0784346	
-0.0839682	
-0.0840466	
0.0154949	
0.0142302	
0.0241531	
0.029359	
-0.0660688	
-0.05518	
-0.0485831	
-0.0430838	
0.0360503	
0.0370553	
-0.0807337	
-0.0809104	
-0.0769474	
-0.0793076	
0.0346636	
0.0381166	
-0.00241359	
0.00754205	
-0.00764509	
-0.0831328	
-0.0774998	
-0.0811658	
-0.0831759	
0.0281105	
0.0255748	
0.0182583	
0.0145227	
0.0154572	
-0.0343009	
-0.0354477	
0.0349696	
-0.0705328	
-0.0734987	
0.0333556	
0.0364999	
0.0213456	
0.0276231	
-0.0513018	
-0.0646279	
-0.0731533	
0.0270706	
-0.00480039	
-0.00956513	
-0.0123148	
-0.0231811	
-0.0115485	
0.024411	
0.0309398	
0.0170079	
0.0352182	
0.00295224	
-0.0581914	
0.041572	
-0.0590669	
-0.0633727	
0.0228894	
0.0290441	
0.0377196	
0.0422728	
-0.00144465	
-0.0207268	
-0.00860529	
0.00413494	
0.00664085	
-0.00422987	
0.0161554	
-0.04183	
0.0304498	
0.0341434	
-0.0169424	
-0.0350927	
-0.0689942	
0.0487624	
0.0401123	
0.0056957	
0.0133305	
0.00484199	
-0.0467942	
0.0309098	
-0.0687715	
-0.0468081	
-0.0568506	
-0.0801668	
-0.0840454	
-0.0722702	
-0.0284895	
-0.04618	
-0.00173383	
0.0207186	
0.0119256	
-0.0770583	
-0.0809876	
-0.0802821	
-0.0737699	
-0.0786675	
-0.0733589	
0.0581527	
0.0126148	
0.00668205	
-0.00213037	
0.0467598	
0.0581689	
0.0413279	
0.0428583	
0.0532375	
0.0455574	
0.0566796	
0.0550207	
0.0540841	
0.0565969	
0.0598219	
0.0597415	
0.0151854	
0.0580199	
0.0601592	
0.0583771	
0.0422574	
0.044225	
-0.0833265	
-0.0621763	
-0.0243325	
-0.033846	
-0.00751019	
-0.00160622	
-0.008909	
-0.0224084	
-0.0318855	
-0.0711626	
-0.0645552	
-0.0598711	
0.0259098	
0.0273025	
0.0211638	
-0.0616876	
-0.0693404	
-0.0570842	
-0.0617985	
-0.00641671	
0.00900993	
0.0210151	
0.00614947	
-0.00695405	
-0.0126587	
0.0339808	
0.0346724	
0.034021	
0.0287829	
-0.0777119	
-0.0747384	
0.0311479	
0.0306215	
0.00185634	
0.00873176	
-0.0704748	
-0.0779942	
-0.0761662	
-0.0419382	
-0.032059	
-0.0242669	
0.0558126	
0.0557208	
-0.0762466	
-0.0828172	
0.0198031	
-0.075953	
-0.0775288	
-0.0831242	
-0.0805542	
-0.0496998	
-0.0518781	
-0.046302	
-0.041661	
-0.0494744	
-0.040887	
0.0398572	
-0.0792903	
-0.0824202	
-0.0832483	
0.00877001	
-0.00178351	
-0.0711144	
-0.0649532	
-0.0746623	
-0.0688199	
-0.0646574	
-0.0622197	
0.0184041	
0.0297345	
0.0148045	
0.0157556	
0.0292851	
0.024822	
0.00967527	
0.0216869	
0.00783344	
-0.0788357	
-0.0819593	
-0.0828126	
-0.0831163	
-0.0813606	
-0.0262864	
-0.0388273	
-0.0397241	
-0.0831933	
-0.082785	
-0.0799401	
-0.0782155	
-0.0810348	
-0.0827371	
-0.0684573	
-0.0714032	
-0.0671103	
-0.0738637	
-0.0714637	
-0.0510907	
-0.0485781	
-0.0441449	
0.0366907	
0.0437289	
0.0464226	
0.0108366	
0.013371	
0.0443025	
0.0571294	
0.051885	
0.0532645	
0.0409407	
-0.0507119	
-0.0453011	
0.0601236	
0.0575621	
0.0469472	
0.0477692	
0.0590039	
0.0187608	
0.0345981	
0.0197317	
0.0348772	
-0.0719452	
-0.0813557	
-0.0773886	
-0.0325902	
-0.0824566	
0.0269077	
-0.0586799	
-0.0559182	
-0.0837143	
-0.0773072	
-0.0817433	
-0.0781111	
0.0457325	
-0.0818475	
-0.0792637	
-0.0813729	
-0.0787226	
-0.0713885	
-0.0683316	
0.0230235	
0.0272758	
0.0127007	
-0.0738665	
-0.0704164	
-0.0781377	
-0.0736343	
0.0344216	
0.0338518	
0.0118832	
-0.0628095	
-0.0677914	
0.018802	
0.0280211	
0.0175964	
0.0267102	
-0.049077	
-0.0452099	
-0.0567818	
0.0298356	
0.0392303	
-0.0417344	
-0.0483202	
-0.0827795	
-0.0839958	
-0.00286623	
-0.0759236	
-0.0701262	
-0.0728626	
-0.0668066	
0.0386935	
0.0427592	
0.0428405	
0.00872594	
0.0136018	
-0.00233812	
-0.0724186	
-0.0762708	
-0.0776093	
0.0389399	
0.0297001	
0.0233363	
-0.0795396	
-0.0766762	
-0.0822113	
-0.0721915	
-0.0752381	
-0.0275142	
-0.0551118	
-0.0613568	
-0.0831874	
-0.0803549	
-0.0808973	
-0.0781276	
0.0210002	
0.030013	
0.0550272	
0.0381162	
0.0135873	
0.0353776	
0.0344881	
0.0430603	
0.0376672	
-0.0210314	
-0.0284495	
0.0519734	
0.0554759	
0.0597396	
0.0439005	
0.0547028	
0.0342596	
0.0343784	
-0.0557218	
-0.060723	
-0.0525069	
-0.0584075	
0.0419465	
-0.0804698	
-0.0829961	
-0.0800461	
-0.0822099	
-0.0278691	
-0.0250043	
-0.0704633	
-0.0781542	
-0.0798713	
0.0360892	
0.0390823	
0.0600989	
-0.0169051	
-0.00758979	
-0.0127758	
-0.0176346	
-0.0265615	
-0.0627804	
-0.0638552	
-0.0806287	
-0.0833328	
0.022544	
0.0178912	
-0.0729934	
-0.0782641	
-0.0196347	
-0.0238718	
-0.0175491	
-0.0321562	
-0.0238687	
0.035895	
0.0270625	
0.0271074	
0.0367479	
0.0422534	
-0.0333553	
-0.0404217	
-0.0375732	
-0.0471434	
0.0072989	
-0.0568012	
-0.0624479	
0.00370014	
-0.0108373	
0.00686676	
-0.00248365	
0.0582912	
0.0457366	
0.0489972	
0.0261861	
0.0317679	
0.0592393	
0.0611437	
0.0287261	
0.0290393	
0.0133869	
0.0188302	
-0.0781562	
-0.0810288	
0.0594405	
0.0613489	
0.0355601	
0.0388279	
-0.0336026	
-0.000647443	
0.0558882	
0.0587535	
0.0607386	
0.0547984	
0.0525115	
0.0587533	
0.0577655	
0.0603574	
0.0391397	
0.024871	
0.0305773	
0.0228074	
-0.0595884	
-0.0588385	
-0.020346	
-0.0242115	
-0.00573555	
0.000192784	
-0.0527491	
-0.0580762	
-0.0545896	
-0.0229103	
0.0243182	
0.0231173	
0.035258	
0.0320077	
0.0465571	
0.0392985	
0.0559353	
0.0606129	
0.0282498	
0.0282515	
0.0386311	
0.0507568	
0.0602258	
0.060279	
0.059388	
0.0255802	
0.0230874	
0.0469482	
0.0402616	
-0.0798115	
-0.0827912	
-0.079433	
-0.0825312	
-0.0455733	
-0.0435427	
-0.0539849	
-0.0530241	
0.0609995	
0.0440274	
0.056548	
0.0421921	
0.0436975	
0.0448683	
0.0577117	
0.0419254	
0.0282272	
0.0279797	
0.0227886	
0.0455176	
0.0416266	
0.0572006	
0.0466413	
0.0447045	
0.0464009	
0.0431371	
0.0420399	
-0.0772421	
-0.0764525	
-0.0796015	
0.0100031	
0.00673559	
-0.0202631	
-0.00405051	
0.0125242	
-0.00328078	
0.0177817	
0.0159502	
0.00908589	
0.0199269	
-0.00171198	
-0.082319	
-0.0827618	
-0.0832475	
0.0354697	
0.0350306	
0.0465956	
0.0576787	
-0.0827235	
-0.00395439	
-0.001562	
0.0581863	
0.0558244	
0.0479291	
0.0434908	
0.058422	
0.0275013	
0.0237618	
0.0589328	
0.0565465	
-0.00736401	
-0.0163727	
0.0612101	
0.0579042	
0.0470376	
0.058084	
0.0561458	
0.0579235	
0.060329	
0.0597868	
-0.00634686	
0.0316191	
0.0447247	
0.0320275	
0.0277315	
0.0433744	
0.0434118	
0.0593514	
0.0573055	
-0.00480642	
0.0419668	
0.0278552	
0.0381161	
0.0512197	
0.0522998	
0.0338565	
0.0310184	
0.0267505	
0.0178174	
0.00825271	
0.0116482	
0.0556958	
0.0332491	
0.0453727	
0.029671	
0.0440015	
0.0284811	
0.0378788	
0.0393025	
0.0583598	
0.0608472	
0.0460142	
0.038158	
0.0493146	
0.0184926	
0.0577505	
0.055606	
0.0171296	
0.0572914	
-0.0713088	
-0.0807975	
-0.0777208	
-0.0809795	
0.0328002	
-0.0830977	
-0.0822423	
-0.0116182	
0.0405158	
0.0603827	
0.0557265	
-0.0549981	
-0.0650036	
-0.050799	
-0.0530452	
0.0614652	
0.0578779	
0.0565549	
0.0496135	
0.0214924	
0.00192124	
-0.00529649	
0.0199947	
0.0160401	
0.0407492	
0.0151976	
0.0098447	
0.0174011	
0.00616446	
0.0127782	
0.028858	
0.0219105	
-0.0516415	
-0.0453955	
-0.0590146	
-0.0561264	
0.0397049	
0.0442687	
0.0456461	
0.0499171	
0.00873233	
0.0250296	
0.00871916	
-0.0112824	
-0.0103034	
-0.0271649	
-0.0270875	
-0.0355252	
-0.0361034	
-0.0414527	
0.0559498	
0.0514685	
0.0455367	
0.0435781	
0.0575772	
0.0567147	
0.0567121	
0.0545605	
0.0448331	
0.0561845	
0.0608789	
0.0430962	
0.0405921	
0.0601148	
0.042672	
0.0434891	
0.0538741	
-0.0127026	
-0.0259221	
-0.0222988	
-0.0354611	
-0.0393346	
-0.0426309	
-0.00911222	
0.0458749	
0.056263	
0.0606222	
0.0392388	
0.0450043	
0.0465718	
0.0605575	
0.0462599	
-0.0248642	
-0.0316023	
0.0498516	
0.0410644	
0.0109445	
0.0094764	
-0.00127357	
0.00310885	
-0.0128806	
-0.0166645	
-0.0188221	
-0.0346351	
-0.02133	
-0.0328653	
-0.00966292	
-0.0127219	
-0.00168152	
0.00161988	
-0.0138941	
-0.0230025	
-0.0288142	
0.0580245	
0.055723	
0.0448818	
0.0417175	
0.0485648	
0.0397689	
-0.000468399	
0.00110996	
0.0596329	
0.0547179	
0.0574533	
0.0449253	
0.0542909	
0.0596488	
0.042943	
0.0576175	
0.0562082	
0.0606221	
0.00251946	
0.00460506	
0.0561073	
0.0606916	
0.0485992	
0.0564321	
0.0557405	
0.0581885	
-0.0833791	
-0.0834236	
-0.0826823	
-0.0831828	
-0.0182281	
0.0220106	
0.0217904	
0.0560996	
0.0569636	
0.0597163	
0.027445	
0.0251772	
0.0479099	
0.0587348	
-0.0169498	
-0.0200809	
-0.0447611	
0.0193817	
0.0301462	
0.0322756	
-0.0470279	
-0.03887	
0.0246476	
0.0166646	
0.0561529	
0.0598855	
-0.0286702	
-0.0131297	
-0.0348341	
-0.0297817	
0.00816326	
0.00926353	
-0.000988404	
0.00258183	
-0.00633692	
-0.00335114	
-0.0169736	
-0.0109014	
-0.0168202	
-0.0187733	
0.0583675	
0.0504478	
0.0613041	
0.056582	
0.0701764	
0.0327885	
0.0704429	
0.0705384	
0.0289248	
0.0045263	
0.00621677	
0.0195971	
0.0704701	
0.0697805	
0.068409	
0.0685035	
0.0680526	
0.0682172	
0.00846138	
0.0481719	
0.0687815	
0.070075	
0.00343368	
-0.00537693	
-0.0023907	
0.068331	
0.0698204	
0.0670084	
0.0325207	
0.0380118	
0.0241867	
0.0086326	
0.0126063	
0.0441752	
0.0559054	
0.0235248	
0.029706	
0.0449377	
0.0174661	
0.0648557	
0.0702899	
0.0619308	
0.0626632	
0.0741417	
0.0742581	
0.0627704	
0.0200642	
0.0598866	
0.0570637	
0.0615511	
0.00875434	
0.00812944	
0.00165417	
0.00859011	
0.00809039	
0.00358278	
0.0536108	
0.0624001	
0.00759085	
0.00865397	
0.00794564	
0.0645496	
0.068402	
0.0208503	
0.0617369	
0.0699056	
0.0711554	
0.0739406	
0.0741053	
0.0713486	
0.0708071	
0.0733307	
0.0725293	
0.0722568	
0.0735559	
0.0745038	
0.0735371	
0.073642	
0.0634323	
0.0231355	
0.0737413	
0.0650469	
0.0737538	
0.00584654	
0.0066898	
0.00360599	
0.0024055	
0.00360669	
0.00681357	
0.0644997	
0.0688573	
0.0566894	
0.0617844	
0.0465086	
0.0712438	
0.0718714	
0.0694642	
0.0384512	
0.0669542	
0.0688222	
0.063622	
0.000750242	
0.00634219	
0.00238227	
0.00542095	
0.0711821	
0.00528769	
0.00668734	
0.00569995	
0.00616094	
0.00680337	
0.0069417	
0.00382743	
0.00633517	
0.0337908	
0.0611108	
0.0258624	
0.0125942	
0.060241	
0.0646207	
0.0644408	
0.064817	
0.0690386	
0.0330969	
0.0683452	
0.0712317	
0.0724186	
0.0317267	
0.0247283	
0.0343942	
0.051348	
0.0507956	
0.0513732	
0.0563942	
0.0174215	
0.00937518	
0.012615	
0.0116905	
0.00806179	
0.0728988	
0.0125626	
0.0170443	
0.0246637	
0.0235867	
0.0273923	
0.0581133	
0.0517857	
0.0528461	
0.0239536	
0.0737051	
0.00261899	
-8.18767e-05	
0.0154129	
0.00807922	
0.073974	
0.0744394	
0.0123862	
0.0214118	
0.024388	
0.0709689	
0.0682972	
0.0684235	
0.0660487	
0.0602572	
0.0495103	
0.0549515	
0.0634519	
0.0614383	
0.0658843	
0.0630326	
0.0414688	
0.0505979	
0.0532365	
0.0523506	
0.0732415	
0.0697029	
0.0705119	
0.0706263	
0.0721637	
0.0733547	
0.0733478	
0.0711712	
0.072563	
0.0168772	
0.0127306	
0.0729002	
0.0719245	
0.0728703	
0.0727964	
0.0219403	
0.0108344	
0.00365698	
0.0715705	
0.0706143	
0.0704895	
0.0494909	
0.0595899	
0.064918	
0.0694843	
0.0686506	
0.0681564	
0.0667459	
0.0634961	
0.0476498	
0.0570896	
0.0616923	
0.0523498	
0.0554059	
0.0487435	
0.0492294	
0.0687069	
0.0654288	
0.0744889	
0.0739043	
0.0228999	
0.03168	
0.0638632	
0.0735589	
0.0725509	
0.0731678	
0.0718061	
0.0716162	
0.069502	
0.0696461	
0.0686965	
0.0690871	
0.0107095	
0.00978526	
0.00730093	
0.0727745	
0.0713164	
0.0711502	
0.055069	
0.0594963	
0.0636064	
0.00489428	
0.00457328	
0.00248025	
0.0189247	
0.0532075	
0.054374	
0.0726376	
0.0727637	
0.0621394	
0.0603557	
0.0685867	
0.0684201	
0.0679281	
0.0727378	
0.0727846	
0.0691912	
0.0686572	
0.00560363	
0.0739332	
0.010169	
0.00612178	
0.00617418	
0.0415361	
0.0385694	
0.0631129	
0.0689228	
0.0699904	
0.0727546	
0.0740262	
0.0741981	
0.0106329	
0.0664992	
0.0673599	
0.0743086	
0.074175	
0.071746	
0.073734	
0.0103409	
0.00736936	
0.00730186	
0.00787679	
0.00549481	
0.00514419	
0.00309634	
0.00362463	
0.00498474	
0.0663863	
0.0691543	
0.0540047	
0.0618043	
0.0603371	
0.0672602	
0.0684596	
0.063709	
0.0668013	
0.0444936	
0.0486019	
0.0399643	
0.0724304	
0.0688752	
0.0661118	
0.0650499	
0.069993	
0.0639531	
0.0665435	
0.0571093	
0.0352181	
0.0403718	
0.0401794	
0.0449783	
0.0730829	
0.0468401	
0.0211164	
0.0161744	
0.0220222	
0.0166403	
0.0739465	
0.0744044	
0.0736548	
0.00647904	
0.00466388	
0.00444042	
0.0742626	
0.0735666	
0.0698352	
0.0726253	
0.0705483	
0.0711035	
0.0730353	
0.0719187	
0.0727634	
0.0693034	
0.071949	
0.0295056	
0.00421646	
0.00391335	
0.00503762	
0.0112298	
0.016031	
0.00904206	
0.0336826	
0.0395088	
0.0438672	
0.0443632	
0.0734897	
0.0737446	
0.0730361	
0.00154804	
-0.000831426	
0.00556951	
0.00592123	
0.0113348	
0.0171981	
0.0110611	
0.0139013	
0.0105419	
0.0145052	
0.0103126	
0.0143145	
0.00492576	
0.00473236	
0.0736553	
0.0554013	
0.0534419	
0.0477776	
0.0227772	
0.0145639	
0.0144238	
0.0193596	
0.0718918	
0.073109	
0.0728621	
0.0742829	
0.0697808	
0.0691969	
0.0682864	
0.0355322	
0.0309422	
0.0364446	
0.0270587	
0.00318302	
0.0030114	
0.0730259	
0.0741202	
0.0543018	
0.0415448	
0.0382487	
0.0146464	
0.0181415	
0.0208662	
0.0222493	
0.0248879	
0.010263	
0.00725048	
0.011468	
0.00614627	
-0.00212538	
-0.00168982	
0.00860964	
0.0116986	
0.0720676	
0.0709333	
0.0693254	
0.0267609	
0.0225903	
0.0334354	
0.0241023	
0.0162551	
0.0129063	
0.00956795	
0.0140816	
0.00916459	
0.0146429	
0.00855452	
0.0738404	
0.0736337	
0.0658242	
0.0686923	
0.0658118	
0.0690393	
0.00263655	
0.004765	
0.006813	
0.00798647	
0.0152704	
0.0102608	
0.0186717	
0.0173689	
0.0692016	
0.0704632	
0.0716723	
0.0737861	
0.0741483	
0.073461	
0.0738326	
0.0739479	
0.0739419	
0.0311098	
0.0294396	
0.0325749	
0.0319048	
0.0292435	
0.0378171	
0.0401748	
0.0379434	
0.0471438	
0.0505925	
0.031937	
0.0253609	
0.0269518	
0.0230594	
0.0683928	
0.0695054	
0.0404526	
0.00129787	
0.000655243	
0.004668	
0.00512698	
0.0213866	
0.01808	
0.014391	
0.0139823	
0.05952	
0.0675453	
0.0667863	
0.0339232	
0.0393876	
0.0179166	
0.0215532	
0.0270263	
0.0740722	
0.074208	
0.0725741	
0.071431	
0.0732132	
0.0739938	
0.0746129	
0.046451	
0.0423282	
0.0381967	
0.0723974	
0.0707048	
0.049676	
0.072626	
0.0673256	
0.0732447	
0.0715664	
0.0709905	
0.0743264	
0.0468925	
0.0421794	
0.0707785	
0.0709168	
0.0361453	
0.0462755	
0.0392615	
0.0481424	
0.0657515	
0.0661744	
0.0304853	
0.035515	
0.0259975	
0.026709	
0.0669949	
0.069874	
0.0659942	
0.0676376	
0.0692428	
0.0721275	
0.0693414	
0.0718262	
0.0715274	
0.0688117	
0.0722622	
0.0662745	
0.0516513	
0.0537436	
0.0710515	
0.0653698	
0.0682847	
0.054294	
0.0542382	
0.0492222	
0.0449805	
0.0191484	
0.0149322	
0.0202605	
0.0169175	
0.0711658	
0.0717055	
0.0680998	
0.0694804	
0.0622512	
0.0730963	
0.0736307	
0.0729219	
0.0573246	
0.0694909	
0.0705591	
0.0559158	
0.0681177	
0.0527243	
0.0692445	
0.0710862	
0.00477753	
0.00596212	
0.00469603	
0.00472943	
-0.00237609	
-0.00125538	
-0.0047168	
-0.00642493	
0.0568214	
0.0145507	
0.0159733	
0.0216613	
0.0209741	
0.0726162	
0.0698815	
0.0710142	
0.0686598	
0.0732483	
0.0732706	
0.0709573	
0.0725212	
0.0690449	
0.0697356	
0.0694947	
0.0697988	
0.0694697	
0.0682325	
0.0704612	
0.056403	
0.0546477	
0.056199	
0.0738484	
0.0724894	
0.0635642	
0.0648841	
0.0644167	
0.0731052	
0.0717643	
0.0740219	
0.0748436	
0.0742462	
0.0614445	
0.0647062	
0.0715196	
0.0722711	
0.0569703	
0.0583498	
0.0556085	
0.0658878	
0.0665476	
0.0737751	
0.0738277	
0.0718964	
0.0728454	
0.074365	
0.0640467	
0.0650682	
0.0724818	
0.0718471	
0.0721324	
0.0659034	
0.06581	
0.0634879	
0.0668706	
0.06997	
0.0724241	
0.0739356	
0.0734083	
0.0740481	
0.0674297	
0.064438	
0.0681961	
0.0746386	
0.0728956	
0.0716562	
0.0715638	
0.0736951	
0.0743482	
0.074067	
0.0720965	
0.0731596	
0.0606173	
0.0603647	
0.0746771	
0.0731869	
0.0744639	
0.073217	
0.0450688	
0.0485428	
0.0537435	
0.0449927	
0.0393362	
0.0608187	
0.0717461	
0.0714787	
0.0680955	
0.064136	
0.0723981	
0.0728999	
0.0291531	
0.0300804	
0.0350824	
0.0712261	
0.0720027	
0.0730901	
0.0722371	
0.0746701	
0.0737676	
0.0733305	
0.00724097	
0.00760654	
0.0091769	
0.00928511	
0.0632217	
0.0668088	
0.0740411	
0.0738025	
0.0515017	
0.0701611	
0.0702265	
0.0715327	
0.0743633	
0.074149	
0.0496001	
0.0500632	
0.0194742	
0.0132312	
0.0163971	
0.012487	
0.0717057	
0.0727437	
0.0718728	
0.0743759	
0.0449023	
0.0567659	
0.0462547	
0.0740207	
0.0617511	
0.0586151	
0.0576101	
0.0737575	
0.0744879	
0.0741718	
0.0478106	
0.0386097	
0.0569105	
0.0606005	
0.0745235	
0.0699371	
0.0535518	
0.0553219	
0.0570911	
0.0740006	
0.073802	
0.0703067	
0.0566032	
0.042802	
0.0510188	
0.0394842	
0.0421112	
0.0290699	
0.0268627	
0.0355731	
0.0359295	
0.0694851	
0.0558522	
0.0508717	
0.070933	
0.0689609	
0.0729181	
0.0703709	
0.070765	
0.0669471	
0.0723083	
0.072752	
0.0719977	
0.0647848	
0.0688752	
0.0677811	
0.072912	
0.0703655	
0.0744453	
0.065875	
0.0447755	
0.0381424	
0.0449922	
0.0388794	
0.0641203	
0.0623959	
0.0607617	
0.0739178	
0.0711445	
0.0745618	
0.073346	
0.0730452	
0.073658	
0.0716124	
0.0702007	
0.0700983	
0.0348238	
0.0285358	
0.0267163	
0.0647525	
0.064916	
0.072743	
0.0704206	
0.0721035	
0.0692469	
0.0741305	
0.07408	
0.0699763	
0.0739043	
0.0730809	
0.0701986	
0.068147	
0.0683629	
0.068913	
0.0731395	
0.0708706	
0.0717753	
0.0739018	
0.0720308	
0.0697055	
0.0698956	
0.0699272	
0.0701908	
0.0746177	
0.0729275	
0.0469814	
0.051176	
0.0587364	
0.0591461	
0.0602563	
0.0610748	
0.0730744	
0.0738184	
0.0735262	
0.0732394	
0.0504997	
0.0554118	
0.070136	
0.073743	
0.0730659	
0.0694765	
0.073726	
0.0609435	
0.0652161	
0.0361723	
0.0311124	
0.0597899	
0.0606288	
0.0568071	
0.0582389	
0.0584604	
0.0686685	
0.0481494	
0.0444385	
0.0618317	
0.060815	
0.0651769	
0.0654958	
0.042736	
0.0492292	
0.042466	
0.0440427	
0.0381893	
0.0315915	
0.0562032	
0.0599928	
0.036496	
0.0298662	
0.0469351	
0.0501918	
0.0551609	
0.055988	
0.0579266	
0.0251723	
0.0384903	
0.0394372	
0.031929	
0.029538	
0.064621	
0.0677098	
0.0639668	
0.0677547	
0.0737341	
0.0729475	
-0.0152975	
-0.0140004	
-0.00894447	
-0.0117941	
-0.00403414	
0.000786583	
0.00592755	
0.0151203	
0.0188263	
0.0103748	
-0.0162456	
-0.0134048	
-0.0111415	
-0.00416721	
-0.00826557	
0.000351324	
0.0174598	
0.0210847	
0.00966829	
0.0137881	
0.00518884	
-0.0162339	
0.0195045	
0.0162631	
0.00763627	
0.00349036	
0.0122735	
-0.00525504	
-0.00855233	
-0.0143071	
-0.0117161	
-0.00115245	
0.022017	
0.0193724	
0.0162662	
0.00842883	
0.0126678	
0.00378959	
-0.0137577	
-0.0111733	
-0.00828084	
-0.00474766	
-0.000486161	
0.0227609	
-0.0798093	
-0.0765666	
-0.0839687	
0.0601034	
-0.07138	
0.061994	
-0.0638722	
0.0608318	
0.0607803	
0.0600002	
0.0607505	
-0.0590057	
0.0600281	
-0.0454473	
-0.043514	
-0.0402268	
-0.0298161	
-0.0375618	
-0.0396556	
0.0596014	
0.0592326	
0.058353	
0.0592864	
0.0541477	
0.0437723	
-0.0454406	
-0.0605794	
-0.0660089	
-0.069371	
-0.0395552	
-0.0500641	
-0.0614965	
-0.0602689	
-0.0509185	
-0.0753759	
-0.0638978	
-0.0636206	
-0.0443739	
-0.045419	
-0.0327487	
0.0294151	
0.056545	
0.058002	
0.026239	
0.0297586	
0.0136719	
-0.00206774	
0.0110418	
0.0387038	
0.0602839	
-0.078506	
-0.0831281	
-0.0810126	
-0.0808954	
-0.0831819	
-0.0820861	
-0.0831286	
0.0230825	
0.00506923	
0.041056	
0.0559836	
0.0447487	
0.0380089	
0.0432261	
0.0445836	
0.0449906	
0.00964811	
0.0429054	
0.0466943	
0.0408995	
-0.050742	
0.0487903	
0.0457381	
0.017734	
0.0366288	
-0.0693289	
0.0253499	
0.0439052	
-0.0639264	
-0.066536	
-0.070139	
-0.0784133	
-0.0840411	
-0.0839416	
0.015561	
0.0251846	
0.0146927	
0.0298087	
-0.0659934	
-0.0551497	
-0.0483453	
-0.042875	
0.0370701	
0.0360699	
-0.0807856	
-0.0805818	
-0.0768069	
-0.0792007	
0.0356932	
0.0359564	
0.00585216	
-0.00324808	
-0.0127317	
-0.0771742	
-0.0829769	
-0.0807446	
-0.0829736	
0.0281309	
0.0255949	
0.0182932	
0.0156429	
0.0142465	
-0.0303414	
-0.0382356	
0.0350414	
-0.0705086	
-0.0734855	
0.0373314	
0.0243327	
0.0274859	
0.0209029	
-0.0556926	
-0.0645808	
-0.0731366	
0.0274329	
-0.0125204	
-0.00946254	
0.0309484	
0.0245669	
-0.00957074	
0.0170807	
0.0350634	
0.00291327	
-0.0114619	
-0.0514603	
-0.0592326	
0.0419105	
-0.0643041	
-0.0599483	
0.0290639	
0.0272963	
0.0398722	
0.0377374	
-0.00173755	
-0.0090563	
-0.0211863	
0.00677716	
0.00413385	
-0.00424945	
0.0186143	
-0.0414711	
0.0342685	
0.0290904	
-0.0203121	
-0.0348088	
-0.0688802	
0.0442625	
0.0406899	
0.0133677	
-0.00618746	
0.00556185	
-0.0468154	
0.0293075	
-0.0695834	
-0.0467841	
-0.0568139	
-0.0801612	
-0.0840375	
-0.071701	
-0.0460834	
-0.034557	
0.00494647	
0.020744	
-0.00282403	
0.0119704	
0.0136284	
-0.0812556	
-0.0781699	
-0.08027	
-0.0735733	
-0.0787396	
0.0579806	
0.012236	
-0.00377066	
0.0049554	
0.0468906	
0.0574014	
0.0390347	
0.0417485	
0.0533234	
0.0455661	
0.0566776	
0.0550557	
0.0597818	
0.0565774	
0.0593783	
0.0579406	
0.0601406	
0.0423146	
0.0447886	
-0.0831874	
-0.0621286	
-0.0304532	
-0.0131689	
-0.0323156	
-0.0230523	
-0.00749523	
-0.020226	
-0.00175364	
-0.0335433	
-0.0240763	
-0.0636721	
-0.0702527	
-0.0595534	
0.0259251	
0.0211191	
0.0272459	
-0.0691753	
-0.0618255	
-0.0617354	
-0.0570501	
0.0093135	
0.0060256	
0.0210954	
0.0165747	
-0.0124724	
-0.0109576	
0.0340074	
0.0340342	
0.0346896	
0.0300618	
-0.0746266	
-0.0776165	
0.0307625	
0.0312877	
0.00199061	
0.00884008	
-0.0703624	
-0.0760667	
-0.0778804	
-0.0320068	
-0.0242363	
-0.0274756	
0.0558366	
0.0557392	
-0.0761025	
-0.0826854	
0.0200322	
-0.0758669	
-0.0774956	
-0.080525	
-0.0830959	
-0.0498159	
-0.0384879	
-0.0520065	
-0.0409153	
-0.0403227	
-0.0489159	
-0.0527014	
0.0422881	
-0.0823069	
-0.0791614	
-0.0758806	
0.00879384	
-0.00157599	
-0.0647249	
-0.0706554	
-0.0745777	
-0.0687592	
-0.0644312	
-0.0664518	
0.0193622	
0.0298838	
0.0157801	
0.0217144	
0.0248434	
0.0309286	
0.00971101	
0.00786243	
0.0148325	
-0.0785183	
-0.0826529	
-0.0817605	
-0.0809292	
-0.0828877	
-0.0268555	
-0.0398646	
-0.0389399	
-0.0831662	
-0.0799341	
-0.0827475	
-0.0809589	
-0.0780445	
-0.0826105	
-0.0713437	
-0.0683876	
-0.0670209	
-0.0713701	
-0.0737884	
-0.0505759	
-0.0437968	
-0.0484552	
0.0559032	
0.0364151	
0.0464334	
0.0437964	
0.0135396	
-0.00112493	
0.016572	
0.0119262	
0.044318	
0.0571057	
0.0533016	
0.0519511	
0.0412188	
-0.0525415	
-0.042919	
-0.0460602	
-0.0385734	
0.0575775	
0.0601288	
0.0469667	
0.0477364	
0.0587879	
0.0283124	
0.0348313	
0.0188004	
0.0271119	
-0.0717612	
-0.0772384	
-0.0811765	
-0.032629	
-0.0829072	
0.0280408	
-0.0586388	
-0.0558707	
-0.0837053	
-0.077292	
-0.0778638	
-0.0815672	
0.0457686	
-0.0800251	
-0.0819512	
-0.0783934	
-0.08122	
-0.0682575	
-0.0713184	
0.0230454	
0.0127221	
0.0229117	
-0.0702446	
-0.0737354	
-0.0735115	
-0.0781222	
0.0342132	
0.0345694	
0.0119051	
-0.0677256	
-0.0627625	
0.017639	
0.0267339	
0.0188411	
0.028033	
-0.0418783	
-0.0489902	
-0.0566858	
0.0299226	
0.0392672	
-0.0482928	
-0.0417122	
-0.083991	
-0.0827796	
-0.0708205	
-0.0766397	
-0.0653365	
-0.0727668	
0.0387001	
0.0428587	
0.0427773	
0.0160408	
0.00405925	
-0.00195419	
-0.0723495	
-0.0775219	
-0.0761841	
0.0297776	
0.0235283	
0.0389561	
-0.0759988	
-0.0795836	
-0.0821454	
-0.0751589	
-0.0721186	
-0.0613216	
-0.0550804	
-0.0803531	
-0.0833165	
-0.0781095	
-0.0808769	
0.0210573	
0.0300077	
0.0550417	
0.0419806	
0.0345344	
0.0353708	
0.043075	
0.0362782	
-0.0285177	
-0.0214858	
0.0520296	
0.0555255	
0.0438894	
0.0547286	
0.0598052	
0.0343657	
0.0342877	
-0.0606773	
-0.0512838	
-0.0583751	
-0.052518	
0.042049	
-0.0823527	
-0.0803776	
-0.0821533	
-0.0799864	
-0.02658	
-0.0265607	
-0.0739087	
-0.0706679	
-0.0798638	
0.0362172	
0.0431596	
0.0607604	
-0.0130668	
-0.0045851	
-0.00777983	
-0.0249414	
-0.0178936	
-0.0638008	
-0.0627235	
-0.083316	
-0.08061	
0.0303044	
0.0179365	
0.0225788	
-0.0782741	
-0.0730822	
-0.0238346	
-0.0175397	
-0.0238544	
-0.0321455	
0.0359811	
0.0348093	
0.0270862	
0.0423124	
0.0368812	
-0.0405235	
-0.0326978	
-0.0472764	
-0.0465578	
0.00732024	
-0.0623842	
-0.0567525	
-0.00647122	
0.00425097	
-0.00520524	
0.00898415	
0.0582937	
0.0490098	
0.0434575	
0.0318759	
0.0611786	
0.0592618	
0.0286347	
0.0196848	
0.0187236	
0.0132777	
-0.0810104	
-0.0781434	
0.0613561	
0.0594492	
0.0388807	
0.0355532	
-2.36882e-06	
0.056764	
0.0538591	
0.0434156	
0.0587817	
0.061176	
0.0525991	
0.0548626	
0.0587569	
0.0601974	
0.0577235	
0.0330089	
0.0391916	
0.0223293	
0.0304965	
-0.0585812	
-0.0593788	
-0.0215546	
-0.018365	
-0.012078	
-0.00463009	
-0.058007	
-0.0545168	
-0.0451506	
-0.0229375	
0.0238416	
0.0246546	
0.0328424	
0.03886	
0.0410497	
0.0557917	
0.0465692	
0.0603605	
0.0285281	
0.0284221	
0.042225	
0.0507899	
0.0594807	
0.0575344	
0.0601914	
0.0593506	
0.0232153	
0.0257076	
0.0468343	
0.0400904	
-0.082787	
-0.0765924	
-0.0825203	
-0.079423	
-0.0375294	
-0.0455467	
-0.0529854	
-0.0539476	
0.0609147	
0.0565386	
0.038748	
0.0447921	
0.0457763	
0.0581616	
0.0439638	
0.0352841	
0.0353267	
0.0224175	
0.0276809	
0.0416478	
0.0455243	
0.0467908	
0.0573342	
0.0433379	
0.042696	
0.0604149	
0.0435816	
0.042017	
0.043029	
-0.0764064	
-0.080715	
-0.0795595	
0.00675757	
0.0100295	
-0.00404072	
-0.00888985	
0.0447167	
0.00119316	
0.0128914	
0.00693807	
0.0182726	
-0.00141761	
0.00904471	
0.0177605	
-0.0822787	
-0.0831634	
-0.0826956	
0.0350489	
0.0354885	
0.0465724	
0.0576948	
-0.0826757	
-0.000833376	
-0.00423152	
0.0558131	
0.0581654	
0.0487539	
0.0583475	
0.0485793	
0.0559377	
0.0541359	
0.0566131	
0.0589255	
-0.00686612	
-0.0147767	
0.0253686	
0.0286224	
0.0612827	
0.047554	
0.0579939	
0.0561435	
0.0580871	
0.0604531	
0.0580407	
0.0606549	
0.0415491	
0.0334066	
0.0580366	
-0.00948437	
0.0276411	
0.0317273	
0.0429825	
0.039202	
0.0353019	
0.0440619	
0.0333018	
0.0417675	
0.057299	
0.0593508	
-0.00479352	
0.0381344	
0.0278752	
0.0523271	
0.0383671	
0.0512601	
0.0310508	
0.0338501	
0.0199015	
0.0267428	
0.00959984	
0.0132895	
0.027955	
0.0288654	
0.042548	
0.0446823	
0.0613108	
0.058627	
0.0493408	
0.0460521	
0.0382557	
0.0187019	
0.0555553	
0.0576464	
0.0253874	
0.0470444	
0.0575478	
-0.0771794	
-0.0712117	
-0.0809102	
-0.0775981	
0.0329359	
0.0408522	
-0.0822143	
-0.0831534	
0.016283	
0.0203547	
-0.0186498	
-0.0116022	
0.0409312	
0.060492	
0.0557584	
-0.0617382	
-0.0544268	
-0.0582102	
-0.0497029	
0.0216463	
0.00199711	
-0.00483126	
0.0335126	
0.0429943	
0.0101078	
0.0176384	
0.00618452	
0.0126819	
0.02218	
0.030687	
-0.0590179	
-0.0561366	
-0.051647	
-0.0429372	
0.0412645	
0.0467677	
-0.0105679	
-0.0197639	
-0.019832	
-0.0280044	
-0.0361832	
-0.0416837	
-0.0273955	
-0.0364222	
0.0173261	
0.00898661	
0.0106539	
0.0545576	
0.04259	
0.0559501	
0.0515107	
-0.00143424	
-0.00710215	
0.0440147	
0.056765	
-0.0332973	
-0.0340187	
-0.00911813	
-0.0177264	
0.0605656	
-0.0261016	
-0.0127412	
-0.0223858	
-0.0392767	
-0.0425825	
-0.0354316	
0.0566823	
0.0607747	
0.0464712	
0.0392501	
0.0450057	
0.0452156	
0.0456832	
0.056139	
-0.0248886	
-0.0314466	
0.049879	
0.0411367	
0.0110455	
0.00974368	
-0.0166179	
-0.0128328	
-0.0284346	
-0.0297028	
0.0557434	
0.0557081	
0.0454293	
0.0449121	
-0.00962539	
-0.0126983	
-0.00162796	
0.00166358	
-0.0171101	
-0.0240346	
-0.0198262	
-0.0131926	
-0.0275514	
-0.0212441	
0.0485934	
0.0398408	
0.0574789	
0.0429167	
0.0596397	
0.0547316	
-0.00116832	
0.00327132	
0.044685	
0.0571039	
0.0543139	
0.0595404	
-0.000422373	
0.00266252	
0.0586618	
0.050881	
0.0613144	
0.0564227	
-0.0108764	
-0.0182585	
0.0485887	
0.0564479	
0.056104	
0.0606746	
0.0046424	
0.00255277	
0.0582092	
0.0557525	
-0.0833826	
-0.0833304	
-0.0830818	
-0.0826145	
0.0218235	
0.0219675	
0.0587415	
0.0559468	
0.0474138	
0.0579129	
0.0597249	
0.0573803	
0.0276743	
0.0256294	
0.0258451	
0.0484544	
0.0589062	
-0.022728	
-0.0171618	
0.0197503	
0.0227658	
0.0337814	
0.0319617	
0.0573504	
0.0603655	
-0.0168435	
-0.0285893	
-0.0187668	
-0.0347326	
0.0613547	
0.0565548	
0.0583761	
0.0503909	
0.0156049	
0.0154478	
-0.0748498	
-0.0792441	
-0.0738787	
-0.0776561	
0.00842545	
-0.000254071	
0.00895176	
0.0024738	
-0.00346258	
0.0702071	
0.0320551	
0.0702951	
0.0705704	
0.0289376	
0.0059575	
0.0062146	
0.019597	
0.0704015	
0.0699226	
0.0683439	
0.0679607	
0.0683119	
0.00842567	
0.0482505	
0.00342558	
-0.00539707	
-0.00644544	
0.068299	
0.0698542	
0.0670072	
0.0265468	
0.0380876	
0.0241997	
0.00858965	
0.0126972	
0.0445394	
0.0556713	
0.0233503	
0.0295386	
0.0446635	
0.0174035	
0.0702713	
0.0626589	
0.0619274	
0.0742281	
0.0627321	
0.0200225	
0.0600535	
0.0559906	
0.0610716	
0.00862077	
0.00756666	
0.00147659	
0.00848542	
0.00804448	
0.00340712	
0.00749873	
0.00850753	
0.00781675	
0.064232	
0.0679815	
0.0215507	
0.0352462	
0.0617152	
0.070222	
0.0712156	
0.0401786	
0.0468272	
0.0348978	
0.0419654	
0.0739229	
0.0740927	
0.071315	
0.0707403	
0.0732921	
0.0718201	
0.073527	
0.0735168	
0.0736347	
0.0634131	
0.0237393	
0.0739962	
0.0651651	
0.0737528	
0.00582296	
0.00666105	
0.00354068	
0.00234397	
0.00353993	
0.00678113	
0.0687409	
0.0646361	
0.054088	
0.0613046	
0.0464432	
0.0713321	
0.0696134	
0.0717046	
0.0323117	
0.0669381	
0.0698806	
0.0684978	
0.000644245	
0.00627029	
0.00534883	
0.00226916	
0.0711893	
0.00562496	
0.00516437	
0.00658344	
0.00665658	
0.00616334	
0.00361378	
0.00662291	
0.0058063	
0.038793	
0.0612441	
0.0258141	
0.0480018	
0.00901561	
0.0601941	
0.0643847	
0.0638083	
0.0681662	
0.0680625	
0.0326174	
0.0699845	
0.0711626	
0.0689602	
0.0727118	
0.0246895	
0.0316756	
0.0344349	
0.0552612	
0.0503948	
0.0505474	
0.0719372	
0.0565009	
0.0585896	
0.0174175	
0.00935664	
0.0126644	
0.0117991	
0.011425	
0.0740971	
0.0742484	
0.0728555	
0.016986	