<VTKFile type="UnstructuredGrid" version="0.1" byte_order="LittleEndian">
	<UnstructuredGrid>
		<Piece NumberOfPoints="1759" NumberOfCells="3358">
			<CellData Scalars="scalars">
				<DataArray type="Float64" Name="Doublet Strengths" NumberOfComponents="1" Format="ascii">
-0.0232975	
-0.00524635	
-0.0216533	
0.0697183	
0.00063287	
0.0681097	
-0.000627563	
0.0692658	
0.0682707	
0.0675211	
0.0679721	
0.00204663	
0.0681353	
0.025005	
-0.0135796	
-0.0130439	
0.000748056	
-0.00490916	
0.00606845	
0.0676144	
0.066607	
0.0698113	
0.0641642	
0.060872	
0.0479374	
0.000707011	
0.0109545	
0.00595981	
0.00272045	
-0.0014146	
0.0189018	
0.0114051	
0.0100906	
0.017702	
-0.00528689	
0.00729816	
-0.00489321	
0.00607986	
0.0234785	
0.0221617	
0.0322214	
0.0644344	
0.0714975	
0.0671702	
0.0700683	
0.0612007	
0.0580548	
0.0439205	
0.0570593	
0.067338	
-0.0195414	
-0.0153527	
-0.0146688	
-0.0215657	
-0.0185172	
-0.0155853	
-0.0158527	
0.0609655	
0.0533958	
0.0665734	
0.0693121	
0.0666825	
0.0588568	
0.060153	
0.0677716	
0.0675243	
0.0557594	
0.0501944	
0.067377	
0.0685084	
0.0677041	
0.015297	
0.0683217	
0.0684532	
0.0599619	
0.0664681	
0.00325689	
0.0615126	
0.0681018	
0.0608803	
-0.013383	
-0.0136374	
-0.0139272	
-0.0236581	
-0.0198759	
-0.0202084	
0.058325	
0.0479218	
0.0530063	
0.0542097	
0.00213883	
0.00934267	
0.0208767	
0.0249344	
0.0650657	
0.0650534	
-0.0200663	
-0.0170139	
-0.0184261	
-0.01568	
0.065891	
0.0668646	
0.0503051	
0.0552759	
0.0474808	
-0.0173766	
-0.0185554	
-0.0200813	
-0.0180217	
0.0623043	
0.0625293	
0.0596467	
0.0584643	
0.0588685	
0.0312617	
0.030483	
0.0659698	
0.00163246	
-0.00147775	
0.0652937	
0.0662177	
0.0611825	
0.0633801	
-0.000311722	
-0.00749722	
-0.00120342	
0.0635002	
0.0487396	
0.0459051	
0.0450047	
0.0384229	
0.0454595	
0.0625361	
0.0647009	
0.0325695	
0.0616414	
0.0532099	
0.0133092	
0.0615921	
0.0124726	
0.00878571	
0.0601566	
0.0624059	
0.0649134	
0.0658241	
0.0509897	
0.0399269	
0.0471485	
0.0486825	
0.0491493	
0.0441674	
0.0594512	
0.0260245	
0.0492094	
0.0472352	
0.0420732	
0.0304427	
0.000407849	
0.0687201	
0.0673553	
0.0546594	
0.0581303	
0.0542893	
0.0221719	
0.0617688	
0.00385807	
-0.00741846	
-0.0125758	
-0.010134	
-0.0190746	
8.9565e-05	
0.0332526	
0.0210636	
0.0508424	
0.0596781	
0.0564575	
-0.00538962	
-0.0107753	
-0.00971386	
-0.00141222	
-0.00719892	
-0.000883374	
0.0701492	
0.0574522	
0.0548289	
0.0503096	
0.067182	
0.0684176	
0.0599466	
0.0611421	
0.0632178	
0.0664923	
0.0684966	
0.0702864	
0.0664496	
0.0713728	
0.0697911	
0.070193	
0.0398273	
0.0704188	
0.0695718	
0.06529	
0.0674719	
0.0683768	
-0.0162063	
-0.0117669	
0.0376639	
0.0313786	
0.043121	
0.0468508	
0.0437529	
0.0269445	
0.0200185	
0.000527435	
0.00692729	
0.0105697	
0.0626524	
0.0632454	
0.0609469	
0.0101649	
0.0029402	
0.0140323	
0.00997376	
0.0483447	
0.0561643	
0.0565168	
0.0548531	
0.0480131	
0.0449043	
0.0621932	
0.0651765	
0.0649562	
0.0568835	
-0.00968832	
-0.00526671	
0.0637827	
0.0635374	
0.0520538	
0.0554091	
-0.0134788	
-0.0166221	
-0.0172956	
0.0233361	
0.0305024	
0.0352247	
0.0683747	
0.0686655	
-0.0186785	
-0.0181355	
0.0610072	
-0.0154832	
-0.0229461	
-0.0222068	
-0.0239751	
0.0123299	
0.00865602	
0.0110902	
0.0260723	
0.0201857	
0.0265477	
0.0656684	
-0.0199504	
-0.0190452	
-0.0169392	
0.0530048	
0.047287	
-2.44612e-06	
0.00568506	
-0.0131528	
-0.005964	
0.00765154	
0.00986444	
0.0536434	
0.0591321	
0.0551945	
0.055961	
0.0610894	
0.0599328	
0.0519213	
0.0579646	
0.0515864	
-0.019704	
-0.020978	
-0.0187045	
-0.0188009	
-0.0203517	
0.0365143	
0.0279304	
0.0273333	
-0.0159497	
-0.0148084	
-0.00950521	
-0.006535	
-0.0106756	
-0.0143496	
-0.00858487	
-0.0121162	
-0.0128214	
-0.0156964	
-0.0148205	
0.0188957	
0.0206472	
0.0239943	
0.0665292	
0.0518676	
0.0533113	
0.0494212	
0.0495845	
0.066815	
0.0687994	
0.0614072	
0.0595855	
0.0587489	
0.0192945	
0.0233662	
0.0685988	
0.069832	
0.0677841	
0.0684965	
0.0695752	
0.0604545	
0.0658534	
0.0607667	
0.0658988	
-0.0135033	
-0.0189647	
-0.0178797	
0.0318517	
-0.0136997	
0.0569106	
-0.0141417	
-0.0122969	
-0.0223397	
-0.0234889	
-0.0188462	
-0.0179583	
0.0684829	
-0.0129916	
-0.00885132	
-0.0128603	
-0.00875323	
-0.0152768	
-0.0148241	
0.0597724	
0.0613912	
0.0556458	
-0.0013283	
0.0021998	
-0.00634564	
-0.00119468	
0.0601856	
0.0596261	
0.054745	
0.00238807	
-0.000798191	
0.0594858	
0.063028	
0.0588952	
0.0625376	
0.0184279	
0.0203373	
0.0118831	
0.0644944	
0.0674117	
-0.00987659	
-0.0119616	
-0.0148406	
-0.0185803	
0.0490156	
-0.00367215	
0.0025595	
-0.00022529	
0.00577514	
0.0668727	
0.0657455	
0.065589	
0.0462219	
0.0461987	
0.0397408	
-0.00589313	
-0.00938186	
-0.0126458	
0.0673358	
0.0644497	
0.0623182	
-0.00838213	
-0.00454616	
-0.0131149	
-0.00776198	
-0.011603	
0.0325766	
-0.00701527	
-0.0093412	
-0.0158065	
-0.0104485	
-0.0112326	
-0.0071873	
0.0605461	
0.0639134	
0.0685449	
0.0646587	
0.0569845	
0.065482	
0.0653739	
0.0666845	
0.0663596	
0.0397618	
0.0351118	
0.0648495	
0.0620593	
0.0679062	
0.0675194	
0.0704567	
0.0652974	
0.0653707	
-0.00387791	
-0.00389744	
0.00279827	
5.17789e-05	
0.057611	
-0.00965603	
-0.0155161	
-0.00905245	
-0.0129539	
0.0354978	
0.0368569	
0.00202335	
-0.00672601	
-0.00923485	
0.0663261	
0.0673079	
0.0693281	
0.0416148	
0.0474025	
0.0442891	
0.0415799	
0.0360272	
-0.0143254	
-0.0145985	
-0.0243481	
-0.0228239	
0.0579295	
0.0557207	
-0.000728014	
-0.00699879	
0.0347264	
0.0336163	
0.0369543	
0.00560439	
0.0082956	
0.0663931	
0.0636011	
0.0635949	
0.0668639	
0.0678369	
0.0155065	
0.00954163	
0.0180865	
0.00765808	
0.0529095	
0.0141743	
0.009355	
0.0537034	
0.0458951	
0.0551441	
0.0504877	
0.0701255	
0.068355	
0.0686587	
0.0375024	
0.0427133	
0.0698539	
0.0689715	
0.0641255	
0.0641857	
0.0581889	
0.0604353	
-0.00705602	
-0.0113766	
0.0695466	
0.0685297	
0.0390842	
0.0445294	
0.0317119	
0.0513993	
0.0657965	
0.0666902	
0.0686483	
0.0617634	
0.0625405	
0.0673604	
0.0685621	
0.0668136	
0.0669244	
0.0624605	
0.0645826	
0.0618522	
0.011992	
0.0124843	
0.0402742	
0.0379439	
0.0488497	
0.0518515	
0.0126232	
0.00922288	
0.0129016	
0.0386064	
0.0625826	
0.062155	
0.066382	
0.065257	
0.0682153	
0.067027	
0.0710314	
0.068429	
0.0527648	
0.0498011	
0.0672401	
0.0572012	
0.0673102	
0.0692272	
0.0671626	
0.0630575	
0.0622279	
0.0682144	
0.0673165	
-0.0244181	
-0.0236064	
-0.0243516	
-0.0237329	
-0.0139431	
-0.0121002	
-0.0142789	
-0.0134944	
0.0681833	
0.0680897	
0.0713769	
0.0678245	
0.0680302	
0.068063	
0.0705681	
0.0676436	
0.063829	
0.0637663	
0.0619879	
0.0650534	
0.0644342	
0.0711762	
0.0684731	
0.0682547	
0.0683346	
0.0674355	
0.0674216	
-0.0199556	
-0.0210909	
-0.0229706	
0.0548715	
0.0531863	
0.036659	
0.0468836	
0.0578825	
0.0501396	
0.0600002	
0.0592992	
0.0562709	
0.0608869	
0.0508923	
-0.0135171	
-0.0188032	
-0.0169152	
0.0547936	
0.0535161	
0.0676868	
0.0692341	
-0.0218826	
0.0497269	
0.0508951	
0.0687948	
0.0694525	
0.0683419	
0.0681356	
0.0700701	
0.0550801	
0.0544935	
0.0704823	
0.0707501	
0.0478626	
0.0427518	
0.0684856	
0.0705531	
0.0685312	
0.065726	
0.066881	
0.0708125	
0.0697635	
0.0691926	
0.0388739	
0.0649873	
0.0681467	
0.0651125	
0.0638772	
0.068184	
0.0678205	
0.0694226	
0.0701846	
0.0468756	
0.0650652	
0.0611772	
0.057628	
0.0599435	
0.0578476	
0.0657497	
0.065035	
0.0635543	
0.0601075	
0.0558256	
0.0572586	
0.0667903	
0.0614556	
0.0641904	
0.0601018	
0.0639227	
0.063902	
0.0668596	
0.0673115	
0.0700622	
0.0688015	
0.0548488	
0.0523119	
0.0543671	
0.0603177	
0.0670418	
0.0676047	
0.0598275	
0.0708826	
-0.0150796	
-0.0209251	
-0.0191247	
-0.0201556	
0.0654385	
-0.0160113	
-0.0134189	
0.0454661	
0.0675901	
0.0687423	
0.0708783	
0.0159251	
0.00743322	
0.0192453	
0.0175289	
0.0675893	
0.0705133	
0.0705663	
0.0690067	
0.0378643	
0.0527417	
0.0490018	
0.0550082	
0.0538902	
0.0677519	
0.0427023	
0.0566184	
0.0599359	
0.0543818	
0.0574202	
0.046916	
0.0422435	
0.0183347	
0.0231858	
0.0122484	
0.0146905	
0.0661005	
0.0671791	
0.0673062	
0.0672392	
0.0560418	
0.0628593	
0.0560286	
0.0394559	
0.039068	
0.0293021	
0.0278819	
0.021446	
0.0237265	
0.0187478	
0.0626499	
0.0646503	
0.0682639	
0.0680276	
0.0702147	
0.0715481	
0.0633339	
0.0644259	
0.0628855	
0.0708698	
0.0685537	
0.0679847	
0.0676557	
0.0692559	
0.0625395	
0.0631415	
0.0660435	
0.0161509	
0.0178244	
0.0143652	
0.0252828	
0.0240875	
0.0207991	
0.0229659	
0.0685505	
0.0709882	
0.0685207	
0.0643609	
0.0652924	
0.0682106	
0.0676803	
0.0681994	
0.037389	
0.0330769	
0.0586658	
0.0565906	
0.0288776	
0.0328169	
0.023761	
0.0306585	
0.0433232	
0.0408844	
0.0400602	
0.0294849	
0.0396833	
0.0322093	
0.0447076	
0.0426192	
0.0499955	
0.0514626	
0.0440945	
0.0386628	
0.034915	
0.0652485	
0.0660301	
0.0645102	
0.0639971	
0.0570055	
0.0539761	
0.0446226	
0.0443771	
0.0679752	
0.0703867	
0.0695641	
0.0676549	
0.0701908	
0.067792	
0.0672367	
0.0689352	
0.0701911	
0.0676795	
0.051523	
0.0526886	
0.0703523	
0.0674238	
0.0688653	
0.0705983	
0.0690425	
0.0678095	
-0.0202626	
-0.0169122	
-0.0202507	
-0.0183699	
0.0247171	
0.047579	
0.0493041	
0.0710079	
0.0710333	
0.069842	
0.0637008	
0.063011	
0.0685376	
0.0699431	
0.0422984	
0.0405024	
0.0238346	
0.0606585	
0.0647442	
0.0652731	
0.0221957	
0.0280724	
0.0627566	
0.059606	
0.0709916	
0.0690987	
0.0341896	
0.0435839	
0.0299205	
0.0329988	
0.0424094	
0.04053	
0.0372683	
0.0349859	
0.0357679	
0.0333389	
0.0284357	
0.0270853	
0.0324702	
0.0327962	
0.0691977	
0.0682829	
0.0669414	
0.0699678	
0.0635849	
-0.0388955	
0.0625639	
0.0624357	
-0.0431335	
-0.0509957	
-0.0562246	
-0.0517774	
0.0625604	
0.0621026	
0.0606256	
0.0620982	
0.0601901	
0.0609704	
-0.0308091	
0.044861	
0.0614277	
0.0617975	
-0.0297883	
-0.0326214	
-0.0339136	
0.0630621	
0.0626518	
0.0598664	
-0.0393111	
-0.0324991	
-0.0478681	
-0.0230238	
-0.0355864	
-0.0241328	
-0.0051487	
-0.0462046	
-0.0390184	
-0.0230065	
-0.0545347	
0.012137	
0.0630715	
0.0548167	
0.0554066	
0.0454311	
0.0452553	
0.0412792	
-0.0438133	
0.00307665	
-0.00326969	
0.00529041	
-0.0586383	
-0.0515861	
-0.0572355	
-0.0590811	
-0.0588422	
-0.0541838	
-0.00960998	
0.00668785	
-0.0590469	
-0.0582859	
-0.0591882	
0.0122687	
0.0217377	
-0.0513172	
0.0434567	
0.0247839	
0.0289478	
0.0483588	
0.0480242	
0.046343	
0.0464877	
0.0478587	
0.0495662	
0.0485885	
0.0419735	
0.0492138	
0.0472956	
0.049461	
0.0529186	
-0.0493867	
0.0412137	
0.0126006	
0.0411371	
-0.0490229	
-0.0570589	
-0.0471228	
-0.0507973	
-0.0529927	
-0.056868	
0.011371	
0.0219809	
-0.00350238	
0.00624209	
-0.0134886	
0.0328379	
0.0360654	
0.0274433	
-0.0134803	
0.0310834	
0.0303753	
0.0279098	
-0.0558854	
-0.0584616	
-0.0568929	
-0.0585963	
0.0320821	
-0.0519316	
-0.0563651	
-0.0557671	
-0.054966	
-0.0582431	
-0.0521025	
-0.0569506	
-0.0586942	
0.0135872	
0.00405621	
-0.0380045	
-0.0467752	
0.0143935	
0.0394045	
0.0351724	
0.0166308	
0.02911	
-0.0354344	
0.0271093	
0.0372334	
0.0350844	
-0.040464	
-0.0480643	
-0.0371474	
-0.01314	
-0.0140024	
-0.0130559	
-0.00376552	
-0.0537682	
-0.057379	
-0.0572225	
-0.0413677	
-0.050727	
0.0366451	
-0.0512939	
-0.0482637	
-0.0466003	
-0.0482575	
-0.0444012	
0.00481182	
-0.00532243	
-0.00456578	
-0.00677055	
0.0435067	
-0.0363001	
-0.0438122	
-0.0546252	
-0.0568646	
0.0527222	
0.0470144	
-0.0576325	
-0.0511248	
-0.0483161	
0.0311364	
0.0227663	
0.0229707	
0.0224836	
0.010413	
-0.016155	
-0.00720529	
0.0114516	
0.00672172	
0.0164654	
0.0127406	
-0.0220457	
-0.013376	
0.0478516	
0.0458262	
0.0583178	
0.0591568	
0.050374	
0.0504545	
0.0611656	
0.052073	
0.0520299	
0.060714	
0.0510212	
-0.0549552	
-0.0575576	
0.0618661	
0.0609759	
0.0526525	
0.0530075	
-0.0504852	
-0.0567105	
-0.0488935	
0.0307463	
0.0275091	
0.0271239	
-0.0161989	
0.00128785	
0.0124316	
0.0463221	
0.0471362	
0.0410017	
0.0165315	
0.00916464	
-0.0190085	
0.0196599	
0.0319045	
0.0197016	
0.0188329	
0.0115398	
-0.0114489	
0.0220073	
0.0137525	
0.0498041	
0.0529617	
-0.0498445	
-0.0403858	
0.0384283	
0.0399538	
0.0344069	
0.0377517	
0.0420352	
0.0415445	
0.0385964	
0.0366077	
0.0379215	
0.0387308	
-0.0568341	
-0.057438	
-0.0565664	
0.0387304	
0.0423799	
0.0420614	
-0.00700396	
0.00105513	
0.00927792	
-0.050622	
-0.0574111	
-0.0553393	
-0.0250247	
-0.00935368	
-0.00701165	
0.0391017	
0.0402851	
0.00676826	
0.00316078	
0.051184	
0.0510394	
0.0580952	
0.0414804	
0.0406241	
0.022526	
0.0211714	
-0.0573334	
0.0613895	
-0.0484307	
-0.0558974	
-0.0529305	
0.0266108	
0.0282657	
0.0094104	
0.0231267	
0.0268407	
0.0377591	
0.0447035	
0.0508027	
-0.057479	
0.0174391	
0.0190855	
0.0445046	
0.0453269	
0.0310091	
0.0403943	
-0.0488425	
-0.0536236	
-0.0568906	
-0.057067	
-0.0522333	
-0.0586998	
-0.0570548	
-0.0559589	
-0.0585256	
0.0182167	
0.0257559	
0.0120666	
0.0276684	
0.0261563	
0.037224	
0.040056	
0.0260097	
0.0321161	
-0.0231827	
-0.0169588	
-0.029867	
0.0346182	
0.0225046	
0.0156116	
0.0134385	
0.02662	
0.0106757	
0.0168628	
0.0060469	
-0.0358133	
-0.0288049	
-0.0294241	
-0.0222095	
0.0361626	
-0.0200045	
-0.0512777	
-0.0552077	
-0.0506177	
-0.0550331	
0.0415051	
0.0467249	
0.0395086	
-0.0481969	
-0.0558018	
-0.0522438	
0.0446361	
0.0513039	
0.0622989	
0.0609971	
0.0593325	
0.0494056	
0.0521685	
0.0611563	
0.0512078	
0.0617795	
0.0605605	
-0.0429509	
-0.0546783	
-0.0530904	
-0.0493922	
-0.0548573	
-0.052633	
-0.0564247	
-0.0380891	
-0.0306304	
-0.0246154	
-0.0238997	
0.0376055	
0.0409724	
0.0359212	
-0.0421739	
-0.0455311	
-0.0558083	
-0.0480076	
-0.0573555	
-0.0537172	
-0.0577391	
-0.0565315	
-0.0585463	
-0.056522	
-0.0585583	
-0.0565667	
-0.0556397	
-0.051832	
0.0404945	
0.00525723	
0.000272517	
-0.00872264	
-0.0133579	
-0.0147601	
-0.0219953	
-0.0377364	
0.0326615	
0.0378704	
0.0367068	
0.0477738	
0.0450842	
0.0245273	
0.0222926	
-0.034957	
-0.0407751	
-0.0332067	
-0.045095	
-0.0533211	
-0.050718	
0.0366391	
0.0441683	
0.0292904	
-0.02783	
-0.0323509	
-0.0527873	
-0.0487722	
-0.0481134	
-0.0454464	
-0.0473611	
-0.0539635	
-0.0547825	
-0.0495814	
-0.0533525	
-0.0376166	
-0.0323533	
-0.0568846	
-0.0563333	
0.0326822	
0.0280739	
0.0234777	
-0.0455681	
-0.0496151	
-0.0382638	
-0.0483157	
-0.0548156	
-0.0568827	
-0.0580485	
-0.0548462	
-0.0568827	
-0.0556747	
-0.0577574	
0.0428679	
0.0389183	
0.0256148	
0.0350653	
0.0244401	
0.0339998	
-0.045584	
-0.0421637	
-0.0484855	
-0.0440976	
-0.0547357	
-0.0569049	
-0.0525261	
-0.0534828	
0.0227578	
0.0268594	
0.0481892	
0.0504166	
0.0586243	
0.0496108	
0.0448106	
0.0598407	
0.0503263	
-0.0398069	
-0.0412017	
-0.0369486	
-0.0401667	
-0.0431731	
-0.0328027	
-0.0288729	
-0.0314804	
-0.0182666	
0.0111118	
-0.0398609	
-0.0467866	
-0.0452696	
-0.0489422	
0.0475959	
0.0561217	
-0.0272408	
-0.047306	
-0.0488396	
-0.05168	
-0.0552865	
-0.0381796	
-0.0436749	
-0.0428564	
-0.0462402	
0.00691112	
0.0186925	
0.0165612	
-0.0374945	
-0.0306579	
-0.0313207	
-0.0319966	
-0.0258338	
0.0524351	
0.0608637	
0.0377088	
0.032933	
0.0432737	
0.0528416	
0.048581	
0.0367824	
0.0333116	
0.0339504	
0.0335076	
0.0628827	
0.00664933	
0.0476339	
0.0411281	
0.0619353	
0.0632407	
0.0627304	
0.0500385	
0.0420954	
0.0393355	
0.0276786	
0.0282817	
0.0211287	
0.0290678	
0.0185708	
0.0270891	
0.0391073	
0.0393968	
-0.0415363	
-0.0355695	
-0.0466313	
-0.0459694	
0.0608003	
0.0594005	
0.035912	
0.041094	
0.062701	
0.0612117	
0.0620761	
0.0605891	
0.0613029	
0.0628598	
0.0626305	
0.0589383	
0.0311839	
0.0322728	
0.0632434	
0.0597883	
0.0586291	
-0.00778856	
-0.00816604	
-0.0160972	
-0.0228094	
-0.05287	
-0.0561356	
-0.0516117	
-0.054282	
0.0292083	
0.0317044	
0.025228	
0.029565	
0.00967552	
0.0371136	
0.0406771	
0.0356888	
0.0114893	
0.0622766	
0.0625025	
0.0506393	
0.0606463	
0.0369562	
0.0628872	
0.0629597	
-0.0545309	
-0.0474583	
-0.0541972	
-0.0504649	
-0.0421798	
-0.0408932	
-0.0363981	
-0.0304762	
0.00422204	
-0.0554543	
-0.0539702	
-0.0494052	
-0.0494882	
0.0348688	
0.025076	
0.0282818	
0.0213809	
0.0409469	
0.0430194	
0.0305129	
0.0366776	
0.0322881	
0.035186	
0.0246291	
0.0582691	
0.0476144	
0.0599397	
0.0621737	
0.0395451	
0.04108	
0.0483344	
0.0606265	
0.0619516	
0.0446588	
0.0544158	
0.0439969	
0.0603435	
0.0624874	
0.0498902	
0.0603404	
0.0507064	
0.0156947	
0.0232049	
0.0605214	
0.0504996	
0.0237831	
0.0309001	
0.0240777	
0.0479169	
0.0466268	
0.0609666	
0.0515219	
0.0617531	
0.0559762	
0.0589123	
0.016439	
0.0184006	
0.0578967	
0.0601693	
0.0509162	
0.0561187	
0.0461424	
0.0569409	
0.0540331	
0.0619096	
0.0601098	
0.0491749	
0.053555	
0.048186	
0.0475192	
0.0579946	
0.0551729	
0.0609788	
0.062574	
0.0399738	
0.0624573	
0.0462138	
0.050408	
0.051334	
0.0389461	
0.0389712	
0.0343221	
0.0306757	
0.0605406	
0.061977	
0.0445661	
0.0371623	
-0.000869876	
-0.00398502	
0.00373265	
0.0209479	
-0.00520783	
0.0536525	
0.0369303	
0.0372383	
0.055036	
0.0574483	
0.034927	
0.0391058	
-0.018862	
-0.0260163	
-0.0128423	
0.0295603	
0.0393422	
0.0485935	
0.052316	
0.0586789	
0.0495529	
0.0512472	
-0.0554583	
-0.0559538	
-0.0510953	
-0.0513612	
0.0559773	
0.0536951	
0.0465107	
0.0509599	
-0.0114584	
0.0459034	
0.0486475	
0.0349987	
0.0469068	
0.0608173	
0.0385497	
0.0355078	
-0.0520391	
-0.0559523	
-0.0543166	
-0.0563821	
0.0502812	
0.0576696	
0.0482863	
0.0465057	
-0.0230581	
-0.00391864	
-0.0210375	
0.0513878	
0.0517411	
0.0397269	
0.0417703	
0.0528375	
0.060493	
0.051863	
-0.0152596	
-0.029304	
-0.0036485	
0.00321433	
0.0602091	
0.0627797	
0.00748015	
0.0126055	
0.0127498	
0.052377	
0.0610818	
0.0629731	
0.000359722	
-0.0211491	
-0.00927568	
-0.0267406	
-0.0237248	
-0.0324247	
-0.0324574	
-0.0249677	
-0.0194963	
0.0288834	
-0.00562378	
-0.0140068	
0.0595359	
0.0607433	
0.0607463	
0.0618165	
0.0582581	
0.0599908	
0.0520424	
0.0481986	
0.0411484	
0.0579443	
0.0559128	
0.0479076	
0.0603429	
0.0616505	
0.0582436	
0.0228997	
-0.0146784	
-0.0235399	
-0.0108234	
-0.0187043	
0.0189174	
0.008269	
0.00444672	
0.0514558	
0.0625993	
0.0485818	
0.0611534	
0.0543034	
0.0524984	
0.0616142	
0.034156	
0.0347402	
-0.0291395	
-0.0366305	
-0.0402215	
0.0118318	
0.0122896	
0.037327	
0.0277238	
0.0339417	
0.0238991	
0.0599294	
0.0519278	
0.0629021	
0.0522262	
0.0613524	
0.0626108	
0.0201848	
0.0208984	
0.0610212	
0.0578181	
0.059758	
0.0504942	
0.0610499	
0.0624937	
0.0498271	
0.058646	
0.0497946	
0.0581577	
0.060135	
0.0610536	
0.0184199	
0.0220151	
0.0522464	
0.0504871	
0.0220507	
0.0220268	
0.0617146	
0.0529424	
0.0478181	
0.0494286	
-0.0146257	
-0.00636704	
0.0633001	
0.0531405	
0.0616228	
0.0625296	
0.0597279	
0.00399463	
0.0130639	
-0.0289312	
-0.036049	
0.0427944	
0.0404525	
0.0328807	
0.0334025	
0.00336803	
0.0256379	
-0.00199145	
-0.00556972	
0.0192251	
0.0182717	
0.0275076	
0.0307122	
-0.0248964	
-0.0144315	
0.0108351	
0.00727239	
-0.00153198	
-0.00220736	
-0.00302314	
0.00402989	
0.0093405	
0.00424228	
-0.0177849	
-0.011939	
-0.00450586	
-0.00208392	
0.00114888	
-0.0184252	
-0.0320255	
-0.030738	
-0.0400856	
-0.0427535	
0.0154651	
0.0230329	
0.0131201	
0.0222489	
0.0531346	
0.061599	
-0.0141647	
-0.0099285	
-0.00259961	
-0.00654047	
0.00172352	
0.0067074	
0.0112917	
0.0187933	
0.021062	
0.0154358	
-0.0147815	
-0.0119529	
-0.00889723	
-0.00141303	
-0.00532713	
0.00323588	
0.0189532	
0.0222316	
0.0121456	
0.0160466	
0.00804312	
-0.0127888	
0.0158559	
0.0117621	
0.00237811	
-0.00313766	
0.00722483	
-0.0103019	
-0.0132809	
-0.0158284	
-0.0153262	
-0.00723526	
0.0195726	
0.0178431	
0.0143235	
0.00597922	
0.0103692	
0.00101268	
-0.0149985	
-0.0132906	
-0.0105244	
-0.00739022	
-0.00365174	
0.0218046	
-0.0244166	
-0.00524528	
-0.0216531	
0.0697011	
0.000633495	
0.0681139	
-0.000591824	
0.0686916	
0.0681166	
0.0675343	
0.0680336	
0.00207247	
0.0681287	
0.0231486	
-0.0120824	
-0.0130306	
0.000757116	
-0.00489478	
0.00606194	
0.0675837	
0.0666015	
0.0652812	
0.0697881	
0.0608521	
0.0479546	
0.000725751	
0.0109548	
0.00595939	
0.00272761	
-0.00139646	
0.0191488	
0.0105369	
0.0109013	
0.0178642	
-0.00499619	
0.00800718	
0.00617951	
0.0235554	
0.0223327	
0.0322065	
0.0644616	
0.0714364	
0.0671752	
0.037534	
0.0601474	
0.0582886	
0.0507806	
0.057131	
0.0668061	
0.0682845	
-0.0190218	
-0.0158657	
-0.0145795	
-0.0214193	
-0.0169039	
-0.015513	
-0.0163341	
0.0609955	
0.0534657	
0.0665984	
0.0693105	
0.0666903	
0.058992	
0.0612303	
0.0677882	
0.0676773	
0.0564361	
0.0672441	
0.0684876	
0.067581	
0.0193281	
0.0687286	
0.0683554	
0.0600261	
0.0665139	
0.00294154	
0.0615318	
0.0680978	
-0.0133424	
-0.0136061	
-0.0138854	
-0.0236432	
-0.0201897	
-0.0198614	
0.0583872	
0.0534615	
0.0467838	
0.0543929	
0.00219148	
0.00936295	
0.0210713	
0.0251017	
0.0650643	
0.0650781	
-0.0169324	
-0.019968	
-0.0183425	
-0.0156127	
0.0661803	
0.0666578	
0.054491	
0.0499578	
0.0446115	
-0.0183289	
-0.0179956	
-0.0198085	
-0.0173188	
0.0623197	
0.0625646	
0.0596916	
0.0589639	
0.0583673	
0.0339215	
0.0285211	
0.0659947	
0.00165004	
-0.00147286	
0.0662619	
0.0622756	
0.063346	
0.0610304	
-0.00384467	
-0.00745603	
-0.00119221	
0.0636293	
0.0444418	
0.0459765	
0.064704	
0.0625948	
0.0344106	
0.0325169	
0.061243	
0.0532072	
0.039355	
0.0187135	
0.0124137	
0.0616985	
0.00790754	
0.0116922	
0.0624223	
0.0614073	
0.0656806	
0.0649251	
0.0508792	
0.0469064	
0.0396563	
0.0492513	
0.0486997	
0.0441712	
0.0604672	
0.0262774	
0.0473153	
0.0470329	
0.0400778	
0.0306273	
0.000491174	
0.0683399	
0.0675589	
0.0581818	
0.0484883	
0.0546449	
0.0221606	
0.0611058	
0.00303501	
-0.00739835	
-0.0125511	
-0.0101312	
-0.0190752	
0.000643638	
0.0211259	
0.029536	
0.054287	
0.0596949	
0.0490484	
0.0565016	
0.0570177	
-0.0113546	
-0.00677842	
-0.00974915	
-0.00114286	
-0.00733495	
0.0702883	
0.0573106	
0.0494962	
0.0540327	
0.0671985	
0.068837	
0.0603054	
0.0600511	
0.0632	
0.0665019	
0.0685013	
0.0703088	
0.0697407	
0.0713464	
0.0699837	
0.0704023	
0.0696464	
0.0674942	
0.0684398	
-0.0157929	
-0.0117376	
0.0336064	
0.0444304	
0.0324819	
0.038516	
0.0431433	
0.0366914	
0.0473114	
0.0153311	
0.025806	
0.00768993	
0.00139353	
0.0108198	
0.0626805	
0.0609512	
0.0632414	
0.00315874	
0.0100251	
0.0100279	
0.0140596	
0.0563085	
0.054821	
0.0565698	
0.0595844	
0.0450415	
0.0458532	
0.06221	
0.0649857	
0.0652113	
0.0573971	
-0.00517379	
-0.00961725	
0.0636109	
0.0638733	
0.0521465	
0.0554864	
-0.0134188	
-0.017219	
-0.0165587	
0.0305436	
0.0352532	
0.0326104	
0.0683848	
0.0686757	
-0.0185961	
-0.0180818	
0.0611018	
-0.0154276	
-0.022922	
-0.0239565	
-0.0221893	
0.012239	
0.0173424	
0.00853686	
0.0266026	
0.0269626	
0.0206181	
0.0126602	
0.0658352	
-0.0189959	
-0.0198917	
-0.0184792	
0.0530226	
0.0468784	
0.00586656	
0.000406725	
-0.0131058	
-0.00591847	
0.00783639	
0.00609087	
0.0541245	
0.0592032	
0.0559783	
0.0579853	
0.0599476	
0.0617823	
0.0519543	
0.0516123	
0.055216	
-0.0194642	
-0.0185966	
-0.0208308	
-0.0200629	
-0.0187491	
0.0361385	
0.0272397	
0.0278544	
-0.0159423	
-0.00951052	
-0.0148111	
-0.0106763	
-0.00628574	
-0.014325	
-0.0120689	
-0.00854696	
-0.0127726	
-0.0147653	
-0.0156369	
0.0193022	
0.0242462	
0.0207258	
0.0711458	
0.0664962	
0.0532785	
0.0518846	
0.0509293	
0.0422012	
0.0513008	
0.0480405	
0.0668253	
0.0687889	
0.0595799	
0.0613951	
0.0588247	
0.0178175	
0.025227	
0.0227944	
0.0282461	
0.0698376	
0.0686135	
0.0677944	
0.0684878	
0.0695577	
0.0639676	
0.06592	
0.0604864	
0.0636086	
-0.0133865	
-0.0177841	
-0.0188996	
0.0318292	
-0.0154649	
0.0573948	
-0.0141152	
-0.0122674	
-0.0223339	
-0.0234801	
-0.017811	
-0.0187359	
0.0684803	
-0.00975524	
-0.0133312	
-0.00834	
-0.012676	
-0.0147798	
-0.0152332	
0.059789	
0.055667	
0.060176	
0.00233977	
-0.00122329	
-0.00110036	
-0.00647246	
0.0597661	
0.060256	
0.0547633	
-0.000751253	
0.0024192	
0.0589415	
0.0625758	
0.0595351	
0.0630598	
0.0233822	
0.018489	
0.0119569	
0.0645264	
0.0674202	
-0.0119432	
-0.00986193	
-0.0185776	
-0.0148384	
0.0018326	
-0.00455295	
0.00711603	
-0.000158669	
0.0668853	
0.0655969	
0.0657547	
0.0488622	
0.0437003	
0.038607	
-0.00584102	
-0.0125846	
-0.00932129	
0.0644819	
0.0623972	
0.0673415	
-0.00380126	
-0.00849336	
-0.0131062	
-0.0115506	
-0.00771402	
-0.00930673	
-0.00698839	
-0.0104411	
-0.0161947	
-0.00718269	
-0.0112268	
0.0606014	
0.0639393	
0.0685307	
0.0650711	
0.0654107	
0.065503	
0.0666938	
0.0661485	
0.0350879	
0.0394864	
0.0648683	
0.0620458	
0.0675394	
0.0704835	
0.0679456	
0.0653788	
0.065318	
-0.00385162	
-0.000288657	
9.40455e-05	
0.00280336	
0.0576488	
-0.0136411	
-0.00960678	
-0.012916	
-0.00901946	
0.036333	
0.0360199	
-0.00158813	
0.00179723	
-0.00926654	
0.0663506	
0.0680801	
0.0687068	
0.0436289	
0.0488702	
0.0473251	
0.0369016	
0.0414099	
-0.0145656	
-0.0142906	
-0.0228178	
-0.024336	
0.0609039	
0.055756	
0.0579548	
-0.00703355	
-0.000845884	
0.033652	
0.036974	
0.00827868	
0.00560305	
0.0664505	
0.0659332	
0.0636241	
0.0678534	
0.0669196	
0.0094273	
0.0193648	
0.00752485	
0.0108626	
0.0529293	
0.00940985	
0.0142145	
0.0482929	
0.0539789	
0.0489571	
0.0561388	
0.0701226	
0.0686665	
0.0684568	
0.042805	
0.0689609	
0.0698437	
0.0640386	
0.0607605	
0.0604038	
0.0581521	
-0.0113699	
-0.00705711	
0.0685272	
0.069547	
0.044577	
0.0390723	
0.0517508	
0.0634642	
0.0661179	
0.0631474	
0.0667079	
0.0686314	
0.0625193	
0.0617334	
0.0673651	
0.0667362	
0.0685496	
0.0651848	
0.0669979	
0.0616798	
0.0645689	
0.0126864	
0.0121558	
0.0395913	
0.0414817	
0.0452091	
0.049449	
0.00927357	
0.0129564	
0.0203839	
0.0385998	
0.0624311	
0.0627199	
0.065517	
0.0670738	
0.0672829	
0.0711117	
0.0682188	
0.0688171	
0.0528862	
0.0498878	
0.0678308	
0.0572268	
0.0681733	
0.0641701	
0.0694417	
0.0671433	
0.0622791	
0.0631085	
0.0682247	
0.0672347	
-0.0236036	
-0.0232942	
-0.0237269	
-0.0243451	
-0.013567	
-0.0139264	
-0.0134699	
-0.014256	
0.0681675	
0.071345	
0.0672762	
0.0682452	
0.0681989	
0.0701087	
0.0680875	
0.0659311	
0.0659593	
0.0617924	
0.0636776	
0.0644466	
0.0650617	
0.0684773	
0.0711068	
0.0680335	
0.0678528	
0.0691279	
0.0679947	
0.0674214	
0.0674184	
-0.0210545	
-0.0209135	
-0.0229453	
0.053208	
0.0548916	
0.0468967	
0.0437713	
0.0629015	
0.0523726	
0.0580516	
0.0552413	
0.0602128	
0.0510072	
0.0562543	
0.0600867	
-0.0135219	
-0.0168942	
-0.0187725	
0.0535348	
0.0548111	
0.0677051	
0.0692594	
-0.0218571	
0.0512754	
0.0496006	
0.0694477	
0.0687859	
0.0684895	
0.0699786	
0.0685236	
0.0658224	
0.0664687	
0.0707334	
0.0703961	
0.0481496	
0.0437094	
0.0551975	
0.0555443	
0.0684505	
0.0685984	
0.0705241	
0.0668838	
0.0657279	
0.0696542	
0.0707359	
0.0686894	
0.0676411	
0.0655641	
0.065247	
0.0365635	
0.0638104	
0.0650335	
0.0679737	
0.0671961	
0.0616806	
0.0639521	
0.0614836	
0.0640178	
0.0702399	
0.0694559	
0.0468922	
0.0646672	
0.0611902	
0.0578619	
0.057708	
0.0599455	
0.0650481	
0.0657523	
0.0608796	
0.0635534	
0.0564578	
0.0579944	
0.0637541	
0.0640292	
0.0678033	
0.0679693	
0.0679888	
0.0698857	
0.0543698	
0.0548375	
0.0523435	
0.0604196	
0.0676006	
0.0670081	
0.0629891	
0.0684129	
0.0706154	
-0.0199214	
-0.0150395	
-0.0201115	
-0.0190917	
0.0654838	
0.0677357	
-0.0134198	
-0.018337	
0.0540362	
0.0552084	
0.0312894	
0.0454771	
0.0676719	
0.0686968	
0.0708528	
0.0102701	
0.0163785	
0.0133262	
0.0200947	
0.0379041	
0.0527972	
0.0492703	
0.0656137	
0.0681749	
0.0567544	
0.060052	
0.0544187	
0.0574031	
0.0423605	
0.0493173	
0.0122446	
0.0146817	
0.0183309	
0.0249793	
0.0666849	
0.067349	
0.0388925	
0.0346542	
0.0320718	
0.0272587	
0.0236839	
0.0185863	
0.0291518	
0.0207894	
0.0599046	
0.0561781	
0.0569082	
0.0645458	
0.062534	
0.0627808	
0.0647305	
0.0509042	
0.0479963	
0.0681532	
0.0712748	
0.0319169	
0.0314174	
0.0226167	
0.0280366	
0.0686627	
0.017667	
0.0160628	
0.0142565	
0.0241362	
0.0208426	
0.0253152	
0.0707768	
0.0684202	
0.0685629	
0.0643703	
0.0652995	
0.0678733	
0.0680434	
0.0704397	
0.0374026	
0.0331994	
0.0586848	
0.0566193	
0.0288675	
0.0328376	
0.0409182	
0.0433559	
0.0332916	
0.0330477	
0.0660277	
0.0667909	
0.0642092	
0.0645231	
0.0447376	
0.0426435	
0.0500434	
0.0515041	
0.0421747	
0.0379709	
0.0406587	
0.0445167	
0.0357368	
0.0397712	
0.0570205	
0.0540044	
0.0695585	
0.0675548	
0.0679687	
0.0703864	
0.0233437	
0.0303613	
0.0671864	
0.0695041	
0.0702321	
0.0678024	
0.0446797	
0.0453327	
0.068989	
0.0684012	
0.0668494	
0.0698967	
0.0269753	
0.0247709	
0.0688816	
0.070622	
0.0704053	
0.0674441	
0.0527169	
0.051548	
0.0678207	
0.0690508	
-0.016912	
-0.0202519	
-0.0159891	
-0.0202397	
0.0493225	
0.0475696	
0.0701499	
0.071643	
0.0682628	
0.0702368	
0.0698045	
0.0706936	
0.0637936	
0.0631711	
0.0631627	
0.068591	
0.0699436	
0.0388628	
0.0421943	
0.0608906	
0.061981	
0.0657423	
0.0653085	
0.070606	
0.0689628	
0.0416577	
0.0342456	
0.0400968	
0.02999	
0.0669286	
0.0700081	
0.0691896	
0.0682945	
0.0399755	
0.0428146	
-0.00290631	
-0.00832714	
-0.00215768	
-0.00677714	
0.042467	
0.0377568	
0.0402242	
0.0345753	
0.0330695	
0.0636127	
-0.0397241	
0.0626568	
0.0626195	
-0.043119	
-0.0474619	
-0.0562269	
-0.0517766	
0.062598	
0.0620721	
0.0606476	
0.0602969	
0.0609251	
-0.0308149	
0.0448497	
-0.0298175	
-0.0326364	
-0.03049	
0.06292	
0.0628006	
0.0598666	
-0.0457718	
-0.0323926	
-0.047854	
-0.0230021	
-0.0356345	
-0.0236179	
-0.00550738	
-0.0463498	
-0.0392109	
-0.0233661	
-0.0545664	
0.0630313	
0.0554233	
0.0548314	
0.0445153	
0.0412193	
-0.0437735	
0.00352889	
-0.00515797	
0.00433507	
-0.058672	
-0.0520693	
-0.057355	
-0.0591665	
-0.0588666	
-0.054218	
-0.0590832	
-0.0583146	
-0.0592468	
0.0116233	
0.0207433	
-0.0507011	
-0.0361102	
0.0434389	
0.0260605	
0.0291454	
-0.00189954	
0.0108527	
-0.00447279	
0.00780746	
0.0489066	
0.0481635	
0.0466736	
0.0469387	
0.0474237	
0.0501057	
0.0419184	
0.0473291	
0.0493958	
0.0529318	
-0.0488014	
0.0423068	
0.0128369	
0.041139	
-0.0490394	
-0.0570689	
-0.0471663	
-0.0508376	
-0.0530331	
-0.0568704	
0.0217169	
0.0118602	
-0.00834612	
0.00539185	
-0.0135634	
0.0333333	
0.0272701	
0.0355289	
-0.0198109	
0.0311705	
0.033855	
0.0293184	
-0.0559246	
-0.0584722	
-0.0586261	
-0.0569267	
0.0321715	
-0.0558265	
-0.0519901	
-0.0564302	
-0.0523474	
-0.0587859	
-0.0570933	
-0.0583502	
-0.0552409	
0.018317	
0.00434439	
-0.0380013	
-0.0184915	
-0.0512056	
0.0143726	
0.0351124	
0.0383513	
0.026591	
0.0252371	
-0.0361722	
0.033364	
0.036996	
0.0289323	
0.037642	
-0.0480819	
-0.0404992	
-0.0370588	
-0.0065745	
-0.0145937	
-0.0143999	
0.0398783	
-0.00353771	
0.000735171	
-0.0537514	
-0.0573867	
-0.0571966	
-0.0413884	
-0.0496055	
0.0512213	
0.0467807	
0.0365539	
-0.048295	
-0.0540127	
-0.0461486	
-0.0377184	
-0.0477242	
0.00455157	