<VTKFile type="UnstructuredGrid" version="0.1" byte_order="LittleEndian">
	<UnstructuredGrid>
		<Piece NumberOfPoints="1759" NumberOfCells="3358">
			<CellData Scalars="scalars">
				<DataArray type="Float64" Name="Doublet Strengths" NumberOfComponents="1" Format="ascii">
0.063498	
0.0715469	
0.0624724	
0.0767747	
0.0747165	
0.072387	
0.0505666	
0.0758333	
0.0732026	
0.0724358	
0.0728372	
0.0498765	
0.0735538	
0.086596	
0.00721669	
0.00924848	
0.0226034	
0.019366	
0.0388879	
0.0727216	
0.0712237	
0.0774645	
0.068083	
0.0647429	
0.0501595	
0.0346947	
0.0800086	
0.077489	
0.0757096	
0.0264815	
0.0769166	
0.0783169	
0.0721369	
0.0743647	
0.0594741	
0.071631	
0.0629557	
0.0650149	
0.0798684	
0.0776516	
0.0895908	
0.0918282	
0.0826835	
0.0729484	
0.0797161	
0.0783143	
0.0943669	
0.0926189	
0.0937582	
0.0865389	
0.0568337	
0.0582824	
0.0517678	
0.0488527	
0.0646599	
0.0532463	
0.056574	
0.0881534	
0.0896635	
0.0845373	
0.0781743	
0.0817361	
0.0722905	
0.0738983	
0.0843298	
0.0852986	
0.0929092	
0.0921203	
0.0826465	
0.0850497	
0.0879613	
0.0794851	
0.0871001	
0.0879525	
0.093005	
0.0896004	
0.0753132	
0.0872502	
0.0868235	
0.081365	
0.0368935	
0.033099	
0.037068	
0.0624373	
0.0631115	
0.0630051	
0.0899525	
0.069772	
0.0714886	
0.0699251	
0.0592198	
0.0598273	
0.0842606	
0.0861326	
0.0853931	
0.0845429	
0.0482776	
0.049285	
0.0484521	
0.0476906	
0.090504	
0.0893918	
0.0918149	
0.0922456	
0.091068	
0.059376	
0.0600506	
0.056912	
0.0577651	
0.0863224	
0.0898087	
0.0903983	
0.0922498	
0.0923614	
0.0882281	
0.088201	
0.0904495	
0.0749501	
0.0731691	
0.0890974	
0.0881469	
0.0912516	
0.09006	
0.0381017	
0.0393166	
0.0736263	
0.0915303	
0.0901806	
0.0886668	
0.0912307	
0.0889426	
0.0916216	
0.0916391	
0.0901846	
0.0422777	
0.0789739	
0.0934158	
0.0795485	
0.0743146	
0.0797236	
0.0776616	
0.0862798	
0.0857002	
0.0835203	
0.0818749	
0.0945783	
0.092059	
0.0940366	
0.0792764	
0.0780102	
0.0778511	
0.0944503	
0.0850181	
0.0607562	
0.0551169	
0.0893851	
0.0845302	
0.0601292	
0.0841067	
0.0886058	
0.0946633	
0.0942336	
0.0945709	
0.0851658	
0.0826682	
0.0742065	
0.0227627	
0.0242147	
0.0688502	
0.0637728	
0.0677642	
0.0806995	
0.0751102	
0.0945156	
0.0874126	
0.0891221	
0.0639292	
0.0614052	
0.0672744	
0.072082	
0.0682606	
0.0719431	
0.078672	
0.0916118	
0.0919381	
0.091181	
0.0813671	
0.0752517	
0.0716229	
0.0726622	
0.0692298	
0.0807638	
0.0762545	
0.0809219	
0.0741837	
0.0824644	
0.0770378	
0.0778245	
0.055366	
0.0795519	
0.0763283	
0.0694519	
0.0857271	
0.0871394	
0.0652825	
0.0304023	
0.0882799	
0.0855191	
0.0788369	
0.0809143	
0.0817008	
0.061108	
0.0566724	
0.0653917	
0.0694908	
0.0703013	
0.0898617	
0.0899887	
0.0907021	
0.0788577	
0.0753602	
0.0809309	
0.07911	
0.093879	
0.0945601	
0.0803208	
0.0943572	
0.0939211	
0.093384	
0.0810579	
0.0871644	
0.0871919	
0.0750245	
0.0537348	
0.0574476	
0.0871122	
0.0869823	
0.0900631	
0.0905739	
0.0492311	
0.0459749	
0.0471294	
0.0743765	
0.0784949	
0.0798623	
0.0765179	
0.0771194	
0.0632666	
0.0611195	
0.0940807	
0.0434654	
0.0628477	
0.0618887	
0.0614983	
0.0594908	
0.0546667	
0.0535664	
0.0840652	
0.0804847	
0.0837152	
0.083403	
0.0620873	
0.0615114	
0.0627217	
0.0840044	
0.0820504	
0.0634946	
0.0663568	
0.0435408	
0.0468036	
0.0736944	
0.0755586	
0.0769229	
0.0784153	
0.0830044	
0.0837757	
0.0825803	
0.0840027	
0.0808798	
0.0826617	
0.0818671	
0.0541958	
0.0508394	
0.0524038	
0.0542452	
0.054411	
0.0911038	
0.0876772	
0.0874011	
0.0651993	
0.0656341	
0.0684995	
0.0653243	
0.062596	
0.0612969	
0.0419841	
0.0404059	
0.0444225	
0.0420712	
0.0448355	
0.0793878	
0.0792144	
0.0813393	
0.0893072	
0.0565569	
0.0571826	
0.0750496	
0.07338	
0.0824441	
0.0765794	
0.0670593	
0.063149	
0.0698249	
0.083082	
0.0851071	
0.0742903	
0.0783589	
0.0827683	
0.0842166	
0.077262	
0.0932404	
0.0899289	
0.0929116	
0.0897368	
0.0668898	
0.0606539	
0.0628621	
0.0838011	
0.0624812	
0.0764431	
0.0245535	
0.028955	
0.0620337	
0.0630675	
0.0594822	
0.0612364	
0.0858108	
0.057356	
0.0598397	
0.0557847	
0.0582922	
0.038634	
0.0386938	
0.0852628	
0.0850393	
0.0861211	
0.0692577	
0.070546	
0.0662037	
0.0680006	
0.0768902	
0.076279	
0.0848434	
0.0550966	
0.0554546	
0.0892704	
0.0883451	
0.0890415	
0.0883726	
0.0726208	
0.0715342	
0.0680409	
0.0918676	
0.0893929	
0.0149297	
0.0173485	
0.0662079	
0.0640993	
0.0876901	
0.0694418	
0.0730235	
0.0704185	
0.0738673	
0.0882748	
0.0812899	
0.080915	
0.0708747	
0.0672248	
0.0678403	
0.0520274	
0.0516441	
0.0485217	
0.0894569	
0.0918692	
0.0933097	
0.0671782	
0.0684833	
0.0644218	
0.0482467	
0.0462747	
0.0774997	
0.0306113	
0.0330654	
0.0655643	
0.0686237	
0.0680641	
0.07035	
0.0896639	
0.0885865	
0.0773009	
0.0826353	
0.0885418	
0.0873007	
0.0878643	
0.0830835	
0.0875396	
0.0919427	
0.0904655	
0.072789	
0.0658462	
0.0732712	
0.0843334	
0.08136	
0.0880647	
0.0881718	
0.0362125	
0.0411221	
0.0445533	
0.0455834	
0.0672323	
0.0647963	
0.0621224	
0.0657965	
0.0639443	
0.0901649	
0.086239	
0.0741444	
0.0692383	
0.0682075	
0.0893449	
0.0886114	
0.0757816	
0.0870266	
0.0904111	
0.088796	
0.0887749	
0.0865363	
0.031743	
0.0298933	
0.061479	
0.0617522	
0.0818604	
0.081343	
0.0730666	
0.0696419	
0.0734628	
0.0755578	
0.0759994	
0.0322212	
0.0305153	
0.0899356	
0.0921224	
0.092014	
0.0904731	
0.0877026	
0.04991	
0.0454471	
0.0582709	
0.0481334	
0.0852955	
0.0813623	
0.0789675	
0.0947904	
0.0936775	
0.0946711	
0.0945095	
0.0789601	
0.0859019	
0.083804	
0.0443645	
0.0492579	
0.0777182	
0.0745834	
0.0915202	
0.0913088	
0.0935045	
0.0929154	
0.0700704	
0.0678359	
0.0770094	
0.0736379	
0.0409555	
0.0477382	
0.0866979	
0.0936337	
0.0718358	
0.0716217	
0.0743202	
0.0657756	
0.0685508	
0.0728145	
0.0757518	
0.0708866	
0.087492	
0.0908007	
0.0901942	
0.0914889	
0.0755205	
0.0750245	
0.0911978	
0.0907498	
0.0936156	
0.0939159	
0.0637973	
0.0634754	
0.0670704	
0.0917738	
0.093123	
0.0933903	
0.0908649	
0.0915564	
0.0841329	
0.0876317	
0.0818262	
0.0739	
0.0682099	
0.0632062	
0.0894936	
0.0608123	
0.0718517	
0.0754076	
0.0721216	
0.0928723	
0.0934423	
0.0838671	
0.0874999	
0.0618605	
0.0615886	
0.0619312	
0.061555	
0.0129254	
0.0160935	
0.0204511	
0.0225233	
0.0731892	
0.086617	
0.0824922	
0.0876631	
0.0863187	
0.085418	
0.0798523	
0.0869233	
0.0909865	
0.0911986	
0.0921769	
0.077891	
0.0795031	
0.0817054	
0.0853899	
0.086032	
0.084847	
0.0851236	
0.0858963	
0.0644201	
0.0640467	
0.0620428	
0.0871889	
0.0865781	
0.0783278	
0.0836011	
0.0941897	
0.0940027	
0.0936083	
0.0939704	
0.0949108	
0.0939063	
0.0946668	
0.065249	
0.0627398	
0.0633253	
0.0667618	
0.0649094	
0.0826434	
0.0771204	
0.0620415	
0.0930103	
0.0928327	
0.0757099	
0.0785758	
0.0837044	
0.0868264	
0.0785102	
0.0727446	
0.0743972	
0.0788427	
0.0812434	
0.0937556	
0.0925819	
0.0736595	
0.0800206	
0.0851482	
0.0703482	
0.0736456	
0.080481	
0.0766352	
0.0757675	
0.0694959	
0.0911161	
0.0861068	
0.0909143	
0.0922842	
0.0870562	
0.0860093	
0.0763987	
0.0793372	
0.0844629	
0.0805421	
0.0840426	
0.0697943	
0.0650596	
0.0609098	
0.0909891	
0.0920603	
0.0929681	
0.0943148	
0.0932964	
0.0928707	
0.0737573	
0.0801721	
0.0763768	
0.0802959	
0.0768245	
0.0908488	
0.0886986	
0.0882898	
0.078568	
0.0743577	
0.0599757	
0.0608761	
0.0571014	
0.093451	
0.0728374	
0.0752711	
0.0943803	
0.0809728	
0.0692846	
0.0625914	
0.0642194	
0.0624877	
0.0912923	
0.0644861	
0.0657501	
0.0937757	
0.0887785	
0.0745533	
0.0819518	
0.0788417	
0.0752448	
0.0809086	
0.0809016	
0.0718448	
0.0799274	
0.0810776	
0.0838847	
0.0479705	
0.0936058	
0.0932471	
0.0782354	
0.0792718	
0.0886346	
0.0601532	
0.0939964	
0.0936126	
0.0910699	
0.0912175	
0.0580096	
0.0548768	
0.0836167	
0.0858145	
0.080668	
0.0817851	
0.0847723	
0.0832872	
0.0824319	
0.079231	
0.0947734	
0.0931347	
0.094735	
0.0749474	
0.073278	
0.0699638	
0.0670586	
0.0626955	
0.0678625	
0.0634361	
0.0665362	
0.0728049	
0.085491	
0.0866659	
0.0794672	
0.0825212	
0.0671884	
0.0704349	
0.0743869	
0.0816284	
0.0738792	
0.0873786	
0.0888496	
0.0758183	
0.0752402	
0.0757668	
0.0736092	
0.0354476	
0.0479234	
0.0393624	
0.0704596	
0.0725258	
0.0691377	
0.0441463	
0.0861056	
0.0820764	
0.0741769	
0.0812002	
0.0787025	
0.0839927	
0.0724356	
0.0841754	
0.0910501	
0.0895634	
0.0638146	
0.0660964	
0.040234	
0.0476411	
0.0400438	
0.0483906	
0.0857894	
0.0843013	
0.0852927	
0.0797516	
0.0901592	
0.0872492	
0.0850479	
0.0835197	
0.0888919	
0.0885848	
0.0919829	
0.0905816	
0.0890445	
0.0695636	
0.0724309	
0.0773305	
0.0785964	
0.0618998	
0.0625859	
0.0753421	
0.0735509	
0.0735241	
0.0813351	
0.0779381	
0.0839837	
0.0811829	
0.0731115	
0.0844475	
0.0765712	
0.0800637	
0.0723709	
0.0873588	
0.0879678	
0.0807589	
0.072024	
0.0840135	
0.0809201	
0.0777906	
0.0739297	
0.0626119	
0.0643214	
0.0625848	
0.0631928	
0.0538109	
0.0636908	
0.0667674	
0.0818182	
0.0815289	
0.0771893	
0.0923189	
0.0929328	
0.0844368	
0.0782651	
0.0911258	
0.0909212	
0.084919	
0.0938917	
0.0922085	
0.0914017	
0.0839737	
0.0861851	
0.0932597	
0.0943399	
0.081724	
0.0754957	
0.0840443	
0.0870296	
0.0815621	
0.0821338	
0.064615	
0.0606215	
0.0624501	
0.0559696	
0.0638922	
0.0574411	
0.059309	
0.0523334	
0.0664767	
0.0688142	
0.0766819	
0.0810699	
0.0705639	
0.0793779	
0.0578119	
-0.108	
0.0558708	
0.0557475	
-0.114594	
-0.136732	
-0.139794	
-0.128268	
0.0560611	
0.0559624	
0.054694	
0.0569258	
0.0542662	
0.0553255	
-0.0592668	
0.0424182	
0.0556567	
0.055337	
-0.0541911	
-0.0545503	
-0.0617742	
0.0584554	
0.0567691	
0.0545271	
-0.108145	
-0.0983912	
-0.121923	
-0.0454466	
-0.0710277	
-0.0861592	
-0.0561203	
-0.105114	
-0.0950619	
-0.0821267	
-0.126984	
-0.0322283	
0.0568162	
0.0497917	
0.0502652	
0.0223545	
0.0215201	
0.0269236	
-0.0943873	
-0.0421504	
-0.0540839	
-0.0413474	
-0.132202	
-0.127459	
-0.136937	
-0.134871	
-0.138146	
-0.136794	
-0.064937	
-0.0406345	
-0.137982	
-0.130502	
-0.136319	
-0.0298523	
-0.0153766	
-0.125577	
0.0312511	
-0.0125204	
-0.00587634	
0.0283657	
0.0275428	
0.0283459	
0.0291133	
0.0286004	
0.0325668	
0.0311896	
0.0167075	
0.0285282	
0.0271759	
0.0307972	
0.045704	
-0.122032	
0.014625	
-0.0314591	
0.0143833	
-0.13463	
-0.139715	
-0.0969786	
-0.0972583	
-0.103825	
-0.139716	
-0.0328986	
-0.0166655	
-0.0530717	
-0.0387665	
-0.0583516	
0.00343041	
0.00889853	
-0.00460443	
-0.0500041	
0.00582735	
0.00236502	
0.0033318	
-0.139614	
-0.139647	
-0.139452	
-0.139635	
0.00200781	
-0.11424	
-0.117863	
-0.114239	
-0.131466	
-0.133627	
-0.130151	
-0.135336	
-0.13528	
0.000390832	
-0.0446691	
-0.0874659	
-0.116965	
-0.0180794	
0.022358	
0.0153088	
-0.0196326	
-0.000474214	
-0.0910548	
-0.00333208	
0.0121056	
0.00563482	
-0.106893	
-0.11795	
-0.101492	
-0.0689325	
-0.0693425	
-0.0682456	
-0.0527838	
-0.130485	
-0.138362	
-0.134666	
-0.0817488	
-0.0996036	
0.00750293	
-0.10491	
-0.101864	
-0.10873	
-0.112525	
-0.107553	
-0.0346531	
-0.0476639	
-0.0474966	
-0.0274051	
0.0195708	
-0.0657327	
-0.0795489	
-0.133264	
-0.139283	
0.0352453	
0.0245447	
-0.12989	
-0.12006	
-0.119435	
0.00021695	
-0.012581	
-0.0124651	
-0.00935699	
-0.025966	
-0.0743198	
-0.0612017	
-0.0288564	
-0.03638	
-0.0220319	
-0.0250492	
-0.0707038	
-0.0655421	
0.0440766	
0.0413378	
0.0471373	
0.0513359	
0.0358972	
0.0359112	
0.0522867	
0.0353738	
0.0352721	
0.0525609	
0.0347296	
-0.126673	
-0.130799	
0.0525344	
0.0522941	
0.0370513	
0.0376988	
-0.118051	
-0.137594	
-0.0925159	
-0.00279364	
-0.00778893	
-0.00833448	
-0.0742265	
-0.0483376	
-0.0313209	
0.0300773	
0.0321311	
0.0221092	
-0.0253496	
-0.0364535	
-0.0772594	
-0.00562649	
0.011903	
-0.00190562	
-0.00572058	
-0.0132769	
-0.0576209	
-0.0159646	
-0.0287143	
0.0295397	
0.0357276	
-0.119973	
-0.105602	
0.0213091	
0.0126931	
0.00340719	
0.00906656	
0.0201059	
0.0194787	
0.0165674	
0.0128915	
0.0162336	
0.0172491	
-0.121923	
-0.125351	
-0.122356	
0.0121385	
0.021329	
0.0209925	
-0.0605898	
-0.0488574	
-0.0365468	
-0.135282	
-0.139899	
-0.13904	
-0.0559691	
-0.0605959	
-0.0567101	
0.0133467	
0.0152807	
-0.0388214	
-0.0439895	
0.0389084	
0.0388181	
0.0509707	
0.0177431	
0.016114	
-0.0163086	
-0.0184269	
-0.139837	
0.0508667	
-0.115077	
-0.119619	
-0.117259	
0.0169084	
0.0214978	
-0.0336551	
-0.0134511	
-0.0073969	
0.0101221	
0.0210737	
0.0318646	
-0.13724	
-0.0211707	
-0.0191666	
0.0202599	
0.0218384	
-0.002355	
0.0131973	
-0.122317	
-0.12795	
-0.129539	
-0.126366	
-0.133699	
-0.137675	
-0.137077	
-0.137514	
-0.138486	
-0.0190295	
-0.00753649	
-0.0165114	
0.00449092	
0.00307907	
0.0164039	
0.02022	
-0.00011827	
0.00782703	
-0.0803831	
-0.0717116	
-0.0909139	
0.00445531	
-0.0149643	
-0.0254586	
-0.0282227	
-0.00798966	
-0.032644	
-0.0233261	
-0.0308363	
-0.0978681	
-0.0874434	
-0.0896062	
-0.0783274	
0.00588769	
-0.0772732	
-0.124549	
-0.130642	
-0.122433	
-0.129575	
0.0149127	
0.0240411	
0.0114823	
-0.133517	
-0.139281	
-0.136827	
0.020855	
0.0337564	
0.056021	
0.05158	
0.050963	
0.0337052	
0.0359867	
0.0525488	
0.0348296	
0.0557296	
0.0516573	
-0.11149	
-0.112291	
-0.112419	
-0.106208	
-0.114071	
-0.113012	
-0.118014	
-0.103858	
-0.0932916	
-0.0864658	
-0.0851094	
0.00810666	
0.0140715	
0.00537541	
-0.0830343	
-0.0837782	
-0.139692	
-0.134054	
-0.125582	
-0.119357	
-0.127859	
-0.12582	
-0.134813	
-0.130919	
-0.135709	
-0.131883	
-0.139381	
-0.136825	
0.0137769	
-0.0304735	
-0.0381106	
-0.0498679	
-0.0379613	
-0.0349318	
-0.0474442	
-0.0805776	
0.00115397	
0.00969709	
0.00769596	
0.0265504	
0.0276782	
-0.0107833	
-0.0138815	
-0.0952346	
-0.103826	
-0.0914208	
-0.10959	
-0.106968	
-0.103874	
0.00718654	
0.0199978	
0.0128962	
-0.0900137	
-0.0963327	
-0.111575	
-0.104492	
-0.10647	
-0.101052	
-0.120696	
-0.110187	
-0.1105	
-0.0995679	
-0.105396	
-0.0657499	
-0.0558473	
-0.139043	
-0.136896	
0.000434128	
-0.00718969	
-0.0143137	
-0.117618	
-0.123644	
-0.106235	
-0.12121	
-0.131345	
-0.134752	
-0.137842	
-0.117923	
-0.121247	
-0.133544	
-0.138739	
0.0176011	
0.0105348	
-0.00305488	
0.0111822	
-0.00523662	
0.00892243	
-0.0845703	
-0.0785532	
-0.093376	
-0.0846423	
-0.133412	
-0.137952	
-0.129303	
-0.130854	
-0.0157833	
-0.00913531	
0.0311662	
0.0322868	
0.0466531	
0.0314705	
0.0219138	
0.0485147	
0.0316911	
-0.100387	
-0.101096	
-0.094422	
-0.107748	
-0.112685	
-0.0986309	
-0.0869801	
-0.089641	
-0.0713348	
-0.0154396	
-0.109597	
-0.120107	
-0.117577	
-0.12348	
0.0331262	
0.0466658	
-0.0823215	
-0.0929776	
-0.0929116	
-0.136986	
-0.139412	
-0.0832931	
-0.0920577	
-0.0869431	
-0.094	
-0.0322446	
-0.0218833	
-0.0252282	
-0.106044	
-0.0959429	
-0.066876	
-0.0709946	
-0.0636758	
0.0346539	
0.0497221	
0.0107732	
0.00298873	
0.0201068	
0.0354333	
0.027217	
0.0303937	
0.0273515	
0.030989	
0.00147893	
0.0563023	
-0.0226112	
0.0290649	
0.0230842	
0.0523801	
0.0560968	
0.0556736	
0.0301964	
0.0387324	
0.0372333	
-0.00801399	
-0.00699482	
0.0113375	
0.0178915	
0.00512046	
0.0134009	
0.0209652	
0.0210997	
-0.10578	
-0.0981332	
-0.113725	
-0.113555	
0.0559942	
0.0515877	
0.0152744	
0.0227513	
0.0572109	
0.0523663	
0.0562593	
0.0518341	
0.0531243	
0.0578993	
0.0544661	
0.0535333	
0.0178465	
0.0182426	
0.0565109	
0.0555246	
0.0515802	
-0.0590613	
-0.0602842	
-0.0709235	
-0.0810033	
-0.121122	
-0.126331	
-0.117962	
-0.121398	
-0.0048802	
-0.000654224	
-0.00677337	
-0.000256279	
-0.030654	
0.00779225	
0.0139227	
0.00536153	
-0.0205668	
0.0563447	
0.0556352	
0.0468904	
0.0549055	
0.0266375	
0.0574709	
0.0559961	
-0.139168	
-0.133744	
-0.138917	
-0.136215	
-0.0764973	
-0.0765261	
-0.0628709	
-0.0509571	
-0.0341387	
-0.121454	
-0.117644	
-0.112144	
-0.111025	
0.00383047	
-0.0120815	
-0.00702091	
-0.0179743	
0.0158888	
0.0195033	
-0.00109114	
0.00871474	
0.00576494	
0.0101803	
-0.0116259	
0.0499096	
0.0322282	
0.053792	
0.0555121	
0.0284574	
0.0321215	
0.0429576	
0.0497695	
0.0532417	
0.0319449	
0.0471565	
0.030232	
0.0499585	
0.0547713	
0.0305071	
0.0485037	
0.0314184	
-0.0169369	
-0.00628518	
0.0520163	
0.0342373	
0.0016284	
0.0127214	
0.00316003	
0.0356303	
0.0330033	
0.0504793	
0.0336454	
0.053355	
0.0423748	
0.0467647	
-0.018713	
-0.0162328	
0.0471299	
0.0512523	
0.0351456	
0.0492004	
0.0327642	
0.0521855	
0.0451727	
0.0555745	
0.0506914	
0.0294701	
0.0377211	
0.0276472	
0.0338032	
0.0532431	
0.0460711	
0.0495874	
0.0538806	
0.0164842	
0.0549283	
0.0244858	
0.0309173	
0.0328379	
0.0139081	
0.0117082	
0.0168167	
0.0108396	
0.0488392	
0.0526316	
0.0201034	
0.00759266	
-0.0323537	
-0.0412728	
-0.0316661	
0.00530305	
-0.0355803	
0.0486349	
0.0108471	
0.0117529	
0.0459303	
0.0525696	
0.00552914	
0.0125747	
-0.0523563	
-0.066652	
-0.0460235	
-0.00414113	
0.0148236	
0.030156	
0.0372881	
0.046108	
0.0306841	
0.0339868	
-0.123221	
-0.127087	
-0.119612	
-0.122982	
0.0508083	
0.0446731	
0.0245811	
0.032698	
-0.0621646	
0.0286745	
0.0332418	
0.00744377	
0.0246613	
0.0497848	
0.0312598	
0.0259978	
-0.128132	
-0.135314	
-0.131826	
-0.135895	
0.0345781	
0.0465386	
0.0310645	
0.0239514	
-0.0847408	
-0.05641	
-0.0816329	
0.0330386	
0.0449026	
0.0272605	
0.0313011	
0.0357173	
0.0488928	
0.0336351	
-0.0644391	
-0.0843584	
-0.0549603	
-0.0451408	
0.0484554	
0.0566645	
-0.0244371	
-0.0166742	
-0.0180169	
0.0345939	
0.0504194	
0.056617	
-0.0421606	
-0.0705743	
-0.0554174	
-0.0790635	
-0.0758941	
-0.0787192	
-0.076591	
-0.069904	
-0.0592459	
-0.00159846	
-0.0590487	
-0.0714734	
0.0509478	
0.0544482	
0.0510062	
0.0548597	
0.0491245	
0.0547214	
0.0367987	
0.0298408	
0.0181236	
0.0529085	
0.046771	
0.0341655	
0.0504878	
0.0547041	
0.0457545	
-0.00830397	
-0.0587159	
-0.0697671	
-0.0510623	
-0.0605272	
-0.0138244	
-0.0347572	
-0.0408283	
0.0331931	
0.0553603	
0.0274841	
0.0509992	
0.0393603	
0.035694	
0.0533891	
0.00774059	
0.008945	
-0.0780936	
-0.0874361	
-0.0937534	
-0.0328131	
-0.0320523	
0.00920203	
-0.00650887	
0.00365401	
-0.0124905	
0.0482852	
0.0340195	
0.056857	
0.0347187	
0.0515222	
0.0560916	
-0.019267	
-0.0180057	
0.0548984	
0.0463749	
0.0513336	
0.0348581	
0.0504113	
0.0544955	
0.0357099	
0.0504355	
0.0354632	
0.049375	
0.0484142	
0.0513689	
-0.000277561	
0.00286432	
0.0476959	
0.0445571	
-0.00405896	
-0.00482586	
0.0521239	
0.0357631	
0.0281838	
0.0311981	
-0.0714581	
-0.0594339	
0.0573561	
0.0362408	
0.0519968	
0.0566829	
0.0484789	
-0.0437387	
-0.0300055	
-0.0793908	
-0.0894864	
0.0315033	
0.0270646	
0.0171431	
0.0170034	
-0.0384542	
-0.00697126	
-0.0370965	
-0.0404369	
-0.0106966	
-0.0114347	
0.00116145	
0.00656038	
-0.080738	
-0.0651955	
-0.0099773	
-0.0171976	
-0.0282143	
-0.0247365	
-0.0498253	
-0.0398965	
-0.00845759	
-0.0126569	
-0.0693774	
-0.0605129	
-0.0513483	
-0.0468286	
-0.0427647	
-0.0485944	
-0.0965843	
-0.0950011	
-0.108348	
-0.11274	
-0.0218259	
-0.010741	
-0.025995	
-0.0124677	
0.0362497	
0.0520597	
-0.0130504	
-0.00663074	
0.00211201	
-0.00247015	
0.00586336	
0.0108069	
0.0148898	
0.0210941	
0.0223845	
0.0187241	
-0.0133834	
-0.0106364	
-0.00705464	
0.000628257	
-0.00306765	
0.00526182	
0.0197964	
0.022806	
0.0137381	
0.0174283	
0.00995939	
-0.00985174	
0.0132809	
0.00861144	
-0.00135595	
-0.00787273	
0.00367917	
-0.0140748	
-0.016898	
-0.017007	
-0.0181515	
-0.0116778	
0.0177832	
0.0166728	
0.0128912	
0.00421516	
0.00870773	
-0.000988905	
-0.0159467	
-0.0149121	
-0.0122095	
-0.00932908	
-0.00592953	
0.0209917	
0.0618606	
0.0715469	
0.0624744	
0.0767013	
0.0747156	
0.0723857	
0.0506196	
0.074264	
0.0732605	
0.0724685	
0.0729487	
0.0499276	
0.0735264	
0.0858057	
0.0161123	
0.00926118	
0.0226148	
0.0193853	
0.038888	
0.0727158	
0.0712283	
0.069455	
0.0774469	
0.0646758	
0.0501658	
0.0347263	
0.080012	
0.0774889	
0.0757129	
0.0265075	
0.077061	
0.0778802	
0.0726041	
0.0744601	
0.059639	
0.0720428	
0.0650875	
0.0799061	
0.0777479	
0.0896003	
0.0918503	
0.0826367	
0.0729247	
0.0443828	
0.0803166	
0.0942318	
0.094102	
0.0937951	
0.0876273	
0.0736931	
0.0573788	
0.0581344	
0.0518654	
0.0490872	
0.0627727	
0.0533226	
0.0564512	
0.0881814	
0.0897301	
0.0845068	
0.0781791	
0.0817469	
0.0722074	
0.072567	
0.0843684	
0.0839773	
0.0929611	
0.0844926	
0.0850889	
0.0881402	
0.0816044	
0.0840997	
0.0859014	
0.0930126	
0.0895966	
0.0753638	
0.0872674	
0.0868107	
0.0369317	
0.033158	
0.0371187	
0.0624562	
0.0630386	
0.063105	
0.0900161	
0.0715524	
0.0674581	
0.0699315	
0.0592758	
0.0598634	
0.0843531	
0.0862161	
0.0845547	
0.0854043	
0.0493777	
0.0483804	
0.048533	
0.0477642	
0.0901764	
0.0907888	
0.0922797	
0.0920171	
0.0902629	
0.0603419	
0.0578996	
0.0572707	
0.0594915	
0.0863389	
0.0898609	
0.0904563	
0.0923916	
0.0923202	
0.0894231	
0.0864289	
0.0904354	
0.0749642	
0.0731769	
0.0876321	
0.0909088	
0.090114	
0.0913457	
0.036265	
0.0393748	
0.0736333	
0.0914685	
0.088842	
0.0887119	
0.0901863	
0.0916218	
0.0640364	
0.0421461	
0.0783496	
0.093453	
0.0749187	
0.0823212	
0.0790735	
0.0742681	
0.0771593	
0.0792883	
0.0857187	
0.0850571	
0.0834166	
0.0835311	
0.0946669	
0.0940068	
0.0920062	
0.0780965	
0.0793153	
0.0778815	
0.0941921	
0.0851405	
0.0551687	
0.0580523	
0.0886469	
0.0845342	
0.0601952	
0.0870887	
0.0885066	
0.0943655	
0.0939435	
0.094594	
0.0851755	
0.0825965	
0.0737772	
0.0227901	
0.024243	
0.0688508	
0.0637926	
0.0680863	
0.0751497	
0.0797891	
0.0948576	
0.0874288	
0.0877228	
0.0891718	
0.0885752	
0.061144	
0.0691966	
0.0672414	
0.0717963	
0.0681911	
0.0790453	
0.0916834	
0.0911347	
0.0919798	
0.0813047	
0.0765216	
0.073794	
0.0715207	
0.0691457	
0.0807767	
0.0762653	
0.0809373	
0.0769806	
0.082434	
0.0777417	
0.0795843	
0.0764742	
0.0857268	
0.0867955	
0.0655902	
0.0304301	
0.0862052	
0.0905833	
0.0862461	
0.0888732	
0.0788742	
0.0783685	
0.082079	
0.0497677	
0.0604659	
0.069927	
0.0658664	
0.0704423	
0.0899066	
0.0907536	
0.0900326	
0.0752502	
0.0787597	
0.0791501	
0.0809529	
0.0945649	
0.0946751	
0.0803606	
0.0939594	
0.0934766	
0.0937253	
0.0810713	
0.0872381	
0.0872168	
0.0750202	
0.057544	
0.0538227	
0.0870105	
0.0871711	
0.090125	
0.0906315	
0.0492964	
0.0472444	
0.0460298	
0.0785412	
0.0799027	
0.0775438	
0.0765194	
0.0771252	
0.0633429	
0.0611781	
0.0940621	
0.0435289	
0.0628697	
0.0615098	
0.0618994	
0.0594611	
0.0577523	
0.0545974	
0.0843484	
0.0839828	
0.0807507	
0.0638462	
0.081886	
0.061545	
0.0621203	
0.0646108	
0.0840245	
0.0809483	
0.0664611	
0.0636987	
0.0435852	
0.0468627	
0.0738277	
0.074115	
0.0770744	
0.0784377	
0.0837937	
0.0826826	
0.0840174	
0.0826819	
0.0809181	
0.0818978	
0.0830271	
0.0544745	
0.0525556	
0.0510226	
0.0547607	
0.054345	
0.090969	
0.0873795	
0.0876577	
0.0651937	
0.0685062	
0.0656055	
0.0626151	
0.0662598	
0.0613403	
0.040465	
0.0420138	
0.0444681	
0.0448975	
0.0421438	
0.0796477	
0.0814747	
0.0792478	
0.0823409	
0.0894718	
0.0571236	
0.0565429	
0.0757075	
0.0713449	
0.0740504	
0.0717016	
0.082454	
0.0765803	
0.0631169	
0.0669979	
0.0697694	
0.0822657	
0.0854177	
0.0847765	
0.0869826	
0.0783587	
0.0743129	
0.0827747	
0.0842282	
0.077403	
0.0915776	
0.0898115	
0.093269	
0.0920382	
0.0670812	
0.0629936	
0.0606905	
0.0837957	
0.0622385	
0.0764858	
0.0245831	
0.0289858	
0.0620489	
0.0630706	
0.061408	
0.0596494	
0.0857781	
0.0601368	
0.0573462	
0.0586362	
0.0560248	
0.0387394	
0.0386904	
0.0852805	
0.086149	
0.0863025	
0.0706449	
0.0693397	
0.0680665	
0.0653823	
0.0762719	
0.076912	
0.0848655	
0.0555119	
0.0551412	
0.0890962	
0.0884273	
0.0893319	
0.0883963	
0.0744269	
0.0726726	
0.0681105	
0.091856	
0.0893803	
0.01737	
0.0149462	
0.0641002	
0.0662139	
0.0726466	
0.0684862	
0.0751684	
0.0704751	
0.0882946	
0.0809184	
0.0812957	
0.070102	
0.0699639	
0.0655283	
0.052098	
0.0486005	
0.0517157	
0.0918659	
0.0932947	
0.0894559	
0.0693791	
0.0671334	
0.0644377	
0.0463353	
0.0483004	
0.0331182	
0.030648	
0.0686446	
0.0652976	
0.0703402	
0.0680578	
0.0897207	
0.0886398	
0.0772681	
0.0805452	
0.0878978	
0.087347	
0.0830923	
0.0882013	
0.0904969	
0.0918748	
0.0727844	
0.0657927	
0.0843807	
0.0813898	
0.0732916	
0.0882009	
0.0880848	
0.0411903	
0.0381454	
0.045664	
0.044595	
0.0672294	
0.0625592	
0.0648441	
0.0640298	
0.0658546	
0.0904539	
0.0864355	
0.0719638	
0.0740155	
0.0681603	
0.0892859	
0.0867641	
0.0741907	
0.087065	
0.0902335	
0.0904239	
0.0862474	
0.0886106	
0.0299213	
0.0317783	
0.0617664	
0.0614873	
0.0813825	
0.0813774	
0.0818838	
0.0696062	
0.0729876	
0.0756053	
0.0760388	
0.0304842	
0.0322201	
0.0899705	
0.0899007	
0.0921476	
0.0876872	
0.0904684	
0.0453455	
0.0562067	
0.0480298	
0.0534053	
0.0853215	
0.0790029	
0.0813884	
0.0940097	
0.0948196	
0.0941925	
0.094635	
0.078953	
0.083808	
0.0879551	
0.0493392	
0.0745374	
0.0776824	
0.0913771	
0.0929436	
0.0929519	
0.0935362	
0.0678397	
0.0700682	
0.0736278	
0.0770035	
0.0477825	
0.0409409	
0.0937175	
0.0673687	
0.0737443	
0.0758289	
0.0716325	
0.0739423	
0.0684601	
0.065686	
0.0728209	
0.0708696	
0.0757622	
0.0891815	
0.0876663	
0.0915736	
0.0902383	
0.0751514	
0.075635	
0.0913086	
0.0916124	
0.0929663	
0.093736	
0.0635296	
0.0671277	
0.0715874	
0.0917922	
0.0932802	
0.0930924	
0.0913349	
0.0891594	
0.086678	
0.082077	
0.0841324	
0.0747819	
0.0682289	
0.0632399	
0.0876493	
0.0608335	
0.0738622	
0.0680777	
0.0758477	
0.0721167	
0.0934308	
0.0928614	
0.083974	
0.0874894	
0.0615911	
0.0634984	
0.0615508	
0.0619353	
0.00723014	
0.0129435	
0.0225497	
0.0204737	
0.0732296	
0.0824443	
0.0894662	
0.086278	
0.0849406	
0.078697	
0.0862101	
0.0891186	
0.0891898	
0.092136	
0.0912845	
0.0795121	
0.0779027	
0.0852753	
0.0814751	
0.0872689	
0.0869442	
0.0752473	
0.0864653	
0.0859172	
0.08518	
0.0640796	
0.0625724	
0.0620619	
0.0866075	
0.0872112	
0.0836259	
0.0817286	
0.0744946	
0.0939954	
0.0941868	
0.0943826	
0.0935814	
0.0945865	
0.0949171	
0.0943262	
0.0652282	
0.0632722	
0.0627519	
0.0649302	
0.0667802	
0.0826962	
0.0771536	
0.0620082	
0.092896	
0.0930248	
0.0785775	
0.075711	
0.0833218	
0.0784057	
0.0834967	
0.0718464	
0.0741819	
0.0811635	
0.0786965	
0.0938367	
0.0928778	
0.0744826	
0.0727654	
0.0735412	
0.0848529	
0.079898	
0.0736532	
0.0703504	
0.0763428	
0.0802509	
0.0742293	
0.0877556	
0.0906643	
0.0695539	
0.0678578	
0.0922367	
0.0910162	
0.0870011	
0.088164	
0.0789861	
0.0768348	
0.0801861	
0.0785992	
0.0794396	
0.0764577	
0.0844922	
0.0826402	
0.084055	
0.0609165	
0.0697635	
0.0650379	
0.0920573	
0.0909992	
0.0939149	
0.092973	
0.0933189	
0.0928447	
0.0910751	
0.0907698	
0.086684	
0.0852704	
0.0725713	
0.0780528	
0.05709	
0.0599345	
0.0608665	
0.0934631	
0.0753011	
0.072854	
0.0930689	
0.0847406	
0.0802946	
0.0644413	
0.0692601	
0.0625237	
0.0641669	
0.0912616	
0.0887803	
0.0657399	
0.0632463	
0.0793578	
0.0783313	
0.0658656	
0.0937822	
0.0885857	
0.074391	
0.0818826	
0.0758543	
0.0791572	
0.0787571	
0.081401	
0.0479372	
0.093648	
0.0933358	
0.0906996	
0.0875874	
0.094023	
0.0936274	
0.0911313	
0.0912777	
0.0548942	
0.0607814	
0.080667	
0.0817859	
0.0836163	
0.0865946	
0.084638	
0.0816951	
0.0731795	
0.0734504	
0.0683893	
0.0667289	
0.0678749	
0.0633737	
0.0699022	
0.0623181	
0.0943516	
0.0947994	
0.0946423	
0.0706356	
0.075289	
0.066752	
0.0729119	
0.0923651	
0.0922462	
0.0865339	
0.0819923	
0.0872172	
0.0866438	
0.0435781	
0.0592112	
0.074417	
0.0477981	
0.0353361	
0.0392509	
0.0725828	
0.0691946	
0.0705109	
0.0813686	
0.0738775	
0.0856453	
0.0812112	
0.078716	
0.0844092	
0.0843917	
0.0806165	
0.0911116	
0.0896332	
0.0638291	
0.0660986	
0.0401527	
0.0474987	
0.0843347	
0.085818	
0.0807375	
0.0821637	
0.0724142	
0.0737515	
0.0763717	
0.0773334	
0.0850817	
0.0835557	
0.088941	
0.0886311	
0.090608	
0.0890738	
0.0910083	
0.0921405	
0.0894209	
0.0910247	
0.0619069	
0.0625875	
0.0779109	
0.0853038	
0.0735089	
0.0813265	
0.0392954	
0.0477929	
0.083024	
0.0779209	
0.0812395	
0.0732082	
0.0754127	
0.0740604	
0.0761586	
0.0810062	
0.0704144	
0.0793792	
0.0521319	
0.0539292	
0.0840528	
0.080951	
0.0808576	
0.0720732	
0.0879961	
0.0873853	
0.0739351	
0.0777978	
0.0643109	
0.0626071	
0.0645267	
0.0625643	
0.0667786	
0.0637069	
0.0785528	
0.0834984	
0.0837289	
0.0790731	
0.0771174	
0.0805934	
0.0923006	
0.0928486	
0.0929836	
0.0840949	
0.0781315	
0.090015	
0.0911499	
0.0940328	
0.0934169	
0.091001	
0.0917156	
0.0801159	
0.0749028	
0.0870565	
0.0840804	
0.0853205	
0.0816067	
0.0705047	
0.0794681	
0.0766624	
0.0811352	
0.0553326	
0.060174	
0.0653336	
0.0621343	
0.0644867	
0.06104	
0.0645301	
0.0627538	
0.0603271	
0.0553602	
0.0570698	
0.0578373	
-0.109394	
0.056151	
0.0560461	
-0.114572	
-0.133747	
-0.139793	
-0.128265	
0.0561767	
0.055805	
0.054775	
0.0545075	
0.0551809	
-0.0592604	
0.0423512	
-0.0542434	
-0.0545699	
-0.0509723	
0.0582272	
0.0570041	
0.054527	
-0.117946	
-0.0982306	
-0.1219	
-0.0453864	
-0.071193	
-0.0854125	
-0.0566178	
-0.105282	
-0.0953442	
-0.0826158	
-0.127008	
0.0567591	
0.0502949	
0.0498175	
0.0206625	
0.026847	
-0.0942664	
-0.0416139	
-0.0568283	
-0.0427596	
-0.132295	
-0.128016	
-0.137142	
-0.135012	
-0.138188	
-0.136683	
-0.13798	
-0.130547	
-0.136364	
-0.0307989	
-0.0168553	
-0.124651	
-0.102815	
0.0312337	
-0.0104196	
-0.00556311	
-0.0303544	
-0.0130554	
-0.0309851	
-0.0147982	
0.0293464	
0.0277976	
0.0289314	
0.0299285	
0.0278731	
0.0341564	
0.0166281	
0.0272453	
0.0306845	
0.0457371	
-0.121159	
0.0164105	
-0.0311233	
0.0143862	
-0.134637	
-0.139706	
-0.097025	
-0.0972787	
-0.103866	
-0.13969	
-0.0170664	
-0.0321628	
-0.0605091	
-0.0399904	
-0.0584539	
0.00423186	
-0.00521696	
0.00808028	
-0.056679	
0.00598699	
0.00755798	
0.000758132	
-0.139563	
-0.139586	
-0.139623	
-0.139422	
0.00214777	
-0.114325	
-0.114289	
-0.117927	
-0.130514	
-0.135403	
-0.135539	
-0.133786	
-0.131813	
0.00500225	
-0.0442247	
-0.0874256	
-0.0770582	
-0.119724	
-0.0180838	
0.0152424	
0.0212147	
-0.00411691	
-0.00672543	
-0.0922846	
0.00651264	
0.0117356	
-0.000735636	
0.00994323	
-0.11797	
-0.106941	
-0.10134	
-0.0592474	
-0.070163	
-0.0702068	
0.0158451	
-0.0522365	
-0.0453625	
-0.130438	
-0.138373	
-0.134618	
-0.0818811	
-0.0995889	
0.0326818	
0.0245273	
0.00736792	
-0.10189	
-0.110242	
-0.108033	
-0.0977657	
-0.111702	
-0.0350431	
-0.0473164	
-0.0474792	
-0.0231485	
0.0195056	
-0.0657817	
-0.0795805	
-0.133262	
-0.139265	
0.0241202	
0.0352658	
-0.129993	
-0.120103	
-0.124472	
-0.0143725	
-0.0135206	
-0.0111206	
-0.024003	
-0.0735624	
-0.0594897	
-0.0358654	
-0.0219311	
-0.036007	
-0.0249342	
-0.0380317	
-0.070873	
-0.0604014	
-0.0714601	
0.0411777	
0.0439456	
0.0515617	
0.0366056	
0.0366148	
0.0524189	
0.0357718	
0.0359261	
0.0527132	
0.0347745	
-0.130874	
-0.126709	
0.0525677	
0.0523103	
0.0376513	
0.0370127	
-0.11809	
-0.137939	
-0.0846108	
-0.0015572	
-0.00949028	
-0.00853786	
-0.0352131	