<VTKFile type="UnstructuredGrid" version="0.1" byte_order="LittleEndian">
	<UnstructuredGrid>
		<Piece NumberOfPoints="1759" NumberOfCells="3358">
			<CellData Scalars="scalars">
				<DataArray type="Float64" Name="Doublet Strengths" NumberOfComponents="1" Format="ascii">
-0.109577	
-0.0846696	
-0.106613	
0.0617101	
-0.0764149	
0.0631039	
-0.0555518	
0.0617752	
0.0625453	
0.0617601	
0.0622912	
-0.0495239	
0.061831	
-0.0401645	
-0.0356118	
-0.036857	
-0.0231487	
-0.0312638	
-0.0298148	
0.061621	
0.0611431	
0.0611511	
0.0594401	
0.0561914	
0.0451523	
-0.0362798	
-0.0614603	
-0.0687598	
-0.0733421	
-0.0317967	
-0.0431272	
-0.0590899	
-0.0558555	
-0.043023	
-0.0735374	
-0.060821	
-0.0761216	
-0.0568023	
-0.0369133	
-0.0373789	
-0.028733	
0.0345992	
0.0590375	
0.0604046	
0.0591865	
0.0419301	
0.0188192	
-0.00828299	
0.017327	
0.0461473	
-0.0970534	
-0.0913784	
-0.0839237	
-0.0935718	
-0.102019	
-0.0870599	
-0.0907026	
0.0309775	
0.013793	
0.0465681	
0.0591913	
0.0498101	
0.0435864	
0.0445475	
0.0493572	
0.0478071	
0.0154445	
0.00484248	
0.0503283	
0.0502883	
0.0455017	
-0.0526225	
0.0477486	
0.0471065	
0.0240451	
0.0411758	
-0.0719819	
0.0330704	
0.0475703	
0.0379626	
-0.0658202	
-0.0631141	
-0.06773	
-0.109477	
-0.104019	
-0.104527	
0.0236583	
0.023425	
0.032184	
0.0364232	
-0.0588192	
-0.0451291	
-0.0461154	
-0.0398884	
0.042473	
0.0433574	
-0.0903252	
-0.0858118	
-0.0870776	
-0.0817607	
0.0390813	
0.0422759	
0.00536259	
0.0151033	
0.0003423	
-0.0960097	
-0.0980345	
-0.0983389	
-0.0956889	
0.0356875	
0.0325708	
0.0259585	
0.0216756	
0.022413	
-0.029396	
-0.0309076	
0.0393105	
-0.0747346	
-0.0790336	
0.0391417	
0.0420605	
0.0283078	
0.034118	
-0.0419614	
-0.0575964	
-0.0789198	
0.0329131	
0.00376494	
-0.000510636	
-0.00482031	
-0.0158511	
-0.00427022	
0.0307563	
0.0367807	
0.0215598	
0.0421391	
0.00975875	
-0.0565258	
0.047124	
-0.0582927	
-0.0635326	
0.0312322	
0.0365574	
0.0441293	
0.0478385	
0.00416931	
-0.015717	
-0.00309958	
0.014795	
0.0171062	
0.00698179	
0.0216235	
-0.0367573	
0.0360354	
0.0381446	
-0.00894757	
-0.0275628	
-0.0631167	
0.0517797	
0.044125	
0.0115486	
0.0191066	
0.0108647	
-0.0444063	
0.0384356	
-0.069849	
-0.0400252	
-0.0518393	
-0.0913866	
-0.103203	
-0.0711094	
-0.0181918	
-0.037074	
0.00392746	
0.0290644	
0.0206343	
-0.0779872	
-0.0857949	
-0.0892008	
-0.0779511	
-0.0854054	
-0.0768258	
0.0605014	
0.0202127	
0.0144787	
0.00598823	
0.0512946	
0.0605473	
0.0466221	
0.0479974	
0.0561599	
0.0504647	
0.0595816	
0.0582892	
0.0574973	
0.0590128	
0.0615703	
0.0615567	
0.0222949	
0.0601589	
0.0618718	
0.0603051	
0.0472462	
0.0478132	
-0.0993682	
-0.0567407	
-0.0167439	
-0.026641	
0.0037946	
0.00929657	
0.00211978	
-0.010722	
-0.0202224	
-0.0680079	
-0.0594983	
-0.053141	
0.0327843	
0.0339024	
0.0283684	
-0.0619535	
-0.0726226	
-0.0563639	
-0.0625413	
-0.000541285	
0.0147496	
0.02996	
0.012233	
-0.00124032	
-0.00702147	
0.0410577	
0.0408721	
0.0403712	
0.0364509	
-0.0763943	
-0.071523	
0.0379863	
0.037601	
0.0106336	
0.017026	
-0.0781335	
-0.0817058	
-0.0837425	
-0.0318047	
-0.0215327	
-0.013367	
0.0590133	
0.0589695	
-0.101054	
-0.0989304	
0.0252024	
-0.0771082	
-0.108466	
-0.106961	
-0.109446	
-0.0387912	
-0.041205	
-0.0351432	
-0.0357752	
-0.0439936	
-0.0345063	
0.0458547	
-0.102627	
-0.100869	
-0.098316	
0.018764	
0.00901127	
-0.0672072	
-0.0588914	
-0.0728474	
-0.062254	
-0.0620772	
-0.0595262	
0.0276142	
0.0374781	
0.0243537	
0.0251352	
0.037098	
0.0331649	
0.0198087	
0.0304839	
0.0180725	
-0.0948765	
-0.0944628	
-0.0919392	
-0.0938416	
-0.096549	
-0.0216395	
-0.0354156	
-0.0363422	
-0.0988159	
-0.0971222	
-0.0899107	
-0.0814628	
-0.0867167	
-0.0923093	
-0.0624706	
-0.0677064	
-0.07212	
-0.075948	
-0.0766199	
-0.0454957	
-0.0418888	
-0.0372989	
0.0415757	
0.0463067	
0.0486512	
0.0208361	
0.0229783	
0.049342	
0.0598809	
0.0547455	
0.0552504	
0.0460826	
-0.048129	
-0.0420289	
0.0619985	
0.0601478	
0.051108	
0.0511548	
0.0608759	
0.0248553	
0.0395341	
0.0258373	
0.0398268	
-0.0945852	
-0.0998034	
-0.0993955	
-0.0240596	
-0.0921997	
0.0349622	
-0.0551803	
-0.055577	
-0.107406	
-0.109612	
-0.0985632	
-0.0981321	
0.0494118	
-0.0861474	
-0.080699	
-0.0844097	
-0.0790342	
-0.071731	
-0.0705938	
0.0314959	
0.0351282	
0.0220355	
-0.0752178	
-0.0696581	
-0.0819224	
-0.0737946	
0.041349	
0.0408382	
0.0214954	
-0.0541787	
-0.0608301	
0.0267746	
0.0351131	
0.0257777	
0.0340468	
-0.0398646	
-0.0349675	
-0.0483291	
0.0347271	
0.0433929	
-0.0365945	
-0.0433686	
-0.0977067	
-0.102613	
0.00678821	
-0.0798376	
-0.0712546	
-0.0741854	
-0.0658617	
0.0433886	
0.048296	
0.0483705	
0.0186835	
0.0226036	
0.00849383	
-0.067375	
-0.0737455	
-0.0768838	
0.0431619	
0.0346286	
0.0286974	
-0.0866368	
-0.0806148	
-0.0929059	
-0.0672173	
-0.0726581	
-0.01634	
-0.0475499	
-0.0547449	
-0.0988945	
-0.0917647	
-0.0927212	
-0.0872374	
0.0285845	
0.0367241	
0.0585006	
0.0445361	
0.0223175	
0.0413814	
0.0405593	
0.048366	
0.043018	
-0.0159436	
-0.0238324	
0.0556521	
0.0574748	
0.0616476	
0.0488165	
0.0581518	
0.0402097	
0.0402573	
-0.0471581	
-0.0523272	
-0.0424739	
-0.0490705	
0.0465537	
-0.0868436	
-0.0951874	
-0.0866298	
-0.0921789	
-0.0227932	
-0.0163968	
-0.0732861	
-0.0853936	
-0.08915	
0.0411026	
0.0439066	
0.0619304	
-0.00759639	
0.000812674	
-0.00392143	
-0.00935606	
-0.0183489	
-0.0626241	
-0.0615482	
-0.110105	
-0.107966	
0.0312642	
0.0272066	
-0.0775347	
-0.0862663	
-0.00780169	
-0.0122414	
-0.00588539	
-0.023585	
-0.0161684	
0.0406555	
0.0325486	
0.0326428	
0.0411105	
0.0460838	
-0.0222667	
-0.0297215	
-0.0258576	
-0.0363981	
0.0172237	
-0.0564709	
-0.0635986	
0.00947226	
-0.00529085	
0.0125547	
0.00320468	
0.0602116	
0.0490997	
0.0519773	
0.0296146	
0.0351396	
0.0609848	
0.0625234	
0.0342477	
0.0345888	
0.0198883	
0.0251283	
-0.0867491	
-0.0927856	
0.0611112	
0.0626271	
0.0367464	
0.0406663	
-0.0270975	
0.0058697	
0.0587108	
0.0608641	
0.0621364	
0.0569256	
0.0554814	
0.0609676	
0.0602961	
0.0619604	
0.044256	
0.0314486	
0.0365149	
0.0294705	
-0.0553559	
-0.0539257	
-0.0142567	
-0.0184971	
0.00068936	
0.00652434	
-0.0426033	
-0.0490561	
-0.0453415	
-0.0180903	
0.0294645	
0.0283038	
0.0397023	
0.0366486	
0.0505774	
0.0443312	
0.0589057	
0.0621144	
0.035275	
0.0345691	
0.0429186	
0.0528178	
0.061946	
0.0621159	
0.0613293	
0.0307021	
0.0283828	
0.0508688	
0.0450904	
-0.110479	
-0.109149	
-0.110377	
-0.109312	
-0.0425077	
-0.0418667	
-0.0510712	
-0.0514507	
0.062376	
0.0477548	
0.0589884	
0.0460901	
0.0478812	
0.0489135	
0.0601118	
0.046413	
0.0341454	
0.0338075	
0.0290789	
0.0505243	
0.0474498	
0.0594334	
0.0498943	
0.048672	
0.0501152	
0.0478452	
0.0469736	
-0.104524	
-0.106114	
-0.108029	
0.0193326	
0.0164704	
-0.00889146	
0.00658214	
0.0186029	
0.00294794	
0.0235822	
0.0217668	
0.0146276	
0.0251628	
0.00388048	
-0.0943993	
-0.101607	
-0.0988279	
0.0411365	
0.0404976	
0.0510048	
0.0602303	
-0.106471	
0.00303747	
0.00558928	
0.0608035	
0.0590528	
0.0513688	
0.0475776	
0.0605423	
0.0351585	
0.0321242	
0.061038	
0.059014	
-0.00140869	
-0.0105994	
0.0625111	
0.0599542	
0.0502697	
0.0602252	
0.0590209	
0.0599977	
0.061954	
0.061662	
0.00492162	
0.0365221	
0.0484126	
0.0369824	
0.0329775	
0.0474386	
0.0477546	
0.0614393	
0.0598481	
0.00568166	
0.0476668	
0.0357333	
0.0437525	
0.0538805	
0.0540773	
0.0382821	
0.0356648	
0.0316491	
0.0231296	
0.0152103	
0.0185891	
0.0586997	
0.0404603	
0.050353	
0.0374777	
0.0492916	
0.0344342	
0.0428743	
0.044236	
0.0604672	
0.0623896	
0.0487853	
0.0424385	
0.0509758	
0.0243836	
0.0602513	
0.058755	
0.0224826	
0.0595926	
-0.0995276	
-0.105023	
-0.102912	
-0.103573	
0.0373148	
-0.0982586	
-0.0946746	
-0.00624621	
0.0444369	
0.062046	
0.0584902	
-0.0507969	
-0.0639355	
-0.046231	
-0.0495762	
0.0626062	
0.0599654	
0.0588384	
0.0526027	
0.0263637	
0.00861774	
0.00135481	
0.0290491	
0.025603	
0.0448878	
0.0230428	
0.0161844	
0.0234158	
0.0144118	
0.0205381	
0.0342565	
0.0279069	
-0.050454	
-0.0430135	
-0.0595554	
-0.0558514	
0.0453509	
0.0492147	
0.0503998	
0.0537533	
0.0142998	
0.0300377	
0.01431	
0.000339137	
0.00130074	
-0.0152327	
-0.0150953	
-0.0236555	
-0.0243938	
-0.0299034	
0.0579569	
0.055218	
0.0492894	
0.0475427	
0.0598162	
0.0592889	
0.0586768	
0.0573796	
0.049779	
0.0588292	
0.0623899	
0.046751	
0.0444985	
0.0617694	
0.0481062	
0.0488017	
0.0572722	
-0.00525077	
-0.015367	
-0.0132397	
-0.0239149	
-0.0284351	
-0.0316178	
-0.000599939	
0.0492797	
0.0586392	
0.0620252	
0.0454617	
0.0501424	
0.0506995	
0.0621131	
0.0504728	
-0.0198476	
-0.0270382	
0.0525673	
0.0456613	
0.0160748	
0.0161355	
0.00556968	
0.0107903	
-0.00290074	
-0.00636949	
-0.00902429	
-0.0248293	
-0.0144827	
-0.0266218	
0.000659127	
-0.00205543	
0.00758523	
0.0109044	
-0.00733733	
-0.0169055	
-0.0229244	
0.0600842	
0.0585615	
0.049988	
0.047512	
0.051195	
0.0440466	
0.0105706	
0.0119738	
0.0615255	
0.0580514	
0.0600415	
0.0495081	
0.0577873	
0.0615787	
0.0480863	
0.0601924	
0.0590553	
0.0621793	
0.012251	
0.0140375	
0.0586924	
0.0620491	
0.0521049	
0.0590249	
0.05903	
0.0606762	
-0.104179	
-0.0997601	
-0.104045	
-0.101301	
-0.00748255	
0.0293691	
0.0296019	
0.0588913	
0.0593104	
0.061509	
0.0325941	
0.030513	
0.0510436	
0.060579	
-0.0101448	
-0.0135611	
-0.0409505	
0.0246995	
0.0348996	
0.0368529	
-0.0432975	
-0.0337959	
0.0296914	
0.0220653	
0.0589553	
0.0617561	
-0.0196106	
-0.00360471	
-0.025738	
-0.0201247	
0.0175421	
0.0179853	
0.00919001	
0.0115051	
0.00451309	
0.00646593	
-0.00572319	
-0.000973657	
-0.00506982	
-0.00687755	
0.0606539	
0.0539977	
0.0626037	
0.0593324	
0.0694199	
0.0337118	
0.0694095	
0.0693054	
0.0317044	
0.0349274	
0.0285961	
0.0276349	
0.0692318	
0.0684174	
0.0667686	
0.0673651	
0.0663379	
0.0667815	
0.000374848	
0.047313	
0.067366	
0.0684826	
-0.0030889	
-0.00892832	
-0.00423253	
0.0676631	
0.068664	
0.0653887	
0.0330682	
0.0369816	
0.0293743	
0.00163056	
0.00314815	
0.0414834	
0.0493196	
0.0168251	
0.0212203	
0.0398891	
0.0212554	
0.0594175	
0.0694303	
0.06007	
0.0607818	
0.0700059	
0.0704723	
0.0569602	
0.0108174	
0.0517003	
0.0509557	
0.0551317	
0.0176168	
0.0257991	
0.0235902	
0.0192568	
0.0226317	
0.0291612	
0.0491506	
0.0570833	
0.0220517	
0.0166731	
0.0203156	
0.0574318	
0.0615571	
0.0261428	
0.056752	
0.0645717	
0.0660744	
0.0696969	
0.0698747	
0.0657846	
0.065271	
0.0685103	
0.0678218	
0.0673035	
0.0689337	
0.0711479	
0.0688372	
0.069398	
0.0606163	
0.0266258	
0.0695105	
0.0595641	
0.0695972	
0.036691	
0.0270899	
0.00521944	
-0.00124662	
0.00100744	
0.0274477	
0.058618	
0.0632333	
0.0495625	
0.0544925	
0.0352738	
0.064496	
0.0653258	
0.0620025	
0.0266149	
0.0586194	
0.0607661	
0.0548176	
0.0283545	
0.0244735	
0.0266066	
0.0241059	
0.0644428	
0.0126813	
0.00825351	
0.0058706	
0.0231869	
0.0193894	
0.0271998	
0.0229007	
0.0200432	
0.0281694	
0.0559201	
0.0155767	
0.0253224	
0.0498806	
0.058031	
0.056912	
0.0558817	
0.0611375	
0.0243752	
0.0600966	
0.0643896	
0.0666372	
0.0297551	
0.0254402	
0.0310606	
0.0462222	
0.0449868	
0.0457448	
0.0487903	
0.0258381	
0.0256086	
0.022898	
0.00253819	
0.00174022	
0.0677735	
0.00616281	
0.00934603	
0.0195808	
0.0199676	
0.0227748	
0.0476961	
0.0407257	
0.0420583	
0.0160507	
0.0690653	
-0.00423972	
-0.00532645	
0.0266072	
0.0272142	
0.0711886	
0.0708639	
0.0177472	
0.0214883	
0.0263118	
0.0643693	
0.0608162	
0.0610912	
0.0570679	
0.0500054	
0.0455475	
0.0501891	
0.0549177	
0.053115	
0.0579231	
0.0536743	
0.030681	
0.0425914	
0.0517727	
0.050554	
0.0701844	
0.0673869	
0.0659559	
0.0661014	
0.070415	
0.0698315	
0.069847	
0.0692311	
0.0684425	
0.0201434	
0.0187586	
0.0715328	
0.0700388	
0.0692668	
0.069298	
0.0208525	
0.0262823	
-0.00203995	
0.0665123	
0.0651896	
0.0649859	
0.0453807	
0.0541469	
0.0591187	
0.0639241	
0.0633899	
0.0615586	
0.0611972	
0.0578108	
0.0429099	
0.0474706	
0.0538504	
0.0435355	
0.0458672	
0.038928	
0.0385917	
0.0626178	
0.0591513	
0.0712729	
0.0711653	
0.0238844	
0.0287031	
0.0571533	
0.0690082	
0.067488	
0.0683508	
0.0657036	
0.0653783	
0.0625137	
0.0623504	
0.0615124	
0.0620762	
0.0116463	
0.013599	
0.0120965	
0.0672306	
0.0651357	
0.0648542	
0.0500018	
0.0541963	
0.058113	
0.0343092	
0.026364	
0.0290202	
0.00900137	
0.0455704	
0.0463368	
0.066768	
0.0671245	
0.0555288	
0.053599	
0.0643986	
0.0642021	
0.0656014	
0.0669978	
0.066968	
0.0639227	
0.0633782	
0.0265749	
0.0723409	
0.0203234	
0.0106317	
0.0137782	
0.0372648	
0.0356397	
0.0556316	
0.0623387	
0.0635555	
0.0673427	
0.0698661	
0.0708876	
0.0245562	
0.0589509	
0.0601633	
0.0702932	
0.0702977	
0.0666015	
0.0693551	
0.0262593	
0.0225095	
0.0181156	
0.0149571	
0.0300464	
0.0220849	
0.0242231	
0.0266522	
0.023122	
0.0583611	
0.0616382	
0.0434985	
0.0530941	
0.0515022	
0.0599287	
0.0616399	
0.054598	
0.058611	
0.0379163	
0.0415993	
0.0350652	
0.066888	
0.0626097	
0.059572	
0.0580903	
0.0637055	
0.0570717	
0.0599055	
0.0462744	
0.0302214	
0.033828	
0.034683	
0.0378295	
0.0684172	
0.0410392	
0.0253018	
0.0232502	
0.0246515	
0.022641	
0.0697933	
0.0708041	
0.069336	
0.0372259	
0.0286873	
0.0327706	
0.0699759	
0.0699677	
0.0687215	
0.0708203	
0.0681493	
0.0663106	
0.0693993	
0.070127	
0.0687096	
0.0679935	
0.0698836	
0.0292516	
0.00584357	
0.00876364	
0.00981597	
0.00803556	
0.0116422	
0.00857989	
0.0314602	
0.0358269	
0.0408631	
0.0409595	
0.0690113	
0.0695878	
0.06845	
0.00100841	
-0.00461092	
0.0291662	
0.0379886	
0.0141532	
0.0156773	
0.0155239	
0.016167	
0.0204043	
0.0209446	
0.0211777	
0.0217268	
0.0291017	
0.0335421	
0.068992	
0.0443151	
0.0421672	
0.0361663	
0.0138148	
0.00749775	
0.00602868	
0.008917	
0.0663527	
0.0679765	
0.067702	
0.0703606	
0.0639501	
0.062428	
0.0611621	
0.0293734	
0.0262825	
0.0291154	
0.0233633	
0.00325353	
0.00504707	
0.0680693	
0.0699087	
0.0473384	
0.0380806	
0.0353849	
0.00987357	
0.0109875	
0.014323	
0.0142902	
0.0292415	
0.00594567	
0.00439218	
0.00418256	
0.00212423	
-0.00717185	
-0.00679671	
0.0270237	
0.026424	
0.067073	
0.0656895	
0.0638095	
0.0298561	
0.02763	
0.0333009	
0.0279075	
0.0246078	
0.0236209	
0.0239577	
0.0119495	
0.0107455	
0.0248901	
0.0251755	
0.0697487	
0.0691475	
0.0568532	
0.0610418	
0.056754	
0.0612546	
-0.00354458	
-0.00268615	
-0.000125633	
-0.000150724	
0.0265275	
0.0261915	
0.027131	
0.0266811	
0.0638561	
0.0652451	
0.0665375	
0.0697574	
0.0712908	
0.0690249	
0.0692618	
0.0717322	
0.0701626	
0.0248764	
0.0228232	
0.024694	
0.0310952	
0.0299193	
0.0366342	
0.0332561	
0.0307562	
0.0387309	
0.0403797	
0.0333452	
0.029788	
0.0303762	
0.0287419	
0.0632661	
0.0662218	
0.0319313	
0.000928686	
-0.00195555	
0.0339543	
0.0297874	
0.0108714	
0.00867757	
0.00498326	
0.00536022	
0.0494153	
0.0619792	
0.0611437	
0.0345635	
0.0381986	
0.00762963	
0.0106576	
0.0156444	
0.0712303	
0.0724859	
0.0666319	
0.0650953	
0.0680945	
0.0712319	
0.0712338	
0.0436897	
0.0397597	
0.0370454	
0.0676313	
0.0696164	
0.0388688	
0.0675934	
0.0607854	
0.0718413	
0.0705532	
0.0699569	
0.0710689	
0.0455908	
0.0414417	
0.0657202	
0.0658803	
0.0319009	
0.0413494	
0.0334242	
0.0421673	
0.0589198	
0.059367	
0.0266583	
0.0309382	
0.0242808	
0.0253979	
0.0657103	
0.067613	
0.0584608	
0.0610691	
0.068274	
0.0704198	
0.0680423	
0.0697571	
0.0698117	
0.0678718	
0.0710463	
0.0645494	
0.045848	
0.0476937	
0.0701132	
0.064128	
0.0660413	
0.0470967	
0.0475378	
0.0424945	
0.0392149	
0.0190583	
0.0174733	
0.0185448	
0.0165057	
0.0656266	
0.066278	
0.0598611	
0.0618066	
0.0532413	
0.0683707	
0.0691818	
0.0680326	
0.0466053	
0.0683414	
0.0695306	
0.0545101	
0.066575	
0.0482343	
0.0683685	
0.070083	
0.030872	
0.0386915	
0.0312278	
0.0354282	
-0.00549585	
-0.00302794	
-0.00796029	
-0.00852195	
0.0460071	
0.0141646	
0.0134976	
0.0173232	
0.0160608	
0.0679339	
0.0646882	
0.0659167	
0.0633376	
0.0678105	
0.068201	
0.0644539	
0.0666712	
0.0610931	
0.0623083	
0.0634215	
0.0671209	
0.0642586	
0.0663479	
0.0690432	
0.0516537	
0.050815	
0.0540343	
0.0719731	
0.0709846	
0.0584936	
0.062142	
0.0589892	
0.0712004	
0.0704477	
0.07048	
0.0727481	
0.0711312	
0.0513094	
0.0553691	
0.0694303	
0.0679249	
0.0481686	
0.0508843	
0.0471186	
0.0612275	
0.0614149	
0.0719204	
0.0704922	
0.0704513	
0.0703204	
0.0717307	
0.0545976	
0.0559564	
0.0693429	
0.069543	
0.0678186	
0.0634385	
0.0606758	
0.061866	
0.0635277	
0.0684519	
0.0700238	
0.0701419	
0.0703336	
0.0700611	
0.0623868	
0.0628982	
0.0649071	
0.0728692	
0.071562	
0.0653236	
0.0702245	
0.0693926	
0.0710704	
0.0709278	
0.0659062	
0.0681049	
0.0535282	
0.052463	
0.0727774	
0.0716777	
0.0705664	
0.0686564	
0.0337898	
0.0368429	
0.0424759	
0.038225	
0.0282767	
0.0589107	
0.0650677	
0.0647534	
0.064779	
0.0625018	
0.06645	
0.0675172	
0.0179858	
0.018433	
0.0236791	
0.065585	
0.0657622	
0.0683659	
0.0683682	
0.0719544	
0.0696821	
0.0696251	
0.0148661	
0.0175773	
0.0195979	
0.022232	
0.0613738	
0.0633741	
0.0698794	
0.0703538	
0.0430325	
0.0645482	
0.0652705	
0.0647113	
0.0705547	
0.0723379	
0.0464492	
0.0458983	
0.0270265	
0.0258432	
0.0259611	
0.0255148	
0.0671506	
0.0695124	
0.0668297	
0.0704908	
0.0421941	
0.0518944	
0.0431232	
0.0708339	
0.0590358	
0.0533548	
0.0531735	
0.0709342	
0.0726193	
0.0711552	
0.0378598	
0.0298808	
0.0510639	
0.0547833	
0.0725177	
0.0690034	
0.0425164	
0.0447766	
0.0464891	
0.0711725	
0.0721848	
0.0694393	
0.0464384	
0.0323327	
0.0406793	
0.0297124	
0.0325248	
0.0179259	
0.0156368	
0.0239822	
0.0240256	
0.0618205	
0.0511535	
0.0469464	
0.0685754	
0.0672738	
0.0709351	
0.0689922	
0.067943	
0.0654252	
0.068337	
0.0679066	
0.0659619	
0.063159	
0.0656727	
0.0627928	
0.0706887	
0.0688373	
0.0714722	
0.0568234	
0.0332633	
0.0267319	
0.0331572	
0.0269879	
0.0545504	
0.0545123	
0.0530465	
0.0708007	
0.0700295	
0.0709835	
0.0717235	
0.0701214	
0.0703363	
0.070136	
0.0627646	
0.0626907	
0.0239474	
0.0183413	
0.0174924	
0.0593957	
0.0595364	
0.0674133	
0.0643737	
0.066373	
0.0628786	
0.0721245	
0.0709065	
0.0690505	
0.0707761	
0.071566	
0.0692601	
0.0623209	
0.0624659	
0.0673516	
0.0699781	
0.0686104	
0.0672831	
0.0721477	
0.0707456	
0.0650488	
0.0673241	
0.0652448	
0.0674615	
0.0724346	
0.071153	
0.0390766	
0.0431466	
0.0569976	
0.0567842	
0.0507035	
0.0514674	
0.0716605	
0.0710873	
0.0688448	
0.0689215	
0.0457782	
0.0501223	
0.069324	
0.0709936	
0.0716119	
0.0684815	
0.0715354	
0.0549342	
0.0590787	
0.02568	
0.021587	
0.0550923	
0.0550843	
0.0501736	
0.0514143	
0.048648	
0.0608473	
0.0365243	
0.0327274	
0.051942	
0.0507872	
0.0562857	
0.0570997	
0.0349564	
0.0402135	
0.0338524	
0.0343075	
0.0279439	
0.0227172	
0.0473768	
0.0513486	
0.0290371	
0.0229453	
0.0377686	
0.0404917	
0.0459928	
0.0462775	
0.0485706	
0.0148148	
0.0362284	
0.037196	
0.0317948	
0.0307572	
0.0557863	
0.0595295	
0.0553387	
0.0597187	
0.0709737	
0.0714968	
-0.0152648	
-0.0134206	
-0.00770779	
-0.0109053	
-0.00280592	
0.00217185	
0.00726519	
0.0161352	
0.0194718	
0.0117127	
-0.0161809	
-0.0132887	
-0.0108292	
-0.00362548	
-0.00774509	
0.000999981	
0.0179055	
0.0214591	
0.0103178	
0.014422	
0.00588974	
-0.0158582	
0.0186042	
0.0151643	
0.00645371	
0.00205368	
0.011079	
-0.0061591	
-0.00930733	
-0.0144835	
-0.0122102	
-0.00236198	
0.021432	
0.0190273	
0.0158162	
0.00787811	
0.0121349	
0.00319333	
-0.013904	
-0.0114759	
-0.00864828	
-0.00524554	
-0.00114751	
0.0225709	
-0.110476	
-0.0846675	
-0.106614	
0.0617536	
-0.0764125	
0.0631142	
-0.0555303	
0.0622771	
0.0621638	
0.0617521	
0.0622981	
-0.0495204	
0.0618473	
-0.0430786	
-0.0418486	
-0.0368422	
-0.0231411	
-0.0312535	
-0.0298265	
0.0615636	
0.0611266	
0.0602835	
0.0611223	
0.0562241	
0.0451819	
-0.036273	
-0.0614626	
-0.0687604	
-0.073331	
-0.0317856	
-0.042777	
-0.0603658	
-0.0547131	
-0.0427926	
-0.0731318	
-0.0598286	
-0.0566743	
-0.0367962	
-0.0371315	
-0.0287725	
0.0346318	
0.0589618	
0.0604412	
0.029661	
0.0375511	
0.019434	
0.00415512	
0.0174358	
0.0438657	
0.0620049	
-0.0965395	
-0.0921649	
-0.0838399	
-0.0935096	
-0.0982915	
-0.0869827	
-0.0914563	
0.0310104	
0.0138667	
0.0466543	
0.059183	
0.049815	
0.0439629	
0.0482886	
0.0493506	
0.0495622	
0.0167848	
0.0480535	
0.0502034	
0.0450549	
-0.0467152	
0.051805	
0.0491011	
0.0241701	
0.0412747	
-0.0726221	
0.0330926	
0.0475761	
-0.0657742	
-0.0631065	
-0.0676941	
-0.109465	
-0.104523	
-0.103984	
0.0237193	
0.0330685	
0.0235722	
0.0368012	
-0.0587669	
-0.0451222	
-0.0458225	
-0.0396397	
0.0433678	
0.0424873	
-0.0857355	
-0.0902247	
-0.0869848	
-0.0816944	
0.0400283	
0.040353	
0.0134568	
0.00445121	
-0.00468679	
-0.0978562	
-0.095741	
-0.0981278	
-0.0959924	
0.0357025	
0.0325885	
0.0259899	
0.022579	
0.0214029	
-0.0252406	
-0.0331378	
0.0393769	
-0.0747131	
-0.0790303	
0.0427162	
0.0309513	
0.0339902	
0.027894	
-0.0471432	
-0.0575703	
-0.078904	
0.033246	
-0.00365865	
-0.000411613	
0.0367857	
0.0308966	
0.00154866	
0.0215957	
0.0419804	
0.00971485	
0.000162475	
-0.048563	
-0.0578216	
0.0473994	
-0.0647587	
-0.0593993	
0.0365722	
0.0351434	
0.045866	
0.0441425	
0.00385376	
-0.00356164	
-0.0162101	
0.0172265	
0.0147901	
0.00695821	
0.0239855	
-0.0363725	
0.0382559	
0.0344554	
-0.0122603	
-0.0272007	
-0.063014	
0.0477985	
0.0446526	
0.0190823	
-0.000315016	
0.0115696	
-0.0444382	
0.0371152	
-0.0710285	
-0.0400114	
-0.0518165	
-0.0913814	
-0.103221	
-0.0703428	
-0.0369868	
-0.0247626	
0.0106102	
0.0290828	
0.00682214	
0.020673	
0.0223515	
-0.086625	
-0.085451	
-0.0892321	
-0.077182	
-0.085594	
0.0603859	
0.0198463	
0.0043707	
0.0128004	
0.0513978	
0.0600352	
0.0449835	
0.0469555	
0.0562161	
0.0504712	
0.0595797	
0.0583195	
0.0615277	
0.058991	
0.0612129	
0.0600897	
0.0618688	
0.0472934	
0.0483122	
-0.0988938	
-0.0567078	
-0.0228619	
-0.00535975	
-0.0251438	
-0.0156046	
0.00380212	
-0.00886623	
0.00903232	
-0.0224734	
-0.0123775	
-0.0584242	
-0.0667808	
-0.0527834	
0.0327952	
0.0283232	
0.0338479	
-0.0721098	
-0.0621308	
-0.0624735	
-0.056331	
0.0150411	
0.0118681	
0.0300283	
0.0223652	
-0.00683768	
-0.00542478	
0.0410786	
0.0403834	
0.0408883	
0.0375335	
-0.0714313	
-0.0763359	
0.0377241	
0.0381116	
0.0107594	
0.0171248	
-0.078072	
-0.0836987	
-0.0816285	
-0.021495	
-0.0133493	
-0.0163153	
0.0590329	
0.0589848	
-0.100958	
-0.0988717	
0.0254173	
-0.0770564	
-0.108439	
-0.109419	
-0.106936	
-0.0389412	
-0.0268267	
-0.0413706	
-0.0349935	
-0.0339395	
-0.0433947	
-0.0425759	
0.0478501	
-0.100797	
-0.102536	
-0.101887	
0.0187803	
0.00931855	
-0.0586339	
-0.0666053	
-0.0727935	
-0.0622192	
-0.0618407	
-0.0654801	
0.0284554	
0.0376034	
0.0251528	
0.0305051	
0.0331806	
0.0384497	
0.019837	
0.0180944	
0.0243748	
-0.094664	
-0.0918658	
-0.0943429	
-0.0962996	
-0.093812	
-0.022259	
-0.0365075	
-0.0355478	
-0.0987941	
-0.0899257	
-0.0970961	
-0.0867261	
-0.0818551	
-0.0922894	
-0.0676686	
-0.0624214	
-0.0720635	
-0.0765665	
-0.0758988	
-0.0449428	
-0.036929	
-0.0417636	
0.0586334	
0.041331	
0.0486479	
0.0463582	
0.0232675	
0.00982812	
0.0258329	
0.0215772	
0.0493532	
0.0598584	
0.0552744	
0.0547885	
0.0463037	
-0.0502504	
-0.0386874	
-0.042843	
-0.0341807	
0.06016	
0.0620048	
0.0511231	
0.0511245	
0.0606881	
0.0338609	
0.0397903	
0.0248911	
0.0326456	
-0.094529	
-0.0993264	
-0.0996983	
-0.0240996	
-0.0951914	
0.0359308	
-0.0551548	
-0.0555465	
-0.107409	
-0.109598	
-0.0979954	
-0.0984975	
0.0494418	
-0.0826843	
-0.086759	
-0.0785698	
-0.0842815	
-0.0705472	
-0.0716959	
0.0315119	
0.0220504	
0.0312489	
-0.069477	
-0.0750888	
-0.0736711	
-0.0813926	
0.0411404	
0.0414735	
0.0215106	
-0.0607906	
-0.0541581	
0.0258155	
0.0340678	
0.0268111	
0.0351244	
-0.0317609	
-0.039792	
-0.0482489	
0.0348059	
0.0434242	
-0.0433521	
-0.0365807	
-0.102608	
-0.0977081	
-0.0722956	
-0.080625	
-0.0644744	
-0.0741063	
0.0433938	
0.0483839	
0.0483095	
0.0250304	
0.0144259	
0.0086371	
-0.067338	
-0.0768358	
-0.0736921	
0.034699	
0.0288765	
0.0431752	
-0.0800205	
-0.0868002	
-0.0928969	
-0.07261	
-0.0671716	
-0.0547274	
-0.0475316	
-0.0917705	
-0.0993601	
-0.0872179	
-0.0927025	
0.0286383	
0.0367208	
0.058507	
0.0476762	
0.0406002	
0.0413757	
0.0483764	
0.0418589	
-0.0239125	
-0.0164308	
0.0556969	
0.057506	
0.0488075	
0.0581757	
0.0617077	
0.0402436	
0.0402317	
-0.0523021	
-0.041958	
-0.0490649	
-0.0425045	
0.0466368	
-0.0921534	
-0.0867878	
-0.0921826	
-0.0866167	
-0.0214033	
-0.0182692	
-0.0781746	
-0.0735978	
-0.0891623	
0.0412167	
0.0474943	
0.0623628	
-0.00354883	
0.003977	
0.000638579	
-0.0163166	
-0.00954157	
-0.0615083	
-0.0625871	
-0.107966	
-0.110088	
0.0379936	
0.0272439	
0.0312921	
-0.086297	
-0.0776842	
-0.0122164	
-0.00588517	
-0.0161683	
-0.023585	
0.040737	
0.0397292	
0.0325696	
0.0461348	
0.0412311	
-0.0298454	
-0.0210656	
-0.0365579	
-0.0354343	
0.017238	
-0.063525	
-0.0564169	
-0.000761005	
0.010007	
0.000417606	
0.0146321	
0.0602133	
0.0519891	
0.0471113	
0.0352425	
0.0625511	
0.0610023	
0.0342124	
0.025791	
0.0250252	
0.0197798	
-0.0927748	
-0.0867474	
0.0626328	
0.0611185	
0.0407173	
0.0367377	
0.00650207	
0.0587506	
0.0572795	
0.048746	
0.0608894	
0.062508	
0.0555375	
0.0569623	
0.0609705	
0.0618176	
0.0602589	
0.0388262	
0.0442339	
0.0290244	
0.0364398	
-0.0536486	
-0.0551419	
-0.0157313	
-0.01223	
-0.00601978	
0.00178899	
-0.0490066	
-0.045287	
-0.0349254	
-0.0181224	
0.0289896	
0.0297803	
0.0374214	
0.0429566	
0.0458836	
0.0588009	
0.0505857	
0.0619672	
0.0355096	
0.0347146	
0.0461183	
0.0528482	
0.0615503	
0.0594586	
0.0620845	
0.0612946	
0.0285009	
0.0308192	
0.0507748	
0.0449322	
-0.109145	
-0.10957	
-0.109296	
-0.110368	
-0.0355991	
-0.0424911	
-0.0514263	
-0.0510463	
0.0623001	
0.0589742	
0.0430228	
0.04844	
0.0497084	
0.0604071	
0.0481167	
0.0405032	
0.0404935	
0.0287203	
0.0335326	
0.0474664	
0.0505292	
0.0500257	
0.0595376	
0.0469694	
0.0468642	
0.0621024	
0.0476686	
0.046951	
0.0477493	
-0.106073	
-0.104974	
-0.107996	
0.0164851	
0.0193512	
0.00658391	
0.00212961	
0.049694	
0.00750854	
0.018954	
0.0130027	
0.0240488	
0.00419654	
0.014587	
0.0230749	
-0.0943838	
-0.098731	
-0.101555	
0.0405142	
0.0411532	
0.0509863	
0.060247	
-0.106389	
0.00630256	
0.0027635	
0.0590412	
0.0607839	
0.0520872	
0.0604651	
0.0519657	
0.0587535	
0.0575396	
0.0590658	
0.0610172	
-0.000907628	
-0.00895875	
0.0335058	
0.0361099	
0.0625661	
0.0507256	
0.0600261	
0.0590185	
0.0602271	
0.0620426	
0.0600866	
0.0622831	
0.0455969	
0.0381922	
0.060092	
0.00190096	
0.0328903	
0.03671	
0.047064	
0.0441326	
0.0422085	
0.0493424	
0.040504	
0.0475527	
0.059852	
0.0614447	
0.005686	
0.0445491	
0.0357476	
0.0541003	
0.0439552	
0.053909	
0.0356951	
0.0382766	
0.0251387	
0.0316419	
0.0164888	
0.0201344	
0.033896	
0.0347822	
0.0469962	
0.0488582	
0.0626344	
0.060658	
0.0509945	
0.0488078	
0.0425161	
0.024581	
0.0587139	
0.0601628	
0.030375	
0.0504333	
0.0597695	
-0.104474	
-0.0994212	
-0.103519	
-0.10279	
0.0374409	
0.0447378	
-0.0946633	
-0.101288	
0.0258156	
0.0293641	
-0.00684945	
-0.0062305	
0.0448123	
0.0621273	
0.0585122	
-0.059012	
-0.0502042	
-0.0557703	
-0.0450268	
0.0264847	
0.00868794	
0.00181195	
0.0382617	
0.0468868	
0.0164361	
0.0236396	
0.0144239	
0.0204402	
0.0281339	
0.036235	
-0.0595617	
-0.0558693	
-0.050461	
-0.0402143	
0.0467146	
0.0512932	
0.00104415	
-0.00793564	
-0.00791542	
-0.0160218	
-0.0244914	
-0.0301637	
-0.0154738	
-0.0245955	
0.0226715	
0.0145516	
0.0162103	
0.0574094	
0.0480414	
0.0579928	
0.0552686	
0.00605121	
0.000249957	
0.0479432	
0.0592921	
-0.0271697	
-0.0276266	
-0.000703608	
-0.00644127	
0.0620518	
-0.0155559	
-0.00531078	
-0.0133427	
-0.0283931	
-0.0315861	
-0.0239004	
0.0589636	
0.0621395	
0.0497991	
0.0454697	
0.0501429	
0.0495443	
0.049923	
0.0589837	
-0.0198827	
-0.0268637	
0.0525914	
0.0457198	
0.016144	
0.0163366	
-0.00633386	
-0.00286255	
-0.01815	
-0.0200548	
0.0585751	
0.0587078	
0.0503985	
0.050012	
0.000686333	
-0.00204207	
0.00763251	
0.0109416	
-0.00991037	
-0.016887	
-0.0133299	
-0.0066389	
-0.0216422	
-0.0151098	
0.0512189	
0.0441047	
0.0600597	
0.0478655	
0.0615286	
0.0580603	
0.00552361	
0.0108278	
0.0495215	
0.0599064	
0.057812	
0.0614948	
0.0106137	
0.0134092	
0.0607981	
0.0543219	
0.0625778	
0.0591842	
-0.000982116	
-0.00749876	
0.0520967	
0.0590411	
0.0586961	
0.062038	
0.0140666	
0.0122756	
0.0606938	
0.0590397	
-0.099745	
-0.104149	
-0.0982541	
-0.103998	
0.0296287	
0.029332	
0.0606856	
0.0584651	
0.0511404	
0.0602598	
0.061509	
0.059614	
0.0328057	
0.0309332	
0.0308211	
0.0515211	
0.0607241	
-0.0159927	
-0.0103797	
0.0250311	
0.0279243	
0.0382485	
0.0365887	
0.0598922	
0.0621175	
-0.00753927	
-0.0195334	
-0.00897742	
-0.0256419	
0.0626415	
0.0593183	
0.0606585	
0.0539515	
0.0226432	
0.023256	
-0.0745585	
-0.0818668	
-0.0723198	
-0.0778899	
0.0177559	
0.00987672	
0.0176698	
0.0113167	
0.00631105	
0.0694501	
0.0334186	
0.0692999	
0.0693639	
0.0317115	
0.0386875	
0.0285908	
0.0276343	
0.0691845	
0.068525	
0.0667254	
0.0662958	
0.0668451	
0.000354154	
0.0473642	
-0.00309412	
-0.00893964	
-0.00853512	
0.0676143	
0.0687185	
0.065389	
0.0297657	
0.0370341	
0.0293801	
0.00160883	
0.00322537	
0.0417643	
0.0491057	
0.0166976	
0.0211141	
0.0396607	
0.0212124	
0.0694085	
0.0607839	
0.0600721	
0.0699323	
0.0569187	
0.0107725	
0.0520375	
0.0499642	
0.0546597	
0.0176253	
0.025376	
0.0235428	
0.0192207	
0.0226206	
0.028976	
0.0219734	
0.016645	
0.0202361	
0.0571069	
0.0610838	
0.0264816	
0.0342384	
0.0567334	
0.0649655	
0.0661477	
0.0295006	
0.0372559	
0.0248166	
0.0328014	
0.0697739	
0.0698882	
0.0658343	
0.0653209	
0.0683954	
0.0672382	
0.0689045	
0.0688308	
0.069384	
0.0606072	
0.0269462	
0.0698579	
0.0596931	
0.0695977	
0.0366649	
0.0270602	
0.00517615	
-0.00130767	
0.000964473	
0.0274149	
0.0631148	
0.0588345	
0.0474035	
0.0540357	
0.0352258	
0.0646571	
0.062274	
0.0650968	
0.0206531	
0.0586265	
0.0623538	
0.0603107	
0.0282236	
0.0243898	
0.0240329	
0.0265045	
0.064475	
0.00583441	
0.0126061	
0.0081826	
0.0270603	
0.0199701	
0.0228048	
0.0193217	
0.0229696	
0.0330203	
0.0560441	
0.0155393	
0.0436941	
0.0194837	
0.0498415	
0.0568585	
0.0570955	
0.0598677	
0.0598287	
0.0241249	
0.0624486	
0.0642962	
0.0610498	
0.0672921	
0.0254225	
0.0297297	
0.0310843	
0.0495609	
0.0446325	
0.0450386	
0.065775	
0.0487085	
0.0502996	
0.0258246	
0.0256028	
0.0229066	
0.00263618	
0.00415338	
0.0708733	
0.0704379	
0.067729	
0.00930629	
0.00589949	
0.0197969	
0.0264306	
0.0202278	
0.0475702	
0.0421079	
0.0407939	
0.0146487	
0.0690499	
-0.00424933	
-0.00534865	
0.026604	
0.0271769	
0.0708102	
0.0711954	
0.0177547	
0.0214398	
0.025336	
0.0605528	
0.0605142	
0.056541	
0.0503464	