<VTKFile type="UnstructuredGrid" version="0.1" byte_order="LittleEndian">
	<UnstructuredGrid>
		<Piece NumberOfPoints="1759" NumberOfCells="3358">
			<CellData Scalars="scalars">
				<DataArray type="Float64" Name="Doublet Strengths" NumberOfComponents="1" Format="ascii">
0.220131	
0.191231	
0.205891	
0.0860548	
0.187706	
0.0780751	
0.117954	
0.0844081	
0.0796497	
0.0784889	
0.0790124	
0.111325	
0.0802779	
0.174457	
0.0358177	
0.0387347	
0.0485768	
0.0491738	
0.0780976	
0.0788685	
0.0767044	
0.0874614	
0.0724926	
0.0689088	
0.0524442	
0.076176	
0.181958	
0.184717	
0.186144	
0.0602954	
0.155413	
0.175061	
0.158171	
0.150105	
0.152309	
0.162337	
0.161993	
0.145058	
0.155737	
0.151559	
0.170192	
0.12764	
0.0973398	
0.0796305	
0.0918333	
0.0975184	
0.142735	
0.158771	
0.142078	
0.110754	
0.184597	
0.173433	
0.151442	
0.163094	
0.2097	
0.158249	
0.169347	
0.121193	
0.135162	
0.106197	
0.0887088	
0.0996322	
0.0868862	
0.0889506	
0.104708	
0.107281	
0.141145	
0.146978	
0.101204	
0.106549	
0.114352	
0.170604	
0.111838	
0.113644	
0.135949	
0.119696	
0.183417	
0.118337	
0.111356	
0.104806	
0.11203	
0.0982883	
0.109389	
0.216293	
0.202536	
0.203146	
0.129268	
0.0937784	
0.0916468	
0.0869118	
0.136253	
0.124727	
0.174957	
0.172999	
0.109779	
0.107811	
0.156825	
0.150633	
0.155347	
0.142554	
0.122977	
0.11905	
0.145894	
0.139904	
0.147979	
0.18321	
0.193486	
0.184951	
0.179854	
0.115053	
0.123838	
0.128857	
0.135636	
0.135499	
0.167399	
0.168797	
0.122797	
0.186075	
0.187421	
0.119147	
0.115662	
0.129387	
0.123669	
0.085909	
0.101452	
0.188357	
0.127705	
0.143437	
0.143397	
0.152433	
0.156536	
0.152929	
0.128925	
0.122641	
0.052596	
0.0985046	
0.146479	
0.175096	
0.0883304	
0.177551	
0.178685	
0.117388	
0.113429	
0.105398	
0.100778	
0.153656	
0.164116	
0.158017	
0.114766	
0.111142	
0.117338	
0.141139	
0.166971	
0.0729412	
0.0633519	
0.151707	
0.157114	
0.142252	
0.104353	
0.11653	
0.148301	
0.142252	
0.148459	
0.175372	
0.106876	
0.178179	
0.0607781	
0.0734643	
0.194521	
0.202196	
0.165778	
0.141086	
0.146152	
0.153673	
0.120873	
0.129452	
0.166197	
0.171321	
0.187943	
0.183423	
0.184743	
0.181665	
0.0894819	
0.135138	
0.139586	
0.144017	
0.0984765	
0.0835517	
0.084329	
0.0852872	
0.0758026	
0.0976595	
0.0854354	
0.0939964	
0.0828558	
0.0969823	
0.0865185	
0.0878111	
0.071961	
0.0914461	
0.0851225	
0.074226	
0.108387	
0.111811	
0.198925	
0.0871478	
0.155776	
0.15848	
0.121207	
0.121253	
0.127591	
0.100758	
0.0999438	
0.157498	
0.156557	
0.151738	
0.123899	
0.123595	
0.128158	
0.179719	
0.18435	
0.178302	
0.18105	
0.155551	
0.145955	
0.107468	
0.147056	
0.156284	
0.159561	
0.102694	
0.114182	
0.114436	
0.0950348	
0.145318	
0.146313	
0.11551	
0.11542	
0.138127	
0.13493	
0.147826	
0.140832	
0.148138	
0.140107	
0.139456	
0.135607	
0.0859928	
0.0870078	
0.205438	
0.191528	
0.138022	
0.130685	
0.216167	
0.206331	
0.212501	
0.118772	
0.112452	
0.105757	
0.16382	
0.163941	
0.161818	
0.10438	
0.203063	
0.195924	
0.192793	
0.120716	
0.123513	
0.152918	
0.14974	
0.1248	
0.118084	
0.168091	
0.169357	
0.103045	
0.100044	
0.115462	
0.116398	
0.107391	
0.112103	
0.114471	
0.111258	
0.117297	
0.17669	
0.167091	
0.164589	
0.170707	
0.177396	
0.167063	
0.172244	
0.172461	
0.197966	
0.196214	
0.19161	
0.173393	
0.174898	
0.180555	
0.11055	
0.11387	
0.13263	
0.128396	
0.136696	
0.163016	
0.159049	
0.159266	
0.118676	
0.0614311	
0.0611835	
0.103871	
0.099873	
0.10121	
0.0859301	
0.0731495	
0.0669582	
0.0817818	
0.174254	
0.172689	
0.0813727	
0.0889591	
0.101389	
0.104618	
0.0872741	
0.136131	
0.121147	
0.134855	
0.120595	
0.204869	
0.19369	
0.200755	
0.152362	
0.182681	
0.0981422	
0.0779412	
0.0889378	
0.206756	
0.21874	
0.189164	
0.195075	
0.108301	
0.164117	
0.161622	
0.158916	
0.156653	
0.117746	
0.11896	
0.115325	
0.112974	
0.122677	
0.173789	
0.16992	
0.175768	
0.169423	
0.0954867	
0.094743	
0.120591	
0.124486	
0.131515	
0.126067	
0.119419	
0.126176	
0.119981	
0.143764	
0.137376	
0.142702	
0.127945	
0.118252	
0.046542	
0.055708	
0.198212	
0.201793	
0.135917	
0.179968	
0.177202	
0.175016	
0.172726	
0.115803	
0.0994768	
0.0987873	
0.0982853	
0.0901877	
0.0994665	
0.132223	
0.138632	
0.137316	
0.118467	
0.127981	
0.134247	
0.184123	
0.178902	
0.187469	
0.125694	
0.128589	
0.133398	
0.0788247	
0.0891154	
0.198736	
0.194592	
0.194728	
0.192019	
0.125842	
0.119066	
0.0874281	
0.10358	
0.127235	
0.11425	
0.115735	
0.102736	
0.114148	
0.164	
0.167561	
0.0815125	
0.0699866	
0.0798413	
0.10495	
0.0946649	
0.11645	
0.116671	
0.0871507	
0.0994262	
0.0966479	
0.103815	
0.0775343	
0.179457	
0.186649	
0.181231	
0.185403	
0.165844	
0.151005	
0.182274	
0.186916	
0.189871	
0.118949	
0.115881	
0.0840234	
0.14538	
0.146101	
0.146251	
0.150667	
0.153303	
0.0989299	
0.0928356	
0.213528	
0.207616	
0.109405	
0.110813	
0.185178	
0.188997	
0.119725	
0.126687	
0.12288	
0.0634938	
0.056154	
0.120535	
0.129338	
0.129036	
0.121532	
0.113767	
0.0903759	
0.0884226	
0.10665	
0.0977451	
0.124099	
0.179511	
0.181969	
0.15008	
0.158922	
0.147763	
0.154151	
0.0906128	
0.108997	
0.10373	
0.0515606	
0.056074	
0.0881063	
0.0819982	
0.127058	
0.126424	
0.139716	
0.135174	
0.190671	
0.194315	
0.0868752	
0.0804039	
0.0428768	
0.0510644	
0.16153	
0.149916	
0.0785551	
0.0773668	
0.0818044	
0.0701284	
0.0750739	
0.0792353	
0.0844361	
0.0758331	
0.113419	
0.12676	
0.12275	
0.129265	
0.164776	
0.162223	
0.160514	
0.163144	
0.15367	
0.15012	
0.129642	
0.134819	
0.13811	
0.165509	
0.133595	
0.134841	
0.123126	
0.126293	
0.104249	
0.113689	
0.0954074	
0.080995	
0.0848269	
0.0774556	
0.118638	
0.0646083	
0.0773818	
0.0832439	
0.0780626	
0.132307	
0.134764	
0.103685	
0.113126	
0.215646	
0.209909	
0.215973	
0.210391	
0.0493958	
0.0557648	
0.0685613	
0.0737289	
0.0797143	
0.110817	
0.0970227	
0.113627	
0.109757	
0.107615	
0.0917331	
0.111536	
0.125818	
0.126513	
0.131098	
0.0925888	
0.0967274	
0.0955639	
0.107663	
0.108918	
0.106111	
0.107206	
0.108927	
0.212381	
0.215262	
0.211956	
0.126441	
0.127027	
0.12931	
0.128068	
0.142233	
0.152922	
0.137964	
0.139864	
0.146843	
0.137916	
0.154035	
0.191344	
0.198959	
0.194708	
0.0795264	
0.0770043	
0.100999	
0.0868097	
0.206151	
0.150389	
0.148105	
0.0839155	
0.0894672	
0.103532	
0.110942	
0.0894044	
0.0920556	
0.0963468	
0.0896366	
0.0948349	
0.155878	
0.160599	
0.0805008	
0.0924856	
0.107001	
0.0756069	
0.0813863	
0.0932203	
0.0856782	
0.0841465	
0.104416	
0.125364	
0.109512	
0.124638	
0.129551	
0.111458	
0.109157	
0.0851748	
0.0908944	
0.130333	
0.0984788	
0.110807	
0.0828946	
0.0705358	
0.0641621	
0.124371	
0.127853	
0.13202	
0.139989	
0.142237	
0.139114	
0.0816777	
0.101466	
0.0901397	
0.103207	
0.0913538	
0.12534	
0.116595	
0.114985	
0.0895701	
0.081543	
0.0653356	
0.069891	
0.059956	
0.137032	
0.0794979	
0.0840898	
0.140522	
0.0941249	
0.2181	
0.206534	
0.208787	
0.203684	
0.125491	
0.195877	
0.192755	
0.159947	
0.116697	
0.0820024	
0.0961264	
0.167256	
0.173593	
0.167179	
0.170655	
0.0774802	
0.09228	
0.0948601	
0.103414	
0.0586174	
0.147729	
0.152337	
0.104429	
0.108154	
0.11591	
0.0789028	
0.143363	
0.137875	
0.137692	
0.134067	
0.069685	
0.0682374	
0.17823	
0.175498	
0.181393	
0.179851	
0.107441	
0.102841	
0.100722	
0.0937598	
0.146815	
0.133345	
0.146718	
0.11668	
0.113148	
0.118919	
0.113777	
0.112517	
0.122068	
0.118562	
0.0708185	
0.0817782	
0.107766	
0.110814	
0.0914449	
0.096724	
0.0714667	
0.0771042	
0.0871697	
0.0954492	
0.0807536	
0.112912	
0.116789	
0.0843786	
0.0893363	
0.0898659	
0.0820458	
0.0570824	
0.0825845	
0.0678814	
0.126346	
0.133762	
0.130104	
0.0676269	
0.109176	
0.0966229	
0.0816326	
0.100655	
0.0941215	
0.103814	
0.0784295	
0.104203	
0.165323	
0.168352	
0.069281	
0.0762322	
0.0524199	
0.063551	
0.0578645	
0.0676219	
0.139237	
0.13884	
0.142932	
0.144685	
0.158132	
0.162399	
0.135084	
0.134052	
0.137799	
0.134889	
0.156459	
0.161337	
0.163198	
0.074443	
0.0796664	
0.0919098	
0.0951564	
0.0670601	
0.0716807	
0.110648	
0.106751	
0.0803776	
0.0948096	
0.0883104	
0.104191	
0.0945733	
0.0795946	
0.105438	
0.0858712	
0.0924006	
0.0782696	
0.131377	
0.131448	
0.0941148	
0.0779676	
0.103471	
0.0941466	
0.0880752	
0.0810821	
0.202538	
0.197846	
0.202959	
0.198791	
0.0868735	
0.0809499	
0.085608	
0.0955831	
0.0952344	
0.0867777	
0.129981	
0.132331	
0.105327	
0.0892349	
0.156741	
0.159111	
0.171056	
0.138139	
0.128545	
0.125945	
0.171188	
0.166861	
0.133771	
0.140703	
0.0953652	
0.0836179	
0.149078	
0.142322	
0.14915	
0.145567	
0.0889406	
0.0824322	
0.0903785	
0.078869	
0.095513	
0.0840895	
0.0945455	
0.0805193	
0.105875	
0.111028	
0.0860215	
0.0970274	
0.0751253	
0.0911235	
0.0504508	
-0.210243	
0.0474059	
0.0474689	
-0.221987	
-0.289967	
-0.282661	
-0.247817	
0.0480647	
0.0486011	
0.0478786	
0.0507787	
0.0475261	
0.0487475	
-0.0938316	
0.0399041	
0.0488787	
0.0477117	
-0.084223	
-0.0836536	
-0.101104	
0.0527186	
0.0496019	
0.0485552	
-0.209655	
-0.19413	
-0.235314	
-0.0721056	
-0.114609	
-0.174688	
-0.124833	
-0.185603	
-0.1697	
-0.164267	
-0.236798	
-0.0921957	
0.0488386	
0.0444648	
0.0447902	
-0.00740802	
-0.00952338	
0.0114104	
-0.160363	
-0.100958	
-0.122985	
-0.1038	
-0.248239	
-0.254766	
-0.273723	
-0.255796	
-0.267709	
-0.281104	
-0.141972	
-0.105075	
-0.266931	
-0.243806	
-0.260744	
-0.0850179	
-0.0633982	
-0.23938	
0.0181554	
-0.0621638	
-0.0520904	
0.00323348	
0.00168177	
0.00731287	
0.00896745	
0.00506054	
0.012243	
0.0104962	
-0.0158437	
0.0015869	
0.00226285	
0.00761841	
0.0380205	
-0.231835	
-0.0202206	
-0.0909358	
-0.0207715	
-0.288059	
-0.279464	
-0.171697	
-0.162293	
-0.176221	
-0.279956	
-0.0923304	
-0.0680299	
-0.119233	
-0.0980407	
-0.113984	
-0.0333257	
-0.024739	
-0.0446166	
-0.0928875	
-0.0234325	
-0.0311823	
-0.0245326	
-0.287402	
-0.275198	
-0.282488	
-0.275467	
-0.035737	
-0.212428	
-0.209649	
-0.200331	
-0.259131	
-0.255681	
-0.262974	
-0.267617	
-0.260107	
-0.0137734	
-0.111294	
-0.15084	
-0.23147	
-0.0561849	
0.00359608	
-0.00675764	
-0.064557	
-0.0364734	
-0.164838	
-0.0402857	
-0.0182722	
-0.0320399	
-0.202615	
-0.221199	
-0.192914	
-0.14607	
-0.145207	
-0.144047	
-0.11771	
-0.250717	
-0.271906	
-0.257661	
-0.132873	
-0.165771	
-0.0303033	
-0.177951	
-0.173693	
-0.195392	
-0.203646	
-0.196116	
-0.0830039	
-0.0997109	
-0.100647	
-0.0505315	
-0.0110075	
-0.102865	
-0.127408	
-0.258823	
-0.277545	
0.0125094	
-0.00482452	
-0.240857	
-0.221363	
-0.225584	
-0.0388972	
-0.0574358	
-0.0575824	
-0.0477285	
-0.0699128	
-0.155999	
-0.136001	
-0.080096	
-0.0919298	
-0.0711054	
-0.0718516	
-0.132349	
-0.134774	
0.0401768	
0.0366808	
0.0339002	
0.0423544	
0.0191345	
0.0190238	
0.0412577	
0.014438	
0.0142299	
0.0427641	
0.014922	
-0.234947	
-0.243805	
0.0405032	
0.041676	
0.017799	
0.0187821	
-0.216295	
-0.270285	
-0.151543	
-0.0471367	
-0.0543957	
-0.0551073	
-0.155572	
-0.11607	
-0.0900633	
0.0116057	
0.0152096	
0.000662832	
-0.0815524	
-0.0980509	
-0.158381	
-0.0338467	
-0.0101041	
-0.0254652	
-0.0329457	
-0.0406847	
-0.115695	
-0.0659216	
-0.0851345	
0.00309261	
0.013307	
-0.223832	
-0.198642	
0.00254299	
-0.0228558	
-0.037189	
-0.0283416	
-0.00622563	
-0.00693397	
-0.00913402	
-0.0150155	
-0.00879637	
-0.00762971	
-0.218403	
-0.22856	
-0.223335	
-0.0215434	
-0.00364402	
-0.00390506	
-0.134511	
-0.117141	
-0.0986188	
-0.286035	
-0.280649	
-0.285828	
-0.0924826	
-0.128783	
-0.122262	
-0.0188141	
-0.0159813	
-0.0995574	
-0.106901	
0.0250419	
0.0250568	
0.0430113	
-0.0115654	
-0.0142624	
-0.0682659	
-0.0715013	
-0.279874	
0.0372916	
-0.222084	
-0.217307	
-0.218602	
0.00672577	
0.0144122	
-0.0898938	
-0.0609137	
-0.0515444	
-0.025215	
-0.00948146	
0.00745116	
-0.266912	
-0.0707749	
-0.0685537	
-0.0113271	
-0.00876088	
-0.0463611	
-0.0224104	
-0.244518	
-0.250728	
-0.245984	
-0.234546	
-0.275394	
-0.268911	
-0.273605	
-0.277994	
-0.272242	
-0.0662027	
-0.0493325	
-0.0487991	
-0.0214099	
-0.0225723	
-0.00722738	
-0.00241378	
-0.0299874	
-0.0201409	
-0.158335	
-0.145658	
-0.176052	
-0.0344821	
-0.0640228	
-0.0795859	
-0.0828504	
-0.0528162	
-0.0897878	
-0.0760667	
-0.0750235	
-0.184431	
-0.167567	
-0.172937	
-0.154174	
-0.0339947	
-0.156006	
-0.235904	
-0.247792	
-0.230249	
-0.244449	
-0.0200066	
-0.00562105	
-0.0253998	
-0.286429	
-0.283488	
-0.286505	
-0.00980782	
0.0116419	
0.0482348	
0.039813	
0.0412543	
0.0153588	
0.0159106	
0.0419559	
0.0148363	
0.0484504	
0.0408744	
-0.211866	
-0.198428	
-0.203959	
-0.193981	
-0.198216	
-0.197773	
-0.208108	
-0.198372	
-0.181896	
-0.174458	
-0.171798	
-0.0307992	
-0.0212996	
-0.0349768	
-0.142615	
-0.136641	
-0.284113	
-0.289226	
-0.228355	
-0.214412	
-0.234886	
-0.229645	
-0.255709	
-0.245984	
-0.258804	
-0.249171	
-0.28411	
-0.287537	
-0.0208718	
-0.0727523	
-0.084134	
-0.0996885	
-0.0659847	
-0.0581857	
-0.0772711	
-0.134118	
-0.0397674	
-0.0266764	
-0.0298862	
-0.000676388	
0.0077426	
-0.0562152	
-0.0602715	
-0.178143	
-0.192181	
-0.170242	
-0.200955	
-0.185889	
-0.183828	
-0.0312264	
-0.0113061	
-0.00463896	
-0.178098	
-0.187619	
-0.193662	
-0.179918	
-0.186301	
-0.175563	
-0.232276	
-0.188935	
-0.189827	
-0.166486	
-0.178287	
-0.10262	
-0.0858396	
-0.276274	
-0.268465	
-0.0420625	
-0.0539058	
-0.0645143	
-0.226172	
-0.236872	
-0.205859	
-0.231655	
-0.251248	
-0.258757	
-0.267985	
-0.208679	
-0.217247	
-0.257124	
-0.27263	
-0.015424	
-0.0267226	
-0.0367735	
-0.0166591	
-0.0403585	
-0.0205529	
-0.136354	
-0.125371	
-0.153139	
-0.136937	
-0.259082	
-0.271318	
-0.249656	
-0.252851	
-0.06724	
-0.0569527	
0.011184	
0.00970178	
0.0320807	
0.00923215	
-0.00719712	
0.0343158	
0.00814076	
-0.183701	
-0.183069	
-0.171686	
-0.206204	
-0.215326	
-0.19414	
-0.165988	
-0.168501	
-0.141552	
-0.0450313	
-0.213208	
-0.231731	
-0.226803	
-0.23803	
0.0168706	
0.0361433	
-0.155444	
-0.159787	
-0.155373	
-0.288589	
-0.285141	
-0.140097	
-0.154684	
-0.143271	
-0.156433	
-0.080411	
-0.0761456	
-0.0812117	
-0.207211	
-0.190639	
-0.109851	
-0.118465	
-0.108977	
0.0115218	
0.0353547	
-0.0230593	
-0.0349241	
-0.00891529	
0.0127776	
-0.00070054	
0.0237662	
0.0211554	
0.0279096	
-0.0408975	
0.048054	
-0.0556613	
0.00672405	
0.00282888	
0.0400545	
0.0469578	
0.0466775	
0.00440655	
0.0352528	
0.0350733	
-0.0555281	
-0.0539156	
0.000965438	
0.0061572	
-0.00918888	
-0.00107789	
0.000815776	
0.000703567	
-0.196636	
-0.185818	
-0.210687	
-0.211599	
0.0505068	
0.0425699	
-0.00791613	
0.00208397	
0.0504497	
0.0413497	
0.0493136	
0.0412716	
0.0430918	
0.0518885	
0.0440121	
0.0475542	
0.00375267	
0.0033639	
0.0479069	
0.0507862	
0.0436597	
-0.12768	
-0.130591	
-0.14522	
-0.16114	
-0.221285	
-0.231728	
-0.213867	
-0.219615	
-0.0496022	
-0.0429284	
-0.0460315	
-0.0368045	
-0.0815077	
-0.030634	
-0.0209722	
-0.0343987	
-0.0577575	
0.049097	
0.0469105	
0.0429944	
0.0482815	
0.0158161	
0.0507353	
0.0471104	
-0.286937	
-0.289861	
-0.287197	
-0.289736	
-0.124181	
-0.127338	
-0.098925	
-0.079236	
-0.080519	
-0.218068	
-0.208961	
-0.200385	
-0.196989	
-0.037163	
-0.0616351	
-0.053925	
-0.0706526	
-0.0156291	
-0.0100761	
-0.041298	
-0.0267114	
-0.0256873	
-0.0195047	
-0.0590673	
0.0404599	
0.0147072	
0.0468759	
0.0474374	
0.0167606	
0.0227253	
0.0373477	
0.0359554	
0.0422453	
0.01819	
0.0393505	
0.0152558	
0.0368602	
0.0450637	
0.00564493	
0.0334522	
0.00631575	
-0.0554695	
-0.0408901	
0.0418375	
0.0146728	
-0.0227178	
-0.00696314	
-0.0196545	
0.0221522	
0.0179855	
0.03719	
0.0108133	
0.04276	
0.025099	
0.0317345	
-0.0615487	
-0.0586006	
0.0345694	
0.0406619	
0.0162743	
0.0416548	
0.0181037	
0.0470515	
0.0355618	
0.0480666	
0.0394532	
0.00435942	
0.0176571	
0.00148349	
0.0185748	
0.0480477	
0.0360655	
0.0348977	
0.042758	
-0.0119373	
0.0455148	
-0.00314717	
0.0056628	
0.00892041	
-0.0169149	
-0.0233958	
-0.00219954	
-0.0108794	
0.0338105	
0.0407087	
-0.0119091	
-0.0313456	
-0.0682814	
-0.0853369	
-0.0733052	
-0.011365	
-0.0701066	
0.0433538	
-0.021079	
-0.0192538	
0.0359431	
0.0472695	
-0.0319204	
-0.0211611	
-0.091442	
-0.115804	
-0.0844001	
-0.0482022	
-0.0151913	
0.00773578	
0.0191121	
0.0305301	
0.00706262	
0.0123882	
-0.229631	
-0.240549	
-0.229615	
-0.239809	
0.0452664	
0.0349064	
-0.00347187	
0.00940012	
-0.128831	
0.008807	
0.0154688	
-0.0265202	
-0.00417012	
0.035657	
0.0236756	
0.0160578	
-0.246662	
-0.263214	
-0.254257	
-0.264393	
0.016019	
0.0335269	
0.0107093	
-0.00526569	
-0.172745	
-0.128887	
-0.167651	
0.00937937	
0.0376711	
0.0140072	
0.0202422	
0.0135388	
0.0339838	
0.0100029	
-0.127559	
-0.157269	
-0.124828	
-0.110664	
0.0334435	
0.0489572	
-0.0611653	
-0.0499503	
-0.0534178	
0.0114463	
0.0366604	
0.0484983	
-0.0952401	
-0.133624	
-0.113702	
-0.147019	
-0.143772	
-0.136649	
-0.131284	
-0.125396	
-0.106828	
-0.0391262	
-0.133059	
-0.152151	
0.040883	
0.0471436	
0.0389253	
0.0463152	
0.0386714	
0.0487644	
0.0183973	
0.00764397	
-0.00987763	
0.0473742	
0.0366339	
0.0188523	
0.0384525	
0.0463086	
0.0305255	
-0.0456766	
-0.112898	
-0.127302	
-0.0993681	
-0.111151	
-0.053007	
-0.0905829	
-0.100122	
0.0095981	
0.04617	
0.00013604	
0.0379894	
0.0204693	
0.0144252	
0.0430747	
-0.0240067	
-0.0219163	
-0.140137	
-0.152851	
-0.164057	
-0.0932652	
-0.0920373	
-0.0269264	
-0.0509935	
-0.0353009	
-0.0598674	
0.0334321	
0.0109971	
0.0492459	
0.0122442	
0.038891	
0.047796	
-0.0716396	
-0.069508	
0.0477345	
0.0328439	
0.0414222	
0.0163418	
0.0368103	
0.0443463	
0.0195608	
0.0411107	
0.0190239	
0.0393515	
0.0336101	
0.0391829	
-0.0204057	
-0.017792	
0.0429372	
0.0383292	
-0.0335287	
-0.035334	
0.0397545	
0.0134156	
0.003968	
0.00872005	
-0.150492	
-0.132391	
0.0497931	
0.0143204	
0.0396115	
0.0494223	
0.0343695	
-0.108173	
-0.0874386	
-0.143983	
-0.159354	
0.019483	
0.0127232	
0.000294995	
-0.000637462	
-0.0908102	
-0.0474929	
-0.0780201	
-0.0809577	
-0.0454609	
-0.0457655	
-0.0292156	
-0.0210303	
-0.155628	
-0.131472	
-0.032611	
-0.0441976	
-0.0580492	
-0.0497317	
-0.110401	
-0.0963814	
-0.0277291	
-0.0311301	
-0.136752	
-0.122951	
-0.111684	
-0.103589	
-0.0986076	
-0.08354	
-0.189256	
-0.187251	
-0.20841	
-0.216563	
-0.0683525	
-0.0526605	
-0.0753932	
-0.0559025	
0.0143607	
0.039798	
-0.01154	
-0.00239019	
0.00787741	
0.00264461	
0.0108273	
0.0156022	
0.0190237	
0.0236681	
0.0238739	
0.0224309	
-0.0114906	
-0.00889092	
-0.00469628	
0.0031189	
-0.00026366	
0.00766353	
0.0207506	
0.0234522	
0.0155619	
0.0189827	
0.0121844	
-0.00597369	
0.0104247	
0.00506522	
-0.00574082	
-0.0135292	
-0.000388154	
-0.0188486	
-0.021597	
-0.0186745	
-0.0219398	
-0.0171369	
0.0158168	
0.0153853	
0.0112921	
0.00216763	
0.00682246	
-0.00337492	
-0.0172988	
-0.0170979	
-0.0144124	
-0.0117658	
-0.0086911	
0.0201131	
0.215644	
0.19123	
0.205899	
0.0859092	
0.187703	
0.0780669	
0.118057	
0.08156	
0.0799809	
0.0785462	
0.0791858	
0.111439	
0.0802257	
0.175543	
0.0557945	
0.0387527	
0.0485982	
0.0492076	
0.0781181	
0.0788939	
0.0767221	
0.0742442	
0.087452	
0.0687927	
0.0524401	
0.0762366	
0.18197	
0.184718	
0.186141	
0.0603404	
0.155388	
0.175507	
0.157986	
0.150095	
0.152193	
0.16216	
0.145094	
0.155714	
0.151539	
0.170242	
0.127656	
0.0973133	
0.0795741	
0.0515653	
0.103204	
0.14203	
0.152237	
0.142071	
0.113883	
0.0804979	
0.18533	
0.174489	
0.151574	
0.163514	
0.192903	
0.158389	
0.170385	
0.121224	
0.13523	
0.106104	
0.088723	
0.0996496	
0.0865657	
0.0849929	
0.104778	
0.104152	
0.140359	
0.105534	
0.106668	
0.114926	
0.169261	
0.104326	
0.108995	
0.135885	
0.119627	
0.184366	
0.118357	
0.111333	
0.112084	
0.0984225	
0.109474	
0.216326	
0.203203	
0.202491	
0.129338	
0.0912728	
0.09002	
0.0867252	
0.136334	
0.124807	
0.174851	
0.172925	
0.107828	
0.109793	
0.150784	
0.156979	
0.155466	
0.142672	
0.121822	
0.12258	
0.141093	
0.146967	
0.150125	
0.194004	
0.180371	
0.185624	
0.183537	
0.115075	
0.123917	
0.128938	
0.135452	
0.135947	
0.166291	
0.166786	
0.122731	
0.186086	
0.187441	
0.114487	
0.127258	
0.123843	
0.129814	
0.087244	
0.101553	
0.188359	
0.127391	
0.146135	
0.143407	
0.122643	
0.128811	
0.0976029	
0.0523815	
0.0975505	
0.146579	
0.116754	
0.172941	
0.17546	
0.0881176	
0.178992	
0.177819	
0.113455	
0.112999	
0.104399	
0.105412	
0.154055	
0.158306	
0.164411	
0.11122	
0.11484	
0.11741	
0.139109	
0.16688	
0.0633752	
0.0696501	
0.152745	
0.156784	
0.142303	
0.111787	
0.116034	
0.142558	
0.155504	
0.148011	
0.175422	
0.107411	
0.178651	
0.0608251	
0.07351	
0.194519	
0.202269	
0.165586	
0.146166	
0.144712	
0.149493	
0.120895	
0.135957	
0.129515	
0.127275	
0.172027	
0.186926	
0.187952	
0.181809	
0.184874	
0.0901478	
0.135509	
0.145067	
0.140805	
0.0983235	
0.085839	
0.0885653	
0.0840033	
0.0756481	
0.097679	
0.0854549	
0.0940058	
0.0864532	
0.0969478	
0.0878946	
0.0915408	
0.0853589	
0.108363	
0.11093	
0.198779	
0.0871863	
0.156575	
0.151391	
0.158692	
0.156123	
0.121273	
0.129374	
0.123556	
0.0902973	
0.100824	
0.156347	
0.157118	
0.151684	
0.123972	
0.128278	
0.123707	
0.183446	
0.179716	
0.181065	
0.178318	
0.145768	
0.148103	
0.107499	
0.139444	
0.159591	
0.159113	
0.102708	
0.114507	
0.114262	
0.0944526	
0.146432	
0.145464	
0.115398	
0.115536	
0.138151	
0.134968	
0.147944	
0.148359	
0.140906	
0.139523	
0.135676	
0.133469	
0.0859855	
0.0870098	
0.205548	
0.191658	
0.137852	
0.13079	
0.216191	
0.212504	
0.206334	
0.118861	
0.106505	
0.112488	
0.163712	
0.16187	
0.16393	
0.129726	
0.100792	
0.195971	
0.203092	
0.209541	
0.120746	
0.121303	
0.149705	
0.152694	
0.124867	
0.118186	
0.16814	
0.172851	
0.102822	
0.100017	
0.116423	
0.111285	
0.112123	
0.106894	
0.114524	
0.117341	
0.115493	
0.17712	
0.164882	
0.167396	
0.177999	
0.171055	
0.167324	
0.172567	
0.172325	
0.197946	
0.191653	
0.196157	
0.175021	
0.175841	
0.180721	
0.113965	
0.110586	
0.1327	
0.136803	
0.12851	
0.163028	
0.159212	
0.159014	
0.0967253	
0.119102	
0.0610987	
0.0613865	
0.103539	
0.104406	
0.0993354	
0.0979483	
0.101223	
0.0859465	
0.0668992	
0.0730366	
0.081586	
0.174658	
0.169876	
0.172756	
0.169187	
0.0889534	
0.0814058	
0.101393	
0.104657	
0.0876217	
0.127405	
0.12074	
0.136158	
0.129077	
0.205284	
0.20101	
0.193751	
0.152382	
0.186943	
0.0976897	
0.0779889	
0.0889852	
0.206795	
0.218736	
0.195381	
0.189513	
0.108229	
0.164772	
0.165044	
0.156776	
0.15926	
0.119032	
0.117852	
0.11535	
0.12272	
0.11742	
0.16995	
0.173838	
0.169446	
0.173464	
0.0945745	
0.0954585	
0.120625	
0.131611	
0.124573	
0.126247	
0.120062	
0.126149	
0.119499	
0.140178	
0.143815	
0.14278	
0.127877	
0.118214	
0.0557436	
0.0465685	
0.201791	
0.198225	
0.177644	
0.17896	
0.174052	
0.175072	
0.115834	
0.0987884	
0.0994817	
0.0934057	
0.0993473	
0.095639	
0.132349	
0.137455	
0.138749	
0.127932	
0.134106	
0.118459	
0.180098	
0.184281	
0.187545	
0.128689	
0.12578	
0.0892106	
0.0788875	
0.19464	
0.198947	
0.191987	
0.194706	
0.125904	
0.119158	
0.0873752	
0.0984818	
0.115769	
0.114332	
0.102748	
0.115879	
0.167684	
0.164263	
0.0814838	
0.0698911	
0.105035	
0.0947008	
0.0798389	
0.116731	
0.116474	
0.0995453	
0.0859958	
0.103976	
0.0967606	
0.0774896	
0.182838	
0.179535	
0.185612	
0.181367	
0.165248	
0.152993	
0.183464	
0.182382	
0.189818	
0.11878	
0.110646	
0.0812154	
0.14235	
0.14338	
0.14623	
0.150945	
0.150443	
0.092869	
0.0989833	
0.207656	
0.213532	
0.104821	
0.110853	
0.109431	
0.188978	
0.185209	
0.126762	
0.122956	
0.0561146	
0.0635024	
0.120541	
0.120976	
0.129369	
0.113713	
0.121451	
0.0883584	
0.0997765	
0.0977076	
0.105723	
0.12414	
0.181967	
0.179512	
0.156098	
0.149765	
0.155659	
0.14626	
0.0906001	
0.10373	
0.113645	
0.056145	
0.0819068	
0.0880373	
0.126781	
0.134942	
0.135306	
0.139847	
0.194321	
0.190677	
0.080384	
0.0868612	
0.0511058	
0.0428596	
0.149622	
0.0717013	
0.08225	
0.0899943	
0.0773701	
0.080957	
0.0749099	
0.0699761	
0.0792449	
0.0758886	
0.0844755	
0.119485	
0.113808	
0.129696	
0.122873	
0.162222	
0.164814	
0.162022	
0.159734	
0.157707	
0.153099	
0.134896	
0.138187	
0.137454	
0.165569	
0.134201	
0.133338	
0.125424	
0.118229	
0.111145	
0.0958732	
0.104246	
0.0825075	
0.084736	
0.0774346	
0.113588	
0.0646256	
0.0807624	
0.0724756	
0.0839649	
0.078076	
0.13467	
0.132215	
0.103916	
0.113208	
0.209911	
0.220126	
0.210367	
0.215974	
0.0358391	
0.0494248	
0.0737705	
0.0685942	
0.0798289	
0.0969553	
0.118529	
0.109826	
0.106342	
0.0896954	
0.109434	
0.118782	
0.118963	
0.131271	
0.126832	
0.0967354	
0.092607	
0.10739	
0.0951241	
0.112592	
0.111571	
0.0831284	
0.110257	
0.108979	
0.107359	
0.215293	
0.2065	
0.211973	
0.127074	
0.126473	
0.128117	
0.127641	
0.0873834	
0.149571	
0.141993	
0.14657	
0.13761	
0.15365	
0.146882	
0.140046	
0.191321	
0.194534	
0.198956	
0.0770297	
0.079548	
0.101097	
0.0868542	
0.206	
0.147721	
0.150606	
0.0894787	
0.08393	
0.10247	
0.0892828	
0.102803	
0.0785497	
0.0828321	
0.0946757	
0.0894141	
0.155656	
0.159892	
0.095734	
0.0915832	
0.0802764	
0.10623	
0.0922418	
0.0814011	
0.0756104	
0.0851489	
0.0927903	
0.0813126	
0.113987	
0.123516	
0.0744252	
0.103641	
0.129529	
0.124979	
0.111613	
0.114846	
0.0984902	
0.0913447	
0.101468	
0.0951415	
0.0910567	
0.085266	
0.130389	
0.103584	
0.110823	
0.0641615	
0.0827453	
0.0704902	
0.127828	
0.124391	
0.137946	
0.132033	
0.141432	
0.138064	
0.126124	
0.124993	
0.110749	
0.10727	
0.078523	
0.0886268	
0.0599307	
0.0652643	
0.0698394	
0.136924	
0.0841609	
0.0795738	
0.133012	
0.106028	
0.0929149	
0.212394	
0.217972	
0.203721	
0.208609	
0.125358	
0.116521	
0.192745	
0.198888	
0.10818	
0.104414	
0.106045	
0.159947	
0.116138	
0.081694	
0.0960018	
0.169465	
0.167352	
0.172422	
0.167057	
0.0585071	
0.147757	
0.152171	
0.123564	
0.112935	
0.14324	
0.137755	
0.137796	
0.134241	
0.0681479	
0.0728798	
0.181399	
0.179872	
0.178236	
0.174499	
0.106435	
0.0990494	
0.113154	
0.119803	
0.111017	
0.113881	
0.122176	
0.11867	
0.118996	
0.112582	
0.140346	
0.146682	
0.145239	
0.0773946	
0.0894489	
0.0711274	
0.081917	
0.146638	
0.150704	
0.110338	
0.0958616	
0.16285	
0.161927	
0.0668238	
0.0948544	
0.0819419	
0.0825132	
0.0569552	
0.0677794	
0.133845	
0.130195	
0.126438	
0.0952724	
0.0810758	
0.108093	
0.100672	
0.0941451	
0.10515	
0.104939	
0.0934024	
0.165464	
0.168328	
0.0692919	
0.0762079	
0.0522629	
0.0632294	
0.138883	
0.139268	
0.141134	
0.145577	
0.0796349	
0.081666	
0.0901097	
0.0919039	
0.135132	
0.134114	
0.137856	
0.134948	
0.155289	
0.157682	
0.159119	
0.156234	
0.16291	
0.160779	
0.0670599	
0.071656	
0.0882582	
0.10726	
0.0803529	
0.0947932	
0.0567651	
0.0666948	
0.10228	
0.0881623	
0.0946509	
0.0797955	
0.110741	
0.106719	
0.0851713	
0.0967962	
0.0749235	
0.0912201	
0.0802128	
0.0870736	
0.103542	
0.0941875	
0.0942745	
0.0780539	
0.131484	
0.131413	
0.0810818	
0.0880828	
0.197842	
0.202527	
0.195955	
0.20291	
0.0856143	
0.0809978	
0.0895521	
0.099044	
0.103449	
0.090344	
0.086663	
0.0935264	
0.129817	
0.131919	
0.132559	
0.104468	
0.0889286	
0.159073	
0.156972	
0.138181	
0.135185	
0.124373	
0.126622	
0.0921997	
0.0824619	
0.145394	
0.149088	
0.142955	
0.149163	
0.0750096	
0.0912749	
0.0859888	
0.0971615	
0.0717267	
0.0788233	
0.164938	
0.16758	
0.160618	
0.160473	
0.0886906	
0.0904574	
0.0821557	
0.0780385	
0.0836062	
0.0504734	
-0.212867	
0.0479263	
0.047913	
-0.221948	
-0.289864	
-0.282653	
-0.247813	
0.0482753	
0.048289	
0.0480263	
0.0479203	
0.0484854	
-0.0938205	
0.0397803	
-0.0843114	
-0.0836877	
-0.0792598	
0.0523786	
0.0499456	
0.0485533	
-0.226793	
-0.193868	
-0.235272	
-0.0720079	
-0.114934	
-0.173523	
-0.125554	
-0.185846	
-0.170169	
-0.164989	
-0.236826	
0.0487595	
0.0448333	
0.0445018	
-0.0100977	
0.011312	
-0.160119	
-0.100448	
-0.127068	
-0.105893	
-0.248546	
-0.255558	
-0.27417	
-0.25608	
-0.267806	
-0.28077	
-0.266884	
-0.24398	
-0.260812	
-0.0864025	
-0.0655444	
-0.237669	
-0.199783	
0.0181357	
-0.0589181	
-0.0516183	
-0.0623961	
-0.0393573	
-0.0607377	
-0.0395803	
0.00476625	
0.00208339	
0.00819849	
0.0102137	
0.0039714	
0.0152601	
-0.0159587	
0.00237277	
0.00744198	
0.0380736	
-0.230281	
-0.0174978	
-0.0904624	
-0.0207685	
-0.288049	
-0.279426	
-0.171766	
-0.162284	
-0.176283	
-0.279886	
-0.0686308	
-0.0913026	
-0.130896	
-0.0998374	
-0.114142	
-0.0321384	
-0.0459833	
-0.025917	
-0.100266	
-0.0231867	
-0.0239357	
-0.0334827	
-0.287194	
-0.275022	
-0.275393	
-0.282374	
-0.0355447	
-0.200492	
-0.212505	
-0.209739	
-0.263643	
-0.260363	
-0.268012	
-0.256017	
-0.259707	
-0.00916851	
-0.110611	
-0.150755	
-0.159028	
-0.229772	
-0.0561721	
-0.00683597	
0.00242515	
-0.0414186	
-0.0459307	
-0.166999	
-0.0257877	
-0.0188158	
-0.0368497	
-0.0254779	
-0.221241	
-0.202704	
-0.192652	
-0.131258	
-0.146408	
-0.147027	
-0.0135261	
-0.116523	
-0.105366	
-0.250617	
-0.271933	
-0.257543	
-0.133158	
-0.166514	
0.0087764	
-0.00431473	
-0.0305018	
-0.173727	
-0.189022	
-0.194179	
-0.180061	
-0.202184	
-0.0836055	
-0.100387	
-0.0994568	
-0.0432541	
-0.0111071	
-0.102948	
-0.127459	
-0.258816	
-0.277462	
-0.00549588	
0.0125379	
-0.241113	
-0.221427	
-0.23579	
-0.0603913	
-0.0587994	
-0.0502814	
-0.0668178	
-0.154814	
-0.133341	
-0.0904878	
-0.0709871	
-0.0912773	
-0.0716602	
-0.0902291	
-0.132663	
-0.12699	
-0.143992	
0.0363943	
0.0399218	
0.0427366	
0.02009	
0.0202465	
0.0414862	
0.0150124	
0.0153014	
0.0430478	
0.0149604	
-0.243959	
-0.235005	
0.040547	
0.0417008	
0.0187075	
0.0177384	
-0.216323	
-0.271284	
-0.136425	
-0.0452657	
-0.0568568	
-0.055531	
-0.0958005	
-0.098128	
0.0151929	
-0.00235378	
0.0116606	
-0.0815892	
-0.115886	
-0.0827142	
-0.155558	
-0.0344481	
-0.0104488	
-0.0228901	
-0.0260697	
-0.0497479	
-0.063519	
-0.0475117	
-0.113828	
-0.0990828	
-0.0669756	
-0.0877579	
0.012914	
0.00282167	
-0.211094	
-0.223815	
0.00351804	
-0.0387415	
-0.0225988	
-0.0301488	
-0.00651837	
-0.00805385	
-0.00701194	
-0.0121322	
-0.0175924	
-0.00727528	
-0.00876033	
-0.228816	
-0.217373	
-0.240801	
-0.223487	
-0.0161228	
-0.0046501	
-0.00505105	
-0.136155	
-0.156292	
-0.285824	
-0.28577	
-0.280587	
-0.0780794	
-0.139459	
-0.0165554	
-0.019173	
-0.107683	
-0.100453	
0.0250588	
0.0250467	
0.0430057	
-0.0131723	
-0.0108369	
-0.067164	
-0.07128	
-0.279816	
-0.0991661	
-0.0170209	
-0.0192718	
-0.0755028	
0.0373307	
-0.222071	
-0.218771	
-0.217468	
0.0142629	
0.00499944	
-0.091875	
-0.112932	
-0.095985	
-0.0524598	
-0.0354234	
-0.0329779	
0.00803982	
-0.0111078	
-0.266787	
-0.0780375	
-0.0637492	
-0.00861841	
-0.0316773	
-0.0207251	
-0.0413187	
-0.245015	
-0.246379	
-0.251237	
-0.275317	
-0.273797	
-0.26914	
-0.272258	
-0.277945	
-0.0723366	
-0.0628949	
-0.0603549	
-0.0427844	
-0.0343091	
-0.0215485	
0.000666691	
-0.00723353	