<VTKFile type="UnstructuredGrid" version="0.1" byte_order="LittleEndian">
	<UnstructuredGrid>
		<Piece NumberOfPoints="1759" NumberOfCells="3358">
			<CellData Scalars="scalars">
				<DataArray type="Float64" Name="Doublet Strengths" NumberOfComponents="1" Format="ascii">
-0.05621	
-0.0593837	
-0.0646039	
0.0617218	
-0.0549071	
0.063064	
-0.0530421	
0.0616937	
0.0624179	
0.061206	
0.0619493	
-0.0489396	
0.0613077	
-0.0294242	
-0.0331051	
-0.035536	
-0.025316	
-0.0325342	
-0.0328538	
0.0608913	
0.0603704	
0.0611118	
0.0584682	
0.0550234	
0.0442981	
-0.038387	
-0.0453572	
-0.0501752	
-0.0531861	
-0.0337863	
-0.0379138	
-0.0458477	
-0.0478219	
-0.0389987	
-0.0615629	
-0.0507405	
-0.0615256	
-0.0510944	
-0.0323671	
-0.0337682	
-0.0202026	
0.0353516	
0.0591733	
0.059307	
0.0586594	
0.0386387	
0.0209812	
-0.00373939	
0.0188686	
0.0455477	
-0.0617158	
-0.066618	
-0.0664596	
-0.0650897	
-0.0567234	
-0.0669582	
-0.0669088	
0.0288434	
0.012724	
0.0448392	
0.0579948	
0.0480163	
0.0403985	
0.0414225	
0.0482123	
0.0467267	
0.0162311	
0.00627563	
0.0489781	
0.0504612	
0.0458596	
-0.041891	
0.0483704	
0.0477685	
0.0247429	
0.0415872	
-0.0531456	
0.0308128	
0.0480396	
0.0346056	
-0.0529175	
-0.0565089	
-0.0591491	
-0.0582834	
-0.0649561	
-0.0649676	
0.022253	
0.0187693	
0.0280167	
0.0326597	
-0.0538415	
-0.0444998	
-0.0347175	
-0.0297176	
0.040421	
0.0412472	
-0.065379	
-0.0661959	
-0.0618868	
-0.0653362	
0.0400624	
0.0430713	
0.00650753	
0.0154897	
0.00171516	
-0.0657866	
-0.0594242	
-0.0635912	
-0.0660587	
0.0332344	
0.0314399	
0.0248475	
0.0217978	
0.0226775	
-0.0219184	
-0.0228869	
0.0403426	
-0.0542571	
-0.0568832	
0.038517	
0.041262	
0.0278207	
0.0333802	
-0.043268	
-0.0546719	
-0.056487	
0.0331522	
0.00406777	
-0.000435791	
-0.00236136	
-0.0122966	
-0.00159866	
0.030704	
0.0364659	
0.0190364	
0.0389008	
0.0116365	
-0.0436861	
0.0443007	
-0.0443039	
-0.0482237	
0.0284369	
0.0340122	
0.0417128	
0.0457434	
0.0080265	
-0.00938578	
0.00158391	
0.0105331	
0.0126682	
0.00281039	
0.0237711	
-0.0290243	
0.0328844	
0.0358354	
-0.00678003	
-0.0234558	
-0.0561339	
0.0522035	
0.0447944	
0.0143801	
0.0211718	
0.0135792	
-0.0330072	
0.0353499	
-0.053274	
-0.0404923	
-0.049023	
-0.0623817	
-0.0650998	
-0.0574648	
-0.0184199	
-0.0346451	
0.00775344	
0.0266183	
0.0188829	
-0.0618183	
-0.0649696	
-0.0630317	
-0.0574647	
-0.0618383	
-0.0572292	
0.0601197	
0.0199502	
0.0146491	
0.00663613	
0.0498684	
0.0597592	
0.0438334	
0.0453395	
0.0546097	
0.0486672	
0.0584507	
0.0574128	
0.0558224	
0.0591284	
0.0615334	
0.0615358	
0.0184052	
0.0601305	
0.061764	
0.0593913	
0.046241	
0.0483819	
-0.0648036	
-0.0531838	
-0.01344	
-0.0221811	
-3.07604e-05	
0.00553804	
-0.000926147	
-0.0153311	
-0.0242799	
-0.0570574	
-0.0510182	
-0.0470167	
0.031765	
0.0330688	
0.027559	
-0.0465704	
-0.0532971	
-0.042392	
-0.0465643	
0.00346299	
0.0173505	
0.0260177	
0.014715	
0.0030136	
-0.00213199	
0.0379946	
0.0394173	
0.0388133	
0.0325978	
-0.063873	
-0.0611236	
0.0361562	
0.0356485	
0.00997155	
0.0162525	
-0.0564205	
-0.0641416	
-0.0617497	
-0.0311005	
-0.0218871	
-0.0148341	
0.0576552	
0.0576303	
-0.0572576	
-0.0647867	
0.0270034	
-0.0630069	
-0.0574464	
-0.0637144	
-0.0606319	
-0.0397773	
-0.0422083	
-0.0374219	
-0.0291093	
-0.0364157	
-0.0285362	
0.0436786	
-0.0603472	
-0.0640074	
-0.06517	
0.0152976	
0.00552019	
-0.0573428	
-0.0518775	
-0.0623312	
-0.0575328	
-0.0502496	
-0.0478871	
0.0232723	
0.0338031	
0.0206569	
0.0216185	
0.0338409	
0.0299181	
0.0157459	
0.0268959	
0.0141889	
-0.0619864	
-0.065721	
-0.0668675	
-0.0666784	
-0.0643603	
-0.0144001	
-0.0257805	
-0.0266072	
-0.0647621	
-0.0645604	
-0.0624214	
-0.0623228	
-0.06474	
-0.0657659	
-0.0576355	
-0.060065	
-0.0543668	
-0.0611379	
-0.0581901	
-0.0379981	
-0.0359496	
-0.031782	
0.0416686	
0.0447936	
0.0473267	
0.0161749	
0.0183241	
0.0477056	
0.0589125	
0.0531758	
0.0541289	
0.0433175	
-0.036767	
-0.0318233	
0.061485	
0.0595191	
0.0502488	
0.0512673	
0.0608061	
0.025867	
0.0398568	
0.0266976	
0.0400832	
-0.0533741	
-0.0631484	
-0.0587804	
-0.0214612	
-0.0653591	
0.0310116	
-0.0503741	
-0.0469114	
-0.0642499	
-0.0570005	
-0.0638878	
-0.0599267	
0.0495709	
-0.0662592	
-0.0641494	
-0.0662116	
-0.0640169	
-0.0595822	
-0.0565286	
0.0284255	
0.0323043	
0.0191486	
-0.0583195	
-0.0554408	
-0.0620702	
-0.0584426	
0.037962	
0.0373768	
0.018234	
-0.0516001	
-0.0557418	
0.0251669	
0.0334527	
0.0240302	
0.0322438	
-0.0375219	
-0.0343508	
-0.0447813	
0.0358161	
0.0440665	
-0.0365354	
-0.0421304	
-0.0643968	
-0.0651086	
0.00534922	
-0.0597194	
-0.0546047	
-0.0573011	
-0.0518848	
0.0433785	
0.0461196	
0.0461528	
0.013843	
0.0179634	
0.00348017	
-0.0599355	
-0.0630086	
-0.0642485	
0.0438041	
0.0356891	
0.030085	
-0.0626763	
-0.0604919	
-0.0647744	
-0.0601303	
-0.0626754	
-0.0180377	
-0.0471937	
-0.0523555	
-0.0647035	
-0.0625433	
-0.063021	
-0.0607417	
0.0272382	
0.035322	
0.0569931	
0.0419699	
0.0203021	
0.0400945	
0.0393493	
0.0466207	
0.0422741	
-0.00968341	
-0.0163981	
0.0537411	
0.0563957	
0.061026	
0.0475709	
0.0571465	
0.0391865	
0.039316	
-0.0472967	
-0.0512088	
-0.0437604	
-0.04881	
0.0440236	
-0.0638838	
-0.0654798	
-0.0633625	
-0.0649436	
-0.0159867	
-0.0144281	
-0.0545076	
-0.0611917	
-0.0625046	
0.041114	
0.0437414	
0.0616314	
-0.00721682	
0.00162562	
-0.00325938	
-0.00751135	
-0.0157235	
-0.0527142	
-0.0542274	
-0.0606049	
-0.0637853	
0.027588	
0.0232749	
-0.0566051	
-0.0611215	
-0.0115382	
-0.0150663	
-0.0093714	
-0.0266626	
-0.0192958	
0.0410456	
0.0332673	
0.0332876	
0.0419314	
0.0466406	
-0.0262319	
-0.0329688	
-0.0292003	
-0.0386945	
0.0141335	
-0.0420285	
-0.0470935	
0.0126231	
-0.00045705	
0.0154549	
0.00707801	
0.0603449	
0.0496362	
0.0523867	
0.0276514	
0.0331805	
0.0610867	
0.0625098	
0.0346836	
0.0349362	
0.0210247	
0.0258606	
-0.060882	
-0.0631743	
0.061202	
0.0626075	
0.0360297	
0.0395786	
-0.0217214	
0.00848926	
0.0572778	
0.0599328	
0.0621161	
0.0557614	
0.0538794	
0.0600447	
0.0594279	
0.0613701	
0.0436238	
0.0309864	
0.0361271	
0.0292021	
-0.0457906	
-0.0452851	
-0.00931501	
-0.0127579	
0.00395357	
0.00930132	
-0.0419124	
-0.0465254	
-0.0430566	
-0.0113376	
0.0309777	
0.0299264	
0.0406285	
0.0377653	
0.0500708	
0.0437946	
0.0583771	
0.0619414	
0.0314888	
0.0310645	
0.0435213	
0.0516218	
0.0613378	
0.0617511	
0.0605819	
0.0320828	
0.0298875	
0.0504079	
0.0446747	
-0.0596381	
-0.0630367	
-0.0592466	
-0.0627387	
-0.0398447	
-0.0374588	
-0.046525	
-0.0452222	
0.0622304	
0.0481259	
0.0590836	
0.0465705	
0.0477241	
0.048696	
0.0598448	
0.0461555	
0.034115	
0.0339314	
0.0293208	
0.0483045	
0.0448668	
0.0596158	
0.0504076	
0.0486287	
0.0500585	
0.047008	
0.0460738	
-0.0576182	
-0.0565634	
-0.0597972	
0.0168534	
0.0137998	
-0.0114979	
0.00368785	
0.0203967	
0.00622215	
0.0250795	
0.0234787	
0.0174887	
0.027122	
0.00780059	
-0.0645546	
-0.0641151	
-0.0650202	
0.0380089	
0.0374486	
0.0498804	
0.0594949	
-0.0633543	
0.00538771	
0.00748123	
0.0597853	
0.0578839	
0.0513459	
0.0476101	
0.0603804	
0.031207	
0.0279274	
0.0608755	
0.0589427	
0.00258967	
-0.00556141	
0.062482	
0.0600925	
0.0507391	
0.0591914	
0.0576955	
0.0601556	
0.0619633	
0.0613438	
4.13235e-06	
0.0373274	
0.0487006	
0.0376622	
0.0339222	
0.0475346	
0.0474092	
0.060988	
0.0594026	
0.003129	
0.0453036	
0.0327102	
0.0407081	
0.0523972	
0.0530582	
0.0393921	
0.0369345	
0.033176	
0.0252678	
0.0163375	
0.0193298	
0.0572842	
0.0372226	
0.0480154	
0.0339397	
0.0467872	
0.0343213	
0.0426469	
0.0438856	
0.0603332	
0.0621936	
0.0471751	
0.0400021	
0.0499962	
0.0256833	
0.0591039	
0.0573439	
0.0246534	
0.0596066	
-0.051634	
-0.0614948	
-0.0584099	
-0.0619358	
0.038466	
-0.0648293	
-0.0643743	
-0.00111603	
0.0451888	
0.0617798	
0.0582378	
-0.0413224	
-0.050144	
-0.0374048	
-0.0392339	
0.0625398	
0.0600527	
0.0589623	
0.052945	
0.0236094	
0.0107533	
0.00426919	
0.0248618	
0.0213554	
0.0453463	
0.0188138	
0.0179376	
0.0247047	
0.0140187	
0.0200271	
0.0311946	
0.0245466	
-0.037312	
-0.0316856	
-0.0439399	
-0.0413705	
0.0437481	
0.0477819	
0.0489523	
0.0525742	
0.0171535	
0.0316376	
0.0171338	
-0.00387589	
-0.00317853	
-0.0186651	
-0.0189202	
-0.0269157	
-0.0268471	
-0.0320822	
0.0568927	
0.0532799	
0.0493492	
0.0476908	
0.0597093	
0.0592139	
0.0576517	
0.0559398	
0.0473232	
0.0586317	
0.0621754	
0.0473877	
0.0452671	
0.0616786	
0.0454036	
0.046211	
0.055575	
-0.0087387	
-0.0197144	
-0.017157	
-0.025965	
-0.0290985	
-0.0324307	
-0.00476092	
0.049775	
0.0587943	
0.0619957	
0.0428504	
0.0479119	
0.0500511	
0.0617245	
0.0497781	
-0.0131949	
-0.0193057	
0.0510304	
0.0431137	
0.0132998	
0.0125389	
0.0020759	
0.00676008	
-0.0038626	
-0.00745806	
-0.00919828	
-0.0239361	
-0.0104311	
-0.0209599	
-0.00112224	
-0.00407875	
0.00660184	
0.00951717	
-0.00353853	
-0.0117579	
-0.017086	
0.0590666	
0.057192	
0.0476591	
0.0448546	
0.0496868	
0.0416278	
0.00592983	
0.00717566	
0.0609605	
0.0571762	
0.0593759	
0.0485038	
0.0567513	
0.060924	
0.0466901	
0.059377	
0.0584505	
0.0617749	
0.0101156	
0.012095	
0.0584784	
0.0618322	
0.0519677	
0.0587849	
0.0577139	
0.0596158	
-0.0643611	
-0.0649462	
-0.0636489	
-0.0645615	
-0.0122299	
0.0253672	
0.0254293	
0.0585524	
0.0593662	
0.0614481	
0.0336857	
0.0316941	
0.0514581	
0.0606786	
-0.0064037	
-0.00917839	
-0.031449	
0.0266196	
0.0361533	
0.0379986	
-0.0335647	
-0.026252	
0.0313037	
0.0242255	
0.058588	
0.0614034	
-0.0180169	
-0.00387671	
-0.0238021	
-0.0193151	
0.0127571	
0.013416	
0.00421032	
0.00690605	
-0.000525055	
0.00161499	
-0.0105958	
-0.00570589	
-0.0097647	
-0.0112815	
0.0601066	
0.0532946	
0.0622313	
0.0587263	
0.0691193	
0.0174727	
0.0691929	
0.0692975	
0.013001	
-0.0157277	
-0.0132351	
0.00232155	
0.0692713	
0.0686645	
0.0673464	
0.0675904	
0.0669936	
0.0672099	
0.0024725	
0.0477977	
0.0677469	
0.0688976	
-0.00172883	
-0.0101308	
-0.0085232	
0.0675248	
0.0687537	
0.0660728	
0.017279	
0.023502	
0.00757785	
0.00394411	
0.00512951	
0.030608	
0.0449832	
0.0107495	
0.017656	
0.0321116	
0.00124996	
0.0553833	
0.0691299	
0.0610603	
0.0617697	
0.0693796	
0.0693362	
0.059982	
0.00923356	
0.0503163	
0.0461611	
0.0516023	
-0.00793407	
-0.00942132	
-0.016933	
-0.00866457	
-0.0100992	
-0.0157886	
0.0416299	
0.0522582	
-0.0105149	
-0.00770212	
-0.00967598	
0.0556414	
0.0606077	
0.00418232	
0.0593915	
0.0620139	
0.0638089	
0.069868	
0.0699241	
0.0677646	
0.067359	
0.0694425	
0.0691369	
0.0687844	
0.0683242	
0.0702439	
0.0694532	
0.0698643	
0.0621166	
0.00690377	
0.0682006	
0.0556447	
0.0681735	
-0.0143924	
-0.0124797	
-0.00753891	
-0.00778019	
-0.00758956	
-0.0124075	
0.0550649	
0.0606755	
0.0461026	
0.0522329	
0.0371013	
0.0651678	
0.0662878	
0.062824	
0.0309	
0.0618521	
0.0631017	
0.0586798	
-0.0189575	
-0.0124118	
-0.016928	
-0.0133247	
0.0649573	
-0.00885022	
-0.00703688	
-0.00729886	
-0.0115091	
-0.0104418	
-0.0111974	
-0.0143486	
-0.0112227	
0.0311713	
0.0506483	
0.0153365	
-0.00348616	
0.0535941	
0.0612696	
0.0604994	
0.0572839	
0.0629624	
0.02116	
0.0620901	
0.0661115	
0.0662987	
0.0171166	
0.00922406	
0.0203089	
0.0392833	
0.0388568	
0.0394624	
0.0459479	
7.45052e-05	
-0.00925061	
-0.00498063	
0.00310014	
-0.00254022	
0.0668228	
0.000921971	
0.005471	
0.0111119	
0.00949879	
0.0136027	
0.0499074	
0.0429473	
0.0438689	
0.0197416	
0.0687704	
-0.00365154	
-0.00782609	
-0.00247649	
-0.0109838	
0.070404	
0.0697912	
-0.00386379	
0.00613431	
0.00856091	
0.06455	
0.0609206	
0.0610217	
0.0595047	
0.0527373	
0.0368671	
0.0432822	
0.0549995	
0.0523506	
0.057819	
0.0551715	
0.0311854	
0.0394508	
0.0526041	
0.0515701	
0.0710806	
0.0682503	
0.067669	
0.0677677	
0.0704603	
0.0699849	
0.069964	
0.069634	
0.0693051	
0.000842643	
-0.00376305	
0.0710832	
0.0702697	
0.0697465	
0.0697334	
0.00701467	
-0.0077345	
-0.00581319	
0.0645099	
0.0631745	
0.0630167	
0.036884	
0.0489327	
0.0555962	
0.0662847	
0.0657127	
0.0644049	
0.0578357	
0.0537508	
0.0350126	
0.0520034	
0.0577248	
0.048037	
0.0504748	
0.043746	
0.0395151	
0.060693	
0.0564132	
0.0703172	
0.0703862	
0.0073259	
0.017379	
0.0604985	
0.0678808	
0.0660584	
0.0671821	
0.0673699	
0.0671544	
0.0650719	
0.0648531	
0.0643478	
0.0647785	
-0.00377715	
-0.00544524	
-0.00750316	
0.0672819	
0.0670772	
0.0669111	
0.0435033	
0.0487694	
0.053808	
-0.0150801	
-0.0146193	
-0.0171746	
0.0124843	
0.0422588	
0.0437876	
0.0673436	
0.0676279	
0.0524329	
0.0503028	
0.0662136	
0.0660597	
0.0666258	
0.0678878	
0.0677658	
0.0609545	
0.0602496	
-0.0135574	
0.0718631	
-0.00502886	
-0.00821446	
-0.00841884	
0.0396626	
0.0372876	
0.0540048	
0.061239	
0.0628243	
0.0670243	
0.0691416	
0.0703243	
-0.00762678	
0.0583945	
0.0593234	
0.0692825	
0.0693113	
0.0647285	
0.0680638	
-0.0066016	
-0.00974017	
-0.00926432	
-0.00779616	
-0.0135766	
-0.0130751	
-0.0155262	
-0.0154119	
-0.013501	
0.0586033	
0.0622385	
0.0482125	
0.0571648	
0.0557206	
0.0631062	
0.0645078	
0.0584342	
0.0619081	
0.0321533	
0.0368344	
0.0266897	
0.0661425	
0.0609806	
0.0574191	
0.0562392	
0.0627383	
0.0547673	
0.0580518	
0.0494913	
0.0217097	
0.0276986	
0.0271212	
0.0329026	
0.0667375	
0.0344607	
0.00471258	
-0.000838126	
0.00600591	
-0.000130392	
0.0684025	
0.0697094	
0.0677975	
-0.0136905	
-0.0148368	
-0.0154757	
0.06935	
0.0700117	
0.068679	
0.0708058	
0.0689793	
0.0679994	
0.0697841	
0.0702767	
0.0694842	
0.068204	
0.0702521	
0.0143524	
-0.00865276	
-0.00946533	
-0.00777629	
-0.00178592	
0.00281671	
-0.00461591	
0.0192348	
0.025826	
0.0303506	
0.0310062	
0.0673107	
0.0681316	
0.0666272	
-0.00751673	
-0.00919392	
-0.0140019	
-0.0144635	
-0.00392193	
0.00270409	
-0.00468191	
-0.00156243	
-0.00678138	
-0.00225661	
-0.00724734	
-0.00269045	
-0.0146385	
-0.015293	
0.0681027	
0.0480446	
0.0454971	
0.0392157	
0.0177205	
0.0103955	
0.00913323	
0.0102943	
0.0653031	
0.0672495	
0.0668166	
0.0699251	
0.0663343	
0.061803	
0.0607118	
0.0224655	
0.0171869	
0.0238855	
0.0129331	
-0.00874568	
-0.00888601	
0.0668746	
0.0691177	
0.0510814	
0.0279655	
0.0242366	
0.00179713	
0.00607833	
0.00820031	
0.010255	
0.00847403	
-0.00204603	
-0.00501208	
0.000666615	
-0.00525625	
-0.00819159	
-0.00672028	
-0.0103656	
-0.00676814	
0.0652934	
0.0634948	
0.0613309	
0.0106875	
0.00598844	
0.0184151	
0.00780574	
-0.00105089	
-0.00479999	
-0.00872041	
0.000173001	
-0.0051907	
-0.00304026	
-0.0100885	
0.0685886	
0.0677035	
0.0599845	
0.0638736	
0.0597515	
0.0639611	
-0.00578604	
-0.00302389	
-0.00288149	
-0.00069073	
-0.00263014	
-0.00836506	
0.00131318	
-0.000158947	
0.0610332	
0.0628599	
0.068289	
0.0701191	
0.0718063	
0.0698068	
0.0691267	
0.0717235	
0.0701532	
0.0179662	
0.016459	
0.0201912	
0.0169934	
0.0138367	
0.023327	
0.0276339	
0.0253949	
0.0358022	
0.04523	
0.0164592	
0.00894854	
0.0108088	
0.00632049	
0.065568	
0.0677266	
0.0286486	
-0.00884463	
-0.00904492	
-0.015446	
-0.0145413	
0.0118244	
0.00773733	
0.00499383	
0.00373599	
0.0513745	
0.0589283	
0.0579003	
0.0187451	
0.025023	
0.0104619	
0.0133669	
0.0191317	
0.070437	
0.0720061	
0.0670201	
0.0652201	
0.068467	
0.0704382	
0.0702033	
0.045269	
0.0412225	
0.0376906	
0.0656639	
0.0694827	
0.0437316	
0.0688975	
0.0637583	
0.0713804	
0.0702184	
0.0696611	
0.0702498	
0.0463275	
0.0418594	
0.0632369	
0.0634673	
0.0342358	
0.0441132	
0.0366095	
0.0454678	
0.0621693	
0.0625581	
0.0164307	
0.0218777	
0.0112133	
0.0118014	
0.0661648	
0.0684215	
0.0618852	
0.0640058	
0.0682544	
0.0704299	
0.0682936	
0.0701621	
0.0699767	
0.0679388	
0.0706971	
0.0653264	
0.0490578	
0.0510117	
0.0697906	
0.064654	
0.0669969	
0.0433243	
0.0430608	
0.0374292	
0.0323887	
0.00402285	
-0.000740886	
0.00562511	
0.00205099	
0.064001	
0.0649227	
0.0614966	
0.0633438	
0.0538093	
0.0669653	
0.0680614	
0.0665732	
0.0507764	
0.0684121	
0.0692705	
0.0552944	
0.067093	
0.0507538	
0.0682689	
0.0697766	
-0.015062	
-0.0145017	
-0.0151792	
-0.0155389	
-0.0098947	
-0.00911654	
-0.0104919	
-0.0109169	
0.0488731	
-7.54365e-05	
0.0019507	
0.00793622	
0.00753697	
0.0661003	
0.0620169	
0.0635615	
0.0603079	
0.0680941	
0.0684449	
0.0643824	
0.0667349	
0.0636516	
0.0646613	
0.0618642	
0.0682409	
0.0664473	
0.0671309	
0.0692333	
0.0542819	
0.0529593	
0.0552461	
0.0717147	
0.070815	
0.0611142	
0.0635596	
0.0617493	
0.0710757	
0.0703015	
0.0700577	
0.0725035	
0.070287	
0.0547569	
0.0586953	
0.0699109	
0.0690278	
0.0525483	
0.0547636	
0.0514456	
0.0635232	
0.0639061	
0.0717227	
0.07019	
0.0702873	
0.070124	
0.0719755	
0.0567788	
0.0579053	
0.070414	
0.0701562	
0.0689967	
0.0646468	
0.063221	
0.0626725	
0.0652191	
0.0688173	
0.0706271	
0.0699095	
0.0702135	
0.0698444	
0.0647666	
0.0636229	
0.0664925	
0.0723842	
0.0712193	
0.0668815	
0.070143	
0.0692382	
0.0703507	
0.0702844	
0.066973	
0.0674996	
0.0571724	
0.0564326	
0.072359	
0.0713732	
0.069385	
0.0670247	
0.0386354	
0.0408446	
0.0464632	
0.0419052	
0.0331253	
0.0599486	
0.0664083	
0.066275	
0.0663919	
0.0632954	
0.0662962	
0.0674149	
0.0222233	
0.0215834	
0.0282482	
0.0641515	
0.0669965	
0.0693801	
0.0692495	
0.0721905	
0.0699384	
0.0698429	
-0.00811362	
-0.0085889	
-0.00645006	
-0.00713128	
0.0623224	
0.0651249	
0.0695349	
0.0700834	
0.0407	
0.0667465	
0.0671919	
0.0658726	
0.0697738	
0.0719746	
0.0482419	
0.0482523	
0.00230581	
-0.00488085	
-0.00117418	
-0.00567704	
0.0685933	
0.0705993	
0.0684422	
0.0697208	
0.0314143	
0.0454408	
0.033029	
0.0702726	
0.0605103	
0.0562137	
0.0556177	
0.0702677	
0.0721905	
0.0704444	
0.0373963	
0.0268145	
0.0458865	
0.0502435	
0.0721975	
0.0688102	
0.0470363	
0.0493789	
0.0508244	
0.0703643	
0.0717014	
0.0691247	
0.0477034	
0.0323393	
0.0413046	
0.0283401	
0.0310014	
0.0192914	
0.0175619	
0.0261326	
0.0276562	
0.0632013	
0.0443101	
0.0383862	
0.0693148	
0.0678208	
0.0710346	
0.0690755	
0.0690433	
0.0660231	
0.0692769	
0.0690635	
0.0673157	
0.0639108	
0.0671613	
0.065111	
0.0710123	
0.0690783	
0.0719934	
0.0594749	
0.0355578	
0.028415	
0.0366329	
0.0301527	
0.0573935	
0.0533104	
0.0511647	
0.0701858	
0.0697782	
0.0702192	
0.0713573	
0.0700416	
0.0702578	
0.0700422	
0.0648144	
0.0648486	
0.0244593	
0.0177149	
0.0152456	
0.0552143	
0.0554466	
0.0669009	
0.0632415	
0.0657942	
0.0615974	
0.0718277	
0.0704295	
0.0688649	
0.0703407	
0.0711594	
0.0689828	
0.059792	
0.0601331	
0.0678062	
0.070924	
0.0692848	
0.0686756	
0.0718121	
0.0705048	
0.0669442	
0.0683669	
0.06712	
0.0685418	
0.0723062	
0.0710481	
0.0432651	
0.0473756	
0.0579578	
0.0580862	
0.0549933	
0.0556509	
0.0712021	
0.0703121	
0.0695495	
0.0695598	
0.0381855	
0.0439713	
0.0690431	
0.0702993	
0.0711874	
0.0684104	
0.0715172	
0.0507332	
0.0560604	
0.0254616	
0.019687	
0.0576311	
0.0580392	
0.0537269	
0.055023	
0.0497073	
0.0619153	
0.0409328	
0.0372677	
0.0557384	
0.0547721	
0.0598491	
0.0606375	
0.0307402	
0.0384297	
0.0382944	
0.039106	
0.032764	
0.0270177	
0.0462973	
0.0507301	
0.0329327	
0.0264631	
0.0359508	
0.0399091	
0.0452565	
0.0465738	
0.0486889	
0.0189391	
0.0243268	
0.0253414	
0.0168396	
0.0140052	
0.0568548	
0.060709	
0.0557849	
0.0605386	
0.0702941	
0.0710877	
-0.0150939	
-0.0133289	
-0.00797012	
-0.0109567	
-0.00317286	
0.00164626	
0.00669203	
0.0156347	
0.0191481	
0.0110829	
-0.0159828	
-0.0131542	
-0.0107753	
-0.00374614	
-0.00780665	
0.000777484	
0.0176789	
0.0212571	
0.0100242	
0.0141094	
0.00560215	
-0.0156409	
0.019022	
0.0156512	
0.00687359	
0.00250333	
0.0115662	
-0.00607358	
-0.00935136	
-0.0146026	
-0.0123581	
-0.0020964	
0.0217039	
0.0191801	
0.0160111	
0.00808177	
0.0123548	
0.00337843	
-0.0140016	
-0.0115535	
-0.00866456	
-0.00517276	
-0.000968234	
0.0226516	
-0.0596362	
-0.0593816	
-0.0646009	
0.0617647	
-0.0549039	
0.0630746	
-0.0529875	
0.0621856	
0.062041	
0.0611976	
0.0619539	
-0.0488989	
0.0613261	
-0.0317307	
-0.0374294	
-0.0355139	
-0.0253001	
-0.0325142	
-0.0328513	
0.0608335	
0.060354	
0.0593697	
0.0610845	
0.055069	
0.0443318	
-0.0383652	
-0.0453538	
-0.0501752	
-0.0531754	
-0.0337645	
-0.0376089	
-0.0467339	
-0.0469311	
-0.0387914	
-0.0612977	
-0.0499928	
-0.0509683	
-0.0322616	
-0.0335455	
-0.0202304	
0.0353852	
0.0591004	
0.0593482	
0.0277018	
0.0340226	
0.021479	
0.00731829	
0.0189771	
0.0432413	
0.0615889	
-0.0610218	
-0.066545	
-0.0663478	
-0.0649414	
-0.0650984	
-0.0668112	
-0.0668434	
0.0288831	
0.0128045	
0.0449351	
0.0579881	
0.0480247	
0.0408214	
0.0456705	
0.0482097	
0.0485632	
0.0175194	
0.0466605	
0.0503805	
0.0454244	
-0.0371901	
0.0522281	
0.0496375	
0.0248685	
0.0416838	
-0.0532847	
0.0308416	
0.0480469	
-0.052849	
-0.0564545	
-0.0590857	
-0.0582608	
-0.0649587	
-0.0649345	
0.0223197	
0.0289698	
0.0189839	
0.0330742	
-0.0537644	
-0.044465	
-0.0345039	
-0.0295284	
0.0412623	
0.0404406	
-0.0660664	
-0.0652238	
-0.0617448	
-0.0652262	
0.0409609	
0.0412524	
0.0139755	
0.00579592	
-0.00292893	
-0.0590777	
-0.0658253	
-0.0631416	
-0.0656087	
0.0332554	
0.0314639	
0.0248855	
0.02285	
0.0215578	
-0.0182814	
-0.0256624	
0.0404061	
-0.0542335	
-0.0568689	
0.0419784	
0.0305102	
0.0332619	
0.0274303	
-0.0472626	
-0.0546201	
-0.0564712	
0.0334742	
-0.0030274	
-0.000338643	
0.0364743	
0.030844	
-0.00344461	
0.0190932	
0.0386954	
0.0116065	
-0.00404004	
-0.0375699	
-0.0446267	
0.0446087	
-0.0490626	
-0.0451023	
0.0340327	
0.0323253	
0.043694	
0.0417306	
0.00777793	
0.00117929	
-0.00979668	
0.012802	
0.0105369	
0.00279679	
0.0259573	
-0.0286945	
0.035955	
0.0314126	
-0.00988177	
-0.0232145	
-0.0560231	
0.0484185	
0.0453082	
0.0212294	
0.00367539	
0.0142276	
-0.0330234	
0.0338635	
-0.0539862	
-0.0404663	
-0.0489849	
-0.0623766	
-0.0650863	
-0.0569535	
-0.0345531	
-0.0238605	
0.0137623	
0.0266438	
0.00539179	
0.0189293	
0.0203437	
-0.0651456	
-0.0612034	
-0.0630175	
-0.0574136	
-0.0618914	
0.059997	
0.0196173	
0.00516092	
0.013102	
0.0499832	
0.0591688	
0.0419112	
0.0442126	
0.0546822	
0.0486767	
0.05845	
0.0574465	
0.0614918	
0.0591079	
0.0611989	
0.0600615	
0.0617606	
0.0462937	
0.0488592	
-0.0647008	
-0.0531357	
-0.0191369	
-0.00324649	
-0.0207289	
-0.0122083	
-1.21589e-05	
-0.0114584	
0.00555139	
-0.0264124	
-0.0168939	
-0.0502128	
-0.0562447	
-0.0467239	
0.0317842	
0.0275247	
0.0330226	
-0.0532183	
-0.0466979	
-0.0465043	
-0.042359	
0.0176243	
0.014678	
0.0260957	
0.0240401	
-0.00195506	
-0.00055716	
0.0380206	
0.0388303	
0.0394385	
0.0337728	
-0.0610101	
-0.0637723	
0.0357805	
0.0362899	
0.0100996	
0.0163571	
-0.0563047	
-0.0616393	
-0.0640281	
-0.0218331	
-0.0148002	
-0.0179962	
0.0576774	
0.057648	
-0.0571127	
-0.0646507	
0.0272086	
-0.0629176	
-0.0574134	
-0.0606042	
-0.0636875	
-0.0398788	
-0.0300654	
-0.0423245	
-0.028418	
-0.0280032	
-0.0358943	
-0.0418612	
0.0457588	
-0.0638958	
-0.0602223	
-0.0565891	
0.0153223	
0.00557006	
-0.051667	
-0.0569338	
-0.0622458	
-0.0574681	
-0.0500347	
-0.0515453	
0.0241643	
0.0339431	
0.0216435	
0.0269238	
0.0299398	
0.0353689	
0.0157832	
0.0142192	
0.0206856	
-0.0616554	
-0.0666944	
-0.0655107	
-0.0639071	
-0.0664308	
-0.0149152	
-0.0267312	
-0.02588	
-0.0647377	
-0.062412	
-0.0645281	
-0.0646562	
-0.0619767	
-0.0656307	
-0.060002	
-0.0575667	
-0.0542767	
-0.0580932	
-0.0610586	
-0.037516	
-0.0314597	
-0.0358365	
0.0584433	
0.041435	
0.0473322	
0.0448551	
0.0187071	
0.00492426	
0.0213151	
0.0168437	
0.0477212	
0.0588913	
0.0541608	
0.053232	
0.0435695	
-0.0384433	
-0.0298171	
-0.0325288	
-0.0257891	
0.0595334	
0.0614919	
0.0502677	
0.0512388	
0.0606237	
0.0343155	
0.0400488	
0.0259061	
0.0332945	
-0.0531682	
-0.0586187	
-0.0629722	
-0.0214963	
-0.0653727	
0.0320562	
-0.0503317	
-0.046863	
-0.0642384	
-0.0569866	
-0.0596691	
-0.0636943	
0.0496006	
-0.0645979	
-0.06627	
-0.0637076	
-0.066045	
-0.056453	
-0.0595079	
0.0284479	
0.0191717	
0.0284602	
-0.0552781	
-0.0581932	
-0.058326	
-0.0622293	
0.0377087	
0.0381002	
0.0182571	
-0.0556726	
-0.051549	
0.024075	
0.0322713	
0.0252089	
0.0334691	
-0.0310389	
-0.0374364	
-0.0446854	
0.035894	
0.0440991	
-0.0421018	
-0.0365125	
-0.0651042	
-0.064396	
-0.0552095	
-0.0604514	
-0.0504163	
-0.0572066	
0.0433867	
0.0461703	
0.0461372	
0.0204573	
0.00950539	
0.0036125	
-0.059861	
-0.0641555	
-0.0629181	
0.0357592	
0.030257	
0.043819	
-0.059776	
-0.0627011	
-0.0647046	
-0.0625931	
-0.060055	
-0.0523155	
-0.0471596	
-0.0625382	
-0.0647927	
-0.0607267	
-0.0630032	
0.027296	
0.0353227	
0.0570038	
0.045317	
0.0393952	
0.0400933	
0.0466355	
0.0410664	
-0.0164537	
-0.0100916	
0.0537926	
0.0564373	
0.0475658	
0.0571731	
0.0610878	
0.0393079	
0.0392148	
-0.0511573	
-0.0432448	
-0.048768	
-0.0437626	
0.0441181	
-0.0652486	
-0.0637904	
-0.0648739	
-0.0632954	
-0.0148196	
-0.0157466	
-0.0575878	
-0.0546871	
-0.0624999	
0.0412243	
0.0472667	
0.0620881	
-0.00381558	
0.00426645	
0.00145446	
-0.0143739	
-0.00777272	
-0.0541735	
-0.0526564	
-0.0637661	
-0.0605869	
0.0346427	
0.0233205	
0.0276227	
-0.061131	
-0.0566832	
-0.0150259	
-0.00935732	
-0.0192841	
-0.0266515	
0.0411272	
0.0400452	
0.0332917	
0.0466929	
0.0420521	
-0.0330671	
-0.0250515	
-0.0388202	
-0.0376623	
0.0141565	
-0.0470344	
-0.041983	
0.00345542	
0.0131213	
0.00462128	
0.0173505	
0.0603464	
0.0523987	
0.0477733	
0.0332867	
0.0625372	
0.0611037	
0.0345772	
0.0266589	
0.0257686	
0.0209304	
-0.0631562	
-0.060869	
0.0626131	
0.0612094	
0.0396309	
0.0360223	
0.00907708	
0.0577141	
0.0555726	
0.0461491	
0.0599596	
0.062477	
0.053953	
0.0558136	
0.0600487	
0.0612225	
0.0593906	
0.038211	
0.0437011	
0.0287786	
0.0360586	
-0.0450448	
-0.0455917	
-0.0103401	
-0.00750668	
-0.00172696	
0.00495582	
-0.0464545	
-0.0429825	
-0.0342893	
-0.0113591	
0.0305683	
0.0312785	
0.0384978	
0.043721	
0.0452894	
0.0582695	
0.0500821	
0.0617939	
0.0317468	
0.0312247	
0.0465992	
0.0516541	
0.0608321	
0.0584898	
0.0617112	
0.0605474	
0.0300023	
0.0321972	
0.0503145	
0.0445184	
-0.0630326	
-0.0562047	
-0.0627303	
-0.0592371	
-0.0330842	
-0.0398173	
-0.0451824	
-0.0464872	
0.0621576	
0.0590708	
0.0436249	
0.0487859	
0.0494746	
0.0601473	
0.0479554	
0.040336	
0.0403904	
0.0289825	
0.0336696	
0.0448875	
0.048312	
0.0505318	
0.0597152	
0.0475957	
0.046899	
0.0618797	
0.0476522	
0.0460555	
0.0469154	
-0.0565178	
-0.0614177	
-0.0597562	
0.0138238	
0.0168806	
0.00370055	
-0.000904539	
0.0472256	
0.0102069	
0.0207273	
0.0154258	
0.0255195	
0.00805152	
0.0174525	
0.0252178	
-0.0645169	
-0.0649529	
-0.0640524	
0.0374674	
0.0380281	
0.0498645	
0.0595128	
-0.0633208	
0.00814195	
0.00514097	
0.0578741	
0.0597665	
0.0520593	
0.0603029	
0.0519134	
0.0573243	
0.0558701	
0.058996	
0.0608553	
0.00304303	
-0.00410991	
0.02941	
0.0322393	
0.062537	
0.0511787	
0.0601623	
0.0576942	
0.0591946	
0.0620484	
0.06024	
0.0619938	
0.0459811	
0.0388957	
0.0590771	
-0.00299728	
0.0338357	
0.0374003	
0.0471754	
0.0437826	
0.0389793	
0.0468439	
0.0372727	
0.0449012	
0.0594062	
0.0609929	
0.00314506	
0.0419875	
0.0327303	
0.0530841	
0.040937	
0.0524329	
0.0369636	
0.0393873	
0.0271	
0.0331696	
0.0175555	
0.02081	
0.0338775	
0.0346622	
0.0466927	
0.0484923	
0.0624505	
0.0605288	
0.0500196	
0.0472071	
0.0400917	
0.0258736	
0.0573004	
0.05901	
0.0319537	
0.0506754	
0.0597754	
-0.0575578	
-0.0515515	
-0.0618676	
-0.058306	
0.0385855	
0.0454956	
-0.0643477	
-0.0645269	
0.0215868	
0.0252013	
-0.0114747	
-0.00110099	
0.0455458	
0.0618645	
0.0582605	
-0.0474301	
-0.0407811	
-0.0439151	
-0.0363893	
0.0237488	
0.0108266	
0.004696	
0.0390003	
0.0472803	
0.0181775	
0.0249206	
0.0140445	
0.0199478	
0.0247963	
0.0331053	
-0.0439425	
-0.0413783	
-0.0373167	
-0.0294592	
0.0451599	
0.0499125	
-0.003427	
-0.0116543	
-0.0122775	
-0.0197741	
-0.0269143	
-0.0322909	
-0.0188763	
-0.0277515	
0.0248271	
0.0173841	
0.0188591	
0.0559536	
0.0453328	
0.0569105	
0.0533277	
0.00749015	
0.00243194	
0.0480727	
0.0592093	
-0.0213307	
-0.0220809	
-0.00481174	
-0.0112851	
0.0619575	
-0.019887	
-0.00878181	
-0.0172443	
-0.029038	
-0.0323786	
-0.0259307	
0.059108	
0.0621059	
0.0502709	
0.0428622	
0.0479148	
0.0488509	
0.0492816	
0.0584488	
-0.0132083	
-0.019162	
0.051057	
0.0431808	
0.0133865	
0.0127732	
-0.00741101	
-0.00381528	
-0.0183646	
-0.0192399	
0.0572095	
0.0572952	
0.0480673	
0.0476875	
-0.00108339	
-0.00405211	
0.00665603	
0.00956229	
-0.00666761	
-0.0130157	
-0.00893746	
-0.00289378	
-0.0159196	
-0.0101441	
0.0497139	
0.0416945	
0.0593971	
0.046791	
0.0609655	
0.0571883	
0.00211374	
0.00686107	
0.0481436	
0.0590266	
0.0567776	
0.0608335	
0.00597906	
0.00863794	
0.0603377	
0.0536928	
0.0622302	
0.0585821	
-0.00569991	
-0.0122466	
0.0519621	
0.0588023	
0.058485	
0.0618213	
0.0121327	
0.0101496	
0.0596353	
0.0577258	
-0.0649065	
-0.0643151	
-0.0648089	
-0.0635872	
0.0254611	
0.0253294	
0.0606995	
0.0586423	
0.0508409	
0.0599491	
0.0614494	
0.059656	
0.0338916	
0.0320945	
0.0323555	
0.0519189	
0.0608217	
-0.0116782	
-0.0065869	
0.0269705	
0.0296197	
0.0393194	
0.0377438	
0.0595272	
0.0617877	
-0.00715788	
-0.0179402	
-0.00914454	
-0.0237057	
0.0622721	
0.0587095	
0.0601128	
0.0532489	
0.0187882	
0.0190458	
-0.0598917	
-0.0636896	
-0.0593226	
-0.0627791	
0.0129902	
0.00490745	
0.013106	
0.00675666	
0.00148225	
0.0691496	
0.0165941	
0.0690847	
0.0693541	
0.0130158	
-0.0145063	
-0.0132364	
0.00232176	
0.069219	
0.0687801	
0.0672934	
0.0669295	
0.0672839	
0.00243886	
0.0478653	
-0.00174216	
-0.0101524	
-0.0109381	
0.0674742	
0.0688059	
0.0660715	
0.0104404	
0.023591	
0.00759307	
0.00390878	
0.00519512	
0.0310281	
0.0447169	
0.0105678	
0.0174659	
0.0318061	
0.00118837	
0.0691077	
0.0617681	
0.0610591	
0.0692999	
0.0599401	
0.00921004	
0.0504958	
0.0448913	
0.0510196	
-0.00808664	
-0.0100074	
-0.017135	
-0.00878449	
-0.0101503	
-0.0159319	
-0.0105991	
-0.00785711	
-0.00980402	
0.0552563	
0.0600803	
0.00496797	
0.0205472	
0.0593697	
0.0625115	
0.0638946	
0.0343817	
0.0420169	
0.0294947	
0.0374151	
0.0699429	
0.0699362	
0.0677843	
0.0673684	
0.0693418	
0.0686544	
0.0682899	
0.0694403	
0.0698467	
0.0621014	
0.00758452	
0.0686066	
0.0557849	
0.0681726	
-0.0144137	
-0.0125043	
-0.00760581	
-0.0078374	
-0.00765748	
-0.0124335	
0.0605284	
0.0552534	
0.0428997	
0.0516678	
0.037029	
0.0653217	
0.0628711	
0.0660602	
0.0246596	
0.0618512	
0.0645234	
0.0626592	
-0.0190425	
-0.0124675	
-0.0133877	
-0.0170275	
0.0649748	
-0.0073815	
-0.00897349	
-0.00714194	
-0.0115153	
-0.0114055	
-0.0145806	
-0.0106387	
-0.011886	
0.0361673	
0.050817	
0.015296	
0.0352785	
-0.00661393	
0.0535505	
0.0604417	
0.0604397	
0.0618533	
0.0614677	
0.0205607	
0.0645046	
0.0660136	
0.0628656	
0.066968	
0.00918382	
0.0170617	
0.0203646	
0.043924	
0.0384021	
0.0384923	
0.0670357	
0.0461334	
0.0488261	
7.76363e-05	