<VTKFile type="UnstructuredGrid" version="0.1" byte_order="LittleEndian">
	<UnstructuredGrid>
		<Piece NumberOfPoints="2503" NumberOfCells="0">
			<CellData Scalars="scalars">
				<DataArray type="Float64" Name="Doublet Strengths" NumberOfComponents="1" Format="ascii">
				</DataArray>
				<DataArray type="Float64" Name="Velocity Potential" NumberOfComponents="1" Format="ascii">
				</DataArray>
			</CellData>
			<Points>
				<DataArray type="Float64" Name="Position" NumberOfComponents="3" Format="ascii">
0	0.223104	0	
0	0.247811	0	
0.0132615	0.235556	-0.0147903	
0	0.0492559	0	
0.0103083	0.0394357	-0.0130923	
0	0.0244177	0	
0	1.76011	0	
0.0137603	1.74496	-0.0150491	
0	1.73535	0	
0	0.198168	0	
0.0102385	0.179135	-0.0130481	
0	0.173313	0	
0	0.545764	0	
0	0.57065	0	
0.0125626	0.555573	-0.0144153	
0.0146934	0.605668	-0.0155149	
0	0.595319	0	
0.0108483	1.59565	-0.0134266	
0	1.58643	0	
0	0.620226	0	
0.0209977	0.527939	-0.018166	
0	0.520862	0	
0.0169865	0.857089	-0.0165696	
0	0.842624	0	
0	0.86741	0	
0	0.792942	0	
0.0144381	0.777701	-0.0153897	
0	0.768234	0	
0.0142544	1.15144	-0.0152986	
0	1.14055	0	
0	1.16538	0	
0.0118384	1.52717	-0.0140103	
0	1.51208	0	
0	1.53666	0	
0	1.61113	0	
0.384405	0.864957	-0.0186322	
0.536255	0.819386	-0.0122953	
0.398493	0.754409	-0.0180614	
0.81492	0.669611	-0.00260745	
1	0.90002	0	
0	1.63606	0	
0	1.66087	0	
0.0120239	1.65078	-0.0141157	
0.0130375	1.79567	-0.0146718	
0	1.78498	0	
0	1.80983	0	
0	2.80183	0	
0.0128576	2.789	-0.0145754	
0	2.7769	0	
0	2.95074	0	
0	2.97558	0	
0.0167217	2.96061	-0.0164537	
0.0210935	2.76449	-0.0182009	
0	2.75219	0	
0	2.28041	0	
0.0106881	2.26536	-0.0133287	
0	2.25597	0	
0	2.92568	0	
0.0168447	2.91292	-0.0165077	
0	2.90116	0	
0.325051	0.0902216	-0.021349	
0.378224	0	-0.0188932	
0.266174	0	-0.0242889	
0.455262	0.139866	-0.015766	
0.527155	0	-0.0126858	
0.2311	0.134828	-0.0259766	
0.321078	0.192571	-0.0215439	
0.378224	3	-0.0188932	
0.527155	3	-0.0126858	
0.437895	2.87652	-0.0164897	
1	0.605864	0	
0.0236846	0.826706	-0.0190956	
0.0333635	0.794714	-0.0217827	
0.0117203	0.803736	-0.0139425	
0	1.71051	0	
0.00996044	1.6948	-0.0128704	
0	1.68561	0	
0	0.347127	0	
0	0.371969	0	
0.0115072	0.371108	-0.0138191	
0	0.396814	0	
0	2.5287	0	
0	2.5536	0	
0.0141454	2.55708	-0.0152442	
0	2.57837	0	
0	1.31439	0	
0.0155692	1.29771	-0.0159319	
0	1.28949	0	
0	0.148679	0	
0.0126738	0.131196	-0.014476	
0	0.123715	0	
0.0157654	0	-0.0160229	
0.0162003	0.0181526	-0.0162213	
0.0405813	0	-0.0233031	
0.0753688	2.65803	-0.0274705	
0.0367958	2.67718	-0.0225475	
0.0618734	2.69315	-0.0263133	
0.0992729	2.16252	-0.0286213	
0.165893	2.15448	-0.0284334	
0.110725	2.11855	-0.0288762	
0.174866	2.68087	-0.0281818	
0.160436	2.61279	-0.0285675	
0.122893	2.64231	-0.0289875	
0.0785162	2.76732	-0.0276801	
0.0407138	2.78899	-0.023328	
0.068377	2.8124	-0.0269273	
0.0685253	0.133802	-0.02694	
0.0778745	0.181009	-0.027639	
0.108771	0.147238	-0.0288438	
0.0474491	0.190991	-0.0244773	
0.0629259	0.223278	-0.0264205	
0.150306	2.30894	-0.0287738	
0.198859	2.26106	-0.0273514	
0.134167	2.25364	-0.0289686	
0.165138	2.21301	-0.0284528	
0.238233	2.20082	-0.0256451	
0.0444286	1.62419	-0.0239893	
0.0180373	1.63246	-0.0170156	
0.0424943	1.6587	-0.0236539	
0.0773004	0.591053	-0.0276015	
0.0678599	0.63802	-0.0268825	
0.116799	0.611939	-0.0289504	
0.0122894	0.213234	-0.0142646	
0.0337913	0.217801	-0.0218825	
0.0425665	0.915975	-0.0236667	
0.0437049	0.875372	-0.023866	
0.0191727	0.886486	-0.0174742	
0	0.966802	0	
0.017201	0.961384	-0.0166624	
0	0.941881	0	
0.0195344	0.93612	-0.0176156	
0.0445058	0.953718	-0.0240023	
0	1.26465	0	
0.0226016	1.24565	-0.0187327	
0	1.23989	0	
0.139363	1.8497	-0.0289257	
0.0847204	1.85346	-0.0280369	
0.100115	1.88897	-0.0286457	
0.016186	0.579337	-0.0162148	
0.0409339	0.584775	-0.0233692	
0.215764	1.84535	-0.0266596	
0.161757	1.90155	-0.0285364	
0.233847	1.92241	-0.0258498	
0.169465	2.55285	-0.0283376	
0.223922	2.60748	-0.0263019	
0.0696779	2.05492	-0.027037	
0.0368923	2.07608	-0.0225678	
0.0664612	2.09344	-0.0267581	
0.107894	2.07526	-0.0288279	
0.0326444	0.0760193	-0.0216117	
0.0655986	0.0662029	-0.0266788	
0.0348436	0.041232	-0.0221225	
0.28057	0.898815	-0.0235692	
0.298789	0.809552	-0.0226534	
0.211699	0.861585	-0.0268325	
0.054437	2.96241	-0.0254589	
0.0208502	2.98055	-0.0181121	
0.0405813	3	-0.0233031	
0.105528	0.448824	-0.0287803	
0.0571685	0.438288	-0.0257935	
0.0730303	0.474444	-0.0273012	
0.0784723	0.512545	-0.0276773	
0.123049	0.495107	-0.028988	
0.0645584	1.0678	-0.0265806	
0.065078	1.1128	-0.02663	
0.108816	1.09119	-0.0288446	
0.103402	1.13757	-0.0287318	
0.15604	1.12158	-0.0286641	
0	2.60319	0	
0.0232514	2.58659	-0.0189522	
0	2.47914	0	
0	2.50385	0	
0.018932	2.50093	-0.0173789	
0.0624167	2.22981	-0.026369	
0.111417	2.20583	-0.0288867	
0.0666109	2.18873	-0.0267716	
0.0633179	0.983535	-0.0264596	
0.0674174	1.02454	-0.0268437	
0.0989477	0.986263	-0.0286117	
0.223992	2.32284	-0.0262987	
0.287841	2.27654	-0.0232037	
0.0858184	1.55225	-0.0280928	
0.0517494	1.52546	-0.0251039	
0.0443601	1.56132	-0.0239777	
0.0800357	1.5004	-0.0277742	
0.0435521	1.48919	-0.0238396	
0.32574	2.58267	-0.0213153	
0.42974	2.48339	-0.0168239	
0.32439	2.45864	-0.0213813	
0.0335891	2.61135	-0.0218355	
0.0630469	2.59122	-0.0264326	
0.0432557	2.56308	-0.0237882	
0.0868546	1.28588	-0.0281436	
0.0601684	1.25235	-0.0261327	
0.047672	1.29357	-0.0245116	
0.40567	1.96551	-0.0177834	
0.320215	1.86985	-0.0215864	
0.307634	1.96327	-0.0222106	
0.244603	2.01979	-0.0253429	
0.333926	2.06714	-0.0209179	
0.035653	1.26493	-0.0223018	
0.0403769	1.21895	-0.0232644	
0.239545	2.39796	-0.0255833	
0.169579	2.36545	-0.0283345	
0.142224	0.838245	-0.0288937	
0.154987	0.893549	-0.0286857	
0.14614	0.999868	-0.0288409	
0.209924	1.0198	-0.0269068	
0.191519	0.945386	-0.0276268	
0.0534928	2.53325	-0.0253372	
0.0793282	2.5494	-0.027731	
0.0778734	2.49808	-0.027639	
0.0684726	2.44883	-0.0269355	
0.0455698	2.48023	-0.0241786	
0.241336	2.52576	-0.0254986	
0.272541	0.555682	-0.0239715	
0.182132	0.585786	-0.0279526	
0.253185	0.64032	-0.0249285	
0.189673	0.518036	-0.0276933	
0.0648213	2.02307	-0.0266057	
0.116895	2.02726	-0.0289513	
0.0801832	1.98808	-0.0277831	
0.231612	1.6328	-0.025953	
0.302979	1.57155	-0.0224433	
0.217737	1.55088	-0.0265744	
0.0371111	2.90073	-0.0226138	
0.0646099	2.8872	-0.0265855	
0.0238956	2.88215	-0.0191646	
0.0659007	2.12877	-0.0267068	
0.0640804	1.59409	-0.0265344	
0.146296	1.62751	-0.0288386	
0.0851124	1.63797	-0.0280571	
0.122416	1.67774	-0.0289859	
0.0318341	0.315933	-0.0214143	
0.0567821	0.341414	-0.0257477	
0.0717807	0.303746	-0.0272057	
0.651375	2.16272	-0.00761639	
0.784847	1.96367	-0.0033446	
0.555525	1.97153	-0.0114738	
0.0439211	1.85139	-0.0239031	
0.0534922	1.8824	-0.0253371	
0.110207	1.45403	-0.028868	
0.117604	1.51179	-0.0289574	
0.0467201	0.157477	-0.0243633	
0.0282485	0.172991	-0.0204745	
0.451353	1.84881	-0.0159301	
0.165256	0.167184	-0.0284498	
0.118341	0.190584	-0.0289632	
0.153407	0.228263	-0.0287169	
0.0992836	0.229677	-0.0286216	
0.014748	1.8447	-0.0155414	
0.0208259	1.86931	-0.0181031	
0.0753339	3	-0.027468	
0.0461373	1.70034	-0.0242705	
0.0753878	1.68281	-0.0274718	
0.0278115	0.424268	-0.020352	
0.0465091	0.402597	-0.0243299	
0.169358	0.456083	-0.0283406	
0.256758	0.464483	-0.0247539	
0.191795	0.39726	-0.0276168	
0.171366	2.07946	-0.0282843	
0.171621	2.01423	-0.028277	
0.099848	0.668509	-0.028638	
0.166205	0.654918	-0.0284253	
0.0203086	0.450773	-0.017911	
0.0126941	2.68805	-0.014487	
0.0324539	2.70892	-0.0215658	
0.0127381	2.07044	-0.0145109	
0.0309358	2.04628	-0.0211893	
0.104968	2.43179	-0.0287681	
0.114371	2.47099	-0.0289254	
0.163387	2.42676	-0.0284968	
0.166544	2.49029	-0.0284164	
0.118093	2.52124	-0.0289613	
0.362465	1.10263	-0.0195848	
0.392549	1.22583	-0.018298	
0.489009	1.10005	-0.0143284	
0.034092	1.59287	-0.0219519	
0.0163109	1.57394	-0.0162711	
0.0813839	0.409751	-0.027854	
0.0682884	0.552745	-0.0269197	
0.0360922	0.553141	-0.0223973	
0.136409	1.16929	-0.0289526	
0.0956004	1.18669	-0.0285038	
0.143362	1.22539	-0.0288794	
0.209404	1.26369	-0.0269284	
0.199632	1.17674	-0.0273215	
0	1.90913	0	
0.0127721	1.90876	-0.0145293	
0	1.88429	0	
0.183935	0	-0.0278925	
0.236467	0.0614589	-0.0257278	
0.16993	0.0620093	-0.0283247	
0.0637132	2.36019	-0.0264986	
0.0731614	2.40088	-0.027311	
0.108517	2.35667	-0.0288393	
0.120345	2.39543	-0.0289764	
0.103508	2.28711	-0.0287344	
0.0437457	0.845335	-0.023873	
0.0574235	0.813699	-0.0258234	
0.0145323	1.55089	-0.0154361	
0.0218148	2.28451	-0.0184592	
0.0337886	2.25464	-0.0218819	
0.0120258	1.04635	-0.0141167	
0.0256005	1.0681	-0.0197023	
0.0339091	1.03901	-0.0219098	
0.0753339	0	-0.027468	
0.109402	0.0519817	-0.0288547	
0.122549	0	-0.0289864	
0.226816	2.8204	-0.0261718	
0.204772	2.74529	-0.0271179	
0.1611	2.79934	-0.028552	
0.109114	2.87846	-0.0288498	
0.116691	2.83203	-0.0289495	
0.0777687	2.85001	-0.0276322	
0.109262	2.78926	-0.0288524	
0.0598278	2.28135	-0.0260956	
0.0342788	2.73639	-0.0219947	
0.0739867	2.72653	-0.0273718	
0.0320787	2.30831	-0.0214745	
0.0377066	2.65174	-0.0227372	
0.0219633	0.194608	-0.0185115	
0.0657809	1.45977	-0.0266957	
0.0356131	1.09338	-0.0222931	
0.165581	1.73125	-0.0284414	
0.157449	1.7971	-0.0286343	
0.21085	1.77567	-0.0268681	
0.0425776	2.85071	-0.0236687	
0.280636	1.79279	-0.0235659	
0.0901123	2.32141	-0.0282917	
0.0364997	1.0076	-0.0224846	
0.0637352	1.91581	-0.0265008	
0.0528185	2.62886	-0.0252483	
0.0862786	2.61836	-0.0281156	
0.113579	2.57941	-0.028916	
0	1.56162	0	
0.120289	0.549278	-0.028976	
0.0130806	0.0670455	-0.0146947	
0.102878	1.59581	-0.028719	
0.0199434	1.41469	-0.0177729	
0.0130009	1.39406	-0.0146522	
0	1.41357	0	
0	1.46334	0	
0.0174466	1.44278	-0.0167675	
0	1.43838	0	
0.223927	2.45852	-0.0263016	
0.130805	0.367016	-0.0289853	
0.126933	0.409924	-0.0289932	
0.0907326	0.370167	-0.028318	
0.300675	1.40006	-0.0225588	
0.214553	1.34547	-0.0267115	
0.21882	1.42581	-0.0265272	
0.301136	2.36123	-0.0225356	
0.143535	1.55817	-0.0288772	
0.172106	1.48893	-0.0282631	
0.0324998	1.91024	-0.0215769	
0.0397261	0.495762	-0.0231398	
0.0391207	0.465986	-0.0230216	
0.106065	0.888784	-0.0287917	
0.0795494	0.9375	-0.0277446	
0.126978	0.940175	-0.0289931	
0	1.48792	0	
0.0172214	1.46989	-0.0166712	
0.0718778	1.41371	-0.0272133	
0.0423491	1.42885	-0.0236279	
0.0368889	1.45771	-0.0225671	
0.0210462	1.3206	-0.0181837	
0.0501961	2.92447	-0.0248862	
0.0946444	2.9272	-0.0284701	
0.107077	1.71921	-0.0288122	
0.0724852	1.73016	-0.02726	
0.110232	1.76596	-0.0288684	
0.058813	1.76555	-0.025983	
0.0390816	1.73674	-0.0230139	
0.0766488	1.94981	-0.0275582	
0.107504	1.92535	-0.0288205	
0.0494781	2.75661	-0.0247824	
0.318314	1.65897	-0.0216801	
0.376064	1.74904	-0.0189858	
0.412813	1.60971	-0.0175034	
0.0649163	0.031955	-0.0266147	
0.0394555	1.79945	-0.0230872	
0.0321202	1.82724	-0.0214846	
0.0629208	1.82509	-0.0264199	
0.104269	1.81426	-0.0287523	
0.073482	1.79327	-0.0273348	
0.0367026	1.39592	-0.0225278	
0.122168	0.279052	-0.028985	
0.193103	0.281426	-0.0275688	
0.183265	1.67853	-0.027915	
0.0130459	1.67109	-0.0146763	
0.013109	1.81841	-0.0147098	
0	1.83462	0	
0.258957	1.71757	-0.0246458	
0.0396154	1.93828	-0.0231183	
0.24924	2.11841	-0.02512	
0.032469	2.81998	-0.0215694	
0.0350343	2.13749	-0.0221652	
0.0280053	2.11305	-0.0204066	
0.0294225	1.53708	-0.0207947	
0.0239241	1.51023	-0.0191738	
0.0245741	1.77011	-0.0193827	
0.0433246	2.50991	-0.0238002	
0.0383351	0.245918	-0.0228651	
0.0707036	0.264144	-0.0271206	
0.0197548	0.105811	-0.0177007	
0.224082	0.219755	-0.0262947	
0.219042	0.340017	-0.0265175	
0.290117	0.399634	-0.0230892	
0.289071	0.29428	-0.0231419	
0.0903721	2.25194	-0.0283028	
0.0823027	1.22106	-0.0279064	
0.155664	0.329526	-0.0286719	
0.106406	1.04064	-0.0287987	
0.510813	1.70677	-0.0133894	
0.0606627	0.37712	-0.026186	
0.0815601	0.84989	-0.0278641	
0.0946096	0.803946	-0.0284688	
0.0118554	2.24454	-0.01402	
0	2.23177	0	
0.0532243	0.0996816	-0.025302	
0.158511	1.06347	-0.0286111	
0.641488	0.472993	-0.00799008	
0.635197	0.686782	-0.00823124	
0.160745	0.731264	-0.0285603	
0.139921	0.785669	-0.0289199	
0.208705	0.787978	-0.0269574	
0.283135	1.04884	-0.0234403	
0.365568	0.9855	-0.0194458	
0.0941821	0.0997306	-0.0284533	
0.0436396	1.99729	-0.0238547	
0.408111	0.279767	-0.0176882	
0.0447443	1.96802	-0.0240423	
0.0323758	2.01988	-0.0215469	
0.101042	0.328852	-0.0286714	
0.036514	0.127567	-0.0224877	
0.0182256	0.153145	-0.0170932	
0.0157654	3	-0.0160229	
0.0350602	0.368668	-0.022171	
0.0153176	0.910512	-0.015814	
0	0.917086	0	
0.146013	0.109546	-0.0288428	
0	2.05812	0	
0	2.08291	0	
0.0105546	1.34785	-0.0132463	
0	1.33913	0	
0	1.36394	0	
0	2.67768	0	
0	2.70246	0	
0	2.87628	0	
0.0148365	2.85904	-0.0155843	
0	2.85132	0	
0.0137274	1.22397	-0.0150323	
0	1.21502	0	
0	2.15738	0	
0.0141892	2.14247	-0.0152661	
0	2.13259	0	
0.0271782	2.1699	-0.0201711	
0.148504	2.90746	-0.0288041	
0.168582	2.85993	-0.0283619	
0	0.645135	0	
0.0151411	0.630864	-0.0157304	
0.040618	0.618198	-0.02331	
0.031703	0.653916	-0.0213819	
0.0199884	1.61219	-0.01779	
0.349588	2.19609	-0.0201749	
0.324629	2.92892	-0.0213696	
0.266174	3	-0.0242889	
0.0512426	1.33213	-0.0250339	
0.0898378	1.32254	-0.0282799	
0.631737	1.82342	-0.008365	
0.0131404	1.96878	-0.0147264	
0	1.95874	0	
0	1.98363	0	
0.0608433	0.769784	-0.0262052	
0.0190759	1.71666	-0.017436	
0.0264769	1.6865	-0.019966	
0.220058	1.10084	-0.026473	
0.288732	1.15091	-0.0231589	
0.056587	2.15794	-0.0257244	
0.0204833	1.89107	-0.0179764	
0.0221536	1.98314	-0.018578	
0.16128	1.41364	-0.0285477	
0.138133	1.35229	-0.0289377	
0.112232	1.39878	-0.0288983	
0.0145216	0.75051	-0.0154308	
0	0.74403	0	
0	0	0	
0.019074	2.63484	-0.0174352	
0.0151277	1.49188	-0.015724	
0.015646	2.00085	-0.0159676	
0	2.00842	0	
0.225705	2.91622	-0.0262219	
0.183935	3	-0.0278925	
0	0.0743164	0	
0	0.0988393	0	
0.0204693	1.17656	-0.0179711	
0.0406301	1.14744	-0.0233123	
0.0535064	1.19005	-0.025339	
0	3	0	
0	2.20706	0	
0.012474	2.19288	-0.0143667	
0	2.18205	0	
0.0125175	1.01614	-0.0143906	
0.0142174	0.986747	-0.0152802	
0.0349863	0.980793	-0.0221545	
0	0.817953	0	
0.0128934	2.21284	-0.0145947	
0.0368042	2.20103	-0.0225492	
0	0.694688	0	
0.00965093	0.680723	-0.0126684	
0	0.669734	0	
0	1.85945	0	
0.0196887	2.39399	-0.0176753	
0.0325056	2.367	-0.0215783	
0.0112063	2.36919	-0.0136419	
0.034784	2.33967	-0.0221091	
0.0135171	2.34772	-0.0149238	
0	1.04126	0	
0	1.06607	0	
0	2.37977	0	
0	2.35486	0	
0.121146	0.704021	-0.0289805	
0	0.446402	0	
0.00895777	0.433215	-0.0121994	
0	0.421634	0	
0	0.991577	0	
0.0172423	1.27447	-0.0166802	
0.0687195	0.8935	-0.0269566	
0.0216654	0.394542	-0.0184064	
0.109389	2.69233	-0.0288545	
0.132034	2.74177	-0.0289802	
0.0562839	2.32244	-0.0256879	
0.0382427	0.73769	-0.0228465	
0.0745875	0.722193	-0.0274152	
0.0380252	0.708643	-0.0228024	
0.0683696	1.1565	-0.0269266	
0.00998421	0.413023	-0.0128857	
0.103715	1.25533	-0.0287393	
0.0233838	2.93925	-0.0189963	
0.0146148	2.6619	-0.0154765	
0.0495429	1.37109	-0.0247918	
0.0829448	1.36514	-0.0279421	
0.0181322	2.47293	-0.0170548	
0	2.45424	0	
0	0.892358	0	
0	2.30531	0	
0.151112	2.95307	-0.0287595	
0.122549	3	-0.0289864	
0	1.38887	0	
0.0186566	1.37111	-0.0172686	
0.0235312	1.12247	-0.0190451	
0.0581034	0.680443	-0.0259023	
0.013744	0.262264	-0.0150408	
0.0327048	0.27083	-0.0216262	
0.029079	1.34622	-0.0207024	
0.0450368	0.28991	-0.024091	
0.0168747	0.290373	-0.0165209	
0	0.297543	0	
0	0.272636	0	
0.0387994	2.42398	-0.0229581	
0.0443926	2.39328	-0.0239832	
0	2.65287	0	
0	2.62803	0	
0.0327441	0.763903	-0.0216357	
0.0134911	2.32525	-0.0149103	
0	2.33027	0	
0.0276787	2.22666	-0.0203144	
0.016219	1.20187	-0.0162297	
0.104001	0.75445	-0.0287461	
0	1.11571	0	
0.0322367	2.45278	-0.021513	
0.537703	1.30134	-0.0122333	
0.415251	1.37793	-0.0174069	
0.528297	1.51415	-0.0126367	
0.0158883	0.478273	-0.0160793	
0	0.471296	0	
0.0146413	1.92788	-0.0154895	
0	1.93393	0	
0.146339	1.29415	-0.0288379	
0.0176991	1.95079	-0.0168744	
0	1.01637	0	
0.0982359	2.96746	-0.02859	
0.404578	2.34292	-0.0178258	
0	2.0332	0	
0.0123342	2.02286	-0.0142894	
0.271161	1.22343	-0.0240405	
0.0136956	2.80897	-0.015016	
0.375731	1.48881	-0.0190001	
0.0130921	2.10099	-0.0147008	
0.0245199	2.53309	-0.0193654	
0.304586	1.30478	-0.0223629	
0.0074765	1.42686	-0.0111091	
0.0134626	2.41863	-0.0148955	
0.0134951	2.44466	-0.0149124	
0	2.40468	0	
0	2.42935	0	
0.0111274	2.046	-0.0135948	
0.128471	1.96656	-0.0289915	
0.726937	0	-0.00500719	
0.63636	0.151775	-0.00818647	
0.0146811	0.724603	-0.0155089	
0	0.719589	0	
0.261929	1.48716	-0.0244993	
0.014214	2.83123	-0.0152785	
0.619061	1.01816	-0.00886136	
0.472671	0.946999	-0.0150281	
0.181235	1.59194	-0.027982	
0.602807	2.41832	-0.00951152	
0.491176	2.24044	-0.0142352	
1	0	0	
0.837648	0.158123	-0.00210929	
0.737244	0.315631	-0.00468859	
1	0.304732	0	
0.0106323	0.321436	-0.0132943	
0	0.322317	0	
0	0.496146	0	
0.257266	2.67332	-0.0247289	
0.0134836	0.503521	-0.0149064	
0.0222606	0.345404	-0.0186152	
0.455653	2.09641	-0.0157495	
0.0132674	0.70175	-0.0147935	
0.0287025	0.68255	-0.0205999	
0.0121458	0.657443	-0.0141843	
0.04795	0.524461	-0.0245542	
0.369925	0.633523	-0.0192529	
0.293569	0.723725	-0.0229156	
0	2.10764	0	
0.307952	2.84839	-0.0221947	
0.289364	2.74975	-0.0231271	
0.0121253	2.61238	-0.0141728	
0	2.82669	0	
0.0124715	2.73996	-0.0143653	
0	2.72736	0	
1	2.09998	0	
1	1.79794	0	
0	1.19017	0	
0.0125957	2.71437	-0.0144334	
1	1.5	0	
0.819206	1.68714	-0.00250962	
0.722901	1.44636	-0.00513455	
0.646113	1.64882	-0.00781445	
0.18636	1.96162	-0.0278098	
0.01407	0.0871561	-0.0152063	
0.550012	0.291641	-0.0117079	
0	1.09087	0	
0.0120607	1.09396	-0.0141365	
0.215806	0.708295	-0.0266578	
0.841154	0.47116	-0.00203698	
0.73655	0.896359	-0.00470975	
0.266886	0.971227	-0.0242535	
0.386348	2.77668	-0.0185515	
0.368452	2.67855	-0.0193178	
0.496982	0.680113	-0.0139854	
0.506518	2.74094	-0.0135745	
0.478676	0.426337	-0.0147716	
0.513114	0.563781	-0.0132902	
0.471496	2.59045	-0.0150782	
0.67681	1.19947	-0.00668733	
0.368638	0.375985	-0.0193096	
0.360553	0.50628	-0.0196711	
1	3	0	
0.825978	2.74825	-0.0023587	
0.726937	3	-0.00500719	
0.602962	2.84231	-0.00950527	
0.652778	2.63213	-0.00756391	
1	2.69527	0	
0.858648	1.05291	-0.00169435	
0.0134095	2.30622	-0.0148679	
0.00796101	2.5165	-0.0114803	
0.822945	2.25078	-0.00242574	
0.826326	2.49672	-0.00235108	
1	2.39414	0	
1	1.20206	0	
0.00443226	0.161213	0.0158257	
0.0102907	0.457091	0.0225001	
0.0062346	0.508439	0.0181583	
0.00752991	0.626429	0.0196535	
0.00817349	0.735973	0.0203538	
0.00868675	0	0.0208948	
0.00337537	1.07995	0.0142601	
0.369134	0	0.0987606	
0.319318	0.0961782	0.0983317	
0.253681	0	0.0943939	
0.00587906	2.76553	0.0177244	
0.00769288	1.5791	0.0198333	
0.0060043	1.85195	0.0178786	
0.00923496	1.20219	0.0214573	
0.00712322	1.47409	0.0191973	
0.0067239	2.34188	0.0187379	
0.00715476	2.60869	0.019233	
0.590572	0.188677	0.0822621	
0.522192	0	0.0897745	
0.727061	0	0.0617343	
0.781794	0.723945	0.0515478	
0.352616	1.73766	0.0988496	
0.364981	1.63985	0.0988041	
0.479475	1.67017	0.0934478	
0.822367	2.55262	0.0432925	
0.824946	0.508336	0.0427476	
0.267859	1.6568	0.0955907	
0.4116	1.5384	0.0975337	
0.54838	1.49439	0.0871284	
0.0493576	1.55847	0.0470448	
0.0319578	1.58961	0.0380929	
0.0178226	1.56168	0.0288685	
0.0271727	2.64904	0.0352347	
0.016606	2.62635	0.0279368	
0.0469255	2.62886	0.0459013	
0.11356	1.33695	0.0699252	
0.141456	1.37641	0.0769659	
0.0848386	1.38466	0.0610943	
0.00910285	1.2527	0.0213231	
0.00798793	0.983472	0.0201545	
0.00840894	0.413434	0.0206038	
0.00591214	2.81065	0.0177653	
0.0529486	2.47701	0.048681	
0.0284561	2.4469	0.0360231	
0.0619831	2.4264	0.0525525	
0.00800439	2.7877	0.0201722	
0.0253194	2.80527	0.034065	
0.0376575	0.667824	0.0412428	
0.0522609	0.701196	0.0483723	
0.0203351	0.694226	0.0307053	
0.0656408	1.65427	0.0540311	
0.0415162	1.62194	0.0432448	
0.0688771	1.60583	0.0553007	
0.114588	1.60247	0.0702091	
0.111914	1.64781	0.069466	
0.0899745	1.9952	0.0628112	
0.128884	2.0225	0.0739583	
0.0745371	2.03362	0.0574402	
0.109042	2.07463	0.0686524	
0.0608155	2.0768	0.0520703	
0.0267189	0.947563	0.0349518	
0.00747115	0.929619	0.0195883	
0.0254188	0.910488	0.0341287	
0.0286861	0.871403	0.0361626	
0.0533466	0.89637	0.0488587	
0.0394034	1.20337	0.0421605	
0.0248857	1.22763	0.0337855	
0.0287824	0.378073	0.0362209	
0.00779713	0.359517	0.0199474	
0.026743	0.34723	0.0349669	
0.0226475	1.49798	0.0323062	
0.0252037	1.46594	0.0339906	
0.115943	1.10105	0.0705804	
0.0703249	1.09697	0.0558576	
0.0911374	1.0498	0.063191	
0.027733	0.502768	0.035581	
0.01521	0.534071	0.026829	
0.0873554	2.12075	0.0619439	
0.0523072	2.15333	0.0483931	
0.0501585	2.11305	0.047415	
0.104646	2.39881	0.0673751	
0.0551376	2.37319	0.0496498	
0.0329919	2.40868	0.0386833	
0.0658279	2.59699	0.0541054	
0.0880106	2.63777	0.0621625	
0.00860382	1.35598	0.0208084	
0.0264708	1.36875	0.0347962	
0.0117774	1.38552	0.0238909	
0.0410329	1.39034	0.0429993	
0.023209	0.566236	0.0326834	
0.0483343	0.58226	0.0465673	
0.0146669	0.597911	0.0263856	
0.0294193	0.615939	0.0366039	
0.0258877	0.296388	0.0344278	
0.0447643	0.322711	0.0448595	
0.0126096	0.326409	0.0246351	
0.024917	2.55134	0.0338058	
0.0443717	2.56863	0.0446676	
0.013296	2.58049	0.0252325	
0.0310128	2.60041	0.0375454	
0.0242191	1.14501	0.0333516	
0.0445177	1.1676	0.044739	
0.0114067	1.16983	0.0235519	
0.0232043	1.18601	0.0326803	
0.107582	3	0.0682326	
0.0619273	3	0.0525296	
0.0827416	2.94805	0.060374	
0.0103242	0.269888	0.0225324	
0.0247709	1.41448	0.0337112	
0.0405342	1.44187	0.0427443	
0.0118786	1.44313	0.0239826	
0.00906383	0.899462	0.0212834	
0.0619243	0.963276	0.0525283	
0.0440852	0.928977	0.0445269	
0.0718441	0.92333	0.0564347	
0.0808585	2.51236	0.0597172	
0.0469106	2.52697	0.0458942	
0.026545	2.50131	0.0348428	
0.0880143	0.764041	0.0621637	
0.120863	0.800543	0.0719001	
0.0674212	0.803478	0.0547339	
0.0831394	1.1451	0.0605115	
0.133032	1.16704	0.0749792	
0.0761063	1.18917	0.0580161	
0.122265	1.51145	0.072268	
0.15251	1.55655	0.0794047	
0.0926344	1.56172	0.063675	
0.125497	2.76936	0.0731028	
0.166638	2.79656	0.0822619	
0.107153	2.82353	0.0681086	
0.253882	3	0.0944123	
0.169423	3	0.0827923	
0.22723	2.92185	0.091613	
0.305025	1.57716	0.0978136	
0.0266775	2.12543	0.0349259	
0.0527243	1.05366	0.0485805	
0.0571573	1.00897	0.0505257	
0.0762417	0.671079	0.0580655	
0.0927982	0.717077	0.0637277	
0.0535463	0.740116	0.0489476	
0.0275097	0.722215	0.0354434	
0.0923989	0.187612	0.0635992	
0.0522252	0.152902	0.0483562	
0.0926446	0.128696	0.0636783	
0.218216	1.26562	0.0904948	
0.21757	1.36877	0.0904112	
0.167965	1.32783	0.0825159	
0.0256527	1.89241	0.0342782	
0.0574397	1.88727	0.0506468	
0.047054	1.92097	0.0459625	
0.1102	0.494592	0.0689826	
0.0915528	0.434792	0.0633258	
0.137448	0.427074	0.0760347	
0.0985247	0.382199	0.0655293	
0.0561093	2.66702	0.0500733	
0.0584085	2.70996	0.0510599	
0.030112	2.68862	0.037016	
0.061343	0.397692	0.0522888	
0.0561432	0.358023	0.050088	
0.0913411	0.33076	0.0632572	
0.151643	1.04094	0.0792202	
0.0524716	1.31282	0.0484671	
0.0723646	1.34147	0.0566308	
0.0349542	1.34292	0.0397798	
0.0522014	1.36647	0.0483454	
0.0312957	0.232154	0.0377101	
0.0592029	0.253008	0.0513959	
0.0321467	0.26465	0.0382014	
0.00598846	0.804198	0.0178591	
0.0139368	0.78135	0.0257778	
0.0286355	0.808453	0.036132	
0.101026	2.68637	0.0662934	
0.151493	0.73899	0.079188	
0.0944557	0.278289	0.0642569	
0.0582918	0.292244	0.0510103	
0.0190465	1.53377	0.029777	
0.0577343	2.80284	0.0507728	
0.0344677	2.83637	0.0395107	
0.201625	1.47533	0.0881977	
0.28568	1.40697	0.096818	
0.415427	1.38905	0.0973638	
0.305818	1.48806	0.0978471	
0.0631477	0.866243	0.0530285	
0.0185268	2.71342	0.0293945	
0.00777066	2.69009	0.0199185	
0.164778	2.06601	0.0819016	
0.199284	1.99291	0.0878479	
0.0244786	1.05278	0.0335212	
0.0372014	1.08903	0.0409996	
0.0479716	0.836281	0.0463968	
0.0932129	0.840569	0.0638607	
0.131774	0.302256	0.0746726	
0.139827	0.236578	0.0765904	
0.090904	0.235636	0.063115	
0.154853	0.360739	0.0798983	
0.0323266	2.21578	0.0383045	
0.0592613	2.23468	0.0514205	
0.0267894	2.24958	0.0349959	
0.0381662	2.04652	0.0415123	
0.0115751	1.67661	0.0237064	
0.0113572	1.6504	0.0235062	
0.0365838	1.67215	0.040668	
0.0322789	1.64511	0.0382772	
0.098076	2.35264	0.0653908	
0.0666333	2.33323	0.0544242	
0.110419	2.30947	0.0690447	
0.00869141	3	0.0208997	
0.0130634	2.97907	0.0250317	
0.0298243	3	0.0368454	
0.0167574	0.147211	0.0280544	
0.0259613	0.124802	0.0344745	
0.0474781	1.12913	0.0461638	
0.210569	0.426165	0.0894753	
0.16843	0.480529	0.0826043	
0.233438	0.359354	0.0923318	
0.192365	0.293333	0.0867756	
0.295443	0.292632	0.0973634	
0.635558	1.62528	0.0762853	
0.136853	1.82924	0.0758943	
0.104224	1.87241	0.0672505	
0.0851479	1.82657	0.0611996	
0.0112647	2.42342	0.0234206	
0.0100201	2.39724	0.0222375	
0.0887497	2.77912	0.0624077	
0.0994896	2.73258	0.0658256	
0.0614389	2.75544	0.0523284	
0.0248016	2.38011	0.0337311	
0.0213452	2.35688	0.0314144	
0.206117	1.82642	0.0888509	
0.303795	1.82284	0.0977605	
0.24797	1.90836	0.0938548	
0.341263	1.91048	0.0987792	
0.216049	2.69025	0.0902126	
0.157808	2.72274	0.0805094	
0.148757	2.65221	0.0785973	
0.0470081	0.185697	0.0459407	
0.0583418	0.215555	0.0510316	
0.0256623	0.203939	0.0342844	
0.208409	0.218303	0.0891752	
0.0452616	1.83037	0.0451015	
0.0565662	1.79215	0.0502711	
0.0176451	1.83334	0.0287344	
0.0275511	1.86213	0.0354689	
0.0660822	2.8477	0.0542063	
0.0966798	2.88667	0.064957	
0.0549315	0.632087	0.0495595	
0.0970665	0.635431	0.0650776	
0.128442	0.677629	0.0738477	
0.00886197	2.31419	0.0210763	
0.00623662	2.55229	0.0181607	
0.0299593	2.77117	0.0369256	
0.0125963	2.7428	0.0246234	
0.0364717	2.73677	0.0406075	
0.102114	0.945419	0.0666213	
0.159412	1.42354	0.0808358	
0.122345	1.46233	0.0722889	
0.0193746	0.17475	0.030016	
0.231907	2.76301	0.0921583	
0.151122	2.8656	0.0791086	
0.0995894	0.997675	0.0658562	
0.0972575	1.68694	0.065137	
0.154604	1.70168	0.0798462	
0.0998587	1.73113	0.0659385	
0.0610654	1.70082	0.0521739	
0.0607891	2.91239	0.0520594	
0.0985534	0.888221	0.0655382	
0.0722984	1.76046	0.0566059	
0.0464435	1.74307	0.0456711	
0.0264503	1.77719	0.0347833	
0.580581	1.77433	0.0834802	
0.099789	1.25736	0.0659172	
0.142333	1.28544	0.0771661	
0.0902414	1.30007	0.0628987	
0.00440494	1.62493	0.0157874	
0.00812368	1.60068	0.0203005	
0.0229251	1.31885	0.0324932	
0.154851	0.859799	0.0798979	
0.188221	0.922593	0.0861055	
0.134884	0.91375	0.0754257	
0.148001	0.972817	0.0784322	
0.0197185	0.476504	0.0302646	
0.0391994	0.467417	0.0420544	
0.310213	1.30356	0.0980227	
0.139478	2.93489	0.0765094	
0.224084	1.56192	0.0912328	
0.2488	0.865204	0.0939353	
0.369357	0.900776	0.0987579	
0.262715	0.941573	0.0951794	
0.215392	1.00042	0.0901259	
0.0184317	0.839846	0.0293241	
0.128578	1.9647	0.0738818	
0.155491	2.59072	0.0800313	
0.109002	2.59247	0.068641	
0.136502	2.52109	0.0758114	
0.081703	2.55519	0.0600129	
0.110757	1.41674	0.0691402	
0.571232	1.31292	0.0845834	
0.236738	2.85262	0.092697	
0.30321	2.68156	0.0977347	
0.00786892	2.91204	0.0200255	
0.00468869	2.93874	0.0161801	
0.0199954	0.644922	0.0304632	
0.0896199	0.593545	0.0626948	
0.0756327	1.95459	0.0578431	
0.0554618	1.99105	0.0497916	
0.0409956	1.95655	0.0429803	
0.0327615	2.8699	0.0385525	
0.0837135	0.545664	0.0607093	
0.0265676	1.9874	0.034857	
0.0422287	2.96926	0.0436043	
0.0414191	2.93663	0.0431956	
0.0183531	2.92868	0.0292656	
0.0302679	2.90345	0.0371082	
0.0564393	2.88275	0.0502162	
0.0440999	0.776386	0.0445342	
0.10094	1.78385	0.0662673	
0.156149	1.76645	0.0801678	
0.0997832	2.16926	0.0659154	
0.0607274	1.23315	0.0520337	
0.0193685	1.62057	0.0300116	
0.0407279	1.52122	0.0428436	
0.0505761	1.48246	0.0476068	
0.0726489	1.52342	0.0567375	
0.159501	2.35424	0.0808539	
0.052773	0.434076	0.0486024	
0.0242603	0.435714	0.0333786	
0.0311765	0.407965	0.0376407	
0.0538966	1.41319	0.0491031	
0.0565005	1.27509	0.0502427	
0.0243025	1.27227	0.0334062	
0.0333254	1.25184	0.0388718	
0.233865	0.736385	0.0923796	
0.181717	0.803941	0.0850105	
0.0508943	0.114231	0.0477524	
0.174902	1.627	0.0838053	
0.0247409	1.00087	0.0336917	
0.0317033	0.977726	0.0379462	
0.442819	1.83471	0.0959324	
0.0124194	2.16484	0.024467	
0.0228498	2.14851	0.0324426	
0.0312314	2.18363	0.0376727	
0.167244	1.10907	0.082378	
0.238462	1.08398	0.0928833	
0.203174	1.17183	0.0884257	
0.0764781	1.43996	0.0581515	
0.0292897	1.02586	0.0365263	
0.00816694	2.11282	0.0203468	
0.0065373	2.14028	0.0185191	
0.10205	1.21612	0.0666021	
0.154192	1.22767	0.0797599	
0.0963493	1.91659	0.0648537	
0.0284344	1.29487	0.0360099	
0.0182773	1.93592	0.0292092	
0.0623064	1.85681	0.0526851	
0.0252953	0.753536	0.0340495	
0.0110156	0.673209	0.0231887	
0.422546	0.314987	0.0970279	
0.566983	0.373606	0.085073	
0.0156949	2.52622	0.0272188	
0.108861	2.22017	0.0686005	
0.0926687	2.26547	0.063686	
0.0488643	2.26881	0.0468153	
0.0713327	0.466802	0.0562412	
0.0830006	1.48385	0.0604636	
0.0109155	2.20183	0.0230949	
0.145896	0.16758	0.0779678	
0.288843	1.18918	0.0970044	
0.781622	1.7293	0.0515816	
0.240244	1.74627	0.0930725	
0.00508411	0.434901	0.0167104	
0.302488	2.80646	0.0977025	
0.00411141	2.96089	0.0153694	
0.238422	2.31659	0.092879	
0.223863	2.40028	0.0912057	
0.164526	1.90409	0.0818524	
0.0137525	1.09288	0.0256222	
0.013853	1.07067	0.0257072	
0.0176495	0.0305307	0.0287377	
0.0298042	0	0.0368335	
0.0503721	0.0346027	0.0475132	
0.0142599	1.72507	0.0260486	
0.0143234	1.75271	0.0261014	
0.00752954	0.712468	0.0196531	
0.0102078	2.88595	0.02242	
0.0109394	1.90987	0.0231173	
0.433959	1.97107	0.0964361	
0.0612651	2.29955	0.0522566	
0.162731	2.2695	0.0814998	
0.0189585	1.11711	0.0297126	
0.0257452	2.07198	0.0343371	
0.0117493	2.05182	0.0238653	
0.0148811	2.01957	0.0265613	
0.0320403	2.3286	0.0381403	
0.0251109	2.2882	0.0339309	
0.00876829	0.958887	0.0209795	
0.0442933	0.538421	0.0446291	
0.01497	1.96221	0.026634	
0.00904075	0.388695	0.0212598	
0.00898408	0.218283	0.0212018	
0.0107764	1.33574	0.0229638	
0.0148958	2.66834	0.0265733	
0.00576654	1.41348	0.0175847	
0.0402949	2.0174	0.0426215	
0.0618904	0	0.0525144	
0.031652	0.0591457	0.0379166	
0.00589133	0.297332	0.0177396	
0.0259752	0.0914027	0.0344833	
0.0616404	0.0788162	0.0524115	
0.0063105	0.0881505	0.0182495	
0.0102857	0.062043	0.0224953	
0.0919465	0.043689	0.0634533	
0.0270772	1.80642	0.0351754	