<VTKFile type="UnstructuredGrid" version="0.1" byte_order="LittleEndian">
	<UnstructuredGrid>
		<Piece NumberOfPoints="2503" NumberOfCells="4824">
			<CellData Scalars="scalars">
				<DataArray type="Float64" Name="Doublet Strengths" NumberOfComponents="1" Format="ascii">
0.0780616	
0.077128	
0.076702	
0.0766962	
0.0784952	
0.0774146	
0.0767323	
0.0784081	
0.0751715	
0.077366	
0.0758238	
0.075244	
0.0752355	
0.0542663	
0.07485	
0.0616989	
0.034696	
0.0562617	
0.0477667	
0.071341	
0.0698719	
0.106692	
0.117538	
0.104211	
0.100307	
0.0300583	
0.0469833	
0.109263	
0.101653	
0.102567	
0.0746211	
0.0774876	
0.0774697	
0.0690927	
0.0778621	
0.0850996	
0.0628566	
0.0848482	
0.0810314	
0.0771354	
0.0571167	
0.0896191	
0.0892255	
0.0741645	
0.0759176	
0.079727	
0.0896183	
0.0831139	
0.0834221	
0.0846003	
0.0844479	
0.0788883	
0.0825552	
0.0806447	
0.0838371	
0.0770522	
0.0769943	
0.0864218	
0.0355852	
0.0888608	
0.0887628	
0.0901906	
0.086652	
0.0890508	
0.0688461	
0.0752284	
0.0877916	
0.0894865	
0.0728576	
0.0755979	
0.0731898	
0.0752262	
0.0827295	
0.0830832	
0.0836926	
0.068292	
0.0717919	
0.0671146	
0.0665676	
0.0848946	
0.0890853	
0.0878018	
0.0842642	
0.078845	
0.0836651	
0.0835475	
0.0840307	
0.0715089	
0.0706805	
0.0924738	
0.0689969	
0.0702808	
0.096686	
0.0754227	
0.0828196	
0.0888064	
0.0838546	
0.0870338	
0.0796473	
0.0850816	
0.0852342	
0.0961447	
0.0919046	
0.0933794	
0.0924742	
0.0783746	
0.0792179	
0.0607751	
0.0829351	
0.0349281	
0.0811887	
0.0862478	
0.0778094	
0.0781058	
0.0913897	
0.0858299	
0.0643602	
0.076383	
0.081604	
0.0817947	
0.0810497	
0.0890582	
0.0782413	
0.0992536	
0.0984866	
0.0971811	
0.0814456	
0.0903699	
0.083097	
0.0835333	
0.095392	
0.0729231	
0.0852179	
0.0803347	
0.0737355	
0.0825744	
0.0981093	
0.101742	
0.0907967	
0.0856364	
0.0793287	
0.0486498	
0.0738029	
0.0617457	
0.0628273	
0.0735189	
0.063611	
0.0854794	
0.083527	
0.0843382	
0.0843549	
0.0843612	
0.0842622	
0.102383	
0.0537396	
0.0877905	
0.0729183	
0.0858039	
0.0896015	
0.0954715	
0.0614274	
0.080054	
0.0635804	
0.0628454	
0.0620461	
0.0784108	
0.0762816	
0.0769836	
0.092554	
0.0935826	
0.110164	
0.0800661	
0.0837976	
0.0761383	
0.0635727	
0.0635173	
0.0679199	
0.0665533	
0.0799825	
0.0823958	
0.0936241	
0.092865	
0.0904356	
0.0901278	
0.0845798	
0.0830558	
0.0904883	
0.0914874	
0.0670942	
0.0846773	
0.0874796	
0.105213	
0.0872613	
0.086626	
0.0916285	
0.0903826	
0.0889185	
0.0771479	
0.082649	
0.0836339	
0.0818451	
0.0851782	
0.0847133	
0.0830542	
0.097147	
0.0814034	
0.0821265	
0.0808569	
0.0602823	
0.0989524	
0.10259	
0.0879915	
0.0875913	
0.0866758	
0.0799995	
0.0806178	
0.0795176	
0.0803152	
0.0818765	
0.102865	
0.102088	
0.0716512	
0.0917598	
0.086577	
0.0849801	
0.0770649	
0.0793775	
0.0770647	
0.0783059	
0.0834118	
0.0827624	
0.0827747	
0.0858719	
0.077554	
0.0778388	
0.0882853	
0.057434	
0.0561041	
0.0964558	
0.0754384	
0.0796158	
0.0942519	
0.0934222	
0.0765024	
0.0764786	
0.0820893	
0.0814053	
0.110042	
0.0789599	
0.0785355	
0.0799735	
0.0789999	
0.0695731	
0.086454	
0.0889406	
0.087607	
0.0817211	
0.0954559	
0.0977573	
0.0723048	
0.0716866	
0.0892073	
0.0769206	
0.0901523	
0.0920398	
0.0919239	
0.0801076	
0.0792764	
0.0734597	
0.0733997	
0.0738304	
0.0743917	
0.0885838	
0.0910779	
0.084761	
0.0857845	
0.0677333	
0.0770261	
0.0936055	
0.0957143	
0.101348	
0.0918285	
0.0869676	
0.0856628	
0.0848036	
0.0990263	
0.0878012	
0.087635	
0.0811775	
0.0806964	
0.0804417	
0.0819777	
0.0735648	
0.0730347	
0.0717193	
0.0847243	
0.0833851	
0.085593	
0.0871746	
0.0883085	
0.0876271	
0.0819573	
0.0815251	
0.0807962	
0.0957557	
0.0821619	
0.0896291	
0.0890478	
0.0948864	
0.0918528	
0.103932	
0.0774778	
0.110425	
0.111738	
0.0779948	
0.0779772	
0.0920217	
0.0882386	
0.0869083	
0.0856069	
0.0838706	
0.0871349	
0.0856178	
0.0525982	
0.0392671	
0.0427944	
0.0389741	
0.0958886	
0.0743783	
0.0754212	
0.0740496	
0.0746511	
0.086947	
0.0865481	
0.0819099	
0.0772827	
0.0820326	
0.0819811	
0.0894512	
0.081312	
0.0770471	
0.0904407	
0.0907368	
0.0863212	
0.0481952	
0.0913356	
0.0928716	
0.0944441	
0.0733709	
0.0755877	
0.0651065	
0.088853	
0.0911874	
0.0906424	
0.0930736	
0.0830494	
0.082326	
0.0816931	
0.0873765	
0.0580791	
0.0555267	
0.0581091	
0.0806105	
0.0819482	
0.0768087	
0.0760015	
0.075356	
0.0759803	
0.075502	
0.0728932	
0.0768605	
0.074827	
0.0754782	
0.0774023	
0.0841976	
0.0781728	
0.0841899	
0.0798014	
0.0807779	
0.0587619	
0.0604641	
0.0582908	
0.0610947	
0.0820079	
0.078139	
0.0740355	
0.0788983	
0.0795928	
0.0778426	
0.0790542	
0.0275011	
0.0851171	
0.0841101	
0.0900223	
0.0887588	
0.0886538	
0.0885432	
0.074134	
0.0879901	
0.0866452	
0.07787	
0.0786684	
0.0802072	
0.10034	
0.0965426	
0.0761272	
0.0764206	
0.0763518	
0.0787168	
0.0757264	
0.0784725	
0.0882234	
0.0880781	
0.0868496	
0.0773431	
0.0768866	
0.0815683	
0.083964	
0.0833149	
0.0797378	
0.066855	
0.0806324	
0.0787785	
0.0656083	
0.0640415	
0.0657288	
0.0645268	
0.0796889	
0.0765242	
0.0743171	
0.0770117	
0.0298769	
0.082839	
0.0831356	
0.0779679	
0.0738534	
0.096704	
0.0975672	
0.0817674	
0.112169	
0.0659815	
0.0796443	
0.0827632	
0.0841753	
0.0878841	
0.0424144	
0.0458698	
0.0823207	
0.0821603	
0.0722025	
0.0750739	
0.0747295	
0.0751284	
0.0750272	
0.0827382	
0.084293	
0.08535	
0.0779925	
0.0843487	
0.0797138	
0.0777323	
0.071993	
0.0716147	
0.0721117	
0.0717466	
0.0767584	
0.0707208	
0.090278	
0.091944	
0.0770907	
0.0779362	
0.0777246	
0.083035	
0.0821343	
0.0867126	
0.0878957	
0.0857806	
0.101447	
0.0974156	
0.0833672	
0.0816453	
0.0772444	
0.0816399	
0.0848385	
0.0827505	
0.0815599	
0.0838078	
0.0791083	
0.0781629	
0.0811471	
0.0823426	
0.0895106	
0.090842	
0.0571976	
0.0727487	
0.0732966	
0.0727129	
0.0903903	
0.0927242	
0.0877145	
0.0851727	
0.0863193	
0.0877069	
0.0873817	
0.0887472	
0.0819978	
0.0814529	
0.0831014	
0.0831621	
0.0839294	
0.0805556	
0.13896	
0.131076	
0.0900149	
0.0891841	
0.090074	
0.0574669	
0.0584662	
0.0821758	
0.0879998	
0.0870544	
0.0797661	
0.0759791	
0.0777559	
0.0651736	
0.0648899	
0.0721213	
0.0724551	
0.0723553	
0.0897222	
0.0838054	
0.0862863	
0.0835126	
0.085159	
0.0800028	
0.0811235	
0.0793737	
0.0808897	
0.0788859	
0.0831737	
0.077964	
0.0730651	
0.0772373	
0.0892907	
0.080148	
0.0766836	
0.0808617	
0.0782152	
0.075757	
0.0759774	
0.0757097	
0.0755544	
0.0790405	
0.0776293	
0.0853579	
0.138016	
0.0852618	
0.0844072	
0.0870685	
0.0868231	
0.0859457	
0.0917563	
0.0835357	
0.0809418	
0.0849052	
0.0880924	
0.0858693	
0.0873754	
0.0804404	
0.08304	
0.0532999	
0.0833166	
0.0822996	
0.0803943	
0.0839478	
0.0847539	
0.0770267	
0.079137	
0.0940254	
0.0938832	
0.0822333	
0.0735579	
0.0807611	
0.0798301	
0.0715005	
0.0704532	
0.0709685	
0.0820157	
0.082819	
0.0671145	
0.0785318	
0.0794247	
0.0809096	
0.0784418	
0.0610804	
0.0601246	
0.0838328	
0.0847595	
0.0805564	
0.0777092	
0.0730504	
0.0714996	
0.0782971	
0.076553	
0.0905891	
0.0895403	
0.0885879	
0.0787256	
0.0772082	
0.0517088	
0.0608298	
0.0896551	
0.0862252	
0.0903906	
0.0741761	
0.0743272	
0.0786325	
0.0802075	
0.081892	
0.0787952	
0.0765823	
0.0842097	
0.0771491	
0.0792141	
0.0756347	
0.0747975	
0.0856571	
0.0846384	
0.0845254	
0.0835915	
0.0563073	
0.0568546	
0.0746488	
0.0749673	
0.0783255	
0.0797569	
0.0799681	
0.0804985	
0.0788893	
0.0816021	
0.0810645	
0.0664846	
0.0658756	
0.0869872	
0.0863058	
0.089902	
0.0891571	
0.0811889	
0.101893	
0.101267	
0.0777457	
0.0848204	
0.0805297	
0.081599	
0.0800863	
0.0793662	
0.0812927	
0.0812622	
0.0819889	
0.0851908	
0.0828536	
0.106084	
0.069634	
0.0710492	
0.0784692	
0.0809507	
0.0821056	
0.0804316	
0.0820479	
0.0859945	
0.0865762	
0.0835796	
0.0772821	
0.0793298	
0.0859641	
0.0856816	
0.0772134	
0.0799704	
0.0834822	
0.0884042	
0.0727973	
0.085302	
0.0837309	
0.0844285	
0.0827326	
0.0774972	
0.0775738	
0.0317216	
0.0345301	
0.0871138	
0.0696483	
0.0866772	
0.0856539	
0.0859102	
0.0843778	
0.0851713	
0.0863848	
0.0883042	
0.0886591	
0.0791373	
0.0759286	
0.0875553	
0.086691	
0.0864281	
0.0855822	
0.0841873	
0.0854051	
0.0735731	
0.0758471	
0.0762747	
0.086638	
0.0620188	
0.0601529	
0.0593572	
0.0774437	
0.0820406	
0.079896	
0.0825356	
0.0877145	
0.0869003	
0.0942397	
0.0920947	
0.0743109	
0.0749305	
0.0853723	
0.0852625	
0.0777206	
0.0776744	
0.0849677	
0.0796	
0.0838526	
0.0902134	
0.0886903	
0.0699411	
0.0698507	
0.0714949	
0.0700382	
0.089619	
0.0756236	
0.0757183	
0.0747309	
0.0783844	
0.0787125	
0.0795135	
0.0407138	
0.0363885	
0.0683171	
0.0758243	
0.0794014	
0.0833034	
0.0506167	
0.0699729	
0.0812887	
0.078031	
0.071135	
0.0706185	
0.0961503	
0.0825712	
0.067683	
0.0656706	
0.0984411	
0.0962154	
0.126854	
0.117014	
0.0876009	
0.110501	
0.120496	
0.101819	
0.0714618	
0.131179	
0.0975419	
0.0960265	
0.0983561	
0.0812667	
0.0832225	
0.0832467	
0.056614	
0.0610589	
0.0572936	
0.0935542	
0.0927959	
0.0860667	
0.0856086	
0.0881487	
0.0865665	
0.0493299	
0.0919936	
0.090658	
0.0814463	
0.0824714	
0.0495927	
0.0503188	
0.109646	
0.113281	
0.0785388	
0.121551	
0.1093	
0.112668	
0.0838675	
0.0817044	
0.0777439	
0.124732	
0.085733	
0.085472	
0.0834179	
0.121251	
0.0500424	
0.0997895	
0.0837299	
0.0817406	
0.0883592	
0.0871903	
0.0761001	
0.0798316	
0.0815188	
0.15831	
0.0534979	
0.0517236	
0.10132	
0.101997	
0.0809093	
0.0823795	
0.0766888	
0.0808389	
0.0880682	
0.0853017	
0.08691	
0.0937775	
0.0921177	
0.106104	
0.111477	
0.0875262	
0.0880678	
0.0862966	
0.0816142	
0.0837832	
0.0818121	
0.0392455	
0.0441501	
0.0724615	
0.0712399	
0.0725864	
0.0723527	
0.0741118	
0.0924247	
0.0937339	
0.106005	
0.0808798	
0.0834557	
0.108595	
0.0667401	
0.0692321	
0.0673591	
0.0924488	
0.0912675	
0.0607191	
0.0613012	
0.0830907	
0.0835503	
0.0840208	
0.0844063	
0.092762	
0.0680567	
0.0666969	
0.0593021	
0.0594041	
0.0634416	
0.0623911	
0.0643683	
0.145863	
0.0339219	
0.0921503	
0.0899074	
0.0947109	
0.101221	
0.103107	
0.0802885	
0.0796048	
0.0818388	
0.0810338	
0.0710405	
0.0717348	
0.0721847	
0.0698545	
0.0711878	
0.098098	
0.0971003	
0.0770521	
0.0793729	
0.0768199	
0.0775192	
0.0471033	
0.0478756	
0.0630388	
0.0796774	
0.0795378	
0.079058	
0.0461833	
0.0452742	
0.0975625	
0.101158	
0.0932096	
0.0465653	
0.0720485	
0.0749086	
0.0738495	
0.0743802	
0.0862082	
0.0875693	
0.104413	
0.0922224	
0.0940159	
0.0938949	
0.0951628	
0.0807219	
0.079435	
0.0807574	
0.0794162	
0.151405	
0.150935	
0.133843	
0.0642091	
0.0703267	
0.0703513	
0.0868554	
0.0856949	
0.0813873	
0.121925	
0.115478	
0.123407	
0.127948	
0.107142	
0.111734	
0.0940799	
0.08953	
0.107035	
0.0860119	
0.0853042	
0.042446	
0.0470217	
0.0693477	
0.0706414	
0.0687428	
0.138529	
0.099713	
0.0843678	
0.0513753	
0.0549538	
0.132596	
0.16161	
0.150627	
0.152288	
0.140442	
0.0862539	
0.0858217	
0.0957641	
0.098112	
0.0688971	
0.0702885	
0.08758	
0.0864017	
0.0326815	
0.0388673	
0.0546739	
0.1052	
0.111111	
0.0900447	
0.0892705	
0.0942735	
0.0790702	
0.0801887	
0.0802796	
0.0913913	
0.0909334	
0.119038	
0.083577	
0.0772216	
0.0819305	
0.0458633	
0.0402064	
0.112283	
0.11521	
0.0825647	
0.0766864	
0.0811198	
0.0862162	
0.103505	
0.108489	
0.0701661	
0.071754	
0.072195	
0.0682702	
0.113989	
0.114869	
0.07769	
0.0773641	
0.0740054	
0.0867492	
0.0829151	
0.0596026	
0.0559597	
0.102793	
0.12409	
0.124545	
0.0968405	
0.0903027	
0.0890435	
0.065275	
0.0420801	
0.0456538	
0.0597621	
0.0587969	
0.1208	
0.119517	
0.0823277	
0.0828637	
0.0934992	
0.0935418	
0.0936738	
0.0927603	
0.0535555	
0.0512534	
0.0957711	
0.0962298	
0.0783387	
0.0783691	
0.0797003	
0.0797593	
0.069602	
0.0718197	
0.0714327	
0.0688456	
0.081551	
0.0809778	
0.030814	
0.131751	
0.154937	
0.131518	
0.14089	
0.136302	
0.134744	
0.0711932	
0.0697658	
0.0667229	
0.0398544	
0.0428757	
0.127815	
0.102609	
0.103571	
0.0689676	
0.0683358	
0.0677958	
0.0673958	
0.0788137	
0.0547551	
0.139882	
0.148434	
0.141995	
0.158131	
0.119972	
0.12633	
0.136222	
0.138871	
0.124238	
0.0700635	
0.0694537	
0.0984979	
0.0983738	
0.0771924	
0.0776448	
0.068659	
0.0680023	
0.0601161	
0.058078	
0.092483	
0.0924141	
0.0342558	
0.0644412	
0.0633465	
0.0647787	
0.0773986	
0.0831707	
0.0816288	
0.0529762	
0.0488388	
0.10612	
0.106093	
0.0793739	
0.110966	
0.113027	
0.0530702	
0.077198	
0.0817286	
0.0791195	
0.0810261	
0.0764165	
0.113885	
0.0839688	
0.0861881	
0.104017	
0.088479	
0.0714954	
0.0780508	
0.102357	
0.0645847	
0.0659313	
0.0655383	
0.0542451	
0.0651371	
0.0695781	
0.0655767	
0.0627993	
0.0622053	
0.064514	
0.126512	
0.118833	
0.111294	
0.0633524	
0.0655902	
0.0789991	
0.0830063	
0.0827179	
0.0582536	
0.0623619	
0.0637517	
0.0632849	
0.0754692	
0.075296	
0.117306	
0.116694	
0.0554264	
0.0791696	
0.0787698	
0.0366083	
0.0415287	
0.12255	
0.120973	
0.0826387	
0.0804816	
0.0793665	
0.0811485	
0.0527841	
0.0836348	
0.0831786	
0.081943	
0.078252	
0.07666	
0.0751862	
0.0732822	
0.0730644	
0.0728004	
0.0741936	
0.0732407	
0.0651125	
0.0756732	
0.0750785	
0.0656481	
0.0640136	
0.0739824	
0.0855503	
0.0691257	
0.0667835	
0.0683166	
0.0691559	
0.0943791	
0.068647	
0.0693368	
0.0683661	
0.0690596	
0.0686679	
0.0694538	
0.0604254	
0.0683235	
0.0668447	
0.0680413	
0.0684791	
0.0687641	
0.0687006	
0.0687554	
0.0636703	
0.0691337	
-0.0458805	
-0.0621364	
-0.14214	
-0.080618	
0.0481174	
0.0149276	
0.0690336	
0.0692969	
0.0589087	
0.0421418	
0.0508211	
0.0423537	
0.0317984	
0.0203703	
0.0160748	
0.0256803	
0.0517941	
0.0411823	
0.0559273	
0.0507837	
0.0533285	
0.0127173	
0.0537069	
0.0327146	
0.0444006	
0.0319767	
0.0344566	
-0.000160056	
0.0484909	
0.0545692	
0.0523247	
0.0446305	
0.0538495	
0.0460536	
0.0541741	
0.0488747	
0.0548396	
0.0477592	
0.0210574	
0.068662	
0.0491467	
0.055561	
0.0490473	
0.0551298	
0.0507507	
0.0301003	
0.0359586	
0.0450128	
0.0122647	
0.0139569	
0.0104323	
0.00438023	
0.00307	
0.00272745	
0.011671	
0.00333051	
-0.00352135	
-0.0753741	
0.0419461	
0.0414362	
0.024941	
0.0229769	
0.0299867	
0.040652	
0.0364877	
0.0158582	
-0.0356153	
0.0408422	
0.0270642	
0.0037436	
0.00243287	
0.041779	
0.0433582	
0.0303212	
0.0214942	
0.0169228	
-0.0243847	
0.0333869	
0.0332718	
0.0379508	
0.0540309	
0.0654954	
0.029443	
0.0332721	
-0.052476	
0.0143313	
0.0218317	
0.0470353	
0.0431935	
-0.0493583	
-0.0908426	
-0.089044	
0.034601	
0.0537424	
-0.103246	
-0.00641244	
0.0322383	
0.0404732	
0.0240232	
0.034739	
-0.189195	
-0.020895	
-0.0153191	
-0.00259778	
-0.0184949	
0.00478803	
-0.00358357	
0.041331	
0.0445122	
0.03597	
0.0377927	
0.0233175	
0.0337938	
0.0422736	
0.0253863	
0.0167935	
-0.0220834	
-0.0470252	
-0.0626579	
0.0101975	
0.0546746	
0.0521206	
0.0640281	
0.0323347	
0.0288417	
0.043086	
-0.0651038	
-0.0490586	
0.0335015	
0.0314581	
0.052199	
0.0412295	
0.0394236	
0.0254442	
-0.0485317	
-0.0316457	
-0.0169647	
0.0308808	
0.0288333	
0.0370697	
0.0387163	
0.043425	
0.0384654	
0.0265373	
0.0305978	
0.0158261	
0.035923	
-0.059939	
0.00586769	
0.0197154	
0.0582243	
0.0654433	
0.0657301	
0.062444	
0.0399384	
0.0428973	
0.0494172	
0.0473754	
0.0188952	
-0.00341661	
0.0448774	
0.0370664	
0.0258248	
0.0565644	
0.000285695	
-0.00567823	
0.0121917	
0.00174298	
0.0175109	
-0.00921589	
0.0237642	
0.0276284	
0.0196182	
0.0285205	
0.0200684	
0.0332085	
0.0209908	
0.0410008	
0.0332413	
-0.0341132	
0.00301705	
0.0140115	
-0.0204912	
0.0664129	
-0.0084169	
-0.00530511	
0.0418851	
-0.00460552	
-0.0192504	
0.0218603	
0.0148227	
0.0451849	
0.0177492	
0.0106606	
-0.0147086	
-0.0839096	
-0.0515497	
-0.0461471	
-0.00230216	
0.0353913	
0.0177618	
0.00919979	
0.00221777	
-0.0107246	
0.0332176	
0.0390275	
0.0147258	
0.0340456	
0.0489911	
0.0415549	
-0.0227488	
-0.00634694	
-0.00850535	
0.00429758	
-0.145416	
-0.0177369	
0.0514493	
-0.0369504	
-0.0316354	
-0.0273354	
0.0412286	
0.0296317	
0.0188018	
-0.030836	
-0.0242318	
0.0274145	
0.0285207	
0.0345431	
0.0402756	
0.0242998	
0.0461929	
0.042738	
0.0276616	
0.0430027	
0.0376747	
0.0372982	
-0.0962008	
0.0352832	
0.00313771	
-0.000338513	
0.0103105	
0.0456701	
-0.00884212	
0.00480341	
0.0206229	
0.00703876	
-0.00384506	
0.040115	
-0.0542283	
-0.0827239	
0.0323634	
0.052684	
0.058799	
0.053007	
0.0533521	
0.0308073	
0.0404364	
0.031005	
0.0378642	
0.0409804	
0.028089	
0.0372887	
0.046106	
0.0255649	
0.0369079	
0.0433179	
0.0472578	
0.0332154	
0.041417	
0.0655053	
0.0123046	
-0.131032	
0.0404865	
0.0513929	
0.0408689	
0.034204	
0.0382671	
0.00345105	
0.0299568	
0.0404247	
0.0403393	
0.0482855	
-0.0957777	
-0.0896977	
0.0239143	
0.0261876	
0.0410026	
0.034628	
0.0400152	
0.0341201	
0.0400331	
-0.0296536	
-0.0144656	
-0.0151397	
-0.0110853	
-0.00546924	
0.00113248	
0.000961075	
0.0161986	
-0.00243414	
0.0133136	
0.0404626	
0.0339192	
0.0390546	
-0.116482	
0.0490676	
0.0455657	
-0.011737	
-0.00885445	
-0.0217279	
-0.00604878	
0.0162399	
0.00172485	
0.0407049	
0.032501	
0.0488817	
0.0418398	
0.0408617	
0.0417843	
0.0360461	
-0.0354493	
-0.0444502	
-0.0564531	
0.0444522	
0.0400624	
0.0299573	
0.000686233	
-0.0296112	
-0.0181112	
0.0566686	
0.0160523	
0.0193917	
0.000855635	
0.00798362	
0.0103559	
0.0258247	
0.0082898	
0.0419088	
0.0429027	
0.0372193	
0.035286	
0.0451483	
-0.0818503	
0.0256024	
0.0214988	
0.0303382	
-0.0378929	
0.0244745	
-0.0512473	
0.016158	
0.0149781	
0.0488844	
0.0690098	
-0.0393542	
0.049462	
0.049913	
-0.00411221	
-0.0636226	
0.00429624	
0.0241874	
0.0301392	
0.00488891	
0.0250456	
0.0422334	
0.0257398	
0.0221317	
0.0131228	
0.0309938	
0.0179939	
0.0527195	
0.0456988	
-0.0580198	
0.0328135	
0.0147848	
0.0249572	
0.0133151	
-0.0248204	
0.0151491	
0.052099	
0.000813502	
0.043796	
0.0437872	
-0.0196984	
-0.0377328	
-0.0520759	
-0.0553158	
-0.0693098	
-0.0493833	
0.0667401	
0.055858	
0.0562755	
-0.0294767	
-0.0232424	
-0.00477824	
-0.0319441	
0.0384461	
0.0249824	
0.0461873	
0.0457032	
0.0269954	
0.0190166	
0.048433	
0.0673559	
0.065504	
0.0673443	
0.0532556	
0.0600051	
-0.0298666	
0.0239954	
0.0223389	
0.0230679	
0.0188032	
0.0235188	
0.0161161	
0.0641464	
0.0586612	
0.05026	
0.0482236	
0.0645507	
0.0524229	
0.0663163	
0.0699081	
0.058338	
0.0482833	
0.0499605	
0.0548147	
0.0477697	
0.0459906	
0.0635743	
0.0498525	
0.0487474	
0.0241523	
0.0221055	
-0.100298	
0.0139765	
0.00756051	
0.0261877	
0.0387571	
0.0428642	
0.0505001	
0.0504132	
0.0505397	
0.052287	
0.0505422	
0.05932	
0.0335691	
0.0251847	
0.0373909	
0.0316378	
0.0303549	
0.0473371	
0.0462378	
0.0502746	
0.0508704	
0.0143413	
0.0178984	
0.0451334	
0.0465562	
0.0453125	
0.0569171	
0.0492815	
0.0503333	
0.0395593	
0.0483972	
0.049031	
0.0484852	
0.0539859	
0.0544899	
0.0460047	
0.056748	
0.0526448	
0.0495277	
0.0505266	
0.0515692	
0.041174	
0.032524	
0.0500563	
0.00079521	
-0.0646344	
0.0535566	
0.0507751	
0.0452864	
0.0511188	
0.0505567	
0.0689973	
0.0558156	
0.065666	
0.0384714	
0.0442025	
0.0441332	
0.0490613	
0.0667517	
-0.0253566	
0.0594567	
0.0600377	
-0.00812745	
0.00162266	
-0.0242107	
-0.0288117	
-0.0163929	
0.0458507	
0.0577192	
0.0458823	
0.0582344	
0.0168622	
0.0251576	
0.0660316	
0.0686098	
0.00955198	
0.0259836	
0.0148539	
0.0316329	
0.0447479	
0.0353178	
0.0695843	
0.0550008	
0.0658676	
0.0627032	
0.0547998	
0.0644433	
0.0692729	
0.0249522	
0.0688168	
0.0558681	
0.0691102	
0.0466525	
0.0502048	
0.0564949	
0.0688085	
0.0482915	
0.0458503	
-0.0280623	
0.00334058	
0.0661623	
0.0657374	
0.0512142	
0.0656607	
0.054789	
0.0686965	
0.054813	
0.0644447	
0.069224	
0.068913	
0.0433438	
0.0404386	
0.0472732	
0.0630027	
0.0683905	
0.0680432	
0.0679373	
0.0577132	
0.0565444	
0.0655097	
0.0675408	
0.0682859	
0.0529524	
-0.00488672	
-0.0198375	
-0.0063431	
0.0532416	
0.0668987	
0.067009	
0.0548573	
0.0671627	
0.0648788	
0.0547273	
0.0690602	
0.054655	
0.0656235	
0.0696748	
0.013056	
0.0222181	
-0.00520269	
0.0158193	
-0.0647265	
-0.056869	
0.0555582	
0.0527842	
0.0556005	
0.0656671	
0.0689575	
0.0513235	
0.0524142	
0.039784	
0.0626359	
0.0614488	
0.052802	
0.0450349	
0.0377008	
0.0527179	
0.0638231	
0.0686656	
0.0671165	
0.0526052	
0.0293626	
0.0369058	
0.036056	
0.039656	
0.043206	
0.0543672	
0.0638985	
0.0684532	
0.0663967	
0.0688987	
0.00388968	
0.0218123	
0.0324252	
0.0494408	
0.0688858	
0.0286548	
0.0404106	
0.046058	
0.0652004	
0.0317491	
0.0275127	
0.0659159	
0.068674	
0.0648891	
0.0551682	
0.0553217	
0.0457577	
0.0514508	
0.0487623	
0.0522543	
0.0469015	
0.0535183	
0.0677907	
0.0646284	
0.056165	
0.0514056	
0.0518424	
0.0390208	
0.0391708	
0.06506	
0.0686401	
0.0545173	
0.0691322	
0.0492224	
0.0662523	
0.0666599	
0.0692938	
-0.0223485	
0.0174852	
-0.0936664	
-0.0902696	
0.0542031	
0.0659447	
0.0535349	
0.0485705	
0.0522834	
0.055004	
0.066012	
0.0539013	
0.0679024	
0.0570511	
0.0661253	
0.0690392	
0.0634963	
0.066042	
0.0688424	
0.0642933	
0.0685189	
0.0654714	
0.0659659	
0.0687555	
0.0681602	
0.0656844	
0.0178309	
0.0423397	
0.0378512	
0.0563825	
0.064997	
0.0672212	
0.0319542	
0.0331079	
0.0450146	
0.0492768	
0.0647045	
0.0568131	
0.0687166	
0.0546442	
-0.00470495	
0.00360641	
0.0665427	
0.0526775	
0.0478501	
0.064338	
0.0650497	
0.0650148	
0.0675604	
0.0681539	
0.0655093	
0.0693153	
0.0662594	
0.0300332	
0.0390545	
0.0421525	
0.049507	
0.0531689	
0.054886	
0.0532757	
0.0538764	
0.0454558	
0.0406725	
0.0563125	
0.0596162	
0.052826	
0.0568155	
0.0684413	
0.0654123	
0.0258697	
0.015299	
0.0640091	
0.0496438	
0.0350566	
0.0393633	
0.0644684	
0.065088	
0.0655603	
0.0651275	
0.0692416	
0.05519	
-0.0416575	
-0.0252219	
0.0689828	
0.0651594	
0.0382135	
0.04371	
0.0569937	
0.0582033	
0.0173194	
0.022625	
-0.075742	
0.0615472	
-0.0410083	
0.0661647	
0.0681729	
0.066606	
0.0652647	
0.0647988	
0.00977798	
0.0316012	
0.0238006	
0.0572501	
0.0658453	
0.0640012	
0.0695067	
0.0339524	
0.0263196	
0.0162674	
0.05654	
0.0650022	
0.055144	
0.0648984	
-0.0298144	
-0.0152936	
0.0559011	
0.0648487	
0.0627478	
0.0660564	
0.0548883	
0.068177	
0.0643317	
-0.0465678	
0.0425965	
0.04406	
0.0320655	
0.0486557	
0.0481247	
0.0475188	
0.0403835	
0.0452463	
0.0460511	
0.066374	
0.0528585	
0.0554411	
-0.066459	
0.0687151	
0.0115336	
0.0233725	
0.0520698	
0.0656978	
0.0690858	
-0.0332013	
-0.0226915	
0.0461295	
0.0423951	
0.0263933	
0.0640107	
0.0685052	
0.0375425	
0.0302354	
-0.00182125	
-0.0225435	
-0.0177121	
0.0247491	
0.0258721	
0.00304505	
0.0214199	
-0.0432419	
0.00664479	
0.0152486	
-0.0609635	
0.0561753	
0.0658951	
0.0644112	
0.0568368	
0.0686283	
0.064487	
0.066597	
0.0581559	
0.0654103	
-0.0621659	
0.0441785	
0.0406034	
-0.00641767	
0.00203583	
0.0294835	
0.0251896	
0.0486042	
0.0531459	
0.0657698	
-0.0279759	
-0.0437811	
-0.0622003	
-0.0553889	
0.0554586	
0.0651942	
0.0570266	
0.0546957	
0.0660483	
0.0550945	
0.0662526	
-0.0235711	
-0.0816363	
-0.0592892	
-0.0809186	
0.0016303	
0.0114902	
0.0552495	
0.0648209	
0.0548968	
0.0646571	
-0.0172163	
-0.0286882	
0.0571573	
0.0643564	
0.054385	
0.0653148	
0.0555377	
0.0662322	
0.061613	
-0.188598	
0.00269154	
-0.00527181	
0.0142124	
0.0149569	
-0.0301356	
-0.0383826	
0.0515	
-0.107057	
0.0524606	
0.0654131	
-0.0647636	
-0.0623057	
0.0648891	
0.0665812	
0.0559659	
0.0661236	
0.0558015	
0.0629491	
0.0649189	
0.0522056	
0.00455961	
0.0124066	
-0.137301	
-0.0153841	
-0.000667033	
0.0290266	
0.0337305	
0.00508798	
0.02023	
0.0386083	
0.0470112	
0.0400567	
0.0518094	
0.0553738	
0.0661504	
0.0556607	
0.0546215	
0.0662711	
0.0555772	
0.0492493	
0.067947	
0.0646862	
0.0554774	
8.87887e-05	
0.00961273	
0.068696	
0.0658199	
0.0691694	
0.0544042	
0.0618614	
0.0546025	
0.0419465	
0.0422325	
-0.0308978	
-0.0372486	
0.0639394	
0.0559925	
0.0552662	
0.0109931	
0.0086438	
-0.118036	
-0.110702	
0.0652859	
0.0680164	
0.0292782	
0.0259197	
0.0649816	
0.0666491	
0.0689386	
0.0022767	
0.0559519	
0.064891	
0.0676249	
-0.0936236	
-0.0913911	
0.00852995	
0.0144104	
0.0691701	
0.0662195	
0.069017	
0.0666707	
0.0574265	
0.0572893	
0.0293789	
0.0211051	
-0.0218321	
-0.0149648	
0.0651013	
0.0628265	
0.0331263	
0.031771	
-0.186542	
-0.0174595	
0.000734944	
0.00304721	
0.0572703	
0.0641903	
0.06526	
0.0691617	
0.068432	
0.0636752	
-0.12443	
-0.14489	
-0.176608	
-0.194448	
-0.171907	
-0.0252252	
-0.0247885	
-0.173469	
-0.151122	
-0.195926	
-0.218463	
-0.000692296	
0.00300468	
-0.184336	
-0.135778	
-0.131298	
-0.100536	
-0.148641	
-0.134617	
-0.110747	
-0.109717	
-0.128929	
0.0656211	
0.0523421	
0.0675649	
0.0540218	
-0.0420609	
-0.0591366	
-0.10311	
-0.0442505	
-0.069082	
-0.0584291	
0.0399242	
0.0376055	
-0.0421619	
-0.053368	
-0.0785333	
-0.0825682	
-0.18107	
-0.217854	
-0.158324	
-0.161259	
-0.0107764	
-0.0105188	
-0.239084	
-0.20952	
-0.156798	
-0.133643	
-0.0130917	
-0.0193924	
-0.126318	
-0.0774278	
0.0665231	
0.056299	
0.0567608	
0.0660559	
-0.007767	
-0.00881247	
-0.161723	
-0.0115416	
0.0529184	
0.0687719	
0.0636108	
0.0615774	
0.0630637	
0.0541489	
0.0691103	
0.0553854	
0.0019507	
-0.0110675	
-0.0861058	
-0.107035	
-0.0640438	
-0.0977316	
-0.209004	
-0.204825	
-0.239716	
-0.173299	
-0.0453031	
-0.0446909	
-0.0813923	
-0.102472	
-0.00607233	
-0.103677	
-0.0839201	
-0.0109523	
-0.0216504	
-0.0205817	
-0.0403244	
0.0177436	
0.0287466	
-0.0236523	
-0.201959	
-0.0347548	
-0.150631	
-0.127421	
0.000462749	
-0.152161	
-0.126173	
0.0178451	
0.0134137	
-0.0136154	
-0.0226624	
-0.176839	
-0.189915	
-0.0840355	
-0.0600359	
-0.134534	
0.0579569	
0.0647851	
0.0640632	
0.0674847	
0.0689502	
0.0644492	
0.046909	
0.0392338	
-0.233493	
-0.242561	
-0.235545	
-0.216815	
-0.208656	
-0.038976	
-0.059558	
0.0680214	
0.0567524	
0.0366948	
0.020195	
0.0552148	
0.0644206	
0.0680264	
0.0379226	
0.0288364	
-0.0568574	
-0.0655953	
-0.00545473	
-0.00983572	
-0.0619785	
-0.123433	
-0.0903938	
-0.0989436	
-0.0343009	
-0.0324731	
-0.0536389	
-0.0518517	
0.0259621	
-0.206372	
-0.216493	
-0.234568	
0.00442641	
0.00634738	
-0.230243	
-0.166897	
-0.0848015	
-0.0947779	
0.0658892	
0.0532918	
0.0677127	
0.0556218	
-0.235446	
-0.0672335	
-0.0730514	
-0.070609	
-0.0878778	
-0.0327122	
-0.0269253	
-0.077622	
-0.0953479	
-0.0532975	
-0.0366009	
-0.125206	
-0.138924	
-0.0964021	
-0.100832	
-0.13165	
-0.120545	
-0.0900476	
-0.0833964	
-0.173303	
-0.120488	
-0.157433	
-0.0683196	
-0.162965	
-0.177937	
-0.20091	
-0.204065	
0.066002	
0.0559824	
-0.135345	
-0.120951	
-0.156317	
-0.192673	
-0.125709	
-0.135812	
-0.163952	
-0.179503	
0.0620462	
0.060779	
0.0550918	
0.0648173	
0.0684267	
0.058549	
0.0653944	
-0.222025	
-0.220594	
-0.226323	
-0.170019	
-0.154935	
-0.177381	
-0.171211	
-0.178951	
-0.185114	
-0.159309	
-0.168692	
-0.151812	
-0.154591	
-0.137744	
-0.0846898	
-0.114347	
-0.111775	
-0.101147	
-0.0865296	
-0.123687	
-0.107363	
-0.120726	
-0.10263	
-0.128819	
-0.100752	
-0.126731	
-0.0959456	
0.0636874	
0.0623904	
0.0628108	
0.058316	
0.0614995	
0.0557074	
0.0612958	
0.0559892	
0.0654416	
0.0559489	
0.066619	
0.0568334	
-0.00494218	
0.00874886	
0.00308639	
0.0160103	
0.0216856	
0.0244708	
0.0192069	
0.0124528	
-0.00577345	
0.00708453	
0.00174556	
0.0114017	
0.0248448	
0.0185412	
0.0215562	
0.0152574	
-0.00983245	
0.0220993	
0.0137429	
0.0182097	
0.00235308	
-0.0129538	
-0.0204505	
-0.00536232	
0.0086237	
0.0201318	
0.0121267	
0.0163401	
0.00718765	
-0.0174553	
-0.012825	
-0.00509388	
0.00118469	
0.0238182	
0.078042	
0.0772189	
0.0752417	
0.077168	
0.077617	
0.0781686	
0.0797066	
0.0784002	
0.0779526	
0.0771779	
0.0757689	
0.0752622	
0.0753226	
0.0749815	
0.061943	
0.0479734	
0.0638111	
0.0715559	
0.0544112	
0.106597	
0.117314	
0.103953	
0.0316003	
0.11304	
0.155439	
0.0830915	
0.0746336	
0.0774505	
0.0774672	
0.068446	
0.0681822	
0.0772221	
0.0778988	
0.0839759	
0.0636289	
0.0770462	
0.0613727	
0.0577837	
0.0896152	
0.0880669	
0.0745595	
0.0772987	
0.0811159	
0.0889807	
0.0831018	
0.0845981	
0.0834103	
0.0783625	
0.0844973	
0.0788772	
0.0813205	
0.0834882	
0.0840734	
0.0635634	
0.0614603	
0.0776639	
0.0777695	
0.0864588	
0.0990647	
0.0393042	
0.0888161	
0.0895231	
0.0867122	
0.0887834	
0.0688676	
0.0699167	
0.0701731	
0.0755344	
0.0869935	
0.0902672	
0.0759499	
0.0744802	
0.0767219	
0.0755074	
0.0829422	
0.083788	
0.0831583	
0.0715587	
0.0672966	
0.0678057	
0.084949	
0.0907058	
0.0858887	
0.0894411	
0.0835079	
0.084009	
0.0838042	
0.072846	
0.0732078	
0.0927816	
0.0929211	
0.0682446	
0.069899	
0.0685532	
0.0652135	
0.098533	
0.0971661	
0.0788108	
0.091177	
0.052309	
0.0770232	
0.0830728	
0.0843172	
0.0873525	
0.10734	
0.0801392	
0.0852525	
0.0861951	
0.0985291	
0.0934365	
0.0920088	
0.0924539	
0.0787225	
0.0796167	
0.0611644	
0.0353474	
0.0815187	
0.0862759	
0.0969178	
0.0797134	
0.0912814	
0.0852191	
0.0648737	
0.0768332	
0.0695773	
0.0667929	
0.10835	
0.082049	
0.0818794	
0.0812513	
0.0891221	
0.0863136	
0.0885251	
0.0913335	
0.0743353	
0.0991892	
0.0968595	
0.0979688	
0.0720194	
0.0710675	
0.0851831	
0.07412	
0.0853941	
0.0805125	
0.0742328	
0.0825909	
0.0991821	
0.0967654	
0.0909359	
0.0517856	
0.0504481	
0.0524503	
0.0744464	
0.0634513	
0.0619677	
0.0741715	
0.0643584	
0.08545	
0.0846373	
0.0836501	
0.0844019	
0.0843865	
0.0848917	
0.0545489	
0.08694	
0.0738718	
0.0848188	
0.0623665	
0.0806274	
0.0800505	
0.0654348	
0.0653457	
0.0632111	
0.0639728	
0.0763831	
0.0784382	
0.0938747	
0.0926604	
0.0801197	
0.0842807	
0.0796572	
0.0773229	
0.0637983	
0.0680989	
0.0690261	
0.0694832	
0.080128	
0.0824095	
0.0823244	
0.093314	
0.0922696	
0.0913719	
0.0905591	
0.0830967	
0.0845932	
0.093248	
0.071228	
0.0733731	
0.085392	
0.0879924	
0.0794788	
0.0866429	
0.0872903	
0.0889323	
0.0918121	
0.0903197	
0.0772056	
0.0837857	
0.0828609	
0.0819721	
0.0847953	
0.0845701	
0.082177	
0.0499445	
0.0471626	
0.0826096	
0.081862	
0.08123	
0.0798527	
0.0590451	
0.0974029	
0.0880231	
0.0867196	
0.0876581	
0.0799979	
0.0812217	
0.0804959	
0.081174	
0.0821238	
0.101734	
0.102722	
0.072669	
0.0920768	
0.094019	
0.0705118	
0.0712435	
0.0870134	
0.0852725	
0.0851243	
0.0771887	
0.0795895	
0.0772656	
0.0785889	
0.0868132	
0.0834516	
0.0837307	
0.0832258	
0.0831847	
0.0794195	
0.0859072	
0.079025	
0.0564323	
0.0577154	
0.0798016	
0.0936268	
0.096244	
0.0765466	
0.0769306	
0.0804308	
0.082237	
0.0789655	
0.0803195	
0.0792837	
0.0787059	
0.0703142	
0.0864607	
0.0876896	
0.0890364	
0.0817408	
0.095634	
0.0990728	
0.0999535	
0.101632	
0.0734399	
0.0728985	
0.0559779	
0.0777529	
0.0868102	
0.0884365	
0.0896744	
0.0904158	
0.094145	
0.0921097	
0.064414	
0.0632886	
0.0795128	
0.0804302	
0.0751154	
0.0743985	
0.0744683	
0.0897203	
0.0886217	
0.0851036	
0.0685746	
0.078135	
0.0791524	
0.0940434	
0.0959778	
0.0878239	
0.0858276	
0.0856959	
0.100737	