<VTKFile type="UnstructuredGrid" version="0.1" byte_order="LittleEndian">
	<UnstructuredGrid>
		<Piece NumberOfPoints="3179" NumberOfCells="104">
			<CellData Scalars="scalars">
				<DataArray type="Float64" Name="Doublet Strengths" NumberOfComponents="1" Format="ascii">
0.0607831	
0.0484137	
0.0411642	
0.0502632	
0.0456487	
0.0387014	
0.0336657	
0.0343765	
0.0413091	
0.0626572	
0.0536808	
0.0545805	
0.0321878	
0.0453859	
0.0365556	
0.0663335	
0.0226637	
0.0447601	
0.0598149	
0.0128137	
0.00707692	
0.0492512	
0.0587918	
0.0449058	
0.0354855	
0.0623522	
0.0220965	
0.0550352	
0.0446635	
0.0553665	
0.0480414	
0.0535765	
0.0468832	
0.0562631	
0.0555509	
0.0634026	
0.0590339	
0.0465782	
0.0612145	
0.0501476	
0.0526433	
0.0593015	
0.0490211	
0.0614929	
0.0581996	
0.0367982	
0.0579311	
0.0528409	
0.0671007	
0.0631639	
0.0750592	
0.0521667	
0.0338796	
0.0381274	
0.0442148	
0.0579576	
0.0419465	
0.0363557	
0.0365486	
0.0434333	
0.0338709	
0.039765	
0.0573973	
0.0612337	
0.0514861	
0.0382615	
0.0321178	
0.0466944	
0.0478273	
0.0339812	
0.0206659	
0.0443518	
0.0414631	
0.0174741	
0.00555679	
0.0549414	
0.0508567	
0.0531925	
0.0588044	
0.0583267	
0.0171714	
0.0401641	
0.0664026	
0.0514196	
0.039884	
0.0693419	
0.0598191	
0.0449909	
0.053019	
0.0520178	
0.0460372	
0.0551345	
0.0670367	
0.0613074	
0.0536407	
0.0596273	
0.0410256	
0.0476437	
0.0472064	
0.0526104	
0.0696073	
0.0615567	
0.0537408	
0.0550159	
				</DataArray>
				<DataArray type="Float64" Name="Velocity Potential" NumberOfComponents="1" Format="ascii">
1.63302	
1.63811	
1.64741	
1.63748	
1.64348	
1.6526	
1.65604	
1.65309	
1.65009	
1.62742	
1.63472	
1.63463	
1.65626	
1.6463	
1.65355	
1.62335	
1.67443	
1.64345	
1.62995	
1.68061	
1.68386	
1.64062	
1.63065	
1.64746	
1.65814	
1.62727	
1.66874	
1.63165	
1.65014	
1.63436	
1.64288	
1.64003	
1.64338	
1.63223	
1.63294	
1.62305	
1.6307	
1.64694	
1.62843	
1.64118	
1.63761	
1.6303	
1.64124	
1.62803	
1.63143	
1.65277	
1.63154	
1.63719	
1.62247	
1.6262	
1.61476	
1.63785	
1.65611	
1.6466	
1.64581	
1.63193	
1.65176	
1.65395	
1.65183	
1.64753	
1.65931	
1.65052	
1.63206	
1.62713	
1.63711	
1.65097	
1.65683	
1.64778	
1.64273	
1.65747	
1.67512	
1.64542	
1.64804	
1.67677	
1.68654	
1.63418	
1.63511	
1.63711	
1.62798	
1.63131	
1.6747	
1.6543	
1.62312	
1.63849	
1.65013	
1.6199	
1.62741	
1.64537	
1.63658	
1.63654	
1.64786	
1.63465	
1.62136	
1.62905	
1.63522	
1.62469	
1.64979	
1.64376	
1.6413	
1.63782	
1.62039	
1.63126	
1.6392	
1.63467	
				</DataArray>
			</CellData>
			<Points>
				<DataArray type="Float64" Name="Position" NumberOfComponents="3" Format="ascii">
0.281901	0.245893	-0.0599421	
0.325048	0.124517	-0.0598771	
0.166619	0.140595	-0.0549912	
0.0733344	0.186188	-0.0416419	
0	0.0974045	0	
0	0.195867	0	
0	0.994305	0	
0.0886093	0.988884	-0.0447925	
0	0.894487	0	
0.289537	17.8708	-0.0599928	
0.398718	17.7064	-0.0580507	
0.220591	17.7599	-0.0584039	
0	0.396513	0	
0.0664558	0.345481	-0.0400344	
0	0.29559	0	
0.0793927	0.737905	-0.0429555	
0	0.693922	0	
0	1.29192	0	
0.0950092	1.21712	-0.0459657	
0	0.793791	0	
0.785222	2.88134	-0.0270048	
0.580971	3.00642	-0.0468833	
0.778456	3.19097	-0.027758	
0.535685	1.08722	-0.050362	
0.379572	0.968765	-0.058709	
0.358364	1.19069	-0.0592938	
0.561823	5.26426	-0.0484026	
0.41561	5.44824	-0.0573738	
0.626471	5.49017	-0.0430102	
0.433459	6.6022	-0.0565664	
0.233018	6.69288	-0.0588933	
0.337873	6.82188	-0.0597036	
0	1.89003	0	
0.0606389	1.90451	-0.0385667	
0	1.79009	0	
0.335196	6.40603	-0.0597453	
0.279026	6.55949	-0.0599156	
0.304092	15.5834	-0.0600132	
0.22393	15.4744	-0.0585452	
0.0635908	11.29	-0.0393248	
0	1.19214	0	
0.26374	3.38772	-0.0597045	
0.178581	3.47666	-0.0559485	
0.334083	3.55254	-0.0597617	
0.53344	15.253	-0.0505239	
0.330449	15.2445	-0.0598121	
0.395851	15.4183	-0.0581568	
0	6.16717	0	
0.12095	6.20971	-0.0500049	
0.104301	6.11253	-0.0475359	
0.101584	8.52331	-0.0470922	
0.257565	8.57086	-0.0595844	
0.285755	8.44267	-0.0599712	
0.344821	10.9693	-0.0595825	
0.263441	11.1483	-0.0596992	
0.409176	11.1248	-0.0576419	
0	2.38801	0	
0	2.48772	0	
0.0773584	2.43614	-0.0425244	
0.17997	8.67116	-0.0560516	
0.188969	9.19115	-0.0566809	
0.242633	9.04217	-0.059206	
0.0910462	9.09595	-0.0452486	
0	2.98548	0	
0	3.08534	0	
0.0753951	3.02987	-0.0420989	
0.557366	10.9502	-0.0487462	
0.32924	9.84702	-0.0598277	
0.512676	9.90738	-0.0519708	
0.469816	9.68554	-0.0546509	
0	11.2417	0	
0	11.3418	0	
0.0740881	3.6364	-0.0418103	
0.0846127	3.54091	-0.0440185	
0	3.58315	0	
0	3.68342	0	
0.101742	13.7779	-0.0471184	
0.224212	13.8221	-0.0585568	
0.202686	13.6705	-0.0575174	
0.270257	4.93734	-0.0598093	
0.108973	5.0218	-0.0482711	
0.268065	5.06173	-0.0597765	
0	4.77972	0	
0.0718011	4.72176	-0.0412947	
0	4.6797	0	
0.631365	14.192	-0.0425727	
0.387792	14.0806	-0.058441	
0.367365	14.2499	-0.0590648	
0	4.1815	0	
0.0754198	4.17141	-0.0421043	
0	4.08095	0	
0.525819	17.5355	-0.0510656	
0.333636	17.5502	-0.0597682	
0	16.8147	0	
0.0766486	16.77	-0.0423716	
0	16.715	0	
0	5.37104	0	
0.0702351	5.31563	-0.0409337	
0	5.27041	0	
0.43218	16.603	-0.0566273	
0.326109	16.4603	-0.0598653	
0.260286	16.6285	-0.0596399	
0	5.96917	0	
0.0765242	5.92225	-0.0423447	
0	5.86911	0	
0	19.6035	0	
0.0619767	19.5454	-0.0389138	
0	19.5032	0	
0.0757031	6.5083	-0.0421662	
0	6.46701	0	
0	6.56626	0	
0.532723	19.8465	-0.0505754	
0.580285	19.6484	-0.046939	
0.390344	19.739	-0.0583533	
0.0978124	15.561	-0.0464553	
0	7.06439	0	
0.0781985	7.00835	-0.0427036	
0	6.96486	0	
0.183694	0.353313	-0.05632	
0.183672	0.492077	-0.0563185	
0.343445	0.392042	-0.0596079	
0	7.66206	0	
0.0763591	7.60812	-0.042309	
0	7.56238	0	
0	3.48344	0	
0.351786	9.52129	-0.0594425	
0.549947	9.48187	-0.0493097	
0.392725	9.34212	-0.0582695	
0.358054	4.69155	-0.0593011	
0.255949	4.57566	-0.0595495	
0.195684	4.70036	-0.0571083	
0	8.26001	0	
0.0726111	8.20928	-0.0414789	
0	8.16021	0	
0	10.0484	0	
0.0727232	9.99717	-0.0415042	
0	9.9516	0	
0.263116	12.2449	-0.0596933	
0.393484	12.2081	-0.0582425	
0.333537	12.0547	-0.0597696	
0.442541	11.9405	-0.056121	
0.654204	11.8521	-0.0404804	
0.440477	11.7398	-0.0562242	
0	10.4463	0	
0	10.5455	0	
0.073252	10.4907	-0.0416234	
1	4.61745	0	
0.702669	4.56178	-0.0357768	
0.721395	4.83297	-0.0338684	
0.07482	11.0853	-0.0419724	
0	11.0433	0	
0	11.1422	0	
0	12.2383	0	
0.107574	12.2017	-0.0480546	
0	12.1388	0	
0.0917887	12.0882	-0.0453852	
0.253576	19.8628	-0.0594956	
0.397184	20	-0.0581078	
0.168719	19.7964	-0.0551685	
0.245035	19.6544	-0.0592755	
0	13.533	0	
0	13.633	0	
0.0907872	13.5894	-0.0452007	
0.171732	19.3597	-0.0554159	
0.0727658	19.4466	-0.0415139	
0.159392	19.517	-0.0543496	
0.214687	17.4499	-0.058136	
0.101868	17.5568	-0.0471391	
0.208377	17.631	-0.0578234	
0	12.637	0	
0	12.7367	0	
0.0865493	12.7018	-0.0443977	
0	8.75829	0	
0	8.85777	0	
0.0868836	8.7581	-0.0444623	
0.0634476	13.3197	-0.0392887	
0	13.4337	0	
0.0820647	13.4722	-0.0435072	
0.417202	19.3837	-0.0573055	
0.407897	19.5568	-0.0576937	
0.591603	19.4078	-0.0460107	
0.077603	18.9579	-0.0425768	
0.0644057	18.7923	-0.0395292	
0	18.907	0	
0.647974	20	-0.0410594	
0.780632	19.7749	-0.0275165	
0	16.4168	0	
0	16.5166	0	
0.0839962	16.4747	-0.0438961	
0.309798	19.2698	-0.0599949	
0.17163	19.2127	-0.0554077	
0.0697424	12.595	-0.0408188	
0.076917	13.6853	-0.0424295	
0	13.7332	0	
0.183357	9.79899	-0.0562962	
0.192447	9.93956	-0.0569066	
0	14.829	0	
0.0701174	14.7746	-0.0409064	
0	14.7296	0	
0	14.2314	0	
0.0731965	14.1733	-0.0416109	
0	14.1309	0	
0	15.4211	0	
0.0720398	15.3672	-0.0413492	
0	15.3203	0	
0	16.0186	0	
0.0758719	16.0126	-0.0422031	
0	15.9191	0	
0.103563	16.5828	-0.0474166	
0	16.6156	0	
0	12.0394	0	
0.344658	11.3122	-0.0595855	
0.18539	11.4045	-0.0564385	
0.276882	11.4787	-0.0598932	
0	13.0351	0	
0.097466	13.1139	-0.0463956	
0.0607298	13.0061	-0.0385905	
0	17.7116	0	
0.0728852	17.6539	-0.0415408	
0	17.612	0	
0.320634	18.7312	-0.0599213	
0.515616	18.7399	-0.0517715	
0.383459	18.5515	-0.0585851	
0.187705	16.515	-0.0565964	
0.170246	16.4032	-0.0552949	
0	18.8079	0	
0.244668	16.8854	-0.0592651	
0.415818	16.7764	-0.0573649	
0.212693	16.7596	-0.0580402	
0.0637073	19.3535	-0.0393541	
0	19.4051	0	
0	19.8041	0	
0	19.9026	0	
0.0696117	19.8307	-0.0407882	
0	18.3096	0	
0.0747698	18.2599	-0.0419613	
0	18.2099	0	
0.574678	18.5348	-0.0473902	
0.775127	18.6325	-0.0281264	
0.166016	13.4044	-0.0549396	
0.133054	13.2328	-0.0515585	
0.248284	13.1385	-0.0593641	
0.250875	13.3063	-0.0594305	
0.395061	13.2463	-0.0581856	
0.427745	13.4086	-0.0568349	
0.0842219	0.435323	-0.043941	
0	0.496801	0	
0.0720538	0.531445	-0.0413524	
0.216443	20	-0.0582182	
0.0989153	19.6338	-0.0466441	
0.0923098	1.76894	-0.0454804	
0.11744	1.63811	-0.0495182	
0	1.69045	0	
0.0730388	3.44139	-0.0415754	
0.0957769	2.34688	-0.0461012	
0.0756605	2.24856	-0.0421569	
0	2.28836	0	
0.0957272	2.93949	-0.0460924	
0.0847502	2.83057	-0.0440456	
0	2.88617	0	
0.0935142	4.04547	-0.0456986	
0.0774192	3.9431	-0.0425374	
0	3.98139	0	
0.104085	4.63025	-0.0475011	
0.103078	4.52911	-0.0473377	
0	4.57889	0	
0.0895139	5.22721	-0.0449632	
0.074973	5.12775	-0.0420061	
0	5.171	0	
0.0963595	5.83254	-0.0462033	
0.0787116	5.72717	-0.0428123	
0	5.76862	0	
0.542417	6.80514	-0.0498704	
0.675483	6.58415	-0.0384582	
0.096727	6.91777	-0.0462674	
0.0739368	6.82317	-0.0417766	
0	6.8649	0	
0.0936744	7.5172	-0.0457274	
0.0751101	7.42136	-0.0420363	
0	7.46267	0	
0.0901932	8.1203	-0.0450903	
0.0763325	8.02024	-0.0423032	
0	8.06025	0	
0.47497	10.1168	-0.0543517	
0.517717	10.3042	-0.051628	
0.708622	10.078	-0.0351754	
0.0952937	10.3994	-0.046016	
0.0766163	10.3058	-0.0423647	
0	10.3456	0	
0.56707	11.2493	-0.0479931	
0.073372	11.9877	-0.0416503	
0.195592	12.1205	-0.0571026	
0.186015	11.982	-0.0564815	
0.337959	12.6934	-0.0597022	
0.475538	12.5668	-0.0543184	
0.287599	12.5199	-0.0599826	
0.101333	14.0792	-0.0470506	
0.0820779	13.9843	-0.0435099	
0	14.0308	0	
0.0904597	14.6841	-0.0451399	
0.0759325	14.5872	-0.0422163	
0	14.629	0	
0.0919471	15.2792	-0.0454142	
0.0919398	15.1697	-0.0454129	
0	15.2203	0	
0.106791	15.8855	-0.0479321	
0.109639	15.7746	-0.0483731	
0	15.8185	0	
0.0703457	16.372	-0.0409595	
0.0843355	17.4517	-0.0439635	
0	17.5123	0	
0.0901932	18.1701	-0.0450903	
0.0690605	18.0677	-0.0406586	
0	18.11	0	
0.277702	19.4596	-0.0599021	
0.202371	1.16526	-0.0574997	
0.210087	1.28864	-0.0579109	
0.317619	1.94593	-0.0599468	
0.448704	1.76124	-0.0558059	
0.229305	1.78188	-0.0587574	
0.191203	2.27076	-0.0568269	
0.108002	2.15635	-0.0481211	
0.201991	2.86846	-0.0574784	
0.171856	2.73025	-0.0554259	
0.373541	2.91461	-0.0588912	
0.548372	2.78338	-0.0494279	
0.31603	2.75601	-0.0599587	
0.183533	5.15578	-0.0563087	
0.348639	5.18186	-0.059508	
0.199367	5.28641	-0.057328	
0.345057	5.32102	-0.059578	
0.198777	5.77534	-0.0572935	
0.123899	5.62758	-0.050401	
0.400128	6.9916	-0.0579976	
0.446339	7.20349	-0.055928	
0.601719	7.0063	-0.0451617	
0.189745	7.43503	-0.0567321	
0.10748	7.32675	-0.0480398	
0.187916	8.06763	-0.0566106	
0.116798	7.92416	-0.0494272	
0.194191	14.6045	-0.0570163	
0.108723	14.4905	-0.0482325	
0.188459	15.2266	-0.0566469	
0.217947	15.0967	-0.0582868	
0.216429	15.6929	-0.0582175	
0.164141	18.0973	-0.0547768	
0.0964446	17.975	-0.0462182	
0.743891	18.3405	-0.0315117	
1	18.4622	0	
0.345436	13.9148	-0.0595708	
0.369739	13.741	-0.0589997	
0.120662	12.4964	-0.0499656	
0.180009	12.6295	-0.0560545	
0.34728	0.656015	-0.0595351	
0.467838	0.765341	-0.0547639	
0.505265	0.52742	-0.0524645	
0.789719	19.4699	-0.0265009	
0.762219	19.1392	-0.029541	
1	19.2332	0	
0	0.594932	0	
0.199467	0.676608	-0.0573339	
0.289227	0.80758	-0.0599913	
0.113912	3.34425	-0.0490114	
0.181363	3.60365	-0.0561534	
0.25987	3.70008	-0.0596316	
0.0878278	6.30512	-0.0446437	
0.229137	6.28844	-0.058751	
0.19381	6.44473	-0.0569925	
0.320677	10.036	-0.0599209	
0.111156	10.7862	-0.0486028	
0.0876864	10.8812	-0.0446167	
0.234897	10.863	-0.0589588	
0.195079	11.0209	-0.0570712	
0.243473	16.3276	-0.0592307	
0.111285	16.2747	-0.0486221	
0.250727	19.0962	-0.0594268	
0.106131	19.0855	-0.047828	
0.0796783	19.2609	-0.0430153	
0.128873	18.5784	-0.051043	
0.0727075	18.6838	-0.0415007	
0.172298	18.7188	-0.0554615	
0.0591519	19.1658	-0.0381739	
0.390701	19.1069	-0.0583409	
0.199456	18.9777	-0.0573332	
0	19.7044	0	
0.185415	6.83022	-0.0564402	
0.202072	10.3185	-0.057483	
0.214038	13.9876	-0.0581052	
0.293596	0.541825	-0.0600083	
1	6.53775	0	
0.786707	6.801	-0.0268388	
0.221527	6.97407	-0.0584442	
0.0701126	9.19186	-0.0409052	
0.249457	9.67577	-0.0593947	
0.338979	10.2312	-0.0596856	
0.196808	10.4687	-0.0571764	
0.438018	10.7627	-0.0563457	
0.565034	12.1672	-0.0481526	
0.233278	12.3857	-0.0589025	
0.369226	18.9203	-0.0590139	
0.516792	19.2151	-0.0516913	
0.0844147	0.865666	-0.0439792	
0.204763	0.919219	-0.0576318	
0.159608	0.800028	-0.0543695	
0.413662	6.23771	-0.0574563	
0.256301	6.11653	-0.0595572	
0.395156	5.83284	-0.0581821	
0.425361	5.62697	-0.0569441	
0.267895	5.68046	-0.0597739	
0.100668	6.39375	-0.0469397	
0.159173	6.56868	-0.0543294	
1	9.61737	0	
0.774915	9.41793	-0.0281497	
0.727672	9.73423	-0.0332178	
0.162191	10.0529	-0.054604	
0.202736	10.1674	-0.0575202	
0.213627	10.6984	-0.0580855	
0.293082	10.5967	-0.0600068	
0.345339	10.4184	-0.0595727	
1	10.7666	0	
0.769914	11.0129	-0.0287003	
1	11.1518	0	
0.793553	11.3262	-0.0260693	
0.1015	10.9703	-0.0470782	
0.150164	11.1458	-0.0534561	
0.181056	11.2741	-0.0561311	
0.257025	11.8401	-0.0595729	
0.448491	12.3759	-0.055817	
0.114397	12.3042	-0.0490821	
0.723215	12.4508	-0.0336803	
0.393272	16.2843	-0.05825	
0.226558	16.2082	-0.0586512	
0.540066	16.4536	-0.0500432	
0.57664	16.2422	-0.047233	
0.478905	16.0871	-0.0541189	
0.10825	16.6811	-0.0481595	
1	11.5377	0	
1	11.9226	0	
0.795776	12.117	-0.0258181	
0.231108	1.04783	-0.0588244	
0.421073	1.53452	-0.0571365	
0.341067	1.37477	-0.0596502	
0.232329	1.52224	-0.0588687	
0.0908672	1.49191	-0.0452155	
0.664011	11.5412	-0.039557	
0.446566	11.4897	-0.0559164	
0.0887656	1.34567	-0.0448221	
0.293589	11.6348	-0.0600083	
0.174548	11.7077	-0.0556398	
0.138825	11.5614	-0.0522356	
0.72029	5.08371	-0.0339824	
1	5.00008	0	
0.0746634	8.89332	-0.0419378	
0.238992	18.6039	-0.0590941	
0.426293	13.0929	-0.0569016	
0.692055	3.42393	-0.0368365	
1	3.46241	0	
0.524165	3.57018	-0.0511816	
0.44266	3.39364	-0.056115	
0	5.07286	0	
0.101662	4.91664	-0.0471051	
0.477323	5.01704	-0.054213	
0.429425	4.83686	-0.0567569	
0.232841	5.4176	-0.058887	
0.544203	4.69928	-0.0497384	
0.260667	5.54451	-0.0596473	
0.654565	15.0239	-0.0404467	
0.389647	15.0489	-0.0583775	
0	15.1215	0	
0.086455	15.0739	-0.0443794	
0.357688	14.6866	-0.0593098	
0.264065	14.8516	-0.0597103	
0.431929	14.8438	-0.0566392	
1	15.3825	0	
0.787234	15.2583	-0.0267797	
0.822909	15.5558	-0.0227012	
0.626241	15.4595	-0.0430307	
0.485151	15.5856	-0.0537417	
0.209895	15.3541	-0.0579012	
0.413603	15.7483	-0.0574588	
0.248239	15.8256	-0.059363	
0.212204	15.959	-0.0580163	
0.368303	15.9376	-0.0590393	
0.67199	15.7376	-0.0387948	
0.545274	13.8985	-0.049659	
0.211995	14.1526	-0.0580061	
0.27138	13.4435	-0.0598251	
0.188913	13.532	-0.0566771	
0.336858	13.5745	-0.0597197	
0.757429	13.6667	-0.0300603	
0.534576	13.6039	-0.0504421	
1	14.2333	0	
1	13.8481	0	
0.779376	13.9813	-0.027656	
0.464671	14.3865	-0.0549429	
0.21185	14.2919	-0.0579989	
0.254489	14.4287	-0.0595167	
1	12.6926	0	
0.780505	12.9449	-0.0275306	
1	13.0773	0	
0.439358	3.77438	-0.0562797	
0.364637	3.24508	-0.0591373	
0.535996	3.22289	-0.0503395	
0.387748	3.08173	-0.0584425	
1	3.07751	0	
0.217566	3.00636	-0.0582696	
0.469037	2.62004	-0.0546955	
0.117294	3.73474	-0.0494975	
0.796724	7.08199	-0.0257108	
0.543904	6.38329	-0.0497606	
1	6.15193	0	
0.790469	6.35886	-0.0264167	
1	6.92267	0	
1	7.3074	0	
0.0942343	10.2163	-0.0458278	
0.701567	10.3882	-0.0358876	
0.0895356	16.1588	-0.0449673	
0.0844415	17.1694	-0.0439845	
0.120994	17.3075	-0.0500109	
0.21075	17.1725	-0.0579443	
0.302154	16.0995	-0.060016	
1	12.3073	0	
0	1.59115	0	
0.456941	4.5521	-0.055369	
0.53808	4.3889	-0.0501882	
0.0938357	4.30643	-0.0457564	
0.103888	4.41531	-0.0474692	
0.230594	4.32668	-0.0588055	
0.344404	4.43747	-0.0595902	
0.444374	8.55355	-0.0560283	
0.354614	8.70485	-0.0593805	
0.0948556	8.41421	-0.0459384	
0.350445	8.15995	-0.0594709	
0.404925	7.92166	-0.0578121	
0.256785	7.98085	-0.0595677	
0.239552	8.80081	-0.0591119	
0	18.6078	0	
0.498359	18.3576	-0.0529135	
0.226634	18.8439	-0.0586542	
0.223424	18.4513	-0.0585242	
0.267039	12.964	-0.0597603	
0.274609	1.65435	-0.059867	
0.254853	2.12967	-0.059525	
0.423629	2.12652	-0.0570225	
0.7335	1.79051	-0.0326088	
0.66044	1.55368	-0.0398949	
0.543778	1.98595	-0.0497699	
0.404241	2.43732	-0.057839	
0.267069	2.5872	-0.0597608	
0.221914	2.4177	-0.0584607	
0.360331	2.28314	-0.0592462	
0.241207	4.81131	-0.0591631	
0.379731	4.2981	-0.058704	
0.751194	4.30451	-0.0307318	
0.312937	4.17083	-0.0599788	
1	4.23345	0	
0.113375	5.50838	-0.0489327	
0.254477	7.13359	-0.0595164	
0.252265	7.28827	-0.0594645	
0.357973	7.41028	-0.059303	
0.377513	7.57256	-0.0587726	
0.560897	7.46136	-0.0484742	
0.486416	7.72076	-0.0536641	
1	15.7666	0	
0.394318	18.04	-0.0582125	
0.627626	18.1177	-0.0429074	
0.489475	17.8826	-0.053475	
0.694604	13.3218	-0.0365835	
1	14.9999	0	
0.597232	14.7272	-0.0455405	
0.190763	14.7428	-0.0567985	
0.713282	3.71734	-0.0347012	
0.499705	10.5476	-0.0528269	
0.718477	10.6786	-0.0341691	
0.687588	16.6877	-0.0372775	
0.385806	16.9574	-0.0585078	
1	16.1518	0	
0.770875	16.3656	-0.0285948	
1	16.5376	0	
0.688789	8.91985	-0.0371593	
0.410875	8.90496	-0.0575723	
0.536181	9.07316	-0.0503261	
0.147312	9.3637	-0.0531623	
0.18754	9.53282	-0.0565853	
0.25621	9.40906	-0.0595552	
1	9.23336	0	
0.560546	9.26438	-0.0485014	
0.368587	9.13841	-0.0590315	
0.268233	9.27923	-0.0597791	
0.0804201	9.49314	-0.0431696	
0.203181	8.92769	-0.057545	
0.556262	18.9864	-0.0488307	
1	18.848	0	
0.386837	18.2234	-0.0584733	
0.221955	17.985	-0.0584625	
1	17.6926	0	
0.737816	17.8948	-0.0321549	
1	18.0773	0	
1	2.30745	0	
0.755457	2.5663	-0.0302732	
1	2.69276	0	
0.706888	7.28286	-0.0353511	
0.19363	8.19584	-0.0569812	
0.26313	8.31388	-0.0596936	
0.528261	8.12596	-0.0508934	
0.696685	7.91973	-0.0363763	
0.206027	4.0883	-0.0576999	
0.373717	3.99511	-0.0588861	
0.503454	4.18252	-0.0525833	
0.0828791	8.99373	-0.0436722	
1	19.6172	0	
0.734415	18.8682	-0.0325128	
0.421686	17.1698	-0.0571093	
0.613308	16.9483	-0.0441672	
0.589621	17.3465	-0.0461749	
0.399237	17.3954	-0.0580312	
0	19.0057	0	
0	9.45447	0	
0	9.55373	0	
0	8.95665	0	
0	11.6405	0	
0	11.74	0	
0.0738559	11.6834	-0.0417585	
0	17.1138	0	
0	17.2133	0	
0	1.39224	0	
0.103509	4.80517	-0.0474078	
0.102988	3.11548	-0.047323	
0.115771	2.52646	-0.0492806	
0.150472	1.89496	-0.0534874	
0.100344	15.4531	-0.0468855	
0.101129	5.40019	-0.0470166	
0.11465	7.09476	-0.0491189	
0.115499	6.0165	-0.0492416	
0.212609	5.92669	-0.0580362	
0.0949305	7.71467	-0.0459517	
0.217204	7.57165	-0.0582531	
0.171449	4.21374	-0.0553931	
0.165197	16.0678	-0.0548689	
0.118829	10.5804	-0.0497128	
0.1102	8.29776	-0.0484583	
0.100385	17.7423	-0.0468924	
0.11933	17.8633	-0.0497824	
0.10919	14.3783	-0.0483044	
0.0996344	14.2613	-0.046766	
0.109861	18.3535	-0.0484068	
0.207825	18.2562	-0.0577948	
0.109855	14.8633	-0.0484059	
0	12.3379	0	
0	12.8362	0	
0.0765919	12.8116	-0.0423594	
0.076731	11.2034	-0.0423894	
0	6.66547	0	
0.0862071	6.6298	-0.0443312	
0	6.36698	0	
0	12.5373	0	
0	10.9441	0	
0	19.3061	0	
0	10.1462	0	
0.0794357	10.1107	-0.0429645	
0.0881073	9.89123	-0.0446971	
0.0727883	9.79464	-0.0415189	
0	9.85379	0	
0	4.38079	0	
0	4.47908	0	
0.205477	4.46096	-0.0576704	
0	15.6192	0	
0	15.7184	0	
0.0873216	15.6717	-0.0445467	
0.196637	3.96075	-0.0571661	
0.250164	3.83723	-0.0594127	
0.103281	3.84935	-0.0473709	
0	17.8112	0	
0	14.331	0	
0	4.8785	0	
0.0988587	18.4573	-0.0466345	
0.586993	8.73775	-0.0463916	
0.227847	3.26615	-0.0587016	
0.231972	3.13771	-0.0588559	
0.105234	3.22628	-0.0476855	
0.109331	2.63106	-0.048326	
0.14797	12.8843	-0.0532309	
0.213823	12.7846	-0.0580949	
0	13.9319	0	
0.105053	13.889	-0.0476567	
0	5.66896	0	
0	10.2453	0	
0	3.88267	0	
0	3.38442	0	
0	7.96055	0	
0	14.5285	0	
0	6.76503	0	
0.100417	6.73289	-0.0468978	
0	6.2668	0	
0	18.01	0	
0	7.36297	0	
0	17.4126	0	
0	12.4376	0	
0.0896266	12.3963	-0.0449843	
0	2.18879	0	
0	11.9398	0	
0	16.3166	0	
0	2.78669	0	
0	10.8438	0	
0	19.2062	0	
0	9.7547	0	
0.274938	18.1251	-0.0598709	
0.513446	0.250618	-0.0519188	
0.558684	12.7607	-0.048645	
0.389228	12.8784	-0.0583919	
0.106718	16.8591	-0.0479207	
0.0860832	20	-0.0443071	
0.113582	19.9056	-0.0489631	
0	13.8328	0	
0.186902	1.40893	-0.0565421	
0.0841739	11.3684	-0.0439314	
0.106146	2.03826	-0.0478304	
0	18.7081	0	
0	2.58742	0	
0	2.6871	0	
0	19.1055	0	
0	9.15622	0	
0	9.25651	0	
0.102786	19.7313	-0.04729	
0	18.4089	0	
0	18.5079	0	
0	11.5414	0	
0.0752999	11.4645	-0.042078	
0	11.4419	0	
0	6.06813	0	
0	5.5702	0	
0	5.4715	0	
0	20	0	
0.0860832	0	-0.0443071	
0	0	0	
0	1.49213	0	
0.216443	0	-0.0582182	
0	14.4298	0	
0	12.9356	0	
0	4.28158	0	
0.0686003	2.73077	-0.0405497	
0	8.55809	0	
0	8.4586	0	
0	7.86119	0	
0.0882066	0.628641	-0.044716	
0	3.28503	0	
0.113966	7.20626	-0.0490192	
0	7.26333	0	
0.055669	18.5353	-0.0372235	
0.29466	7.72394	-0.0600111	
0	16.9147	0	
0.138303	18.8953	-0.052176	
0	13.1351	0	
0	13.3345	0	
0.140981	8.84315	-0.0524787	
0.262518	17.296	-0.0596824	
0.545445	15.9055	-0.0496463	
0.735944	16.0448	-0.0323521	
0.156718	13.0126	-0.0540995	
0.25263	17.0341	-0.0594733	
0.634573	2.27748	-0.0422839	
0.780655	2.06814	-0.0275139	
0.477589	8.34305	-0.0541972	
0.750823	8.23411	-0.0307715	
0.0713895	12.9186	-0.0412005	
1	14.6173	0	
0.742016	14.4543	-0.0317107	
0.682085	17.166	-0.0378169	
0.779154	17.4633	-0.0276805	
1	17.3072	0	
0.66234	17.691	-0.0397153	
1	8.07741	0	
1	8.46233	0	
0.0753198	8.63466	-0.0420824	
0	8.65824	0	
0.774599	9.1306	-0.0281847	
1	0.382778	0	
0.780162	0.208369	-0.0275687	
0.705091	0.423128	-0.0355328	
1	0	0	
0.647974	0	-0.0410594	
1	20	0	
0	3.78334	0	
0.116039	17.0689	-0.049319	
1	8.84815	0	
0.751327	12.7041	-0.0307175	
0	1.09295	0	
0	17.0145	0	
0.0888833	11.8798	-0.0448444	
0.0995079	9.68017	-0.0467447	
0	9.65437	0	
0	15.5209	0	
0.0860761	10.6909	-0.0443057	
0	10.6441	0	
0.0590762	9.38768	-0.0381537	
0	9.35594	0	
0	16.1173	0	
0.0791423	9.28288	-0.042903	
0.574438	13.0013	-0.0474094	
0	1.98999	0	
0.199952	1.99866	-0.057362	
0	14.9271	0	
0.10255	14.9812	-0.0472514	
0	7.16379	0	
1	16.9225	0	
0	17.9107	0	
0	3.18531	0	
1	1.92272	0	
0.699952	7.66501	-0.0360496	
0.816674	7.48616	-0.0234258	
0	9.05591	0	
0	16.2167	0	
1	5.76672	0	
1	5.38272	0	
0.810384	5.61557	-0.0241518	
0	10.7435	0	
1	13.4623	0	
0.565777	2.47778	-0.0480945	
0.600159	5.7243	-0.0452938	
0.112286	1.09474	-0.0487717	
0.653944	0.890127	-0.0405047	
0.114755	16.9621	-0.0491341	
0.492148	14.5476	-0.053308	
0.597654	3.99555	-0.045505	
0.809397	4.0186	-0.0242652	
1	3.84823	0	
0	8.35949	0	
1	7.69271	0	
0	15.024	0	
0.733275	0.656886	-0.0326325	
0.556638	1.31493	-0.048802	
0.603459	5.93469	-0.0450139	
0.806414	5.92294	-0.0246073	
0.669386	8.49546	-0.0390446	
0.214462	7.82992	-0.0581254	
0.0876987	7.81283	-0.0446191	
1	10.3826	0	
1	10	0	
0.397184	0	-0.0581078	
1	1.5378	0	
0.678103	6.16682	-0.0382044	
0	7.76168	0	
0.461061	6.06324	-0.0551438	
0.326348	5.97911	-0.0598626	
1	0.766769	0	
0	2.08934	0	
1	1.15198	0	
0.797649	1.31672	-0.025606	
0.803252	14.7722	-0.0249688	
0.752159	1.07955	-0.0306282	
0.323313	14.5419	-0.0598955	
0.0454681	1.14658	-0.0341612	
0.3287	18.3751	-0.0598345	
0	13.235	0	
0.0480024	13.1802	-0.0349648	
0.814744	8.68215	-0.0236491	
0.217398	14.9581	-0.058262	
0.0568922	11.577	-0.0375623	
0.0498288	17.3638	-0.0355254	
0	17.3129	0	
0.0830944	11.7838	-0.0437155	
0	11.8398	0	
0.0497211	17.2555	-0.0354927	
0	4.97597	0	
0.0660999	9.59639	-0.0399477	
0.264886	12.3351	0.0597246	
0.398632	12.434	0.0580539	
0.229295	12.4598	0.058757	
0.0654354	0.429596	0.0397846	
0.1685	9.75419	0.0551502	
0.32207	9.70375	0.0599078	
0.271578	9.8346	0.0598278	
0.100597	11.1928	0.0469279	
0.2676	11.1489	0.0597693	
0.248161	11.2557	0.0593609	
0.0746432	1.84612	0.0419334	
0.0823308	2.429	0.0435613	
0.57629	6.87864	0.0472611	
0.424767	6.67594	0.0569711	
0.673479	6.67036	0.0386516	
0.0502784	3.03022	0.0356611	
0.305104	4.96125	0.060011	
0.459219	4.87997	0.055245	
0.43099	5.13598	0.0566835	
0.0759484	3.63521	0.0422198	
0.493833	3.09716	0.0532019	
0.259034	3.02186	0.0596148	
0.394705	2.91295	0.0581985	
0.114296	3.32492	0.0490674	
0.243123	3.28543	0.0592204	
0.276545	3.40724	0.0598895	
0.118005	2.73345	0.0495977	
0.253399	2.69211	0.0594915	
0.246573	2.83615	0.0593182	
0.0735993	4.23881	0.0417012	
0.0702667	4.83239	0.0409411	
0.124579	4.52231	0.0504906	
0.269299	4.4959	0.0597953	
0.231585	4.63001	0.0588419	
0.0513728	5.41747	0.0359879	
0.324416	0.151865	0.0598839	
0.169769	0.136903	0.0552557	
0.216443	0	0.0582182	
0.0675899	6.02625	0.0403086	
0.045902	19.5536	0.034301	
0.257305	5.66913	0.0595788	
0.254496	5.78855	0.0595169	
0.105098	5.71638	0.0476638	
0.397184	0	0.0581078	
0.534962	0.220583	0.0504143	
0.0860832	0	0.0443071	
0.647974	0	0.0410594	
0.4009	13.2078	0.0579682	
0.252729	13.0743	0.0594756	
0.417891	13.0141	0.0572758	
0.0984475	4.6328	0.0465643	
0.350027	11.0334	0.0594796	
0.209327	10.9288	0.0578723	
0.341747	10.8865	0.0596384	
0.0725823	6.35942	0.0414724	
0.0841923	6.84448	0.0439351	
0.0650193	8.19565	0.0396818	
0.0842696	8.419	0.0439504	
0.0684271	8.5463	0.0405086	
0.0652739	9.04001	0.0397447	
0.0866395	13.235	0.0444152	
0.0892766	13.3451	0.0449186	
0.0790771	7.62012	0.0428893	
0.0515947	10.3048	0.0360536	
0.0763478	10.8886	0.0423065	
0.0746344	11.4976	0.0419314	
0.0897624	12.0754	0.0450098	
0.0728891	12.6924	0.0415417	
0.0932174	8.77997	0.0456451	
0.0720727	8.9135	0.0413567	
0.0697273	13.7657	0.0408152	
0.172838	13.4362	0.0555047	
0.303798	13.345	0.0600137	
0.310598	13.4856	0.0599912	
0.0735332	14.3785	0.0416864	
0.101943	6.5825	0.0471516	
0.0771837	6.71811	0.0424869	
0.0724181	15.5725	0.0414352	
0.113483	15.2618	0.0489485	
0.258441	15.2192	0.0596027	
0.233936	15.334	0.0589256	
0.0662238	16.1711	0.0399779	
0.0819423	16.7533	0.0434823	
0.0733736	17.365	0.0416507	
0.0941822	13.0228	0.0458185	
0.0961226	17.5707	0.0461619	
0.105513	17.6879	0.04773	
0.414648	17.7002	0.0574146	
0.345129	17.847	0.0595767	
0.238735	17.7477	0.059086	
0.0854418	18.4461	0.0441818	
0.0783668	19.0589	0.0427393	
0.120419	3.92925	0.0499324	
0.112381	4.04726	0.0487858	
0.096952	16.4688	0.0463065	
0.232141	16.4243	0.058862	
0.233803	16.5447	0.0589209	
0.172821	19.867	0.0555033	
0.216443	20	0.0582182	
0.0860832	20	0.0443071	
0.325681	15.9889	0.0598701	
0.460599	16.0747	0.0551693	
0.312815	16.1502	0.0599795	
0.226835	14.7771	0.0586621	
0.105203	14.6884	0.0476806	
0.254987	14.6384	0.059528	
0.322029	18.1859	0.0599082	
0.18547	18.121	0.056444	
0.314503	18.0078	0.0599691	
0.175091	6.3166	0.0556822	
0.14679	6.45667	0.0531076	
0.572462	5.93986	0.0475669	
0.727921	6.21611	0.0331918	
0.454189	6.08123	0.0555169	
0.181506	6.79212	0.0561637	
0.191569	6.93228	0.0568505	
0.333926	7.52561	0.059764	
0.220708	7.46358	0.058409	
0.338609	7.36226	0.0596917	
0.16817	8.50929	0.0551226	
0.132514	8.65369	0.0514932	
0.464781	8.46285	0.0549367	
0.280371	8.59917	0.0599285	
0.278316	8.46004	0.0599085	
0.160408	8.99498	0.0544428	
0.120635	9.13263	0.0499619	
0.623521	9.02845	0.043272	
0.378366	9.18366	0.0587464	
0.385503	9.015	0.0585179	
0.127882	13.1335	0.0509177	
0.230586	13.2106	0.0588053	
0.118767	12.3775	0.0497042	
0.124334	17.8097	0.0504583	
0.218018	17.8867	0.0582901	
0.520945	17.9269	0.0514056	
0.337273	0.324741	0.0597132	
0.216705	0.262766	0.0582302	
0.448169	6.47375	0.0558337	
0.437634	8.86479	0.0563645	
0.441205	8.66976	0.0561879	
0.644048	8.79566	0.0414211	
0.101871	1.33189	0.0471396	
0.0804583	1.44129	0.0431775	
0.0937116	1.93285	0.0457341	
0.0763592	2.03182	0.042309	
0.0898139	2.52918	0.0450194	
0.0729545	2.63228	0.0415564	
0.106414	3.09679	0.0478727	
0.0749545	3.22218	0.0420021	
0.0909714	3.72468	0.0452347	
0.0732648	3.82782	0.0416263	
0.0912553	4.32675	0.0452871	
0.0772351	4.42459	0.042498	
0.0837208	4.92254	0.0438411	
0.072232	5.01932	0.0413929	
0.101602	5.48569	0.0470952	
0.0755232	5.60739	0.0421269	
0.0871763	6.11925	0.0445188	
0.0827545	6.2319	0.043647	
0.117865	7.71661	0.049578	
0.106385	7.8175	0.0478681	
0.0915072	10.9859	0.0453335	
0.0753559	11.0869	0.0420903	
0.0925195	11.5884	0.0455186	
0.0833854	11.6969	0.043774	
0.0985628	12.1754	0.046584	
0.0775981	12.2798	0.0425757	
0.0927475	12.7842	0.0455601	
0.0863478	12.8948	0.0443586	
0.105157	14.4675	0.0476732	
0.110926	14.5761	0.0485682	
0.0890794	15.0661	0.0448814	
0.0751834	15.1646	0.0420524	
0.104318	15.6669	0.0475387	
0.106911	15.7775	0.047951	
0.105676	16.261	0.047756	
0.111422	16.3609	0.0486428	
0.0918335	16.8571	0.0453934	
0.100877	16.962	0.0469747	
0.0935297	17.4572	0.0457014	
0.109473	18.5561	0.0483476	
0.0915848	18.6545	0.0453478	
0.113551	19.1561	0.0489585	
0.106595	19.2648	0.0479013	
0.202595	1.44081	0.0575123	
0.115095	1.54396	0.0491833	
0.190849	1.99871	0.0568041	
0.116782	2.13094	0.049425	
0.176487	2.60091	0.05579	
0.179418	3.18275	0.0560108	
0.532397	2.5052	0.0505987	
0.435239	2.71602	0.0564809	
0.329625	2.5576	0.0598228	
0.167396	3.79485	0.0550574	
0.193169	4.3928	0.0569523	
0.17068	4.99271	0.0553305	
0.121885	5.11852	0.0501318	
0.181702	5.56795	0.0561779	
0.244376	5.23497	0.0592568	
0.251559	5.09113	0.0594474	
0.185516	11.0572	0.0564472	
0.197138	11.6514	0.0571963	
0.157155	11.7929	0.0541409	
0.196905	12.2416	0.0571822	
0.390683	12.002	0.0583415	
0.661653	12.1062	0.0397804	
0.400357	12.2113	0.0579889	
0.211296	13.9242	0.0579715	
0.25324	14.0411	0.0594877	
0.0953733	13.9777	0.0460301	
0.669484	13.8567	0.0390352	
0.761583	13.6028	0.0296101	
0.18408	15.1305	0.0563472	
0.246387	15.7371	0.0593131	
0.191648	15.8981	0.0568556	
0.779439	15.1095	0.0276489	
0.677261	15.3674	0.0382861	
0.221307	16.9045	0.0584348	
0.249357	17.0407	0.0593921	
0.406219	19.0746	0.0577609	
0.493684	19.2568	0.0532113	
0.274064	19.2302	0.0598603	
0.448213	8.27432	0.0558314	
0.319211	8.34373	0.0599338	
0.667995	9.54325	0.0391776	
0.495351	9.65324	0.0531057	
0.43924	9.41278	0.0562855	
0.256696	0.672445	0.0595658	
0.14765	0.596505	0.0531975	
0.280824	0.506239	0.0599327	
0.359768	19.4345	0.05926	
0.0781125	9.24702	0.0426854	
0.210134	9.21758	0.0579133	
0.274459	9.3475	0.0598651	