<VTKFile type="UnstructuredGrid" version="0.1" byte_order="LittleEndian">
	<UnstructuredGrid>
		<Piece NumberOfPoints="208" NumberOfCells="104">
			<CellData Scalars="scalars">
				<DataArray type="Float64" Name="Gamma" NumberOfComponents="1" Format="ascii">
0.364938	
0.373841	
0.376496	
0.373865	
0.38225	
0.390674	
0.389984	
0.390906	
0.382183	
0.364496	
0.375349	
0.375983	
0.374173	
0.365796	
0.365007	
0.364072	
0.324227	
0.333905	
0.367213	
0.306357	
0.273719	
0.378706	
0.36012	
0.383998	
0.351707	
0.370591	
0.175466	
0.375517	
0.347523	
0.373953	
0.381681	
0.368964	
0.38537	
0.367313	
0.373706	
0.361744	
0.369635	
0.315934	
0.370536	
0.365033	
0.377299	
0.370096	
0.380874	
0.367757	
0.372117	
0.389877	
0.373052	
0.351585	
0.359777	
0.359406	
0.349434	
0.345487	
0.381422	
0.385032	
0.373262	
0.37113	
0.382051	
0.386218	
0.388905	
0.37715	
0.359489	
0.380584	
0.36388	
0.367283	
0.375604	
0.390099	
0.378848	
0.366305	
0.379602	
0.366137	
0.323185	
0.331634	
0.382051	
0.30122	
0.275554	
0.3742	
0.365519	
0.381345	
0.363373	
0.374045	
0.180335	
0.381543	
0.363247	
0.37715	
0.386296	
0.356033	
0.361579	
0.376562	
0.374381	
0.379184	
0.315836	
0.372886	
0.364407	
0.355866	
0.375527	
0.379033	
0.345668	
0.350697	
0.379814	
0.352625	
0.35972	
0.354267	
0.365166	
0.373396	
				</DataArray>
			</CellData>
			<Points>
				<DataArray type="Float64" Name="Position" NumberOfComponents="3" Format="ascii">
1.88461	10.7666	-0.00220241	
1.88461	11.1518	0.00117749	
1.88461	11.1518	0.00117749	
1.88461	11.5377	-0.00177259	
1.88462	13.8481	0.000746151	
1.88462	14.2333	-0.000415366	
1.88462	12.6926	-0.000490085	
1.88461	13.0773	-0.00148854	
1.88461	3.07751	0.00112364	
1.88462	3.46241	-0.000368345	
1.88462	6.15193	0.000441629	
1.88461	6.53775	0.00287738	
1.88461	6.53775	0.00287738	
1.88461	6.92267	0.00295251	
1.88461	6.92267	0.00295251	
1.88462	7.3074	0.000199905	
1.88461	11.9226	-0.00122509	
1.88462	12.3073	0.000208082	
1.88461	11.5377	-0.00177259	
1.88461	11.9226	-0.00122509	
1.88462	4.61745	1.15793e-05	
1.88461	5.00008	-0.00191078	
1.88461	4.23345	0.000911273	
1.88462	4.61745	1.15793e-05	
1.88461	15.3825	0.000889286	
1.88462	15.7666	-0.000682319	
1.88462	14.9999	8.22052e-05	
1.88461	15.3825	0.000889286	
1.88461	16.1518	-0.000832717	
1.88461	16.5376	-0.00122612	
1.88462	9.23336	-0.000307058	
1.88462	9.61737	-6.15639e-05	
1.88461	18.4622	-0.00140536	
1.88461	18.848	0.00165583	
1.88462	17.6926	0.000510029	
1.88461	18.0773	-0.00199333	
1.88462	2.30745	0.000183993	
1.88462	2.69276	0.000391992	
1.88461	18.848	0.00165583	
1.88461	19.2332	0.00134773	
1.88461	19.2332	0.00134773	
1.88462	19.6172	-0.000545109	
1.88462	2.69276	0.000391992	
1.88461	3.07751	0.00112364	
1.88462	14.2333	-0.000415366	
1.88462	14.6173	-0.000380422	
1.88462	8.07741	9.26721e-07	
1.88461	8.46233	0.0027887	
1.88462	17.3072	-0.000388039	
1.88462	17.6926	0.000510029	
1.88462	0	-0.000126211	
1.88462	0.382778	0.000123339	
1.88462	19.6172	-0.000545109	
1.88461	20	-0.00111817	
1.88461	8.84815	0.00246331	
1.88462	9.23336	-0.000307058	
1.88461	16.9225	-0.0020464	
1.88462	17.3072	-0.000388039	
1.88462	1.92272	3.48795e-05	
1.88462	2.30745	0.000183993	
1.88461	5.38272	-0.00178314	
1.88462	5.76672	0.000270763	
1.88461	13.4623	-0.00177714	
1.88462	13.8481	0.000746151	
1.88462	3.84823	-0.000557121	
1.88461	4.23345	0.000911273	
1.88462	12.3073	0.000208082	
1.88462	12.6926	-0.000490085	
1.88462	7.3074	0.000199905	
1.88462	7.69271	-0.000480934	
1.88462	10	7.19745e-05	
1.88461	10.3826	-0.00235506	
1.88462	1.5378	-0.000170579	
1.88462	1.92272	3.48795e-05	
1.88461	18.0773	-0.00199333	
1.88461	18.4622	-0.00140536	
1.88462	1.15198	-0.000567197	
1.88462	1.5378	-0.000170579	
1.88462	14.6173	-0.000380422	
1.88462	14.9999	8.22052e-05	
1.88462	7.69271	-0.000480934	
1.88462	8.07741	9.26721e-07	
1.88462	9.61737	-6.15639e-05	
1.88462	10	7.19745e-05	
1.88462	5.76672	0.000270763	
1.88462	6.15193	0.000441629	
1.88462	0.766769	6.47256e-05	
1.88462	1.15198	-0.000567197	
1.88462	0.382778	0.000123339	
1.88462	0.766769	6.47256e-05	
1.88461	8.46233	0.0027887	
1.88461	8.84815	0.00246331	
1.88462	3.46241	-0.000368345	
1.88462	3.84823	-0.000557121	
1.88462	15.7666	-0.000682319	
1.88461	16.1518	-0.000832717	
1.88461	5.00008	-0.00191078	
1.88461	5.38272	-0.00178314	
1.88461	13.0773	-0.00148854	
1.88461	13.4623	-0.00177714	
1.88461	10.3826	-0.00235506	
1.88461	10.7666	-0.00220241	
1.88461	16.5376	-0.00122612	
1.88461	16.9225	-0.0020464	
1.88461	-11.1518	0.00241715	
1.88461	-10.7666	0.00157008	
1.88461	-11.5377	-0.00176185	
1.88461	-11.1518	0.00241715	
1.88462	-14.2333	0.000545942	
1.88462	-13.8481	0.000343294	
1.88462	-3.46241	0.00021465	
1.88462	-3.07751	-0.000546212	
1.88461	-6.53775	0.0030122	
1.88461	-6.15193	-0.00325396	
1.88461	-6.92267	0.00293189	
1.88461	-6.53775	0.0030122	
1.88461	-7.3074	0.00135522	
1.88461	-6.92267	0.00293189	
1.88461	-10.7666	0.00157008	
1.88462	-10.3826	0.00061759	
1.88462	-17.3072	6.80128e-05	
1.88461	-16.9225	-0.000885134	
1.88462	-12.3073	-0.000342344	
1.88461	-11.9226	-0.00125401	
1.88461	-11.9226	-0.00125401	
1.88461	-11.5377	-0.00176185	
1.88461	-5.38272	-0.00145694	
1.88462	-5.00008	4.56648e-05	
1.88462	-5.00008	4.56648e-05	
1.88461	-4.61745	0.00159765	
1.88461	-4.61745	0.00159765	
1.88461	-4.23345	0.00247152	
1.88462	-15.7666	-0.000763053	
1.88461	-15.3825	0.000896152	
1.88461	-15.3825	0.000896152	
1.88461	-14.9999	-0.00159403	
1.88461	-3.84823	0.00212324	
1.88462	-3.46241	0.00021465	
1.88462	-16.5376	-0.000660455	
1.88461	-16.1518	-0.000865932	
1.88462	-18.848	0.000695383	
1.88461	-18.4622	-0.00132618	
1.88461	-18.0773	-0.00201203	
1.88462	-17.6926	-0.000615599	
1.88462	-2.69276	0.000668591	
1.88461	-2.30745	0.00122152	
1.88461	-19.2332	0.0012176	
1.88462	-18.848	0.000695383	
1.88462	-19.6172	-0.000120054	
1.88461	-19.2332	0.0012176	
1.88462	-3.07751	-0.000546212	
1.88462	-2.69276	0.000668591	
1.88461	-14.6173	-0.00164297	
1.88462	-14.2333	0.000545942	
1.88462	-8.46233	0.000590375	
1.88462	-8.07741	-0.000207978	
1.88461	-13.0773	-0.00299199	
1.88461	-12.6926	-0.00142926	
1.88462	-0.382778	0.000509127	
1.88462	0	-0.000126211	
1.88462	-20	-0.000649429	
1.88462	-19.6172	-0.000120054	
1.88461	-10	0.0010607	
1.88461	-9.61737	-0.00355659	
1.88462	-1.5378	-0.00011927	
1.88462	-1.15198	0.000420668	
1.88461	-2.30745	0.00122152	
1.88462	-1.92272	0.000416392	
1.88461	-4.23345	0.00247152	
1.88461	-3.84823	0.00212324	
1.88461	-6.15193	-0.00325396	
1.88461	-5.76672	-0.00258311	
1.88461	-12.6926	-0.00142926	
1.88462	-12.3073	-0.000342344	
1.88462	-10.3826	0.00061759	
1.88461	-10	0.0010607	
1.88462	-1.15198	0.000420668	
1.88462	-0.766769	0.000810592	
1.88462	-8.84815	7.6382e-05	
1.88462	-8.46233	0.000590375	
1.88461	-18.4622	-0.00132618	
1.88461	-18.0773	-0.00201203	
1.88462	-1.92272	0.000416392	
1.88462	-1.5378	-0.00011927	
1.88461	-5.76672	-0.00258311	
1.88461	-5.38272	-0.00145694	
1.88461	-14.9999	-0.00159403	
1.88461	-14.6173	-0.00164297	
1.88462	-8.07741	-0.000207978	
1.88462	-7.69271	0.000563012	
1.88461	-9.23336	-0.00419952	
1.88462	-8.84815	7.6382e-05	
1.88462	-17.6926	-0.000615599	
1.88462	-17.3072	6.80128e-05	
1.88461	-16.9225	-0.000885134	
1.88462	-16.5376	-0.000660455	
1.88462	-7.69271	0.000563012	
1.88461	-7.3074	0.00135522	
1.88461	-16.1518	-0.000865932	
1.88462	-15.7666	-0.000763053	
1.88461	-9.61737	-0.00355659	
1.88461	-9.23336	-0.00419952	
1.88461	-13.4623	-0.00110048	
1.88461	-13.0773	-0.00299199	
1.88462	-13.8481	0.000343294	
1.88461	-13.4623	-0.00110048	
1.88462	-0.766769	0.000810592	
1.88462	-0.382778	0.000509127	
				</DataArray>
			</Points>
			<Cells>
				<DataArray type="Int32" Name="connectivity" Format="ascii">
0	1	
2	3	
4	5	
6	7	
8	9	
10	11	
12	13	
14	15	
16	17	
18	19	
20	21	
22	23	
24	25	
26	27	
28	29	
30	31	
32	33	
34	35	
36	37	
38	39	
40	41	
42	43	
44	45	
46	47	
48	49	
50	51	
52	53	
54	55	
56	57	
58	59	
60	61	
62	63	
64	65	
66	67	
68	69	
70	71	
72	73	
74	75	
76	77	
78	79	
80	81	
82	83	
84	85	
86	87	
88	89	
90	91	
92	93	
94	95	
96	97	
98	99	
100	101	
102	103	
104	105	
106	107	
108	109	
110	111	
112	113	
114	115	
116	117	
118	119	
120	121	
122	123	
124	125	
126	127	
128	129	
130	131	
132	133	
134	135	
136	137	
138	139	
140	141	
142	143	
144	145	
146	147	
148	149	
150	151	
152	153	
154	155	
156	157	
158	159	
160	161	
162	163	
164	165	
166	167	
168	169	
170	171	
172	173	
174	175	
176	177	
178	179	
180	181	
182	183	
184	185	
186	187	
188	189	
190	191	
192	193	
194	195	
196	197	
198	199	
200	201	
202	203	
204	205	
206	207	
				</DataArray>
				<DataArray type="Int32" Name="offsets" Format="ascii">
2	
4	
6	
8	
10	
12	
14	
16	
18	
20	
22	
24	
26	
28	
30	
32	
34	
36	
38	
40	
42	
44	
46	
48	
50	
52	
54	
56	
58	
60	
62	
64	
66	
68	
70	
72	
74	
76	
78	
80	
82	
84	
86	
88	
90	
92	
94	
96	
98	
100	
102	
104	
106	
108	
110	
112	
114	
116	
118	
120	
122	
124	
126	
128	
130	
132	
134	
136	
138	
140	
142	
144	
146	
148	
150	
152	
154	
156	
158	
160	
162	
164	
166	
168	
170	
172	
174	
176	
178	
180	
182	
184	
186	
188	
190	
192	
194	
196	
198	
200	
202	
204	
206	
208	
				</DataArray>
				<DataArray type="Int32" Name="types" Format="ascii">
3	
3	
3	
3	
3	
3	
3	
3	
3	
3	
3	
3	
3	
3	
3	
3	
3	
3	
3	
3	
3	
3	
3	
3	
3	
3	
3	
3	
3	
3	
3	
3	
3	
3	
3	
3	
3	
3	
3	
3	
3	
3	
3	
3	
3	
3	
3	
3	
3	
3	
3	
3	
3	
3	
3	
3	
3	
3	
3	
3	
3	
3	
3	
3	
3	
3	
3	
3	
3	
3	
3	
3	
3	
3	
3	
3	
3	
3	
3	
3	
3	
3	
3	
3	
3	
3	
3	
3	
3	
3	
3	
3	
3	
3	
3	
3	
3	
3	
3	
3	
3	
3	
3	
3	
				</DataArray>
			</Cells>
		</Piece>
	</UnstructuredGrid>
</VTKFile>
