<VTKFile type="UnstructuredGrid" version="0.1" byte_order="LittleEndian">
	<UnstructuredGrid>
		<Piece NumberOfPoints="208" NumberOfCells="104">
			<CellData Scalars="scalars">
				<DataArray type="Float64" Name="Gamma" NumberOfComponents="1" Format="ascii">
0.651525	
0.655877	
0.650676	
0.6536	
0.669246	
0.680288	
0.675272	
0.677644	
0.663265	
0.648432	
0.662323	
0.663453	
0.642419	
0.63901	
0.62621	
0.651053	
0.534308	
0.568747	
0.655638	
0.497066	
0.43965	
0.66778	
0.637411	
0.669227	
0.59488	
0.658672	
0.290525	
0.661495	
0.596918	
0.663708	
0.670605	
0.645558	
0.673456	
0.648507	
0.662607	
0.648652	
0.658576	
0.538242	
0.661695	
0.641318	
0.664436	
0.657692	
0.669676	
0.656551	
0.658864	
0.672669	
0.661359	
0.616445	
0.646111	
0.636785	
0.636513	
0.601539	
0.660394	
0.667884	
0.646963	
0.659481	
0.667416	
0.670618	
0.674985	
0.661343	
0.609906	
0.659877	
0.643608	
0.654981	
0.661591	
0.676544	
0.650858	
0.640676	
0.665831	
0.626531	
0.531193	
0.564595	
0.667576	
0.491763	
0.441551	
0.664416	
0.640461	
0.670435	
0.642019	
0.66178	
0.295435	
0.663085	
0.652674	
0.666379	
0.670379	
0.640876	
0.64152	
0.660863	
0.661749	
0.664908	
0.537646	
0.661355	
0.654298	
0.632632	
0.661681	
0.670461	
0.588618	
0.607481	
0.666801	
0.618329	
0.644703	
0.627067	
0.639067	
0.65881	
				</DataArray>
			</CellData>
			<Points>
				<DataArray type="Float64" Name="Position" NumberOfComponents="3" Format="ascii">
1.88005	10.7666	-0.00219105	
1.88005	11.1518	0.00117142	
1.88005	11.1518	0.00117142	
1.88005	11.5377	-0.00176345	
1.88005	13.8481	0.000742305	
1.88005	14.2333	-0.000413224	
1.88005	12.6926	-0.000487559	
1.88005	13.0773	-0.00148086	
1.88005	3.07751	0.00111785	
1.88005	3.46241	-0.000366446	
1.88005	6.15193	0.000439352	
1.88005	6.53775	0.00286255	
1.88005	6.53775	0.00286255	
1.88005	6.92267	0.00293729	
1.88005	6.92267	0.00293729	
1.88005	7.3074	0.000198875	
1.88005	11.9226	-0.00121877	
1.88005	12.3073	0.000207009	
1.88005	11.5377	-0.00176345	
1.88005	11.9226	-0.00121877	
1.88005	4.61745	1.15196e-05	
1.88005	5.00008	-0.00190093	
1.88005	4.23345	0.000906574	
1.88005	4.61745	1.15196e-05	
1.88005	15.3825	0.000884701	
1.88005	15.7666	-0.000678801	
1.88005	14.9999	8.17814e-05	
1.88005	15.3825	0.000884701	
1.88005	16.1518	-0.000828424	
1.88005	16.5376	-0.0012198	
1.88005	9.23336	-0.000305475	
1.88005	9.61737	-6.12465e-05	
1.88005	18.4622	-0.00139812	
1.88005	18.848	0.00164729	
1.88005	17.6926	0.000507399	
1.88005	18.0773	-0.00198305	
1.88005	2.30745	0.000183044	
1.88005	2.69276	0.000389971	
1.88005	18.848	0.00164729	
1.88005	19.2332	0.00134078	
1.88005	19.2332	0.00134078	
1.88005	19.6172	-0.000542299	
1.88005	2.69276	0.000389971	
1.88005	3.07751	0.00111785	
1.88005	14.2333	-0.000413224	
1.88005	14.6173	-0.00037846	
1.88005	8.07741	9.21943e-07	
1.88005	8.46233	0.00277433	
1.88005	17.3072	-0.000386039	
1.88005	17.6926	0.000507399	
1.88005	0	-0.000125561	
1.88005	0.382778	0.000122703	
1.88005	19.6172	-0.000542299	
1.88005	20	-0.00111241	
1.88005	8.84815	0.00245061	
1.88005	9.23336	-0.000305475	
1.88005	16.9225	-0.00203585	
1.88005	17.3072	-0.000386039	
1.88005	1.92272	3.46996e-05	
1.88005	2.30745	0.000183044	
1.88005	5.38272	-0.00177395	
1.88005	5.76672	0.000269367	
1.88005	13.4623	-0.00176797	
1.88005	13.8481	0.000742305	
1.88005	3.84823	-0.000554249	
1.88005	4.23345	0.000906574	
1.88005	12.3073	0.000207009	
1.88005	12.6926	-0.000487559	
1.88005	7.3074	0.000198875	
1.88005	7.69271	-0.000478455	
1.88005	10	7.16035e-05	
1.88005	10.3826	-0.00234292	
1.88005	1.5378	-0.0001697	
1.88005	1.92272	3.46996e-05	
1.88005	18.0773	-0.00198305	
1.88005	18.4622	-0.00139812	
1.88005	1.15198	-0.000564273	
1.88005	1.5378	-0.0001697	
1.88005	14.6173	-0.00037846	
1.88005	14.9999	8.17814e-05	
1.88005	7.69271	-0.000478455	
1.88005	8.07741	9.21943e-07	
1.88005	9.61737	-6.12465e-05	
1.88005	10	7.16035e-05	
1.88005	5.76672	0.000269367	
1.88005	6.15193	0.000439352	
1.88005	0.766769	6.43919e-05	
1.88005	1.15198	-0.000564273	
1.88005	0.382778	0.000122703	
1.88005	0.766769	6.43919e-05	
1.88005	8.46233	0.00277433	
1.88005	8.84815	0.00245061	
1.88005	3.46241	-0.000366446	
1.88005	3.84823	-0.000554249	
1.88005	15.7666	-0.000678801	
1.88005	16.1518	-0.000828424	
1.88005	5.00008	-0.00190093	
1.88005	5.38272	-0.00177395	
1.88005	13.0773	-0.00148086	
1.88005	13.4623	-0.00176797	
1.88005	10.3826	-0.00234292	
1.88005	10.7666	-0.00219105	
1.88005	16.5376	-0.0012198	
1.88005	16.9225	-0.00203585	
1.88005	-11.1518	0.00240469	
1.88005	-10.7666	0.00156198	
1.88005	-11.5377	-0.00175276	
1.88005	-11.1518	0.00240469	
1.88005	-14.2333	0.000543128	
1.88005	-13.8481	0.000341524	
1.88005	-3.46241	0.000213544	
1.88005	-3.07751	-0.000543396	
1.88005	-6.53775	0.00299667	
1.88005	-6.15193	-0.00323719	
1.88005	-6.92267	0.00291677	
1.88005	-6.53775	0.00299667	
1.88005	-7.3074	0.00134823	
1.88005	-6.92267	0.00291677	
1.88005	-10.7666	0.00156198	
1.88005	-10.3826	0.000614405	
1.88005	-17.3072	6.76621e-05	
1.88005	-16.9225	-0.000880571	
1.88005	-12.3073	-0.000340579	
1.88005	-11.9226	-0.00124754	
1.88005	-11.9226	-0.00124754	
1.88005	-11.5377	-0.00175276	
1.88005	-5.38272	-0.00144943	
1.88005	-5.00008	4.54294e-05	
1.88005	-5.00008	4.54294e-05	
1.88005	-4.61745	0.00158941	
1.88005	-4.61745	0.00158941	
1.88005	-4.23345	0.00245878	
1.88005	-15.7666	-0.000759119	
1.88005	-15.3825	0.000891532	
1.88005	-15.3825	0.000891532	
1.88005	-14.9999	-0.00158581	
1.88005	-3.84823	0.0021123	
1.88005	-3.46241	0.000213544	
1.88005	-16.5376	-0.00065705	
1.88005	-16.1518	-0.000861467	
1.88005	-18.848	0.000691798	
1.88005	-18.4622	-0.00131934	
1.88005	-18.0773	-0.00200165	
1.88005	-17.6926	-0.000612426	
1.88005	-2.69276	0.000665144	
1.88005	-2.30745	0.00121523	
1.88005	-19.2332	0.00121133	
1.88005	-18.848	0.000691798	
1.88005	-19.6172	-0.000119435	
1.88005	-19.2332	0.00121133	
1.88005	-3.07751	-0.000543396	
1.88005	-2.69276	0.000665144	
1.88005	-14.6173	-0.0016345	
1.88005	-14.2333	0.000543128	
1.88005	-8.46233	0.000587332	
1.88005	-8.07741	-0.000206906	
1.88005	-13.0773	-0.00297657	
1.88005	-12.6926	-0.00142189	
1.88005	-0.382778	0.000506502	
1.88005	0	-0.000125561	
1.88005	-20	-0.000646081	
1.88005	-19.6172	-0.000119435	
1.88005	-10	0.00105523	
1.88005	-9.61737	-0.00353825	
1.88005	-1.5378	-0.000118655	
1.88005	-1.15198	0.000418499	
1.88005	-2.30745	0.00121523	
1.88005	-1.92272	0.000414246	
1.88005	-4.23345	0.00245878	
1.88005	-3.84823	0.0021123	
1.88005	-6.15193	-0.00323719	
1.88005	-5.76672	-0.0025698	
1.88005	-12.6926	-0.00142189	
1.88005	-12.3073	-0.000340579	
1.88005	-10.3826	0.000614405	
1.88005	-10	0.00105523	
1.88005	-1.15198	0.000418499	
1.88005	-0.766769	0.000806413	
1.88005	-8.84815	7.59882e-05	
1.88005	-8.46233	0.000587332	
1.88005	-18.4622	-0.00131934	
1.88005	-18.0773	-0.00200165	
1.88005	-1.92272	0.000414246	
1.88005	-1.5378	-0.000118655	
1.88005	-5.76672	-0.0025698	
1.88005	-5.38272	-0.00144943	
1.88005	-14.9999	-0.00158581	
1.88005	-14.6173	-0.0016345	
1.88005	-8.07741	-0.000206906	
1.88005	-7.69271	0.00056011	
1.88004	-9.23336	-0.00417786	
1.88005	-8.84815	7.59882e-05	
1.88005	-17.6926	-0.000612426	
1.88005	-17.3072	6.76621e-05	
1.88005	-16.9225	-0.000880571	
1.88005	-16.5376	-0.00065705	
1.88005	-7.69271	0.00056011	
1.88005	-7.3074	0.00134823	
1.88005	-16.1518	-0.000861467	
1.88005	-15.7666	-0.000759119	
1.88005	-9.61737	-0.00353825	
1.88004	-9.23336	-0.00417786	
1.88005	-13.4623	-0.00109481	
1.88005	-13.0773	-0.00297657	
1.88005	-13.8481	0.000341524	
1.88005	-13.4623	-0.00109481	
1.88005	-0.766769	0.000806413	
1.88005	-0.382778	0.000506502	
				</DataArray>
			</Points>
			<Cells>
				<DataArray type="Int32" Name="connectivity" Format="ascii">
0	1	
2	3	
4	5	
6	7	
8	9	
10	11	
12	13	
14	15	
16	17	
18	19	
20	21	
22	23	
24	25	
26	27	
28	29	
30	31	
32	33	
34	35	
36	37	
38	39	
40	41	
42	43	
44	45	
46	47	
48	49	
50	51	
52	53	
54	55	
56	57	
58	59	
60	61	
62	63	
64	65	
66	67	
68	69	
70	71	
72	73	
74	75	
76	77	
78	79	
80	81	
82	83	
84	85	
86	87	
88	89	
90	91	
92	93	
94	95	
96	97	
98	99	
100	101	
102	103	
104	105	
106	107	
108	109	
110	111	
112	113	
114	115	
116	117	
118	119	
120	121	
122	123	
124	125	
126	127	
128	129	
130	131	
132	133	
134	135	
136	137	
138	139	
140	141	
142	143	
144	145	
146	147	
148	149	
150	151	
152	153	
154	155	
156	157	
158	159	
160	161	
162	163	
164	165	
166	167	
168	169	
170	171	
172	173	
174	175	
176	177	
178	179	
180	181	
182	183	
184	185	
186	187	
188	189	
190	191	
192	193	
194	195	
196	197	
198	199	
200	201	
202	203	
204	205	
206	207	
				</DataArray>
				<DataArray type="Int32" Name="offsets" Format="ascii">
2	
4	
6	
8	
10	
12	
14	
16	
18	
20	
22	
24	
26	
28	
30	
32	
34	
36	
38	
40	
42	
44	
46	
48	
50	
52	
54	
56	
58	
60	
62	
64	
66	
68	
70	
72	
74	
76	
78	
80	
82	
84	
86	
88	
90	
92	
94	
96	
98	
100	
102	
104	
106	
108	
110	
112	
114	
116	
118	
120	
122	
124	
126	
128	
130	
132	
134	
136	
138	
140	
142	
144	
146	
148	
150	
152	
154	
156	
158	
160	
162	
164	
166	
168	
170	
172	
174	
176	
178	
180	
182	
184	
186	
188	
190	
192	
194	
196	
198	
200	
202	
204	
206	
208	
				</DataArray>
				<DataArray type="Int32" Name="types" Format="ascii">
3	
3	
3	
3	
3	
3	
3	
3	
3	
3	
3	
3	
3	
3	
3	
3	
3	
3	
3	
3	
3	
3	
3	
3	
3	
3	
3	
3	
3	
3	
3	
3	
3	
3	
3	
3	
3	
3	
3	
3	
3	
3	
3	
3	
3	
3	
3	
3	
3	
3	
3	
3	
3	
3	
3	
3	
3	
3	
3	
3	
3	
3	
3	
3	
3	
3	
3	
3	
3	
3	
3	
3	
3	
3	
3	
3	
3	
3	
3	
3	
3	
3	
3	
3	
3	
3	
3	
3	
3	
3	
3	
3	
3	
3	
3	
3	
3	
3	
3	
3	
3	
3	
3	
3	
				</DataArray>
			</Cells>
		</Piece>
	</UnstructuredGrid>
</VTKFile>
