<VTKFile type="UnstructuredGrid" version="0.1" byte_order="LittleEndian">
	<UnstructuredGrid>
		<Piece NumberOfPoints="563" NumberOfCells="940">
			<CellData Scalars="scalars">
				<DataArray type="Float64" Name="Doublet Strengths" NumberOfComponents="1" Format="ascii">
0.0839736	
0.0871215	
0.0881887	
0.0865736	
0.084086	
0.0836492	
0.083979	
0.0837954	
0.0826998	
0.0804822	
0.0781669	
0.0738025	
0.0720149	
0.143914	
0.138764	
0.10247	
0.127986	
0.141381	
0.0850839	
0.0904682	
0.0832771	
0.100001	
0.0995421	
0.0994269	
0.0860468	
0.0821688	
0.0842901	
0.113919	
0.0940201	
0.0367032	
0.113783	
0.122262	
0.12119	
0.0747017	
0.151089	
0.139932	
0.0703044	
0.0744043	
0.0949456	
0.0571484	
0.0877769	
0.0489035	
0.0757797	
0.108264	
0.100236	
0.106651	
0.106219	
0.110832	
0.126878	
0.0938582	
0.0902493	
0.108783	
0.108636	
0.0936026	
0.0913407	
0.0830429	
0.0777476	
0.0852295	
0.076621	
0.0965608	
0.0811924	
0.0900881	
0.0849596	
0.0890864	
0.0849546	
0.0919386	
0.0917081	
0.0925958	
0.0717619	
0.071309	
0.0692791	
0.0692658	
0.0634325	
0.0627543	
0.129979	
0.0725387	
0.0740484	
0.0766112	
0.0791071	
0.0921392	
0.0903802	
0.093037	
0.0957386	
0.100951	
0.10226	
0.0903059	
0.0876805	
0.0875226	
0.0869116	
0.0877482	
0.0929215	
0.0947836	
0.108467	
0.115898	
0.100397	
0.0946491	
0.0755605	
0.0771077	
0.128616	
0.121832	
0.0756196	
0.0758536	
0.0767739	
0.0789553	
0.0558059	
0.0506506	
0.0923568	
0.095153	
0.0957211	
0.100452	
0.143319	
0.0418287	
0.103393	
0.0929017	
0.0901898	
0.134013	
0.125118	
0.068795	
0.0642807	
0.0823442	
0.0440293	
0.0521253	
0.0855064	
0.0937421	
0.0686097	
0.0673318	
0.088316	
0.0756833	
0.0882134	
0.0876333	
0.0895627	
0.0890119	
0.0970251	
0.102974	
0.105768	
0.0427714	
0.0413436	
0.0865714	
0.0827725	
0.0785887	
0.090395	
0.119993	
0.100896	
0.11988	
0.106201	
0.0854138	
0.0838649	
0.0842077	
0.104482	
0.0988557	
0.0856994	
0.0960711	
0.0956089	
0.102598	
0.0945431	
0.0659764	
0.0465335	
0.0334495	
0.0551023	
0.0929763	
0.0937955	
0.0816865	
0.0868945	
0.0959198	
0.0940195	
0.0927421	
0.0903745	
0.100503	
0.0896398	
0.0924695	
0.117401	
0.11121	
0.129723	
0.114396	
0.088411	
0.0832627	
0.0772744	
0.0790681	
0.0814127	
0.0899424	
0.0924167	
0.0826627	
0.0913811	
0.131799	
0.0898851	
0.0855099	
0.107535	
0.0870496	
0.0920193	
0.0631835	
0.0605724	
0.0522857	
0.0908118	
0.0910311	
0.0901855	
0.0822876	
0.0809533	
0.0840202	
0.0790506	
0.0688093	
0.0718875	
0.0741078	
0.0679112	
0.13591	
0.135086	
0.123426	
0.123041	
0.113558	
0.111644	
0.117393	
0.0899167	
0.0888109	
0.0962997	
0.0903877	
0.100298	
0.0969987	
0.105914	
0.102293	
0.0505071	
0.0546039	
0.0614763	
0.0630162	
0.117461	
0.125922	
0.053714	
-0.18183	
0.053536	
0.0545631	
0.0539246	
0.0527834	
0.0534711	
0.0511866	
0.0514144	
0.0488919	
0.0400742	
0.0493881	
-0.0802865	
-0.107251	
-0.107211	
0.0491342	
-0.110836	
-0.0750617	
-0.0702245	
-0.124335	
-0.00515988	
-0.081844	
-0.0800425	
-0.0393884	
-0.0506553	
-0.0316285	
-0.0803711	
0.0460732	
-0.00533335	
0.0455754	
-0.0121584	
0.045108	
0.0488125	
-0.0160099	
0.0428141	
0.0438215	
-0.0414767	
0.00362552	
-0.158173	
-0.177277	
-0.0582272	
-0.0618853	
-0.0647154	
0.00548219	
-0.133715	
-0.12699	
-0.0685202	
-0.00515356	
0.0269669	
0.0484012	
0.051207	
-0.103033	
-0.103904	
-0.0473544	
-0.00876638	
-0.01781	
-0.00582671	
0.0403516	
-0.0983833	
-0.0966644	
0.0535244	
0.044843	
0.0512862	
-0.00573565	
0.0052342	
0.0429373	
-0.0980149	
-0.131529	
0.0515229	
0.0495673	
0.0179199	
-0.000105744	
-0.0916141	
-0.13061	
-0.0136885	
-0.0736409	
-0.0495263	
-0.136963	
0.0492731	
0.0493188	
0.0176895	
0.0175143	
0.0553351	
0.0199444	
0.046786	
0.0530211	
0.0394321	
0.0435269	
0.0173369	
0.0448666	
0.011844	
0.0545513	
0.0487298	
0.00670631	
-0.0682076	
-0.0616356	
-0.0207848	
-0.0239687	
-0.0368801	
0.0117754	
-0.0157143	
-0.0541351	
-0.0165742	
-0.102829	
0.0367521	
0.051017	
-0.00846553	
-0.129246	
-0.0100019	
-0.0104693	
6.50073e-05	
0.0418607	
-0.00119428	
-0.0133356	
-0.0478216	
0.0457555	
0.0506296	
-0.175378	
-0.0240692	
-0.0296014	
-0.0619555	
-0.164813	
-0.0576938	
-0.0396672	
-0.00711738	
-0.0404963	
0.00181188	
-0.165079	
-0.132147	
-0.148233	
0.0388835	
-0.178776	
-0.00710272	
0.00668194	
0.0488249	
0.00940012	
-0.00157132	
0.0116784	
0.0447037	
0.0416796	
0.0481125	
0.0250571	
0.0425687	
0.0462	
0.0532982	
0.043106	
-0.0314517	
0.00298891	
-0.039204	
0.0119756	
-0.188788	
-0.197289	
0.0559775	
-0.169919	
-0.121899	
-0.225186	
-0.0373683	
0.00369507	
0.00226726	
0.0420184	
0.0495316	
0.0421706	
-0.0916081	
0.00657466	
0.050123	
0.00739664	
0.00175501	
-0.0375203	
-0.219752	
-0.0398916	
-0.0534302	
-0.0839385	
0.0478992	
0.0147435	
0.0470277	
0.0135599	
0.05537	
0.0219895	
-0.101722	
-0.136399	
-0.0231291	
-0.0464622	
-0.152769	
-0.192557	
-0.160157	
-0.0984729	
-0.159568	
-0.213107	
-0.0544466	
-0.004786	
-0.16692	
-0.230791	
-0.222226	
-0.113835	
-0.0379112	
-0.209647	
-0.108915	
-0.0577827	
-0.0429936	
-0.205712	
-0.206237	
-0.100672	
-0.0666234	
-0.0964115	
-0.0618568	
0.0121756	
0.0554963	
0.0447297	
-0.224068	
-0.131836	
-0.121587	
-0.158915	
-0.188347	
-0.192061	
-0.221852	
-0.217272	
-0.204635	
-0.188688	
-0.164435	
-0.182409	
-0.175672	
-0.131831	
-0.125998	
-0.111616	
-0.167378	
-0.158725	
-0.212514	
-0.201493	
-0.214431	
-0.216626	
0.049729	
0.0164103	
0.00102784	
0.00924587	
0.0159269	
-0.00921189	
0.00323647	
0.0181904	
0.0109349	
-0.00521228	
0.0118212	
-0.0113709	
-0.0160647	
0.00252255	
0.00894287	
-0.00109507	
-0.0160692	
-0.00654704	
0.0158958	
0.0840655	
0.0919156	
0.0950145	
0.0872443	
0.0860149	
0.0867169	
0.0914346	
0.0838426	
0.0833327	
0.080549	
0.0876736	
0.0785733	
0.0772932	
0.0720148	
0.142176	
0.138821	
0.0940086	
0.129177	
0.138955	
0.0907216	
0.0798939	
0.0987049	
0.100575	
0.100917	
0.0973752	
0.0975069	
0.0840687	
0.0862108	
0.0846309	
0.102799	
0.0939522	
0.0370422	
0.111688	
0.112434	
0.120518	
0.0749429	
0.1394	
0.144989	
0.079416	
0.0705353	
0.0884542	
0.0628187	
0.0723113	
0.0470618	
0.110209	
0.101708	
0.123341	
0.105568	
0.105297	
0.126738	
0.119446	
0.0943511	
0.0906048	
0.108917	
0.109047	
0.114215	
0.109313	
0.0932593	
0.0782391	
0.0918352	
0.0752101	
0.0900073	
0.100506	
0.0812651	
0.0811647	
0.0868516	
0.0904113	
0.0842763	
0.0892863	
0.0948501	
0.0924165	
0.0838494	
0.0725562	
0.0718289	
0.0692038	
0.0694382	
0.0572033	
0.0636232	
0.131481	
0.0741933	
0.0712416	
0.0791452	
0.0741674	
0.094925	
0.0929729	
0.0866774	
0.10202	
0.0961325	
0.104256	
0.0829508	
0.0849363	
0.0870563	
0.0836957	
0.0936317	
0.111499	
0.116154	
0.0995899	
0.0945565	
0.0696592	
0.127707	
0.122111	
0.0760437	
0.0756949	
0.0791932	
0.0791412	
0.051159	
0.0480495	
0.0918673	
0.0921493	
0.0998673	
0.095214	
0.14531	
0.0980164	
0.0918032	
0.0868937	
0.0408586	
0.104702	
0.09046	
0.0935699	
0.132372	
0.137179	
0.069606	
0.0649904	
0.0895882	
0.0442621	
0.0522131	
0.0856284	
0.0938442	
0.0675436	
0.0688221	
0.101942	
0.0875023	
0.0884704	
0.0881176	
0.0820692	
0.0758064	
0.104823	
0.112708	
0.096792	
0.0419054	
0.0869957	
0.0834957	
0.0785295	
0.091154	
0.093804	
0.0910824	
0.106886	
0.116793	
0.115777	
0.0898298	
0.0851484	
0.085533	
0.0823752	
0.102177	
0.0926924	
0.0996852	
0.0550472	
0.0678353	
0.0954734	
0.0950102	
0.103298	
0.100247	
0.109393	
0.112975	
0.0871406	
0.0819005	
0.0943794	
0.0913988	
0.0802082	
0.0846892	
0.0898756	
0.0926884	
0.126299	
0.115753	
0.119375	
0.11305	
0.0349872	
0.0826437	
0.0911559	
0.0898462	
0.0766567	
0.081042	
0.082547	
0.0760793	
0.143141	
0.121607	
0.0602248	
0.0632428	
0.100561	
0.126984	
0.126005	
0.139089	
0.141227	
0.0828171	
0.0944381	
0.091559	
0.095517	
0.045552	
0.0545092	
0.0844908	
0.0888204	
0.0921965	
0.090396	
0.0932082	
0.0964295	
0.0625956	
0.090671	
0.0827206	
0.0861313	
0.0873659	
0.0874499	
0.0792465	
0.0740535	
0.0659517	
0.0687859	
0.0718855	
0.0879782	
0.0903462	
0.0889587	
0.0902821	
0.0531508	
0.0530507	
0.0539947	
0.0526913	
0.0520352	
0.0514649	
0.0511348	
0.0538468	
-0.0789546	
-0.109355	
-0.107979	
0.0494944	
-0.138216	
-0.0711452	
-0.120597	
-0.0811161	
-0.0733428	
-0.0497877	
-0.041637	
-0.030677	
-0.0579613	
0.0467372	
0.0451115	
-0.0101373	
0.0445631	
0.0449489	
-0.0105754	
0.0499876	
0.043887	
-0.0344976	
-0.0132117	
-0.159853	
-0.18379	
-0.183754	
-0.0143183	
-0.0518764	
-0.0551381	
-0.131002	
0.00511304	
-0.065629	
-0.112168	
-0.160633	
-0.123273	
-0.130574	
-0.129739	
-0.113274	
-0.00598748	
-0.0676401	
0.00350355	
0.0485277	
-0.0520563	
-0.0127054	
-0.00331388	
0.00731689	
0.0412831	
0.0500364	
-0.0889335	
-0.0891151	
0.0536503	
0.0533824	
0.0443561	
0.0253432	
0.042237	
0.0504398	
0.018456	
-0.000822931	
-0.0818699	
-0.0155498	
-0.0526584	
-0.0757101	
0.0510229	
0.0100211	
0.0444052	
0.0530488	
0.053204	
0.00575502	
-0.0579479	
-0.0173756	
-0.0557293	
0.0112793	
-0.0128515	
-0.0343567	
-0.216358	
-0.0552931	
-0.0174455	
-0.103471	
0.0493898	
-0.129314	
-0.00922147	
0.000278074	
-0.0128018	
0.0407523	
-0.000929017	
-0.0143401	
-0.0481888	
0.0499596	
0.0374038	
0.049088	
0.0443385	
-0.22326	
-0.0177315	
0.00746174	
-0.0590802	
-0.0270091	
-0.168931	
-0.0250836	
-0.0048047	
-0.0946006	
-0.0393331	
-0.00971397	
-0.00143555	
-0.193194	
-0.195726	
0.0161253	
0.0531897	
0.0465767	
-0.00189826	
-0.207762	
-0.214972	
0.00823111	
0.0407089	
-0.207297	
-0.181856	
-0.050606	
-0.1692	
0.0541109	
0.0519779	
0.0143787	
-0.175366	
0.0459654	
-0.020596	
-0.0142316	
0.0391622	
0.0404115	
-0.00488114	
0.00367447	
-0.0161447	
-0.172571	
-0.131183	
-0.166366	
-0.0329885	
0.0421463	
0.0227585	
0.0285096	
-0.08802	
-0.0816121	
0.0371628	
-0.0721144	
-0.0903844	
0.0416344	
0.0480329	
0.0462907	
0.0493012	
0.0498826	
-0.0839568	
0.0467995	
0.0134429	
0.0556011	
0.0138663	
-0.149732	
-0.133004	
-0.0992587	
0.0434889	
0.00907039	
0.0474219	
0.0460856	
0.0127504	
0.0119383	
-0.107364	
-0.110955	
-0.0781938	
-0.142735	
-0.177833	
-0.119288	
-0.0505595	
-0.0381453	
-0.0518056	
-0.119707	
-0.144506	
-0.134793	
-0.00200423	
0.0143073	
-0.0283929	
-0.000843793	
-0.142519	
-0.0822372	
-0.0748763	
-0.0809436	
-0.0458464	
-0.0331529	
-0.0193155	
-0.0561961	
-0.0193714	
-0.0302763	
0.0021905	
-0.22277	
-0.219018	
0.055478	
0.0500163	
0.0443389	
0.0270588	
-0.119967	
-0.146439	
-0.167036	
-0.173138	
0.04057	
0.0208507	
0.0543904	
0.0463999	
-0.132373	
-0.196952	
-0.22585	
-0.191786	
-0.110485	
-0.0870322	
-0.155757	
-0.219473	
-0.176434	
-0.222852	
-0.204076	
-0.218705	
-0.222142	
-0.224888	
-0.156576	
-0.14983	
-0.100059	
0.0493152	
0.055722	
0.0269654	
0.0443479	
0.00272603	
0.0103928	
0.0172492	
-0.0080601	
0.00428767	
0.0192687	
0.0126308	
-0.00357464	
0.013082	
-0.00986696	
-0.0144043	
0.00410244	
0.010527	
0.000418197	
-0.014913	
-0.00479338	
0.0169697	
				</DataArray>
				<DataArray type="Float64" Name="Source Strengths" NumberOfComponents="1" Format="ascii">
0.4462	
0.357099	
0.324249	
0.370807	
0.406089	
0.415497	
0.37663	
0.383537	
0.340489	
0.392785	
0.408222	
0.400957	
0.406844	
0.0690088	
0.0699724	
0.0701605	
0.0712489	
0.0704665	
0.288774	
0.0387169	
0.0710528	
0.0389757	
0.0439138	
0.0433909	
0.0393773	
0.0837428	
0.0398041	
0.0450144	
0.0719944	
0.0714671	
0.045041	
0.0475209	
0.0479493	
0.0409202	
0.0721443	
0.0658045	
0.0455028	
0.0416517	
0.346939	
0.325756	
0.0501989	
0.0659742	
0.0718552	
0.0431894	
0.0406995	
0.0420015	
0.0419721	
0.0451271	
0.0496654	
0.0404496	
0.0463556	
0.0516422	
0.0453327	
0.0568272	
0.0867519	
0.0427083	
0.042535	
0.0448944	
0.0452869	
0.0397679	
0.0642414	
0.0399258	
0.0784925	
0.0403696	
0.0570824	
0.0995827	
0.393639	
0.403959	
0.0435497	
0.0928234	
0.0439805	
0.0890576	
0.342762	
0.336169	
0.052177	
0.0859819	
0.0833566	
0.403043	
0.390463	
0.0857355	
0.410194	
0.338183	
0.0451878	
0.0454224	
0.0434287	
0.317297	
0.363413	
0.0619726	
0.0651055	
0.0449767	
0.0451881	
0.0449914	
0.0453872	
0.0504781	
0.0416167	
0.0610958	
0.0513562	
0.0502118	
0.0524877	
0.0460476	
0.0821137	
0.0411245	
0.0816002	
0.0417314	
0.0643368	
0.0518555	
0.0930052	
0.0647906	
0.0699392	
0.0401216	
0.0706377	
0.0460697	
0.0453827	
0.0390411	
0.0487426	
0.0709782	
0.0691241	
0.0400387	
0.0399905	
0.387922	
0.378959	
0.332412	
0.379992	
0.328911	
0.345078	
0.347873	
0.302048	
0.384096	
0.0854727	
0.0811119	
0.304451	
0.386983	
0.0599975	
0.040518	
0.0392882	
0.0621179	
0.038511	
0.0406927	
0.0410658	
0.069915	
0.0817632	
0.0713967	
0.0522092	
0.0713238	
0.0516095	
0.350819	
0.058679	
0.0811417	
0.0707446	
0.0522635	
0.378335	
0.0495705	
0.0498748	
0.0420603	
0.040244	
0.086013	
0.0451609	
0.0405923	
0.0384431	
0.0767461	
0.326429	
0.322539	
0.355179	
0.0545147	
0.0648574	
0.0733674	
0.128191	
0.0391536	
0.0792789	
0.0401579	
0.0491005	
0.0484636	
0.0675622	
0.0507916	
0.077132	
0.355428	
0.367621	
0.0635814	
0.374954	
0.405121	
0.0530156	
0.427924	
0.349516	
0.0708216	
0.378202	
0.383537	
0.0442233	
0.315625	
0.359183	
0.0663319	
0.0643922	
0.0632595	
0.122207	
0.428313	
0.404413	
0.490929	
0.0817331	
0.374397	
0.34485	
0.432834	
0.37702	
0.41601	
0.0857784	
0.0700709	
0.0698998	
0.0515541	
0.0509179	
0.0452538	
0.0452345	
0.0484088	
0.0958741	
0.0886988	
0.0415404	
0.078521	
0.0404016	
0.0386193	
0.0438636	
0.0426614	
0.038504	
0.0451813	
0.038709	
0.0451592	
0.0487021	
0.0514292	
0.599378	
-0.205829	
0.56093	
0.590265	
0.547601	
0.490847	
0.536886	
0.475304	
0.465291	
0.510951	
0.599378	
0.494698	
-0.205883	
-0.120464	
-0.122865	
0.465972	
-0.129769	
-0.0789198	
-0.0813455	
-0.132445	
0.108898	
-0.187478	
-0.0479085	
-0.0528631	
-0.0924899	
-0.100606	
-0.115825	
0.481512	
0.120372	
0.501781	
0.0685464	
0.542796	
0.464856	
0.0839555	
0.530566	
0.531844	
0.0347919	
0.171623	
-0.208226	
-0.212954	
-0.0279075	
-0.0201163	
0.00681658	
0.173301	
-0.140737	
-0.130973	
-0.0151806	
0.129561	
0.24231	
0.522662	
0.620711	
-0.126335	
-0.125719	
0.0162366	
0.155844	
0.112676	
0.106383	
0.472533	
-0.0987646	
-0.0948772	
0.56929	
0.551376	
0.542028	
0.180751	
0.0987892	
0.393967	
-0.137544	
-0.223498	
0.535697	
0.521732	
0.20763	
0.0716836	
-0.106499	
-0.197595	
0.120259	
-0.0176663	
0.0204473	
-0.1905	
0.560618	
0.563391	
0.195627	
0.194882	
0.60188	
0.211488	
0.481998	
0.617664	
0.407763	
0.492682	
0.246498	
0.540309	
0.211651	
0.600272	
0.501803	
0.175036	
-0.038467	
-0.0459583	
0.106974	
0.0430971	
0.0359705	
0.163927	
0.0779979	
-0.00960991	
0.12981	
-0.183542	
0.429125	
0.510951	
0.133574	
-0.147125	
0.0436261	
0.0690839	
0.0628766	
0.481974	
0.119935	
0.138117	
0.00926904	
0.519264	
0.50323	
-0.308528	
0.0947071	
0.0856645	
-0.0210572	
-0.214785	
0.0292988	
0.0385335	
0.166767	
0.0449604	
0.152223	
-0.23145	
-0.224263	
-0.216084	
0.427902	
-0.300691	
0.174733	
0.176235	
0.481847	
0.186967	
0.190065	
0.208005	
0.537762	
0.4344	
0.614189	
0.236656	
0.400089	
0.562882	
0.566701	
0.539499	
0.0221421	
0.177748	
0.0251061	
0.172836	
-0.29351	
-0.314364	
0.608156	
-0.213476	
-0.114025	
-0.315382	
0.0434195	
0.153244	
0.152955	
0.507413	
0.535873	
0.497544	
-0.0828956	
0.175866	
0.533662	
0.111013	
0.114007	
-0.021425	
-0.300559	
-0.0545102	
-0.0441483	
-0.143212	
0.575109	
0.217345	
0.578548	
0.213961	
0.60188	
0.214006	
-0.300464	
-0.294848	
0.0603437	
-0.0171759	
-0.299188	
-0.235383	
-0.186666	
-0.100592	
-0.192616	
-0.310119	
0.0388813	
0.177409	
-0.227815	
-0.299837	
-0.3045	
-0.100495	
0.0436868	
-0.297788	
-0.12344	
0.030045	
0.027362	
-0.310766	
-0.314364	
-0.0981567	
0.00826866	
-0.0985704	
0.00965001	
0.231915	
0.626434	
0.524179	
-0.314279	
-0.162686	
-0.164141	
-0.190827	
-0.234577	
-0.236558	
-0.314648	
-0.303281	
-0.254554	
-0.24167	
-0.23284	
-0.240903	
-0.214833	
-0.154895	
-0.115983	
-0.087085	
-0.198788	
-0.198775	
-0.296797	
-0.275458	
-0.32594	
-0.30248	
0.61036	
0.209825	
-0.00872654	
-0.00872654	
-0.00872654	
-0.00872654	
-0.00872654	
-0.00872654	
-0.00872654	
-0.00872654	
-0.00872654	
-0.00872654	
-0.00872654	
-0.00872654	
-0.00872654	
-0.00872654	
-0.00872654	
-0.00872654	
-0.00872654	
0.388904	
0.39261	
0.346338	
0.357178	
0.369529	
0.359343	
0.379951	
0.427914	
0.406289	
0.392955	
0.362185	
0.398592	
0.401229	
0.404381	
0.0690639	
0.0698335	
0.0677761	
0.0707865	
0.0704583	
0.0385801	
0.0694461	
0.0430582	
0.0439465	
0.043495	
0.0405622	
0.0405584	
0.0587988	
0.0392457	
0.0396476	
0.040517	
0.0718328	
0.0716273	
0.0450296	
0.0446945	
0.0475211	
0.0403016	
0.0659134	
0.0721449	
0.0469685	
0.0467799	
0.324251	
0.320042	
0.0709799	
0.0658765	
0.0449211	
0.038505	
0.0502548	
0.0419007	
0.0419733	
0.0497989	
0.0480253	
0.040594	
0.044823	
0.0508385	
0.0448396	
0.0450768	
0.0450229	
0.0613114	
0.0438799	
0.0468972	
0.0434564	
0.0472251	
0.0424664	
0.0796889	
0.0557705	
0.0648584	
0.0398023	
0.0812693	
0.0403211	
0.062643	
0.400482	
0.444045	
0.0848625	
0.0426014	
0.0869734	
0.0429854	
0.315886	
0.322295	
0.0522027	
0.0823556	
0.0913973	
0.389627	
0.399641	
0.0647481	
0.355603	
0.34735	
0.0454298	
0.0452236	
0.0436768	
0.339432	
0.0788817	
0.0617512	
0.0439885	
0.045238	
0.0450317	
0.0504187	
0.0401845	
0.0612214	
0.0494961	
0.0524485	
0.0460587	
0.0407914	
0.0820508	
0.0416898	
0.0533565	
0.054562	
0.0498156	
0.0990747	
0.0930141	
0.0416471	
0.0697907	
0.0703677	
0.042661	
0.376812	
0.330669	
0.0460643	
0.0453889	
0.0463274	
0.0389016	
0.0675841	
0.0708989	
0.0411427	
0.0412047	
0.287401	
0.378959	
0.322355	
0.379992	
0.329829	
0.337988	
0.329477	
0.0403942	
0.0842496	
0.0860705	
0.393508	
0.386953	
0.384145	
0.0393112	
0.045008	
0.0600463	
0.0554642	
0.0416957	
0.0421333	
0.095765	
0.0901637	
0.0635773	
0.0922466	
0.0500484	
0.0690868	
0.0676543	
0.103976	
0.0572944	
0.345052	
0.0811179	
0.0390816	
0.0721246	
0.0390184	
0.0555794	
0.0832337	
0.0407346	
0.0445725	
0.0420482	
0.0408425	
0.0449132	
0.0454063	
0.357013	
0.32274	
0.0722342	
0.109152	
0.313152	
0.362918	
0.0782674	
0.0405201	
0.0690598	
0.0503592	
0.0491538	
0.0485371	
0.0405723	
0.437823	
0.360845	
0.413913	
0.0873411	
0.404693	
0.332315	
0.419794	
0.0709663	
0.0514508	
0.0572877	
0.0605555	
0.067712	
0.0519276	
0.0504762	
0.0709068	
0.0707948	
0.458955	
0.0639379	
0.390827	
0.332728	
0.0422676	
0.042625	
0.369787	
0.0969533	
0.0575482	
0.0850889	
0.0428828	
0.0467257	
0.0422349	
0.146737	
0.458955	
0.118764	
0.393076	
0.235804	
0.461556	
0.413638	
0.0834159	
0.432732	
0.37029	
0.0878107	
0.385795	
0.0796591	
0.38066	
0.599378	
0.557488	
0.588047	
0.497593	
0.490852	
0.48599	
0.499167	
0.601147	
-0.205802	
-0.123056	
-0.123617	
0.473177	
-0.144854	
-0.0909047	
-0.123929	
-0.193545	
-0.0321706	
-0.0947535	
-0.0703889	
-0.100612	
-0.0508368	
0.488865	
0.493825	
0.10181	
0.532529	
0.539345	
0.104278	
0.517711	
0.533774	
0.0521937	
0.095823	
-0.209097	
-0.230502	
-0.218363	
0.121167	
-0.00856445	
-0.00226593	
-0.153503	
0.173008	
0.00595527	
-0.145871	
-0.195031	
-0.151271	
-0.144494	
-0.132923	
-0.131959	
0.126745	
-0.0106012	
0.0938905	
0.517608	
0.00833989	
0.145813	
0.115308	
0.172174	
0.47995	
0.48803	
-0.0692861	
-0.0830623	
0.567277	
0.558918	
0.509806	
0.228523	
0.527102	
0.531559	
0.208035	
0.0603706	
-0.0841067	
0.120122	
0.0115634	
-0.0205777	
0.503158	
0.198591	
0.529391	
0.601147	
0.492133	
0.173788	
-0.0252296	
0.117195	
-0.0289208	
0.155927	
0.0848858	
0.0401635	
-0.310369	
-0.0107858	
0.126179	
-0.192142	
0.493655	
-0.156563	
0.043632	
0.0691239	
0.0579799	
0.471854	
0.120851	
0.136156	
0.00915862	
0.503158	
0.435903	
0.469542	
0.479589	
-0.315431	
0.114341	
0.169888	
-0.0136609	
0.0949145	
-0.217805	
0.0978541	
0.17894	
-0.0961084	
0.0576102	
0.156734	
0.14066	
-0.301048	
-0.305752	
0.197961	
0.588047	
0.508704	
0.186915	
-0.313355	
-0.304556	
0.207691	
0.488011	
-0.311325	
-0.23188	
-0.0641222	
-0.23136	
0.613285	
0.614499	
0.203474	
-0.217646	
0.534429	
0.100978	
0.0807493	
0.424034	
0.599378	
0.0906691	
0.173502	
0.0942805	
-0.290095	
-0.234966	
-0.315332	
0.054585	
0.441148	
0.220515	
0.216106	
-0.137422	
-0.134829	
0.477236	
-0.0806022	
-0.0893373	
0.512562	
0.485821	
0.467424	
0.596443	
0.604974	
-0.0730312	
0.581264	
0.214174	
0.608592	
0.218921	
-0.302891	
-0.297056	
-0.300592	
0.504604	
0.202354	
0.5844	
0.543087	
0.211596	
0.202334	
-0.0817787	
-0.100757	
-0.0556096	
-0.238732	
-0.292022	
-0.181143	
0.0455551	
0.0406494	
0.0386173	
-0.18751	
-0.200114	
-0.202049	
0.126895	
0.143527	
0.00757703	
0.119234	
-0.179529	
-0.0329115	
-0.0467095	
-0.0445665	
0.0434223	
0.103914	
0.104276	
-0.0649594	
0.0793875	
0.00201035	
0.10519	
-0.303234	
-0.304881	
0.638678	
0.523389	
0.411876	
0.255568	
-0.16343	
-0.192038	
-0.238809	
-0.239117	
0.419551	
0.267618	
0.654547	
0.53683	
-0.142188	
-0.24232	
-0.305122	
-0.248383	
-0.0913265	
-0.0763578	
-0.192966	
-0.295553	
-0.205881	
-0.317162	
-0.267582	
-0.281214	
-0.30067	
-0.324348	
-0.16932	
-0.180707	
-0.0718001	
0.515205	
0.662692	
0.264839	
0.396379	
0.00872654	
0.00872654	
0.00872654	
0.00872654	
0.00872654	
0.00872654	
0.00872654	
0.00872654	
0.00872654	
0.00872654	
0.00872654	
0.00872654	
0.00872654	
0.00872654	
0.00872654	
0.00872654	
0.00872654	
				</DataArray>
				<DataArray type="Float64" Name="Velocity Potential" NumberOfComponents="1" Format="ascii">
-0.059119	
-0.0525276	
-0.0490715	
-0.0522529	
-0.0507944	
-0.0505802	
-0.0436115	
-0.0428248	
-0.0328058	
-0.0371806	
-0.0349864	
-0.0264022	
-0.0244357	
0.766655	
0.694531	
0.833648	
0.809811	
0.699657	
-0.0260261	
0.253436	
0.783978	
0.171273	
0.283359	
0.308556	
0.197726	
0.065196	
0.199211	
0.322727	
0.0473677	
0.130368	
0.340525	
0.459645	
0.450981	
0.205052	
0.778447	
0.676258	
0.438768	
0.311257	
-0.0229322	
0.00551641	
0.557858	
0.790722	
0.874784	
0.303883	
0.206459	
0.246808	
0.247423	
0.333922	
0.54836	
0.186428	
0.132808	
0.537119	
0.372835	
0.108351	
0.0494033	
0.315525	
0.279615	
0.450317	
0.392994	
0.20709	
0.118806	
0.194594	
0.0594432	
0.2023	
0.118115	
0.0229549	
-0.0359217	
-0.0356901	
0.163726	
0.0579748	
0.171495	
0.101459	
-0.00460519	
0.034256	
0.563709	
0.0932857	
0.0647481	
-0.00272947	
-0.00333252	
0.0512526	
-0.0316201	
-0.0178754	
0.351251	
0.41401	
0.301218	
0.00429935	
-0.00967842	
0.0834307	
0.105731	
0.40505	
0.366467	
0.441554	
0.383727	
0.509666	
0.160618	
0.0569618	
0.638723	
0.554434	
0.541194	
0.418535	
0.0970653	
0.168126	
0.063465	
0.182815	
0.154936	
0.635034	
0.0239379	
0.0816869	
0.0778594	
0.155902	
0.781383	
0.518172	
0.390672	
0.226188	
0.146589	
0.798637	
0.716799	
0.244544	
0.230434	
-0.0410359	
0.0113062	
0.0405455	
-0.0559182	
-0.0258867	
0.0237004	
-0.0102123	
-0.039684	
-0.0270523	
0.0615532	
0.0451572	
-0.00270499	
-0.0194042	
0.0952221	
0.186025	
0.225369	
0.169432	
0.250132	
0.26946	
0.255977	
0.113806	
0.0363156	
0.821699	
0.555939	
0.746001	
0.612729	
-0.00437514	
0.119695	
0.0639175	
0.75681	
0.624529	
-0.0507282	
0.119399	
0.120031	
0.272083	
0.166005	
0.0814065	
0.40993	
0.319018	
0.238331	
0.0530415	
-0.0161151	
-0.0269396	
-0.0048874	
0.106282	
0.069648	
0.055937	
0.00761655	
0.186701	
0.0807655	
0.152141	
0.554433	
0.49276	
0.708987	
0.582577	
0.0479114	
0.000737569	
-0.0272807	
0.086301	
-0.00220577	
-0.0262632	
0.102956	
-0.0492126	
-0.0187712	
0.715432	
-0.0200973	
-0.0451036	
0.285291	
-0.0385988	
-0.0189438	
0.138174	
0.108514	
0.119863	
0.00765737	
-0.0382144	
-0.0375649	
-0.0595565	
0.0631216	
-0.00598919	
-0.0264648	
-0.0232171	
0.00803368	
-0.00288086	
0.0710598	
0.706279	
0.787286	
0.583595	
0.502446	
0.391639	
0.376917	
0.487191	
0.0434981	
0.0353907	
0.182983	
0.0770368	
0.214582	
0.171356	
0.297784	
0.254879	
0.283605	
0.383048	
0.283659	
0.384302	
0.489041	
0.575109	
-0.0334498	
0.808992	
-0.0266463	
-0.0155411	
-0.0111722	
0.00235069	
-0.00779136	
0.00726146	
0.00531073	
-0.007679	
0.00580074	
-0.00828974	
0.722527	
0.510048	
0.51252	
0.00318993	
0.517755	
0.436236	
0.425063	
0.58905	
0.222284	
0.626184	
0.436837	
0.37764	
0.468529	
0.409982	
0.485957	
0.0447183	
0.212964	
0.0374118	
0.218719	
0.0181108	
0.00110917	
0.197811	
0.018611	
0.0206954	
0.313354	
0.158094	
0.733856	
0.826731	
0.348763	
0.359836	
0.359534	
0.121748	
0.611213	
0.590765	
0.375758	
0.161595	
0.096173	
0.0285037	
-0.00911337	
0.535009	
0.549564	
0.287901	
0.163132	
0.214863	
0.172899	
0.0457108	
0.493444	
0.48108	
-0.020815	
0.00765024	
-0.0231397	
0.148781	
0.178956	
0.0453913	
0.583581	
0.80635	
-0.0191559	
-0.0145864	
0.121845	
0.216547	
0.523696	
0.692703	
0.180827	
0.386693	
0.29841	
0.706298	
0.0168494	
0.0147202	
0.104779	
0.103153	
-0.0147952	
0.108274	
0.0302223	
-0.0224289	
0.034051	
0.0243157	
0.0933965	
0.0104702	
0.0964834	
-0.0274335	
0.0255641	
0.118943	
0.39932	
0.367388	
0.230297	
0.250579	
0.306049	
0.130906	
0.230482	
0.316065	
0.194279	
0.665522	
0.0479161	
-0.0103694	
0.19059	
0.586936	
0.282938	
0.25707	
0.209182	
0.0419785	
0.161212	
0.18847	
0.298946	
0.0276645	
-0.00307325	
1.11192	
0.230647	
0.245925	
0.353085	
0.751951	
0.317248	
0.252829	
0.156364	
0.262308	
0.126008	
0.850459	
0.750265	
0.816382	
0.0480149	
1.01062	
0.151647	
0.105324	
0.000106946	
0.0979058	
0.136144	
0.0882729	
0.00294954	
0.0434497	
-0.00457227	
0.105744	
0.0466433	
0.00446267	
-0.0261363	
0.0115818	
0.269445	
0.154781	
0.296184	
0.119834	
1.03062	
1.14188	
-0.0320934	
0.773259	
0.555048	
1.15775	
0.248582	
0.138679	
0.142216	
0.0350721	
-0.00885433	
0.0330919	
0.428276	
0.104999	
-0.0218839	
0.162846	
0.176787	
0.330269	
1.02097	
0.359809	
0.411584	
0.540123	
-0.00108819	
0.0828348	
0.0041417	
0.088095	
-0.0142656	
0.10295	
0.918015	
1.04884	
0.266547	
0.357261	
0.98232	
0.87345	
0.718782	
0.454513	
0.695591	
1.14435	
0.304767	
0.142209	
0.796121	
1.13009	
1.05502	
0.513152	
0.245463	
1.03688	
0.495141	
0.320661	
0.26497	
1.0689	
1.14889	
0.474587	
0.358142	
0.454655	
0.337704	
0.0984955	
-0.0299083	
0.0135125	
1.15718	
0.654164	
0.594094	
0.70867	
0.852883	
0.888989	
1.08556	
1.05917	
0.952213	
0.86071	
0.816493	
0.910488	
0.835976	
0.63519	
0.567809	
0.507612	
0.739568	
0.693594	
1.06964	
0.965465	
1.17363	
1.08267	
-0.00462354	
0.0814061	
0.520678	
0.305621	
0.147942	
0.810859	
0.377331	
0.0715624	
0.2025	
0.614625	
0.121053	
0.432885	
0.658454	
0.252764	
0.182958	
0.343616	
0.832511	
0.553815	
0.0643964	
-0.0664914	
-0.0409866	
-0.0261163	
-0.0568124	
-0.0615757	
-0.0583464	
-0.0412943	
-0.068158	
-0.069497	
-0.0685228	
-0.0399119	
-0.068953	
-0.0453482	
-0.0673013	
0.7602	
0.681785	
0.781757	
0.773414	
0.69657	
0.217965	
0.718352	
0.143338	
0.259116	
0.280008	
0.149509	
0.145635	
0.0861073	
0.162923	
0.168879	
0.185324	
0.0467871	
0.0801756	
0.336715	
0.321959	
0.454637	
0.172952	
0.675588	
0.781407	
0.432415	
0.442807	
-0.0516857	
-0.00959843	
0.823056	
0.735428	
0.293964	
0.202619	
0.478182	
0.240316	
0.234768	
0.539911	
0.447519	
0.160753	
0.109751	
0.493859	
0.310305	
0.383481	
0.346761	
0.0773113	
0.265336	
0.427532	
0.303951	
0.515164	
0.226797	
0.0347443	
0.0945988	
0.075826	
0.162365	
0.0316888	
0.168566	
0.0761848	
-0.0402723	
-0.0646799	
0.0533808	
0.127726	
0.0620302	
0.13627	
-0.0426918	
-0.0493962	
0.557305	
0.0248252	
0.0167759	
-0.0438577	
-0.0680338	
0.080238	
-0.0349165	
-0.0598221	
0.372091	
0.308639	
0.292452	
-0.0624088	
0.0287149	
0.0593007	
0.306745	
0.331053	
0.37442	
0.486628	
0.152422	
0.0541934	
0.558465	
0.539574	
0.41693	
0.132031	
0.0571213	
0.152816	
0.0894027	
0.0911369	
0.565288	
0.0184878	
0.0191391	
0.154685	
0.0742138	
0.763259	
0.130925	
-0.0397804	
-0.0589997	
0.45157	
0.359807	
0.122924	
0.195797	
0.679121	
0.769495	
0.220027	
0.210587	
-0.0254954	
-0.0407169	
-0.00882702	
-0.056609	
-0.0272062	
-0.0551771	
-0.018592	
0.219895	
0.0170291	
0.0385587	
-0.0462486	
-0.0667071	
-0.0669091	
0.223911	
0.321085	
0.0939295	
0.135513	
0.24598	
0.235199	
0.0273043	
0.0219082	
0.0708592	
0.0198152	
0.541196	
0.684898	
0.762028	
0.0151011	
0.0849184	
-0.0372985	
0.032423	
0.194567	
0.0363413	
0.163247	
0.135613	
0.0301209	
0.156686	
0.128804	
0.257931	
0.205088	
0.296192	
0.358644	
-0.0373475	
-0.060175	
0.0546206	
0.0102619	
-0.0584005	
-0.0355258	
0.0547062	
0.124289	
0.68305	
0.54739	
0.527935	
0.463963	
0.238155	
-0.0696501	
-0.0409775	
-0.0491402	
0.0173848	
-0.0471886	
-0.0366215	
-0.0705408	
0.766773	
0.49551	
0.0773629	
0.107212	
0.677214	
0.565373	
0.55196	
0.692977	
0.689828	
-0.0667811	
0.0699075	
-0.0429174	
-0.0172176	
0.316374	
0.260057	
-0.0652403	
0.00692045	
0.0718049	
0.0451635	
0.111354	
0.442901	
0.304021	
-0.0218984	
-0.067249	
0.0045909	
-0.0459299	
-0.0316162	
-0.072699	
-0.0465453	
0.0407858	
-0.0679357	
-0.0358783	
0.0193217	
-0.0454269	
0.0218025	
-0.0424715	
-0.0334554	
-0.0317517	
-0.05038	
-0.0407446	
-0.0381433	
-0.0411479	
-0.0301014	
-0.0418925	
0.67449	
0.495218	
0.490757	
-0.0295723	
0.611836	
0.390998	
0.5454	
0.586765	
0.380557	
0.424629	
0.342197	
0.357986	
0.368012	
-0.00327538	
0.000144699	
0.172783	
0.000108698	
-0.00310554	
0.155499	
-0.0272985	
0.00255869	
0.251767	
0.179368	
0.710291	
0.84902	
0.830322	
0.173266	
0.297361	
0.308346	
0.614414	
0.103893	
0.34199	
0.522476	
0.721158	
0.562208	
0.600184	
0.579031	
0.507745	
0.139475	
0.349045	
0.139301	
-0.0200495	
0.28884	
0.162264	
0.134576	
0.0985949	
0.0123578	
-0.0315112	
0.429097	
0.425232	
-0.0401501	
-0.0431443	
-0.00124618	
0.0530351	
0.00815866	
-0.0286562	
0.0696873	
0.165122	
0.450035	
0.170457	
0.292144	
0.375858	
-0.032926	
0.0874836	
-0.00243823	
-0.0405329	
-0.0428498	
0.101759	
0.326797	
0.187115	
0.314885	
0.0930275	
0.17443	
0.258852	
1.12142	
0.30076	
0.178531	
0.635065	
-0.0257352	
0.56866	
0.231113	
0.165856	
0.219058	
0.0147871	
0.128665	
0.16947	
0.278195	
-0.0313071	
0.0232953	
-0.029512	
-0.00425921	
1.06028	
0.182855	
0.0969019	
0.317814	
0.212702	
0.745382	
0.205161	
0.139723	
0.436257	
0.248361	
0.153314	
0.123162	
1.07445	
1.00643	
0.0735892	
-0.0501393	
-0.0110552	
0.128502	
1.11592	
1.02932	
0.100427	
0.0150818	
1.0389	
0.861903	
0.365078	
0.773585	
-0.0391736	
-0.0574534	
0.0793294	
0.775948	
-0.00508954	
0.200248	
0.175033	
-0.00331693	
-0.0463269	
0.152288	
0.111096	
0.173706	
0.964939	
0.783126	
1.0726	
0.225692	
-0.00557579	
0.0642753	
0.0360544	
0.501727	
0.496311	
0.0312496	
0.383588	
0.467542	
0.013677	
-0.0165635	
-0.0110454	
-0.0539255	
-0.0355006	
0.42816	
-0.00553355	
0.0783086	
-0.0412006	
0.0772133	
0.950753	
1.00068	
0.868848	
0.000564177	
0.0910822	
-0.00779664	
-0.00523716	
0.0810345	
0.0833521	
0.490665	
0.502107	