<VTKFile type="UnstructuredGrid" version="0.1" byte_order="LittleEndian">
	<UnstructuredGrid>
		<Piece NumberOfPoints="563" NumberOfCells="174">
			<CellData Scalars="scalars">
				<DataArray type="Float64" Name="Doublet Strengths" NumberOfComponents="1" Format="ascii">
-0.196143	
-0.224027	
-0.287361	
-0.205684	
-0.205325	
-0.196518	
-0.243717	
-0.294261	
-0.365053	
-0.371877	
-0.370904	
-0.367528	
-0.368676	
-0.368787	
-0.367632	
-0.369876	
-0.366903	
-0.36771	
-0.358685	
-0.351671	
-0.363536	
-0.3585	
-0.343588	
-0.325698	
-0.356689	
-0.364925	
-0.36159	
-0.36823	
-0.296232	
-0.35044	
-0.356426	
-0.349194	
-0.370811	
-0.367451	
-0.372305	
-0.372305	
-0.365459	
-0.368016	
-0.367276	
-0.371681	
-0.371681	
-0.196518	
-0.234909	
-0.27421	
-0.259857	
-0.315532	
-0.342239	
-0.352183	
-0.369034	
-0.364155	
-0.370078	
-0.35762	
-0.324199	
-0.310242	
-0.345629	
-0.328519	
-0.371153	
-0.370837	
-0.366728	
-0.366277	
-0.230836	
-0.23651	
-0.322962	
-0.349932	
-0.315803	
-0.302347	
-0.338112	
-0.338533	
-0.20001	
-0.208626	
-0.272723	
-0.281824	
-0.218727	
-0.36852	
-0.368197	
-0.370691	
-0.366603	
-0.31033	
-0.260692	
-0.310643	
-0.328411	
-0.333207	
-0.339375	
-0.369329	
-0.367159	
-0.367149	
-0.370625	
-0.379879	
-0.377537	
-0.368149	
-0.381794	
-0.381877	
-0.379961	
-0.372966	
-0.367905	
-0.24399	
-0.278018	
-0.20124	
-0.206563	
-0.228441	
-0.302023	
-0.242574	
-0.212191	
-0.252452	
-0.328419	
-0.34739	
-0.341756	
-0.341947	
-0.336699	
-0.348557	
-0.356699	
-0.343841	
-0.335256	
-0.326738	
-0.338727	
-0.367836	
-0.34775	
-0.344123	
-0.347569	
-0.245039	
-0.315042	
-0.198901	
-0.198901	
-0.280623	
-0.237377	
-0.379961	
-0.37501	
-0.202313	
-0.202313	
-0.247403	
-0.36922	
-0.368612	
-0.363194	
-0.348751	
-0.347316	
-0.354896	
-0.348262	
-0.366574	
-0.357656	
-0.342865	
-0.320774	
-0.336054	
-0.324143	
-0.285879	
-0.288781	
-0.315203	
-0.317236	
-0.37464	
-0.375956	
-0.358447	
-0.347641	
-0.363023	
-0.36762	
-0.349347	
-0.349286	
-0.380722	
-0.368344	
-0.378766	
-0.381111	
-0.368665	
-0.325811	
-0.298235	
-0.314271	
-0.287981	
-0.366526	
-0.369089	
-0.366329	
-0.349167	
-0.351924	
-0.354987	
-0.323202	
-0.330203	
-0.291496	
-0.319012	
				</DataArray>
				<DataArray type="Float64" Name="Velocity Potential" NumberOfComponents="1" Format="ascii">
1.28677	
1.49005	
1.545	
1.75625	
9.01046	
5.75871	
7.98831	
8.96651	
1.62757	
1.48674	
1.94468	
3.4104	
1.65597	
9.07024	
6.44773	
9.19828	
8.14651	
3.11045	
2.89283	
2.44878	
7.90793	
9.18811	
9.17028	
8.08749	
2.13139	
1.50761	
4.21585	
3.71761	
2.0859	
1.43462	
1.59876	
1.84534	
2.78904	
2.18401	
3.25253	
2.68634	
2.91909	
2.52286	
4.11795	
4.78092	
5.92396	
4.61568	
6.31317	
5.42865	
4.27461	
3.83288	
4.68979	
4.03006	
5.14932	
5.16135	
7.7834	
6.17462	
4.54475	
5.57544	
5.88937	
6.53329	
4.20583	
6.03986	
4.43798	
5.62392	
2.82735	
2.05303	
3.23912	
3.31434	
2.39979	
2.78984	
2.52091	
3.07696	
3.2626	
2.37139	
3.00975	
3.70414	
4.01428	
1.60998	
1.86081	
1.4569	
1.45475	
1.39547	
1.40898	
1.825	
1.51709	
1.77763	
1.42161	
1.84283	
2.12107	
2.12733	
2.33369	
1.49668	
1.66976	
1.65197	
1.95856	
9.21319	
5.96839	
8.14376	
9.06635	
3.31303	
1.56671	
1.34228	
1.80651	
1.54191	
9.02965	
6.34885	
9.06677	
8.05824	
3.09731	
2.47064	
2.90206	
9.19774	
7.90727	
9.20144	
8.14469	
2.14466	
1.50408	
3.70229	
4.21916	
2.1837	
1.86996	
1.61254	
1.45786	
2.08777	
2.75942	
3.1053	
2.53911	
2.86042	
2.4184	
4.82536	
6.47954	
5.78077	
4.63774	
4.02425	
4.41035	
5.54936	
3.9068	
4.7225	
4.05138	
6.58588	
5.9182	
5.65803	
4.60445	
6.18605	
7.76028	
5.15942	
5.13061	
5.5697	
4.38621	
6.01041	
4.17809	
2.21738	
2.99876	
3.30082	
3.33822	
2.4732	
2.88135	
2.5583	
3.11389	
3.46957	
3.817	
4.20064	
2.57008	
3.13201	
1.59341	
1.81702	
1.42666	
1.40231	
1.47784	
1.54357	
1.90685	
1.45752	
1.82244	
1.56977	
1.82283	
2.11023	
2.07784	
2.30822	
				</DataArray>
			</CellData>
			<Points>
				<DataArray type="Float64" Name="Position" NumberOfComponents="3" Format="ascii">
0.11788	2.76204	-0.0289597	
0	2.80553	0	
1	3	0	
0.663607	3	-0.00716362	
0.367943	0.75785	-0.0193403	
0.539224	0.908162	-0.0121682	
0.190904	1.42698	-0.0276491	
0.15025	1.56443	-0.0287747	
0.561039	1.70816	-0.0112406	
0.537926	1.93878	-0.0122237	
0.412068	1.08007	-0.0175328	
0.578911	1.18952	-0.0104918	
0.417461	1.26601	-0.017319	
0.113347	1.02844	-0.0289131	
0.701122	2.17758	-0.00584617	
0.443054	2.14665	-0.0162763	
0.294401	1.19425	-0.0228738	
0.123108	2.10488	-0.0289882	
0.23203	1.65985	-0.0259338	
0.201137	1.77771	-0.0272626	
0.180704	0.30703	-0.0279993	
0.171662	2.45453	-0.0282758	
0.214926	2.56386	-0.0266955	
0	2.90221	0	
0	2.70861	0	
0.0890919	2.2832	-0.0282472	
0	2.32061	0	
0.215489	0.70632	-0.0266714	
0	1.6439	0	
0.769126	1.36975	-0.00376483	
0.183764	2.23263	-0.0278982	
0.270723	2.84663	-0.0240624	
1	0.99984	0	
0	1.06466	0	
0.409805	3	-0.0176219	
0.716011	1.58339	-0.00535525	
1	1.33363	0	
0.265079	2.69327	-0.0243433	
0.0880058	1.48331	-0.0281979	
0	1.54708	0	
0	3	0	
0	0	0	
0.109569	2.64779	-0.0288576	
0	2.61168	0	
0	2.22547	0	
0.0764058	2.18806	-0.0275418	
0.0707958	1.11725	-0.027128	
0.168117	1.14954	-0.0283745	
0.0723312	2.56607	-0.0272482	
0.192156	1.27733	-0.0276036	
0.0647991	0.550839	-0.0266035	
0	2.12931	0	
0.0949068	1.3165	-0.0284795	
0.770522	1.08232	-0.00372654	
0	0.582259	0	
0.0641003	1.61035	-0.0265364	
0.0558014	0	0.0499396	
0.0682947	0.344188	0.0550748	
0.0589686	2.03336	0.051297	
0.0904603	2.30208	0.0629703	
0.0933273	2.1612	0.0638973	
0.0954465	2.67329	0.0645702	
0.0898027	1.22646	0.0627549	
0.0553202	0.863671	0.0497297	
0.701754	3	0.0660723	
0.467574	3	0.0943238	
0.680882	2.76928	0.0694712	
0.511089	1.16222	0.0908073	
0.311623	1.15985	0.0980754	
0.343545	1.03058	0.0988021	
0.33647	1.28285	0.0987168	
0.101248	1.79229	0.0663603	
0.58081	0.752038	0.0834528	
0.50149	0.963905	0.0916564	
0.342475	0.840673	0.0987919	
0.45665	2.22046	0.0950697	
0.267643	2.32037	0.0955739	
0.272432	2.1413	0.0959347	
0.440299	1.38121	0.0960795	
0.426234	2.75737	0.0968438	
0.351376	1.59477	0.0988471	
0.367937	1.81991	0.0987746	
0.225494	1.71032	0.0914046	
0.285533	2.88089	0.0968091	
0.241613	2.7314	0.0932157	
0.285215	3	0.0967898	
0.324693	2.58505	0.0984799	
0.229183	2.47752	0.0918436	
0.420256	2.41893	0.0971388	
0.0927761	2.54113	0.0637206	
0.170647	2.23402	0.083022	
0.0651763	1.11031	0.0538459	
0.0678312	1.58074	0.0548943	
0.088155	1.46309	0.0622105	
0.119504	1.35427	0.0715399	
0.246147	1.43529	0.0936758	
0.0823781	0.751429	0.0602479	
0.0921253	0.986403	0.063511	
0.256659	1.96786	0.0946618	
0.155487	2.04746	0.0800305	
0.717841	1.27344	0.0633421	
0.760821	1.56933	0.0555805	
0.544794	1.50935	0.0875079	
0.72919	0.964474	0.0613586	
0.0945522	1.68185	0.0642875	
0.181079	1.57245	0.0849003	
0.536268	1.71411	0.0883886	
0.575608	1.91214	0.0840716	
0.181342	1.10676	0.0849457	
0.206858	1.26496	0.0889564	
0.144326	2.80439	0.0776169	
0.0517993	2.76225	0.0481638	
0.160845	0.852869	0.0811244	
0.207265	0.706	0.0890141	
0.0772038	0.646007	0.0584146	
0.151429	3	0.0791744	
0.0558014	3	0.0499396	
0.11874	2.91054	0.0713362	
0.217552	0.965594	0.0904089	
0.209645	1.84252	0.0893475	
0.542509	2.56877	0.087747	
0.394914	0.645936	0.0981796	
0.102952	1.91667	0.0668723	
0.801876	0.632857	0.0475365	
0.172072	0.324685	0.083287	
0.0955214	0.244723	0.0645937	
0.260505	0.233104	0.0949948	
0.156538	0.439974	0.0802481	
0.473644	0.315759	0.0938852	
0.278038	0.38892	0.0963288	
0.270117	0.547878	0.0957631	
0.145099	0.566679	0.07779	
0.704732	2.11805	0.0655742	
0.778856	1.86344	0.0521225	
0.0739184	0.489937	0.0572112	
0.151429	0	0.0791744	
0.103957	0.128975	0.0671714	
0.0521113	0.422273	0.0483048	
0.053333	0.557773	0.0488527	
0.127152	2.41286	0.0735232	
0.790807	2.53058	0.0497656	
0.647808	2.35266	0.074521	
0.0566077	2.84618	0.050289	
0.437563	2.02345	0.0962359	
0.401208	0.149052	0.097957	
0.467574	0	0.0943238	
0.285215	0	0.0967898	
0.227721	0.106109	0.0916714	
0.18524	2.60816	0.0856103	
0.411497	0.465933	0.0975382	
0.626213	0.437387	0.0775922	
0.0458922	2.47092	0.0454063	
0.0423176	1.29977	0.043649	
0.845287	0.181453	0.0383645	
0.701754	0	0.0660723	
0.0405696	2.36383	0.0427625	
0.417574	3	0.0399657	
0.235028	3	0.033196	
0.101246	3	0.0176865	
0.669606	3	0.0319236	
0	-0.291389	0	
0.0683482	-0.331567	-0.0269248	
0	-0.38832	0	
0	-0.194469	0	
0.100441	-0.227412	-0.0286548	
0	-0.0977885	0	
0.116801	-0.111375	-0.0289505	
0	-0.485357	0	
0.0944786	-0.424371	-0.0284641	
0	-0.774529	0	
0.0810132	-0.829808	-0.0278324	
0	-0.870688	0	
0.0778167	-0.923125	-0.0276353	
0	-0.967619	0	
0.0920792	-1.2291	-0.028373	
0	-1.25892	0	
0	-1.16176	0	
0	-1.3561	0	
0.0893293	-1.36087	-0.0282577	
0	-1.45292	0	
0	-1.6439	0	
0.108316	-1.69102	-0.0288356	
0	-1.74108	0	
0	-1.83824	0	
0.0858009	-1.79303	-0.0280919	
0	-2.03238	0	
0	-1.93534	0	
0.0802754	-1.99071	-0.0277887	
0	-2.32061	0	
0.0828215	-2.38159	-0.0279353	
0	-2.41774	0	
0.0807511	-2.48421	-0.027817	
0	-2.51464	0	
1	-0.667009	0	
0.729764	-0.473546	-0.00491887	
1	-0.333319	0	
0.763712	-0.78031	-0.00391498	
1	-2.33299	0	
1	-2.66668	0	
0.753804	-2.50583	-0.00419695	
1	-2.00016	0	
0.776375	-1.83363	-0.00356811	
1	-1.66637	0	
0.794902	-0.206997	-0.00308831	
0	-1.54708	0	
0.138671	-1.57115	-0.0289326	
0.357816	-1.97481	-0.0197954	
0.250236	-1.88088	-0.0250718	
0.384163	-1.74166	-0.0186423	
0.78892	-2.78718	-0.00323962	
0.346552	-0.568513	-0.0203169	
0.208913	-0.593521	-0.0269487	
0.253905	-0.425379	-0.0248934	
0.500441	-1.46216	-0.0138364	
0.307286	-1.54134	-0.0222279	
0.312083	-1.38048	-0.0219889	
0.201553	-2.00121	-0.0272463	
0.117745	-1.89559	-0.0289586	
0.247261	-2.12851	-0.0252154	
0.558205	-0.223067	-0.0113604	
0.34881	-0.246796	-0.0202112	
0.225501	-3	-0.0262311	
0.0911407	-3	-0.028335	
0.115978	-2.88497	-0.0289427	
0.457451	-0.425915	-0.0156738	
0.525252	-0.65153	-0.0127676	
0.291617	-2.44664	-0.0230138	
0.191909	-2.35508	-0.0276126	
0.30334	-2.27867	-0.0224252	
0.539658	-2.74906	-0.0121496	
0.38559	-2.57981	-0.0185829	
0.543011	-2.50071	-0.0120063	
0.424603	-2.36702	-0.0170323	
0	-2.90221	0	
0	-2.80553	0	
0.586185	-2.26334	-0.0101906	
0.663607	-3	-0.00716362	
1	-3	0	
0.401996	-0.857675	-0.0179257	
0.299057	-0.725065	-0.02264	
0.206894	-0.883061	-0.0270318	
0.19287	-1.43268	-0.0275774	
0.558718	-1.96844	-0.0113386	
0.564049	-1.71329	-0.0111137	
0.579677	-1.21771	-0.01046	
0.371698	-1.23181	-0.0191752	
0.471879	-1.04836	-0.0150619	
0.260606	-1.06935	-0.0245646	
0.121664	-1.02525	-0.0289829	
0.417802	-2.15084	-0.0173054	
0.202558	-1.28133	-0.0272065	
0.106174	-2.08375	-0.028794	
0.202027	-1.77823	-0.0272275	
0.232045	-1.66117	-0.0259331	
0.181177	-0.305795	-0.0279839	
0.169	-2.45516	-0.0283504	
0.205934	-2.5661	-0.0270709	
0	-2.70861	0	
0.107193	-2.76091	-0.0288145	
0.089111	-2.28209	-0.028248	
0.129885	-0.727576	-0.0289883	
0.770769	-1.37246	-0.0037198	
0.242351	-0.147633	-0.0254504	
0.186072	-2.24425	-0.0278197	
0.095824	-2.17817	-0.0285115	
0.233623	-2.69225	-0.0258602	
0.228334	-2.8322	-0.026103	
1	-0.99984	0	
0.409805	-3	-0.0176219	
1	-1.33363	0	
0.715377	-1.5829	-0.00537575	
0.0876349	-1.47861	-0.0281807	
0	-3	0	
0.104721	-2.64927	-0.0287626	
0	-2.61168	0	
0	-0.67939	0	
0	-2.22547	0	
0.354086	-2.86672	-0.0199664	
0.779434	-2.15605	-0.0034866	
0	-0.582259	0	
0.0913908	-0.611314	-0.0283452	
0.18474	-1.15781	-0.0278653	
0.0723001	-2.56621	-0.0272458	
0.35569	-2.73303	-0.0198927	
0.139808	-0.509099	-0.0289211	
0.0567425	-0.526668	-0.025743	
0	-2.12931	0	
0.0738158	-1.11997	-0.0273594	
0	-1.06466	0	
0.74838	-1.06752	-0.00435519	
0.57699	-0.866073	-0.0105717	
0.321447	-0.972127	-0.0215257	
0.697488	-0.234197	0.0667803	
0.0671835	-0.349541	0.0546407	
0.058337	-2.0843	0.0510295	
0.0715774	-1.99629	0.0563339	
0.0933295	-2.53566	0.063898	
0.075293	-2.17764	0.0577185	
0.100263	-2.66792	0.0660615	
0.104978	-2.29743	0.0674731	
0.085017	-1.23745	0.0611551	
0.0558014	-3	0.0499396	
0.0916813	-0.997982	0.0633674	
0.701754	-3	0.0660723	
0.667751	-2.76502	0.0715256	
0.467574	-3	0.0943238	
0.505028	-1.18239	0.0913482	
0.341923	-1.03327	0.0987863	
0.311281	-1.16416	0.0980628	
0.34714	-1.30061	0.0988292	
0.104652	-1.78946	0.0673768	
0.497074	-0.978595	0.0920333	
0.336108	-0.845564	0.0987113	
0.429774	-2.17311	0.0966607	
0.309543	-1.9951	0.097997	
0.267623	-2.15267	0.0955724	
0.287722	-2.31828	0.0969394	
0.488051	-1.46113	0.092776	
0.230261	-2.74106	0.0919691	
0.231204	-2.61331	0.0920779	
0.40652	-2.72939	0.0977477	
0.376495	-1.61106	0.0986491	
0.236105	-1.71342	0.0926279	
0.391587	-1.81149	0.0982843	
0.2837	-2.87748	0.0966965	
0.285215	-3	0.0967898	
0.498621	-2.37516	0.0919022	
0.34686	-2.50755	0.0988274	
0.212451	-2.47797	0.0897323	
0.146651	-2.40466	0.078135	
0.0645509	-1.11448	0.0535955	
0.105188	-1.48003	0.0675349	
0.123632	-1.35965	0.0726234	
0.260583	-1.44466	0.0950013	
0.0757155	-0.644352	0.0578734	
0.0808444	-0.746842	0.0597122	
0.162963	-2.08279	0.0815457	
0.172584	-2.21341	0.0833815	
0.683741	-1.32285	0.0690152	
0.71678	-1.00406	0.0635252	
0.195045	-1.57956	0.0871979	
0.181043	-1.10983	0.084894	
0.557565	-0.80718	0.0861315	
0.209105	-1.26873	0.0892725	
0.0502255	-2.74953	0.0474458	
0.131864	-2.80466	0.0746945	
0.523976	-1.99347	0.0896036	
0.151923	-0.857387	0.0792799	
0.192095	-0.710025	0.0867327	
0.0972878	-1.68049	0.0651465	
0.0734886	-0.231599	0.0570514	
0.163006	-0.439063	0.0815541	
0.171817	-0.305768	0.0832398	
0.527024	-2.57312	0.0893084	
0.74971	-2.50092	0.0576517	
0.151429	-3	0.0791744	
0.118103	-2.91052	0.0711653	
0.682402	-2.23635	0.0692292	
0.214662	-0.967173	0.0900292	
0.0551219	-2.41032	0.049643	
0.0509925	-1.40963	0.0477972	
0.0555578	-0.837542	0.0498334	
0.221315	-1.85549	0.0908893	
0.0881256	-1.89432	0.0622007	
0.168331	-1.96827	0.0825855	
0.439805	-0.665771	0.0961081	
0.300706	-0.398067	0.097621	
0.276843	-0.215942	0.0962473	
0.164521	-0.152684	0.0818515	
0.145388	-0.56409	0.0778547	
0.291573	-0.55754	0.0971578	
0.784957	-1.97847	0.0509257	
0.0653565	-0.464921	0.0539179	
0.0764443	-0.10881	0.0581392	
0.0518788	-2.85699	0.0481998	
0.0534478	-0.553648	0.0489038	
0.53341	-0.489757	0.0886769	
0.791113	-0.485718	0.0497046	
0.0756529	-1.57927	0.0578505	
0.423145	-0.16346	0.0969985	
0.64399	-0.635425	0.0750771	
0.461209	-0.325663	0.0947653	
0.759308	-1.60086	0.055865	
0.585216	-1.73822	0.0829202	
0.305247	-0.69279	0.0978231	
0.0488106	-0.919156	0.0467902	
0.784442	-0.757905	0.0510272	
0.854887	-1.16435	0.0362433	
0.417574	-3	0.0399657	
0.235028	-3	0.033196	
0.101246	-3	0.0176865	
0.669606	-3	0.0319236	
1.36041	3	0	
1.5238	2.49331	0	
1.32451	2.11802	0	
1.85984	3	0	
9.79224	3	0	
7.00728	3	0	
9.79224	2.49983	0	
5.04414	3	0	
4.77538	2.65987	0	
6.59223	2.30237	0	
9.79224	2.00017	0	
1.5229	0.414411	0	
1.29243	0.756985	0	
1.36041	0	0	
1.85984	0	0	
3.06684	0.68696	0	
2.54065	0.297686	0	
3.56496	0	0	
9.79224	0.500166	0	
9.79224	0.999834	0	
6.63909	0.613404	0	
4.67272	0.349674	0	
7.00728	0	0	
9.79224	0	0	
2.14052	1.17027	0	
3.08027	1.30033	0	
2.44677	1.6135	0	
1.7687	1.82866	0	
7.04244	1.59916	0	
5.91815	1.09311	0	
9.79224	1.5	0	
1.47263	1.24643	0	
4.59426	1.47789	0	
3.96659	1.07109	0	
2.15644	2.43985	0	
1.30613	1.68653	0	
2.09672	0.586193	0	
2.57099	0	0	
5.04414	0	0	
3.56496	3	0	
4.21858	2.25262	0	
3.16256	2.59642	0	
2.98725	2.2092	0	
3.44182	1.80335	0	
5.10227	1.89932	0	
4.53689	0.741036	0	
2.57099	3	0	
2.40573	1.98696	0	
1.69746	0.845782	0	
1.52384	-0.506622	0	
1.32447	-0.881562	0	
9.79224	-0.500166	0	
4.77556	-0.340127	0	
6.59229	-0.697634	0	
9.79224	-0.999834	0	
3.06683	-2.31304	0	
2.54065	-2.70231	0	
3.56496	-3	0	
1.5229	-2.58557	0	
1.29243	-2.24294	0	
1.36041	-3	0	
1.85984	-3	0	
9.79224	-2.49983	0	
9.79224	-2.00017	0	
6.63909	-2.3866	0	
4.67272	-2.65033	0	
7.00728	-3	0	
9.79224	-3	0	
2.14047	-1.8297	0	
3.08026	-1.69967	0	
2.44675	-1.38649	0	
1.76866	-1.17125	0	
9.79224	-1.5	0	
7.04245	-1.40085	0	
5.91815	-1.90689	0	
1.47252	-1.75326	0	
3.96659	-1.92891	0	
4.59426	-1.52211	0	
2.15651	-0.560132	0	
1.30595	-1.31268	0	
2.09671	-2.41379	0	
2.57099	-3	0	
5.04414	-3	0	
3.16282	-0.403599	0	
4.21872	-0.747405	0	
2.98733	-0.79081	0	
3.44183	-1.19665	0	
5.10231	-1.10069	0	
4.53689	-2.25896	0	
2.40573	-1.01303	0	
1.69742	-2.15413	0	
0	1.25892	0	
0.0872608	1.21749	-0.028163	
0	1.16176	0	
0.099433	0.437774	-0.028626	
0.0689688	0.333786	-0.0269777	
0	0.38832	0	
0.100405	0.227624	-0.0286538	
0.1168	0.111394	-0.0289505	
0	0.194469	0	
0	0.291389	0	
0.0950157	0.706234	-0.0284833	
0	0.67939	0	
0	0.774529	0	
0	0.485357	0	
0.0738189	0.92302	-0.0273596	
0.104971	0.817848	-0.0287681	
0	0.870688	0	
1	0.333319	0	
0.730919	0.474505	-0.00488299	
0	0.967619	0	
0	1.3561	0	
0	1.45292	0	
0.0809436	1.39654	-0.0278283	
0	1.83824	0	
0.0857378	1.79299	-0.0280887	
0	1.74108	0	
0.108843	1.68977	-0.0288451	
0	2.03238	0	
0.083671	1.99682	-0.0279815	
0	1.93534	0	
0.0816099	2.4849	-0.027867	
0.0832931	2.3819	-0.0279611	
0	2.41774	0	
0	2.51464	0	
1	0.667009	0	
0.121513	2.8851	-0.0289822	
0.0911407	3	-0.028335	
0.558122	0.223684	-0.0113638	
0.348547	0.247309	-0.0202234	
0.45575	0.428341	-0.0157455	
0.758108	0.790683	-0.00407333	
1	2.33299	0	
0.70372	2.5097	-0.00575915	
1	2.66668	0	
1	2.00016	0	
1	1.66637	0	
0.766797	1.84041	-0.00382906	
0.794913	0.20717	-0.00308804	
0.355293	1.97248	-0.0199109	
0.379711	1.73593	-0.0188298	
0.249173	1.88009	-0.0251232	
0.770804	2.78202	-0.00371883	
0.334019	0.582619	-0.0209134	
0.252349	0.426753	-0.0249692	
0.162941	0.573889	-0.0285078	
0.504987	1.46567	-0.0136405	
0.312828	1.36983	-0.0219519	
0.308788	1.53827	-0.022153	
0.341576	0.929754	-0.0205518	
0.18594	0.931241	-0.0278242	
0.247992	1.05687	-0.0251802	
0.234782	0.829382	-0.0258064	
0.117633	1.89659	-0.0289577	
0.203431	2.00298	-0.0271717	
0.264451	2.12714	-0.0243744	
0.224603	0	-0.0262714	
0.242297	0.147783	-0.0254529	
0.408169	0	-0.0176859	
0.0907281	0	-0.0283178	
0.225501	3	-0.0262311	
0.537261	0.649266	-0.0122522	
0.305054	2.44429	-0.0223395	
0.315144	2.27953	-0.0218369	
0.194626	2.35354	-0.0275123	
0.662201	0	-0.00721511	
1	0	0	
0.481733	2.363	-0.0146406	
0.424426	2.56861	-0.0170395	
0.489768	2.76415	-0.0142957	
0	0.0977885	0	
				</DataArray>
			</Points>
			<Cells>
				<DataArray type="Int32" Name="connectivity" Format="ascii">
392	2	526	
526	393	392	
394	393	524	
393	395	392	
396	397	398	
399	400	397	
398	397	401	
398	401	402	
403	404	500	
500	558	405	
403	405	406	
407	408	409	
403	500	405	
410	411	412	
412	413	414	
414	415	410	
414	410	412	
416	407	417	
416	417	418	
416	418	419	
420	421	411	
411	422	420	
402	420	422	
402	401	420	
416	419	423	
36	32	423	
424	417	425	
407	425	417	
393	419	426	
36	427	528	
36	423	427	
419	427	423	
407	416	428	
403	406	428	
429	409	408	
406	429	408	
407	428	408	
406	408	428	
409	413	407	
409	430	413	
430	414	413	
431	400	399	
401	397	400	
401	400	432	
400	433	432	
434	435	432	
424	436	435	
424	435	417	
425	437	421	
424	425	421	
412	411	421	
424	421	420	
432	435	436	
401	432	436	
424	420	436	
401	436	420	
407	437	425	
412	421	437	
407	413	437	
412	437	413	
433	438	426	
393	426	395	
434	439	435	
417	435	418	
419	439	426	
434	426	439	
419	418	439	
418	435	439	
438	433	431	
395	426	438	
434	433	426	
434	432	433	
431	433	400	
32	404	423	
403	440	404	
32	517	404	
517	500	404	
527	394	524	
526	524	393	
393	394	419	
527	427	394	
419	394	427	
527	528	427	
423	404	440	
416	423	440	
403	428	440	
416	440	428	
405	558	195	
195	441	405	
442	441	193	
441	406	405	
415	414	443	
430	444	414	
443	414	445	
443	445	446	
447	448	449	
450	451	198	
198	237	452	
450	452	453	
450	198	452	
454	455	456	
456	457	458	
458	459	454	
458	454	456	
460	447	461	
460	462	463	
460	461	462	
455	464	465	
465	466	455	
446	465	464	
446	445	465	
460	463	467	
202	200	467	
447	468	461	
469	461	468	
441	463	470	
463	471	467	
202	467	471	
202	471	269	
450	453	472	
447	460	472	
473	449	448	
453	473	448	
447	472	448	
453	448	472	
409	444	430	
445	414	444	
474	458	457	
449	474	457	
449	457	447	
444	475	476	
445	444	476	
477	478	476	
469	479	478	
469	478	461	
445	479	465	
469	465	479	
445	476	479	
476	478	479	
469	466	465	
456	455	466	
469	468	466	
468	480	466	
456	480	457	
447	457	480	
456	466	480	
447	480	468	
441	470	406	
475	429	470	
477	481	478	
461	478	462	
463	481	470	
477	470	481	
463	462	481	
462	478	481	
429	475	409	
477	476	475	
409	475	444	
406	470	429	
477	475	470	
200	451	467	
450	482	451	
200	197	451	
197	198	451	
267	442	193	
195	193	441	
441	442	463	
269	471	267	
463	442	471	
267	471	442	
467	451	482	
460	467	482	
450	472	482	
460	482	472	
				</DataArray>
				<DataArray type="Int32" Name="offsets" Format="ascii">
3	
6	
9	
12	
15	
18	
21	
24	
27	
30	
33	
36	
39	
42	
45	
48	
51	
54	
57	
60	
63	
66	
69	
72	
75	
78	
81	
84	
87	
90	
93	
96	
99	
102	
105	
108	
111	
114	
117	
120	
123	
126	
129	
132	
135	
138	
141	
144	
147	
150	
153	
156	
159	
162	
165	
168	
171	
174	
177	
180	
183	
186	
189	
192	
195	
198	
201	
204	
207	
210	
213	
216	
219	
222	
225	
228	
231	
234	
237	
240	
243	
246	
249	
252	
255	
258	
261	
264	
267	
270	
273	
276	
279	
282	
285	
288	
291	
294	
297	
300	
303	
306	
309	
312	
315	
318	
321	
324	
327	
330	
333	
336	
339	
342	
345	
348	
351	
354	
357	
360	
363	
366	
369	
372	
375	
378	
381	
384	
387	
390	
393	
396	
399	
402	
405	
408	
411	
414	
417	
420	
423	
426	
429	
432	
435	
438	
441	
444	
447	
450	
453	
456	
459	
462	
465	
468	
471	
474	
477	
480	
483	
486	
489	
492	
495	
498	
501	
504	
507	
510	
513	
516	
519	
522	
				</DataArray>
				<DataArray type="Int32" Name="types" Format="ascii">
5	
5	
5	
5	
5	
5	
5	
5	
5	
5	
5	
5	
5	
5	
5	
5	
5	
5	
5	
5	
5	
5	
5	
5	
5	
5	
5	
5	
5	
5	
5	
5	
5	
5	
5	
5	
5	
5	
5	
5	
5	
5	
5	
5	
5	
5	
5	
5	
5	
5	
5	
5	
5	
5	
5	
5	
5	
5	
5	
5	
5	
5	
5	
5	
5	
5	
5	
5	
5	
5	
5	
5	
5	
5	
5	
5	
5	
5	
5	
5	
5	
5	
5	
5	
5	
5	
5	
5	
5	
5	
5	
5	
5	
5	
5	
5	
5	
5	
5	
5	
5	
5	
5	
5	
5	
5	
5	
5	
5	
5	
5	
5	
5	
5	
5	
5	
5	
5	
5	
5	
5	
5	
5	
5	
5	
5	
5	
5	
5	
5	
5	
5	
5	
5	
5	
5	
5	
5	
5	
5	
5	
5	
5	
5	
5	
5	
5	
5	
5	
5	
5	
5	
5	
5	
5	
5	
5	
5	
5	
5	
5	
5	
5	
5	
5	
5	
5	
5	
5	
5	
5	
5	
5	
5	
				</DataArray>
			</Cells>
		</Piece>
	</UnstructuredGrid>
</VTKFile>
