<VTKFile type="UnstructuredGrid" version="0.1" byte_order="LittleEndian">
	<UnstructuredGrid>
		<Piece NumberOfPoints="120" NumberOfCells="60">
			<CellData Scalars="scalars">
				<DataArray type="Float64" Name="Gamma" NumberOfComponents="1" Format="ascii">
0.158734	
0.335867	
0.369918	
0.386602	
0.389102	
0.378726	
0.391469	
0.384394	
0.363903	
0.380919	
0.389093	
0.3772	
0.392396	
0.387726	
0.387739	
0.319233	
0.364512	
0.348551	
0.360804	
0.386542	
0.302554	
0.378482	
0.390695	
0.209698	
0.38612	
0.243439	
0.364127	
0.393894	
0.373268	
0.275982	
0.391549	
0.272189	
0.373591	
0.386775	
0.211888	
0.391272	
0.379979	
0.395762	
0.390405	
0.394087	
0.360433	
0.38216	
0.392261	
0.377837	
0.386254	
0.387401	
0.316288	
0.357882	
0.341684	
0.385368	
0.333489	
0.38912	
0.299024	
0.398675	
0.346517	
0.390451	
0.160558	
0.378405	
0.245338	
0.369507	
				</DataArray>
			</CellData>
			<Points>
				<DataArray type="Float64" Name="Position" NumberOfComponents="3" Format="ascii">
1.22822	2.90039	-0.0285887	
1.22822	3	-0.0285208	
1.2283	2.2996	-0.0278746	
1.22826	2.3999	-0.0282021	
1.22829	1.59961	-0.027978	
1.22824	1.6998	-0.0284378	
1.22825	1.40039	-0.0282852	
1.2283	1.5	-0.0279101	
1.22821	0.0996145	-0.0286265	
1.22828	0.199798	-0.0280986	
1.2283	1.5	-0.0279101	
1.22829	1.59961	-0.027978	
1.22828	0.199798	-0.0280986	
1.22823	0.299987	-0.0284977	
1.22822	0.400043	-0.0285879	
1.22826	0.500166	-0.0282277	
1.22823	1.90004	-0.0284754	
1.22826	2.00017	-0.0282752	
1.22822	0.799597	-0.0285495	
1.22822	0.899898	-0.0285622	
1.22826	0.600102	-0.0282306	
1.22823	0.700403	-0.0284694	
1.22823	1.3002	-0.0285007	
1.22825	1.40039	-0.0282852	
1.22824	0.999834	-0.0283706	
1.22827	1.09996	-0.0281598	
1.22827	1.09996	-0.0281598	
1.22823	1.20001	-0.0284498	
1.22822	0.899898	-0.0285622	
1.22824	0.999834	-0.0283706	
1.22826	2.3999	-0.0282021	
1.22824	2.49983	-0.028367	
1.22826	2.00017	-0.0282752	
1.22825	2.1001	-0.0283362	
1.22826	2.2004	-0.0282212	
1.2283	2.2996	-0.0278746	
1.22825	2.1001	-0.0283362	
1.22826	2.2004	-0.0282212	
1.22823	0.700403	-0.0284694	
1.22822	0.799597	-0.0285495	
1.22824	2.49983	-0.028367	
1.22826	2.59996	-0.0282603	
1.22823	0.299987	-0.0284977	
1.22822	0.400043	-0.0285879	
1.2282	0	-0.0287284	
1.22821	0.0996145	-0.0286265	
1.22821	2.8002	-0.0286652	
1.22822	2.90039	-0.0285887	
1.22823	1.20001	-0.0284498	
1.22823	1.3002	-0.0285007	
1.22825	2.70001	-0.0283352	
1.22821	2.8002	-0.0286652	
1.22822	1.79999	-0.0285623	
1.22823	1.90004	-0.0284754	
1.22826	0.500166	-0.0282277	
1.22826	0.600102	-0.0282306	
1.22824	1.6998	-0.0284378	
1.22822	1.79999	-0.0285623	
1.22826	2.59996	-0.0282603	
1.22825	2.70001	-0.0283352	
1.22824	-0.0996145	-0.0284279	
1.2282	0	-0.0287284	
1.22823	-2.70001	-0.0284802	
1.22824	-2.59996	-0.028398	
1.22823	-1.6998	-0.0284715	
1.22829	-1.59961	-0.0280007	
1.2283	-1.5	-0.0279187	
1.22826	-1.40039	-0.0282274	
1.22822	-2.90039	-0.0285527	
1.22822	-2.8002	-0.0285828	
1.22827	-0.199798	-0.0281828	
1.22824	-0.0996145	-0.0284279	
1.22829	-1.59961	-0.0280007	
1.2283	-1.5	-0.0279187	
1.22821	-0.299987	-0.0286631	
1.22827	-0.199798	-0.0281828	
1.22822	-0.400043	-0.0285907	
1.22821	-0.299987	-0.0286631	
1.22826	-0.500166	-0.0282658	
1.22822	-0.400043	-0.0285907	
1.22824	-2.00017	-0.0283975	
1.22823	-1.90004	-0.0284622	
1.22822	-0.899898	-0.0285417	
1.22822	-0.799597	-0.0285539	
1.22823	-0.700403	-0.0284668	
1.22826	-0.600102	-0.0282406	
1.22826	-1.40039	-0.0282274	
1.22823	-1.3002	-0.0284737	
1.22823	-1.20001	-0.0284394	
1.22829	-1.09996	-0.0279947	
1.22828	-0.999834	-0.0280606	
1.22822	-0.899898	-0.0285417	
1.22824	-2.49983	-0.0284379	
1.22829	-2.3999	-0.0279668	
1.22824	-2.1001	-0.0284078	
1.22824	-2.00017	-0.0283975	
1.2283	-2.2996	-0.0279448	
1.22824	-2.2004	-0.0283761	
1.22823	-1.3002	-0.0284737	
1.22823	-1.20001	-0.0284394	
1.22829	-2.3999	-0.0279668	
1.2283	-2.2996	-0.0279448	
1.22822	-0.799597	-0.0285539	
1.22823	-0.700403	-0.0284668	
1.22824	-2.59996	-0.028398	
1.22824	-2.49983	-0.0284379	
1.22826	-0.600102	-0.0282406	
1.22826	-0.500166	-0.0282658	
1.22824	-2.2004	-0.0283761	
1.22824	-2.1001	-0.0284078	
1.22829	-1.09996	-0.0279947	
1.22828	-0.999834	-0.0280606	
1.22822	-3	-0.0285254	
1.22822	-2.90039	-0.0285527	
1.22822	-1.79999	-0.0285227	
1.22823	-1.6998	-0.0284715	
1.22822	-2.8002	-0.0285828	
1.22823	-2.70001	-0.0284802	
1.22823	-1.90004	-0.0284622	
1.22822	-1.79999	-0.0285227	
				</DataArray>
			</Points>
			<Cells>
				<DataArray type="Int32" Name="connectivity" Format="ascii">
0	1	
2	3	
4	5	
6	7	
8	9	
10	11	
12	13	
14	15	
16	17	
18	19	
20	21	
22	23	
24	25	
26	27	
28	29	
30	31	
32	33	
34	35	
36	37	
38	39	
40	41	
42	43	
44	45	
46	47	
48	49	
50	51	
52	53	
54	55	
56	57	
58	59	
60	61	
62	63	
64	65	
66	67	
68	69	
70	71	
72	73	
74	75	
76	77	
78	79	
80	81	
82	83	
84	85	
86	87	
88	89	
90	91	
92	93	
94	95	
96	97	
98	99	
100	101	
102	103	
104	105	
106	107	
108	109	
110	111	
112	113	
114	115	
116	117	
118	119	
				</DataArray>
				<DataArray type="Int32" Name="offsets" Format="ascii">
2	
4	
6	
8	
10	
12	
14	
16	
18	
20	
22	
24	
26	
28	
30	
32	
34	
36	
38	
40	
42	
44	
46	
48	
50	
52	
54	
56	
58	
60	
62	
64	
66	
68	
70	
72	
74	
76	
78	
80	
82	
84	
86	
88	
90	
92	
94	
96	
98	
100	
102	
104	
106	
108	
110	
112	
114	
116	
118	
120	
				</DataArray>
				<DataArray type="Int32" Name="types" Format="ascii">
3	
3	
3	
3	
3	
3	
3	
3	
3	
3	
3	
3	
3	
3	
3	
3	
3	
3	
3	
3	
3	
3	
3	
3	
3	
3	
3	
3	
3	
3	
3	
3	
3	
3	
3	
3	
3	
3	
3	
3	
3	
3	
3	
3	
3	
3	
3	
3	
3	
3	
3	
3	
3	
3	
3	
3	
3	
3	
3	
3	
				</DataArray>
			</Cells>
		</Piece>
	</UnstructuredGrid>
</VTKFile>
