<VTKFile type="UnstructuredGrid" version="0.1" byte_order="LittleEndian">
	<UnstructuredGrid>
		<Piece NumberOfPoints="420" NumberOfCells="420">
			<CellData Scalars="scalars">
				<DataArray type="Float64" Name="Strength" NumberOfComponents="3" Format="ascii">
0.0166318	-0.0116143	-0.0015519	
0.00238463	-0.0238938	0.000490297	
0.000364733	-0.0252952	0.000133049	
-0.000472423	-0.0265318	0.000286117	
-0.000364273	-0.0261172	0.00011396	
9.25374e-05	-0.02587	0.000153376	
0.00130428	-0.0264885	-0.000333071	
-0.00159626	-0.0257619	0.000499704	
-0.000342938	-0.0252292	0.000481461	
6.97644e-05	-0.0255103	1.51391e-05	
0.000709077	-0.0264555	-0.000244125	
0.000834456	-0.0254971	-0.000232526	
-4.62399e-05	-0.0268425	2.55756e-05	
0.000216145	-0.0263436	5.81656e-05	
9.69268e-05	-0.026146	-1.83793e-06	
0.00125597	-0.0226702	0.00117691	
0.000529143	-0.0255748	0.000402894	
0.00113304	-0.0244515	0.000556628	
0.000382272	-0.0254642	0.000653857	
8.53516e-05	-0.0259576	-1.78924e-06	
0.00218679	-0.0217884	0.0013646	
-9.26356e-06	-0.0252513	2.71007e-05	
3.53332e-05	-0.0260331	5.82376e-05	
0.00287491	-0.0156322	0.00180592	
7.5027e-05	-0.0262176	0.000100217	
0.00254076	-0.0179758	0.00188888	
0.000881602	-0.0250346	-8.95221e-05	
4.65462e-05	-0.0267603	-6.93201e-05	
0.000145258	-0.0257253	0.000205764	
0.000319717	-0.0200287	0.00226596	
8.40113e-05	-0.0260695	0.00017518	
-0.00398457	-0.0197486	-0.00121466	
-7.9861e-05	-0.0255598	-0.000364729	
0.000462817	-0.026511	-0.000224669	
-0.0065908	-0.0157263	-0.000884566	
0.00053798	-0.0262621	-5.60392e-05	
-0.000124442	-0.0259657	-0.000161829	
-0.000566455	-0.0267468	0.000172728	
0.000404405	-0.0261957	-0.000103883	
0.000552014	-0.0266317	-0.000153982	
-0.00071388	-0.024949	-0.000174899	
-0.00017654	-0.025598	-3.72097e-05	
-0.000988981	-0.0265966	0.000238764	
-0.000654462	-0.0255955	0.000208914	
-0.000642104	-0.0262176	8.65585e-05	
0.000340041	-0.0261452	-0.000144352	
-0.00259017	-0.0225702	-0.000765554	
-0.00097116	-0.0249878	-0.000206087	
-0.000738056	-0.0238694	-0.000508944	
-9.61407e-05	-0.026146	-7.2344e-05	
-0.000267779	-0.023945	-0.00103985	
-8.18444e-05	-0.0260555	-0.000105003	
-0.000404052	-0.0215743	-0.00197537	
-3.68138e-05	-0.0271372	-2.53306e-05	
-0.000187363	-0.0244213	-0.000608387	
-6.03101e-05	-0.026648	-4.56658e-05	
-0.0131957	-0.0118952	0.000924983	
-0.000892833	-0.0261244	-4.34811e-05	
-0.000518194	-0.0181479	-0.00261158	
-0.000224249	-0.0254381	-0.000322697	
0.0183906	-0.00045505	-0.00395991	
0.00239714	-0.00405579	-0.000771523	
0.000360299	-0.00487656	-0.000105892	
-0.000349683	-0.004943	0.000174908	
-0.000184391	-0.00521947	7.52724e-05	
2.43556e-05	-0.00490966	2.24428e-05	
0.0012586	-0.0051206	-0.000518078	
-0.00152544	-0.00514387	0.000645658	
-0.0003393	-0.00468919	0.000214304	
-8.55114e-05	-0.00512059	4.51498e-05	
0.000687086	-0.00507631	-0.000294703	
0.000785831	-0.00507315	-0.000336166	
-8.58224e-05	-0.00505996	4.75577e-05	
0.000136149	-0.00511121	-3.43369e-05	
1.3706e-05	-0.00508136	8.39033e-06	
0.00130614	-0.00381951	-0.000266	
0.000297535	-0.00456219	-2.3471e-05	
0.00100743	-0.00422701	-0.000255939	
8.56665e-05	-0.00450546	0.000107846	
1.62719e-05	-0.00496936	-3.45091e-06	
0.00223132	-0.00347856	-0.000546629	
-3.96982e-08	-0.00504487	1.92479e-06	
7.297e-05	-0.00524362	-1.72476e-05	
0.00293747	-0.00205513	-0.00051875	
1.696e-05	-0.00514932	2.03144e-05	
0.00273453	-0.00253397	-0.000556814	
0.000763075	-0.00473817	-0.000288207	
3.33541e-06	-0.00510685	-6.78606e-06	
3.28453e-05	-0.00483341	2.7994e-05	
0.00011645	-0.00313186	0.00031592	
1.25373e-05	-0.00527566	3.4001e-05	
-0.00439988	-0.00301228	0.00125055	
-8.23781e-06	-0.004917	-6.7415e-05	
0.000395772	-0.004973	-0.000188805	
-0.00719041	-0.00183537	0.00181476	
0.000472598	-0.00525599	-0.000177064	
-2.64443e-05	-0.00492528	-2.64311e-05	
-0.000537511	-0.00521742	0.000226374	
0.000391468	-0.00517693	-0.000163305	
0.000492407	-0.00519627	-0.00020357	
-0.000763895	-0.00459876	0.00024815	
-0.000150221	-0.005126	4.60606e-05	
-0.000920303	-0.00518676	0.00038328	
-0.000640591	-0.00503729	0.000274799	
-0.000470271	-0.00509315	0.000171366	
0.000375797	-0.00505436	-0.000170881	
-0.00274073	-0.00381462	0.000836751	
-0.000933388	-0.00450984	0.000298709	
-0.00084336	-0.00430566	0.000214594	
-1.86445e-05	-0.00514465	-1.89956e-05	
-8.18755e-05	-0.00406665	-0.000153999	
-2.41859e-05	-0.00505909	-1.16556e-05	
-0.000118992	-0.00350962	-0.000299286	
-1.05406e-05	-0.00516983	-6.51615e-06	
-5.39077e-05	-0.00437734	-0.000103375	
-1.40992e-05	-0.005066	-1.42708e-05	
-0.0142776	-0.00067771	0.00309695	
-0.000770967	-0.00487063	0.000272367	
-0.000143939	-0.00261103	-0.000343327	
-5.23817e-05	-0.00475645	-4.72957e-05	
0.019354	0.000673262	-0.00403438	
0.00253606	-0.00165446	-0.00097253	
0.000398591	-0.00211395	-0.00015113	
-0.000284008	-0.00217759	0.00013269	
-0.00013675	-0.00235628	5.38922e-05	
8.88959e-06	-0.00214279	7.82667e-06	
0.00128078	-0.00232573	-0.000539544	
-0.00154354	-0.00232819	0.000653948	
-0.000262143	-0.00200008	0.000133876	
-0.000109988	-0.00230903	5.00091e-05	
0.00071336	-0.00231358	-0.000306881	
0.000826007	-0.00223232	-0.000355514	
-6.6382e-05	-0.00227188	3.15222e-05	
0.00013252	-0.00228112	-4.72752e-05	
5.49198e-06	-0.00229711	2.18692e-06	
0.00140148	-0.0015627	-0.00047284	
0.000299837	-0.00193006	-9.3442e-05	
0.00106321	-0.00175654	-0.000396572	
4.03403e-05	-0.00189748	3.1712e-05	
6.55865e-06	-0.00226777	-1.68854e-07	
0.00235658	-0.00139157	-0.00080413	
2.06268e-07	-0.0023057	-8.63383e-08	
8.04278e-05	-0.00236745	-3.01688e-05	
0.00305355	-0.000717914	-0.000760465	
6.5494e-06	-0.0022826	9.28296e-06	
0.00288655	-0.000939777	-0.000850942	
0.0008036	-0.00203116	-0.000336298	
8.74319e-07	-0.00231667	-2.30147e-06	
1.31941e-05	-0.00209527	9.81481e-06	
5.68138e-05	-0.0012732	0.000102424	
-5.91904e-06	-0.0023772	1.93996e-05	
-0.0046918	-0.00109091	0.00161963	
-2.34789e-05	-0.00213618	-1.84843e-05	
0.000342508	-0.00218388	-0.000155978	
-0.00758847	-0.000429325	0.00206465	
0.000463243	-0.00237293	-0.000188924	
-9.83992e-06	-0.00215212	-1.00061e-05	
-0.000536817	-0.00236442	0.000229987	
0.000386532	-0.00236306	-0.000165563	
0.000476466	-0.00236147	-0.000203896	
-0.000889209	-0.00196921	0.000358744	
-0.000154479	-0.00232219	5.99276e-05	
-0.000940078	-0.00234949	0.000403842	
-0.000683544	-0.00222769	0.000293884	
-0.000462707	-0.00227871	0.000186007	
0.000354668	-0.00230159	-0.000155255	
-0.0029394	-0.00151269	0.00110111	
-0.000992284	-0.00190784	0.000390524	
-0.000979021	-0.00177064	0.000365541	
-6.46792e-06	-0.00228233	-1.02412e-05	
-3.75729e-05	-0.00167989	-4.46721e-05	
-1.1533e-05	-0.00229994	-4.14349e-06	
-5.64606e-05	-0.00141677	-9.87e-05	
-5.57756e-06	-0.00234491	-9.70659e-07	
-2.34922e-05	-0.00185041	-2.8084e-05	
-5.68515e-06	-0.0022781	-4.96985e-06	
-0.0149834	0.000378477	0.00311191	
-0.00079528	-0.00211244	0.000322347	
-6.73896e-05	-0.00106582	-0.000113061	
-2.2136e-05	-0.00206178	-1.30725e-05	
0.020452	0.000622141	-0.0040481	
0.00279683	-0.00186389	-0.00104879	
0.000483941	-0.0023891	-0.000180354	
-0.000216984	-0.00245841	9.8485e-05	
-0.000105135	-0.00261724	3.48709e-05	
6.1071e-06	-0.00242175	7.33274e-06	
0.00131617	-0.00259501	-0.000532259	
-0.00157579	-0.00259228	0.00064012	
-0.000146706	-0.00224429	8.26025e-05	
-0.000122521	-0.0025999	5.34791e-05	
0.000734334	-0.00259589	-0.000306431	
0.000878754	-0.0025055	-0.000364117	
-3.14992e-05	-0.00256535	9.98869e-06	
0.000148686	-0.00256035	-5.61101e-05	
5.96263e-06	-0.00258647	-5.45732e-07	
0.001581	-0.00175406	-0.000532849	
0.000351857	-0.0021595	-0.000119775	
0.00117399	-0.00198166	-0.000433752	
3.61037e-05	-0.00211761	3.23509e-05	
6.54765e-06	-0.00255862	-2.67088e-06	
0.00256277	-0.00156355	-0.000869388	
-5.97024e-07	-0.00258109	2.43415e-06	
8.58988e-05	-0.00261745	-3.32165e-05	
0.00327419	-0.000815447	-0.00081698	
4.61559e-06	-0.002549	9.14321e-06	
0.00313131	-0.00106954	-0.000931941	
0.00088032	-0.00227913	-0.000358514	
1.05696e-06	-0.00258648	-1.70342e-06	
9.95421e-06	-0.00235109	8.68389e-06	
5.31421e-05	-0.00143235	0.000102109	
-1.52844e-05	-0.00262117	2.35052e-05	
-0.00511241	-0.00125701	0.00177853	
-9.73799e-05	-0.00239742	1.37133e-05	
0.000281283	-0.00245659	-0.00011874	
-0.00816419	-0.000522077	0.00216517	
0.000467245	-0.00262617	-0.000186057	
-7.07495e-06	-0.00242399	-1.1057e-05	
-0.000543972	-0.00262129	0.000220232	
0.000385744	-0.00262091	-0.000158357	
0.000474558	-0.00261726	-0.000197474	
-0.00105407	-0.00220962	0.000417782	
-0.000164437	-0.00260662	6.19391e-05	
-0.00096369	-0.00261486	0.000397282	
-0.000733815	-0.00250475	0.000309047	
-0.000492337	-0.00255809	0.000195135	
0.000328941	-0.00258852	-0.00013651	
-0.00324498	-0.00172554	0.00119102	
-0.00108776	-0.00213543	0.000419588	
-0.00116508	-0.00198707	0.000433314	
-4.3628e-06	-0.00254877	-7.2326e-06	
-3.41564e-05	-0.00190314	-4.16398e-05	
-1.22623e-05	-0.0025768	-1.05511e-06	
-5.35959e-05	-0.00160635	-0.000100122	
-5.77301e-06	-0.00260432	-6.72913e-07	
-1.84522e-05	-0.00208127	-2.46232e-05	
-4.91089e-06	-0.0025674	-2.24816e-07	
-0.0157627	0.000317066	0.00305245	
-0.000863617	-0.00235022	0.000347645	
-6.52413e-05	-0.00121698	-0.000109619	
-1.89733e-05	-0.00229289	-1.11096e-05	
0.0213148	0.000482224	-0.00419671	
0.00300929	-0.00160947	-0.0011106	
0.000563377	-0.00210776	-0.000213642	
-0.00015261	-0.00217255	6.78966e-05	
-7.58187e-05	-0.00234966	2.24117e-05	
2.23863e-06	-0.00213868	9.31601e-06	
0.0013395	-0.00232937	-0.000534504	
-0.0015944	-0.00232699	0.000638449	
-2.82285e-05	-0.00196566	1.81087e-05	
-0.000119091	-0.00230974	4.89548e-05	
0.000760639	-0.00232374	-0.000310049	
0.000921001	-0.00221944	-0.00037612	
6.65033e-07	-0.00227425	-5.779e-06	
0.000162717	-0.00226843	-6.28004e-05	
2.81891e-06	-0.00229367	-3.45731e-06	
0.00172741	-0.00150609	-0.00058036	
0.000393635	-0.00188228	-0.000143167	
0.00126809	-0.00171338	-0.000478218	
2.39676e-05	-0.00183987	1.80544e-05	
5.35141e-06	-0.00228373	7.00407e-07	
0.00273002	-0.0013342	-0.00092933	
-6.3293e-07	-0.00231567	-1.11834e-06	
9.07165e-05	-0.00234971	-3.59284e-05	
0.00344404	-0.000691258	-0.000872567	
5.00997e-07	-0.00225674	7.0174e-06	
0.00332681	-0.000907115	-0.00100117	
0.000946077	-0.00200175	-0.000380779	
1.61058e-06	-0.00232046	-9.49349e-07	
3.55231e-06	-0.00206832	6.01277e-06	
3.12332e-05	-0.00122207	6.94739e-05	
-2.53278e-05	-0.00235443	2.461e-05	
-0.00547346	-0.00106987	0.00187897	
-0.000167419	-0.00211164	5.00633e-05	
0.000219726	-0.00216968	-8.98117e-05	
-0.00863541	-0.000437753	0.00223862	
0.000464676	-0.00235763	-0.000180979	
-2.5003e-06	-0.0021373	-8.95283e-06	
-0.000549232	-0.00235248	0.000221448	
0.000381077	-0.00234811	-0.000152982	
0.000471272	-0.00234526	-0.000189289	
-0.00120002	-0.0019348	0.000477089	
-0.000185062	-0.00231524	7.19092e-05	
-0.000989076	-0.00234199	0.000402987	
-0.000776172	-0.00221515	0.000320247	
-0.0005203	-0.00226659	0.000206171	
0.000309616	-0.00229481	-0.000121476	
-0.0035126	-0.00149002	0.0012639	
-0.00116517	-0.0018645	0.000450952	
-0.00133139	-0.00172587	0.00050135	
-9.6494e-08	-0.00225601	-6.68513e-06	
-1.86051e-05	-0.00164841	-3.1448e-05	
-9.42815e-06	-0.00230029	-4.15461e-06	
-3.12536e-05	-0.00138222	-6.59832e-05	
-4.55638e-06	-0.00233523	-3.75829e-07	
-7.09255e-06	-0.00181232	-1.73369e-05	
-9.6375e-07	-0.00227782	5.6574e-08	
-0.0163645	0.000234212	0.00311985	
-0.000919873	-0.00206452	0.000367737	
-3.98036e-05	-0.0010393	-6.91109e-05	
-1.04834e-05	-0.00200896	-5.72843e-06	
0.0220097	0.000297383	-0.0042533	
0.00319737	-0.00135552	-0.00112271	
0.000654549	-0.00180686	-0.00023868	
-5.5293e-05	-0.00188496	2.4996e-05	
-5.68709e-05	-0.00208864	1.48817e-05	
-1.49948e-06	-0.00184259	9.21138e-06	
0.00135029	-0.00207503	-0.000519767	
-0.00159803	-0.0020744	0.000603347	
8.69534e-05	-0.00166856	-2.96252e-05	
-0.000119987	-0.00206061	5.04182e-05	
0.000779501	-0.00206753	-0.000298728	
0.00099027	-0.0019485	-0.000385355	
2.19357e-05	-0.00203709	-1.48661e-05	
0.000185352	-0.00203455	-7.19225e-05	
1.65822e-06	-0.00204823	-4.3151e-06	
0.00185146	-0.00126027	-0.000608804	
0.000436653	-0.00158914	-0.000157676	
0.00135123	-0.00144031	-0.00048453	
1.27154e-05	-0.00154751	1.05588e-05	
4.52731e-06	-0.00203668	-7.21486e-07	
0.00286624	-0.00112113	-0.000938024	
-1.40664e-06	-0.0020692	-1.43022e-06	
9.49868e-05	-0.0020862	-3.5609e-05	
0.00358697	-0.000602092	-0.000887946	
-1.02206e-06	-0.00201474	4.07043e-06	
0.00349546	-0.000775263	-0.00101452	
0.00100841	-0.0017044	-0.000382581	
2.47101e-06	-0.00206458	8.32544e-07	
1.36569e-06	-0.001764	3.50365e-06	
1.29773e-05	-0.00102358	4.33899e-05	
-3.29055e-05	-0.00208962	2.12354e-05	
-0.00578083	-0.000920411	0.00186292	
-0.000251803	-0.00180513	8.09805e-05	
0.000126031	-0.00187838	-4.74367e-05	
-0.009023	-0.000430422	0.00224527	
0.000465247	-0.00209619	-0.000177192	
1.82939e-07	-0.00183849	-9.63539e-06	
-0.000549532	-0.00209355	0.000214786	
0.000370326	-0.00209279	-0.000141535	
0.000462229	-0.00208449	-0.000174032	
-0.00133715	-0.00164132	0.00050421	
-0.000200152	-0.00205894	7.1796e-05	
-0.00100727	-0.00207801	0.000386089	
-0.000844269	-0.00193883	0.000332791	
-0.000552749	-0.00202653	0.000210709	
0.000295023	-0.00204151	-0.000106764	
-0.00373976	-0.00125118	0.00128031	
-0.00123868	-0.00157518	0.000456128	
-0.00148119	-0.00144931	0.00053186	
1.23832e-06	-0.00200673	-3.26315e-06	
-7.08876e-06	-0.00138009	-2.14607e-05	
-6.35312e-06	-0.00204504	-1.89888e-06	
-1.40458e-05	-0.00115505	-3.74019e-05	
-4.98592e-06	-0.00207129	-2.14233e-06	
6.93786e-08	-0.00152572	-1.01515e-05	
1.5599e-06	-0.00203324	1.90621e-06	
-0.0168465	9.27998e-05	0.00317444	
-0.000972752	-0.00175775	0.000372431	
-1.80093e-05	-0.000873428	-4.33817e-05	
-5.19177e-06	-0.001705	-6.77712e-06	
0.0224158	9.30917e-06	-0.0046434	
0.00325153	-0.00119752	-0.00120515	
0.000706399	-0.00159996	-0.000282299	
3.92335e-05	-0.00167331	-1.83516e-05	
-5.03755e-05	-0.00189489	1.38052e-05	
-2.11648e-06	-0.00163397	4.41034e-06	
0.0012972	-0.00189196	-0.000537661	
-0.00151764	-0.00189058	0.000619538	
0.000192625	-0.00147533	-7.5884e-05	
-0.000100571	-0.00185124	4.34378e-05	
0.000759681	-0.00187103	-0.00032106	
0.0010117	-0.00173377	-0.000417457	
4.91844e-05	-0.00182951	-2.52434e-05	
0.000206007	-0.00181898	-8.27701e-05	
1.82637e-06	-0.0018363	-2.05455e-06	
0.00189486	-0.00111153	-0.000667789	
0.000462415	-0.00140271	-0.000175386	
0.00137969	-0.00126786	-0.000533235	
8.15751e-06	-0.00136247	6.89008e-06	
1.27985e-06	-0.00184028	-9.42589e-07	
0.00290779	-0.00100032	-0.000994138	
-1.14653e-06	-0.00188707	-1.39464e-06	
9.37895e-05	-0.00188746	-3.93211e-05	
0.00366449	-0.000569781	-0.000964744	
-1.80746e-06	-0.00179361	2.34393e-06	
0.00357884	-0.00071015	-0.00107736	
0.00101753	-0.0015107	-0.000412001	
2.41948e-06	-0.00187184	-8.37869e-07	
-1.3063e-06	-0.00156084	2.25788e-06	
4.22332e-06	-0.000905622	2.33409e-05	
-3.21941e-05	-0.00189107	2.16004e-05	
-0.00591666	-0.000847052	0.0019498	
-0.000318452	-0.00160283	0.000121357	
2.96811e-05	-0.00167261	-8.73765e-06	
-0.0092195	-0.000488016	0.00244175	
0.0004506	-0.00190024	-0.000186373	
2.45828e-07	-0.00163453	-5.83789e-06	
-0.000525887	-0.00190497	0.000217079	
0.000344608	-0.00190422	-0.000142556	
0.000422163	-0.00189786	-0.000174302	
-0.00141302	-0.00145907	0.000561982	
-0.000217006	-0.00185158	8.80087e-05	
-0.000972583	-0.00187884	0.000412524	
-0.000870781	-0.00173189	0.000367556	
-0.000571678	-0.00181746	0.000234324	
0.000273167	-0.00183437	-0.000110609	
-0.00381884	-0.00110961	0.00137341	
-0.00126128	-0.00139304	0.000493675	
-0.0015625	-0.0012759	0.000601823	
2.88028e-06	-0.00179229	-1.20227e-06	
-2.82181e-06	-0.00121403	-1.15811e-05	
-1.73743e-06	-0.00184783	9.80861e-10	
-5.49628e-06	-0.00102281	-1.84125e-05	
-3.22394e-06	-0.00187677	-3.61608e-07	
2.16261e-06	-0.00134551	-6.32325e-06	
2.1934e-07	-0.00183118	1.03969e-06	
-0.0170877	-0.000106546	0.00350926	
-0.000973343	-0.00156033	0.000399158	
-6.60246e-06	-0.000774108	-2.19698e-05	
-3.63872e-06	-0.00151683	-3.62857e-06	
				</DataArray>
				<DataArray type="Float64" Name="Time Step Shed" NumberOfComponents="1" Format="ascii">
3	
3	
3	
3	
3	
3	
3	
3	
3	
3	
3	
3	
3	
3	
3	
3	
3	
3	
3	
3	
3	
3	
3	
3	
3	
3	
3	
3	
3	
3	
3	
3	
3	
3	
3	
3	
3	
3	
3	
3	
3	
3	
3	
3	
3	
3	
3	
3	
3	
3	
3	
3	
3	
3	
3	
3	
3	
3	
3	
3	
4	
4	
4	
4	
4	
4	
4	
4	
4	
4	
4	
4	
4	
4	
4	
4	
4	
4	
4	
4	
4	
4	
4	
4	
4	
4	
4	
4	
4	
4	
4	
4	
4	
4	
4	
4	
4	
4	
4	
4	
4	
4	
4	
4	
4	
4	
4	
4	
4	
4	
4	
4	
4	
4	
4	
4	
4	
4	
4	
4	
5	
5	
5	
5	
5	
5	
5	
5	
5	
5	
5	
5	
5	
5	
5	
5	
5	
5	
5	
5	
5	
5	
5	
5	
5	
5	
5	
5	
5	
5	
5	
5	
5	
5	
5	
5	
5	
5	
5	
5	
5	
5	
5	
5	
5	
5	
5	
5	
5	
5	
5	
5	
5	
5	
5	
5	
5	
5	
5	
5	
6	
6	
6	
6	
6	
6	
6	
6	
6	
6	
6	
6	
6	
6	
6	
6	
6	
6	
6	
6	
6	
6	
6	
6	
6	
6	
6	
6	
6	
6	
6	
6	
6	
6	
6	
6	
6	
6	
6	
6	
6	
6	
6	
6	
6	
6	
6	
6	
6	
6	
6	
6	
6	
6	
6	
6	
6	
6	
6	
6	
7	
7	
7	
7	
7	
7	
7	
7	
7	
7	
7	
7	
7	
7	
7	
7	
7	
7	
7	
7	
7	
7	
7	
7	
7	
7	
7	
7	
7	
7	
7	
7	
7	
7	
7	
7	
7	
7	
7	
7	
7	
7	
7	
7	
7	
7	
7	
7	
7	
7	
7	
7	
7	
7	
7	
7	
7	
7	
7	
7	
8	
8	
8	
8	
8	
8	
8	
8	
8	
8	
8	
8	
8	
8	
8	
8	
8	
8	
8	
8	
8	
8	
8	
8	
8	
8	
8	
8	
8	
8	
8	
8	
8	
8	
8	
8	
8	
8	
8	
8	
8	
8	
8	
8	
8	
8	
8	
8	
8	
8	
8	
8	
8	
8	
8	
8	
8	
8	
8	
8	
9	
9	
9	
9	
9	
9	
9	
9	
9	
9	
9	
9	
9	
9	
9	
9	
9	
9	
9	
9	
9	
9	
9	
9	
9	
9	
9	
9	
9	
9	
9	
9	
9	
9	
9	
9	
9	
9	
9	
9	
9	
9	
9	
9	
9	
9	
9	
9	
9	
9	
9	
9	
9	
9	
9	
9	
9	
9	
9	
9	
				</DataArray>
			</CellData>
			<Points>
				<DataArray type="Float64" Name="Position" NumberOfComponents="3" Format="ascii">
1.85935	2.93097	0.0965846	
1.8505	2.34281	0.0721908	
1.84511	1.64842	0.0874898	
1.84904	1.44855	0.0897588	
1.84566	0.149219	0.0956697	
1.84837	1.54813	0.0895827	
1.84784	0.249415	0.0968028	
1.84622	0.450267	0.0959222	
1.84767	1.94832	0.0816041	
1.84399	0.849766	0.0940606	
1.84756	0.6503	0.0933996	
1.84559	1.34844	0.091181	
1.84879	1.05005	0.0921586	
1.84824	1.14977	0.0925626	
1.84821	0.949987	0.0936489	
1.8512	2.4417	0.0708878	
1.85059	2.04786	0.0787004	
1.85172	2.24497	0.074278	
1.85297	2.14685	0.076214	
1.84867	0.750017	0.094842	
1.85329	2.54089	0.0679385	
1.84649	0.349809	0.09842	
1.84692	0.0492543	0.0957023	
1.85626	2.83575	0.0758567	
1.84938	1.24895	0.0924114	
1.85491	2.73832	0.065816	
1.84849	1.84843	0.0852623	
1.85105	0.55059	0.0948668	
1.85106	1.74883	0.0872035	
1.85498	2.64	0.0649618	
1.84671	-0.0504058	0.0953476	
1.85084	-2.63856	0.0649804	
1.84463	-1.64827	0.0861272	
1.84791	-1.44946	0.0897015	
1.85608	-2.83422	0.0802502	
1.84676	-0.150202	0.0948664	
1.84723	-1.54856	0.0887068	
1.8484	-0.250228	0.0941969	
1.84697	-0.350275	0.0938159	
1.84794	-0.449735	0.0926353	
1.84621	-1.94677	0.082803	
1.84447	-0.849295	0.0942988	
1.84778	-0.649558	0.0931777	
1.84557	-1.3497	0.0913727	
1.8474	-1.14992	0.0925146	
1.84788	-0.949539	0.0937674	
1.85064	-2.44202	0.068246	
1.84899	-2.0466	0.081683	
1.84952	-2.24431	0.075381	
1.84869	-1.2495	0.0925037	
1.85245	-2.34309	0.0720954	
1.84878	-0.749533	0.0950584	
1.85336	-2.54096	0.0656007	
1.85125	-0.549899	0.0931893	
1.85034	-2.14581	0.0803893	
1.85068	-1.04988	0.0936563	
1.86072	-2.93086	0.0997982	
1.85	-1.74828	0.0853789	
1.85546	-2.73733	0.0672553	
1.8492	-1.84757	0.0846315	
1.77256	2.94084	0.05745	
1.78918	2.34892	0.00181133	
1.79448	1.64976	0.0159957	
1.79809	1.4495	0.0157001	
1.79716	0.149507	0.0226221	
1.79658	1.54938	0.0159717	
1.79819	0.249807	0.0231232	
1.79731	0.449605	0.0235615	
1.79344	1.95024	0.00984816	
1.7962	0.850189	0.0222881	
1.79745	0.650395	0.0196626	
1.79581	1.34958	0.0188634	
1.79791	1.05036	0.0177865	
1.79682	1.15053	0.0182622	
1.79691	0.950057	0.019648	
1.7863	2.44868	0.00298173	
1.79403	2.05043	0.00535427	
1.79119	2.24985	0.000715454	
1.79327	2.15043	0.00222131	
1.79738	0.750519	0.0206335	
1.78374	2.54864	0.00232162	
1.7962	0.349935	0.0263562	
1.79801	0.0497386	0.0219225	
1.77356	2.84755	0.0260365	
1.7972	1.24974	0.0180451	
1.77608	2.74884	0.00895688	
1.79352	1.8502	0.0129871	
1.7985	0.550169	0.0191005	
1.79513	1.75023	0.0131651	
1.77988	2.6488	0.00294738	
1.79798	-0.0498759	0.021479	
1.77904	-2.64855	0.00291027	
1.79382	-1.64989	0.0139326	
1.7973	-1.45044	0.0154223	
1.77429	-2.84652	0.0303527	
1.79703	-0.149852	0.0208293	
1.79547	-1.54991	0.0148185	
1.79837	-0.249826	0.0194723	
1.79748	-0.350123	0.020031	
1.79877	-0.449655	0.0184016	
1.79194	-1.94972	0.0114861	
1.79672	-0.849924	0.0224643	
1.79809	-0.650351	0.0188851	
1.7951	-1.35067	0.0189013	
1.79673	-1.15078	0.0188286	
1.79732	-0.949922	0.020134	
1.78531	-2.44867	0.000280032	
1.79222	-2.0497	0.00975553	
1.78961	-2.24853	0.00457155	
1.79667	-1.2505	0.0186241	
1.78874	-2.34834	0.0014757	
1.79813	-0.750348	0.0205956	
1.78291	-2.54907	-0.000405546	
1.79908	-0.549981	0.0165843	
1.79027	-2.14925	0.00916669	
1.7978	-1.05037	0.0185491	
1.7736	-2.94013	0.0610594	
1.79513	-1.75	0.0109352	
1.77601	-2.74828	0.0111502	
1.79277	-1.85012	0.0111502	
1.67468	2.9457	0.035514	
1.68565	2.35117	-0.0308686	
1.69227	1.65019	-0.0220193	
1.69514	1.44988	-0.0237177	
1.69531	0.14974	-0.0178182	
1.69394	1.54988	-0.022805	
1.69634	0.249865	-0.0174298	
1.69584	0.449559	-0.0166018	
1.69041	1.95108	-0.026558	
1.6948	0.850301	-0.0174869	
1.6951	0.650335	-0.020094	
1.69399	1.34991	-0.0203531	
1.69504	1.05054	-0.0219967	
1.69416	1.15065	-0.0212659	
1.69445	0.950215	-0.0201135	
1.68347	2.45129	-0.0279791	
1.69039	2.0515	-0.030427	
1.6872	2.25172	-0.033243	
1.68924	2.15183	-0.0327201	
1.69534	0.750575	-0.0193206	
1.68089	2.55168	-0.0266848	
1.6952	0.349867	-0.0136797	
1.69599	0.0499589	-0.0189986	
1.67379	2.85237	0.00317735	
1.69497	1.24999	-0.0216734	
1.67496	2.75294	-0.0154405	
1.69123	1.85089	-0.0240677	
1.6957	0.550174	-0.0209492	
1.69246	1.75077	-0.0247443	
1.67767	2.6522	-0.0236924	
1.69609	-0.0497262	-0.0194559	
1.67687	-2.65226	-0.0235794	
1.69111	-1.65046	-0.024152	
1.69435	-1.45094	-0.0240207	
1.67459	-2.85146	0.00736589	
1.69507	-0.149683	-0.0196495	
1.69265	-1.55044	-0.0239328	
1.69599	-0.249592	-0.0211439	
1.6955	-0.349892	-0.0202337	
1.69633	-0.449564	-0.0220107	
1.68926	-1.95071	-0.0248128	
1.69529	-0.85021	-0.0174452	
1.69563	-0.650453	-0.0212173	
1.6932	-1.35113	-0.0201976	
1.69434	-1.151	-0.020655	
1.69499	-0.950159	-0.0196201	
1.68203	-2.45126	-0.03037	
1.68906	-2.05094	-0.0259524	
1.68633	-2.25017	-0.0292755	
1.69453	-1.25085	-0.0210003	
1.6851	-2.35034	-0.0310261	
1.69612	-0.750588	-0.0196874	
1.67995	-2.55222	-0.029219	
1.69619	-0.550128	-0.0236197	
1.68662	-2.15054	-0.0269339	
1.69522	-1.05068	-0.0211353	
1.6758	-2.9449	0.0389687	
1.69197	-1.75074	-0.0271491	
1.6748	-2.7527	-0.0132572	
1.68995	-1.85107	-0.0259873	
1.5745	2.94875	0.0214492	
1.57742	2.352	-0.0363551	
1.58194	1.65034	-0.0299706	
1.58462	1.44996	-0.0325489	
1.58452	0.149921	-0.0275698	
1.58359	1.54994	-0.0312119	
1.58566	0.249899	-0.0275323	
1.58529	0.449558	-0.0263383	
1.58102	1.95138	-0.0334463	
1.58427	0.850289	-0.0267381	
1.58443	0.650251	-0.0292362	
1.58405	1.34987	-0.0290632	
1.58412	1.05058	-0.0311274	
1.58384	1.15084	-0.0301899	
1.58412	0.950191	-0.0292761	
1.57571	2.45221	-0.0333985	
1.58099	2.05184	-0.036698	
1.57834	2.25247	-0.0386566	
1.58003	2.15221	-0.0385093	
1.58464	0.750571	-0.0285642	
1.57451	2.55262	-0.0319612	
1.58505	0.349835	-0.0234704	
1.58539	0.0502056	-0.0288136	
1.57212	2.85436	-0.00606898	
1.58437	1.24999	-0.0307316	
1.57178	2.75426	-0.0214175	
1.58121	1.85118	-0.0314656	
1.58476	0.550153	-0.0302827	
1.58219	1.75102	-0.0326854	
1.57286	2.65339	-0.0287861	
1.5853	-0.0497329	-0.0291831	
1.57177	-2.65344	-0.0284217	
1.58074	-1.65064	-0.0319026	
1.58388	-1.45127	-0.0327722	
1.57273	-2.85365	-0.00261217	
1.5843	-0.149691	-0.0288844	
1.58198	-1.55068	-0.0321191	
1.58513	-0.249481	-0.0306012	
1.58466	-0.349854	-0.0293065	
1.58525	-0.449517	-0.0310872	
1.5795	-1.95112	-0.0319126	
1.58475	-0.850269	-0.0267631	
1.5849	-0.6504	-0.0302737	
1.58274	-1.35136	-0.0290122	
1.58398	-1.15122	-0.0296442	
1.58468	-0.950227	-0.0288115	
1.57491	-2.45223	-0.0353809	
1.57984	-2.05144	-0.032816	
1.5776	-2.25079	-0.0352313	
1.58376	-1.25092	-0.0300686	
1.57754	-2.35109	-0.0366632	
1.5853	-0.7506	-0.0290168	
1.57371	-2.55328	-0.0340096	
1.58498	-0.550115	-0.0325352	
1.57836	-2.15102	-0.0334648	
1.58437	-1.05083	-0.0302604	
1.57542	-2.94803	0.0242862	
1.58125	-1.75086	-0.0349948	
1.5715	-2.75422	-0.0196309	
1.5801	-1.85151	-0.033474	
1.47436	2.95053	0.00881317	
1.47291	2.35268	-0.0328497	
1.47537	1.65054	-0.0275534	
1.47716	1.44996	-0.0305119	
1.4767	0.149957	-0.0263028	
1.47608	1.55024	-0.0289473	
1.47759	0.249986	-0.0266055	
1.47784	0.449704	-0.0251567	
1.47431	1.95097	-0.0301948	
1.47605	0.850208	-0.0249977	
1.47674	0.650422	-0.0275326	
1.47723	1.34985	-0.0268702	
1.47594	1.05055	-0.0292388	
1.47613	1.15063	-0.0281612	
1.47574	0.950041	-0.0274194	
1.47222	2.45294	-0.0304654	
1.47508	2.05175	-0.032913	
1.47339	2.25276	-0.0345958	
1.47483	2.15245	-0.0344638	
1.47675	0.750669	-0.0268728	
1.47066	2.55303	-0.0295897	
1.47734	0.349924	-0.0224147	
1.47715	0.0500283	-0.0273812	
1.4717	2.8549	-0.0116174	
1.47721	1.24997	-0.0287258	
1.47017	2.75397	-0.0217629	
1.47437	1.85078	-0.0286214	
1.47714	0.550175	-0.0287926	
1.47492	1.75113	-0.0302079	
1.46986	2.65301	-0.0270058	
1.47726	-0.049791	-0.0276435	
1.46948	-2.65345	-0.0265017	
1.47509	-1.65074	-0.0291775	
1.47606	-1.45134	-0.0305426	
1.47202	-2.85436	-0.00936439	
1.4762	-0.149762	-0.0272066	
1.47543	-1.55055	-0.0296	
1.47663	-0.249569	-0.0288211	
1.47659	-0.349844	-0.0272961	
1.47712	-0.449573	-0.0289386	
1.47449	-1.95107	-0.0290396	
1.47657	-0.850299	-0.0250664	
1.47737	-0.650523	-0.0283213	
1.47645	-1.35139	-0.0268935	
1.47648	-1.15118	-0.0275506	
1.47612	-0.950122	-0.0270632	
1.47143	-2.4527	-0.0319774	
1.47509	-2.05147	-0.0299275	
1.47265	-2.25129	-0.0319794	
1.47691	-1.25089	-0.028174	
1.47266	-2.35178	-0.0332255	
1.47726	-0.750785	-0.0272932	
1.47026	-2.55367	-0.0310032	
1.4772	-0.549905	-0.0305129	
1.47336	-2.15137	-0.0303844	
1.47647	-1.05071	-0.0284273	
1.47527	-2.95003	0.010769	
1.47543	-1.75113	-0.0323275	
1.46981	-2.75402	-0.0206603	
1.47426	-1.85124	-0.0306494	
1.37397	2.9504	-0.00581087	
1.37187	2.35231	-0.0282604	
1.37213	1.65054	-0.0236099	
1.37337	1.45065	-0.0271503	
1.37323	0.149886	-0.0234682	
1.37257	1.55025	-0.0252838	
1.37396	0.249984	-0.0243333	
1.37473	0.44974	-0.0224425	
1.37228	1.95075	-0.0259932	
1.37359	0.850225	-0.0218894	
1.37292	0.650594	-0.0243777	
1.37401	1.34986	-0.0230306	
1.37264	1.04991	-0.0260967	
1.3736	1.15009	-0.0248509	
1.37272	0.949758	-0.0243242	
1.37147	2.45278	-0.0267709	
1.37271	2.0512	-0.0282307	
1.37136	2.25253	-0.0292165	
1.3725	2.15194	-0.0296687	
1.37372	0.750727	-0.0238325	
1.37083	2.55269	-0.0266884	
1.37413	0.350077	-0.0197244	
1.37345	0.0499536	-0.0243531	
1.37155	2.85385	-0.0179385	
1.37425	1.24992	-0.0255211	
1.3704	2.75293	-0.021801	
1.37218	1.85081	-0.0245472	
1.37382	0.550453	-0.0259501	
1.37241	1.75113	-0.026643	
1.37045	2.65234	-0.0248246	
1.37316	-0.0499478	-0.024453	
1.37037	-2.65291	-0.0241293	
1.37225	-1.65089	-0.0248415	
1.37325	-1.45098	-0.0270732	
1.37148	-2.8534	-0.0166986	
1.3731	-0.149849	-0.0239566	
1.37271	-1.55023	-0.0256502	
1.37297	-0.249236	-0.0256082	
1.37345	-0.349961	-0.0237017	
1.37414	-0.449382	-0.0253079	
1.3722	-1.95075	-0.0250179	
1.37365	-0.850216	-0.0219362	
1.3733	-0.650651	-0.0248271	
1.37323	-1.35144	-0.0231235	
1.37347	-1.15046	-0.0242838	
1.3729	-0.949843	-0.0239017	
1.37089	-2.4525	-0.0276065	
1.37255	-2.05144	-0.0261992	
1.37127	-2.2516	-0.0275626	
1.37383	-1.25087	-0.0250558	
1.37152	-2.35146	-0.0287799	
1.37378	-0.751093	-0.0241791	
1.3705	-2.55324	-0.027402	
1.37361	-0.550168	-0.0268441	
1.37213	-2.15123	-0.0259428	
1.37261	-1.05023	-0.0252703	
1.37429	-2.94978	-0.00477707	
1.37259	-1.75125	-0.0283472	
1.37021	-2.75329	-0.0215655	
1.37229	-1.85108	-0.0266569	
1.27556	2.95151	-0.0171586	
1.27458	2.35146	-0.0253684	
1.27441	1.65011	-0.0230476	
1.27473	1.45074	-0.0257112	
1.27476	0.149888	-0.0238531	
1.27454	1.55015	-0.0242696	
1.27508	0.249859	-0.0246853	
1.27563	0.449878	-0.0232109	
1.27464	1.95045	-0.024305	
1.27529	0.850144	-0.0226441	
1.27475	0.650386	-0.0242864	
1.27529	1.35025	-0.0227889	
1.27439	1.04982	-0.0253238	
1.27495	1.15005	-0.0244412	
1.27453	0.950033	-0.0242099	
1.27438	2.45174	-0.0245032	
1.27484	2.05072	-0.0253651	
1.27428	2.25154	-0.0258807	
1.27473	2.15126	-0.026187	
1.27517	0.75031	-0.0239792	
1.27406	2.55183	-0.0246406	
1.27563	0.349918	-0.0214087	
1.27495	0.0500101	-0.0245617	
1.27436	2.85291	-0.0219792	
1.27523	1.25001	-0.0249264	
1.27399	2.75212	-0.0224647	
1.27463	1.85058	-0.0235186	
1.27496	0.550452	-0.0254266	
1.27438	1.75052	-0.0252633	
1.27398	2.6517	-0.0236456	
1.27483	-0.0499012	-0.0245608	
1.27398	-2.6521	-0.023165	
1.27435	-1.65032	-0.0236801	
1.2748	-1.45067	-0.0255964	
1.27431	-2.85277	-0.0214573	
1.27473	-0.149824	-0.0240139	
1.27457	-1.55022	-0.0243599	
1.27464	-0.249532	-0.0252626	
1.27522	-0.349846	-0.0238538	
1.27525	-0.449682	-0.0247722	
1.27446	-1.95048	-0.0236808	
1.27524	-0.850078	-0.0226571	
1.27493	-0.650379	-0.0244504	
1.27501	-1.35098	-0.0227689	
1.27496	-1.15025	-0.0240702	
1.27469	-0.950061	-0.0238863	
1.27402	-2.45166	-0.0248997	
1.27476	-2.05092	-0.0243807	
1.27409	-2.25104	-0.0251002	
1.27498	-1.2505	-0.0246517	
1.27419	-2.35087	-0.0257681	
1.27519	-0.750625	-0.0242308	
1.2738	-2.55195	-0.0250264	
1.27483	-0.550328	-0.0257248	
1.27465	-2.15103	-0.0240724	
1.27444	-1.05003	-0.0247273	
1.27557	-2.95099	-0.0166707	
1.27447	-1.75067	-0.0261726	
1.27391	-2.75239	-0.0226075	
1.27458	-1.85075	-0.0248566	
				</DataArray>
			</Points>
			<Cells>
				<DataArray type="Int32" Name="connectivity" Format="ascii">
0	
1	
2	
3	
4	
5	
6	
7	
8	
9	
10	
11	
12	
13	
14	
15	
16	
17	
18	
19	
20	
21	
22	
23	
24	
25	
26	
27	
28	
29	
30	
31	
32	
33	
34	
35	
36	
37	
38	
39	
40	
41	
42	
43	
44	
45	
46	
47	
48	
49	
50	
51	
52	
53	
54	
55	
56	
57	
58	
59	
60	
61	
62	
63	
64	
65	
66	
67	
68	
69	
70	
71	
72	
73	
74	
75	
76	
77	
78	
79	
80	
81	
82	
83	
84	
85	
86	
87	
88	
89	
90	
91	
92	
93	
94	
95	
96	
97	
98	
99	
100	
101	
102	
103	
104	
105	
106	
107	
108	
109	
110	
111	
112	
113	
114	
115	
116	
117	
118	
119	
120	
121	
122	
123	
124	
125	
126	
127	
128	
129	
130	
131	
132	
133	
134	
135	
136	
137	
138	
139	
140	
141	
142	
143	
144	
145	
146	
147	
148	
149	
150	