<VTKFile type="UnstructuredGrid" version="0.1" byte_order="LittleEndian">
	<UnstructuredGrid>
		<Piece NumberOfPoints="2040" NumberOfCells="2040">
			<CellData Scalars="scalars">
				<DataArray type="Float64" Name="Strength" NumberOfComponents="3" Format="ascii">
0.0160828	-0.0119939	0.00340152	
-0.00161785	-0.0232263	0.00574277	
0.000125757	-0.0251261	0.00255289	
-0.000372862	-0.0263639	0.00262485	
-0.000926698	-0.0260631	0.000460724	
-2.97713e-05	-0.0257168	0.00240442	
0.00043054	-0.0264727	-0.00076469	
-0.00106123	-0.0257071	0.00165646	
-0.000985436	-0.0247473	0.00462276	
0.000101621	-0.0254674	0.000756004	
0.000699752	-0.0264228	-0.000236068	
0.000580241	-0.0254394	0.00121023	
4.70761e-05	-0.0267728	0.00139104	
0.000273553	-0.0262718	0.00144643	
0.00016807	-0.0260911	0.00106082	
-0.00344609	-0.0208343	0.00831685	
-0.000837177	-0.0250681	0.00481163	
-0.00143855	-0.0236903	0.00583564	
-0.00134875	-0.0247248	0.00578941	
0.000207238	-0.0259206	0.000461803	
-0.00364722	-0.0191039	0.0100663	
-0.000207665	-0.0252167	0.000316865	
-0.000687043	-0.0259873	0.000136783	
-5.78144e-05	-0.0120145	0.0105059	
0.000224571	-0.02612	0.001782	
-0.00287251	-0.0141572	0.0110953	
0.000136657	-0.0248339	0.00293849	
0.000121009	-0.0267238	0.000241756	
-0.000139667	-0.0254799	0.00321926	
-0.0056034	-0.0154412	0.0116142	
-0.000247631	-0.0260316	0.000230307	
0.00171693	-0.0169024	-0.0108236	
0.000236531	-0.0253391	-0.00301525	
0.000306196	-0.0263345	-0.00271159	
-0.00383824	-0.0133261	-0.00990915	
5.91896e-05	-0.0262293	-0.000356607	
9.65603e-05	-0.0258037	-0.00250395	
-0.000676945	-0.0267076	0.00030434	
0.000274754	-0.0261598	-0.000519615	
0.000591814	-0.0265881	-0.000699913	
0.00066525	-0.0245954	-0.00393994	
0.000373807	-0.0255565	-0.000633078	
-0.000338157	-0.0265775	0.000421604	
-0.000537248	-0.0255177	-0.00150909	
-0.000502202	-0.026161	-0.00122851	
0.000629995	-0.0260718	-0.00135253	
0.00216208	-0.0211586	-0.00791457	
0.000695074	-0.0245555	-0.00444462	
0.00165088	-0.0230799	-0.00575852	
-0.00022569	-0.0260387	-0.00192186	
0.00314176	-0.0225774	-0.00728889	
0.000321252	-0.0260173	-0.000510764	
0.00440802	-0.0177767	-0.0114962	
0.000304664	-0.0270977	-0.000284712	
0.00151336	-0.0236768	-0.00563719	
0.000124027	-0.0265772	-0.00140841	
-0.0128462	-0.0116585	-0.0039112	
0.000214259	-0.0259395	-0.00283755	
0.0039563	-0.0126882	-0.0125779	
0.000820935	-0.0250829	-0.00388952	
0.0184734	-0.00212136	-0.00310061	
0.0012683	-0.00454046	-0.000703046	
0.000223541	-0.00487453	0.000171697	
-0.000170563	-0.00489791	0.000697519	
-0.000175319	-0.00520765	0.000234038	
2.40973e-05	-0.00488538	0.000398687	
0.000616955	-0.0051361	-0.00110279	
-0.00081411	-0.00512508	0.00146942	
-0.000268479	-0.00456744	0.00106574	
-6.49265e-05	-0.00511168	0.000170602	
0.000389137	-0.00506945	-0.000636521	
0.000443442	-0.00510098	-0.000409615	
-4.86708e-05	-0.00504686	0.000271192	
7.94521e-05	-0.00510459	0.000126734	
1.84906e-05	-0.0050728	0.000141874	
0.00070094	-0.00392879	0.000623066	
5.24267e-05	-0.00452081	0.000623678	
0.000493999	-0.00430671	0.000303594	
-7.57276e-06	-0.00438207	0.00101921	
5.63149e-06	-0.00496307	1.68922e-05	
0.00147823	-0.00387472	0.000360413	
-4.62941e-05	-0.00503774	5.55403e-05	
-6.78422e-05	-0.00523616	1.22546e-05	
0.00281546	-0.00214868	0.000759466	
4.16848e-05	-0.00513377	0.000289324	
0.00240443	-0.00280388	0.000739595	
0.00038966	-0.00478312	-6.00603e-05	
3.59485e-06	-0.00510013	-1.44088e-06	
9.17178e-06	-0.00479567	0.000532019	
-0.000171516	-0.00264208	0.0016933	
-2.02024e-05	-0.00526675	0.000121195	
-0.0037442	-0.00397989	0.000303431	
1.90006e-05	-0.00487914	-0.0005392	
0.000207926	-0.00492346	-0.000746721	
-0.00707721	-0.0028404	0.000531897	
0.000220273	-0.00525578	-0.000357964	
-3.40385e-06	-0.0048993	-0.000420917	
-0.000297504	-0.00520653	0.000534083	
0.0002153	-0.00517079	-0.000352824	
0.000272068	-0.00518735	-0.000475602	
-0.000360714	-0.00464405	-0.000150153	
-2.23084e-05	-0.00512183	1.48794e-05	
-0.000452474	-0.00519445	0.000792603	
-0.000369783	-0.00505762	0.000256018	
-0.000262738	-0.00510238	0.000149367	
0.000251935	-0.0050313	-0.000518627	
-0.00161003	-0.00445956	0.000461678	
-0.000462858	-0.00458207	-0.000121828	
-0.000383696	-0.00434599	-0.000442066	
-4.72188e-05	-0.00512764	-0.000314021	
0.00012841	-0.00385796	-0.0012696	
3.58906e-05	-0.00505199	-8.60527e-05	
3.99244e-05	-0.00302589	-0.00179121	
1.04798e-05	-0.00516282	-3.74241e-05	
1.9677e-05	-0.00424762	-0.00102935	
1.83743e-05	-0.00505507	-0.000209672	
-0.0141339	-0.00237603	0.00302894	
-0.000359716	-0.00491625	8.52543e-05	
5.29559e-05	-0.00207479	-0.00161613	
3.83322e-05	-0.00469736	-0.000693073	
0.0194722	0.00280802	-0.00234497	
0.00193646	-0.00162881	-0.0019016	
0.000281691	-0.00212544	-0.000186667	
-9.78054e-05	-0.00215762	0.000395241	
-4.46278e-05	-0.0023518	0.000154136	
5.59459e-05	-0.00213387	0.000136988	
0.0007244	-0.00233203	-0.00114928	
-0.000859104	-0.00230456	0.00145073	
-8.82226e-05	-0.00194666	0.000521778	
-5.28617e-05	-0.00230337	0.000152238	
0.000368219	-0.00231727	-0.000651061	
0.000500042	-0.00225355	-0.000658189	
-5.93263e-06	-0.00226445	0.00015686	
0.000105587	-0.00227973	-3.17269e-05	
3.42613e-05	-0.00229249	7.81462e-05	
0.00140554	-0.00145825	-0.000704919	
0.000284987	-0.00192986	5.36472e-05	
0.000962851	-0.00174971	-0.000597455	
0.000284941	-0.00184015	0.000347342	
4.48779e-06	-0.00226462	2.22797e-05	
0.00228634	-0.00122994	-0.00115273	
-1.0336e-05	-0.00230244	2.21088e-05	
7.5661e-05	-0.00236382	-4.10039e-05	
0.00320062	-0.000412893	3.82705e-05	
6.43386e-05	-0.0022758	0.000106216	
0.00303989	-0.000795261	-0.000183626	
0.000476651	-0.00208969	-0.00051303	
-2.76593e-05	-0.00231328	1.17071e-05	
4.26464e-05	-0.00208292	0.000182738	
0.000312823	-0.00112333	0.00051609	
5.34328e-05	-0.00237236	5.8188e-05	
-0.00476259	-0.000581143	0.00162125	
-8.41546e-05	-0.0021233	-0.000177697	
0.000155024	-0.00215925	-0.000452232	
-0.00781952	0.000426205	0.000821148	
0.000280237	-0.00237001	-0.000404702	
-4.84911e-05	-0.00214256	-0.00014968	
-0.000242076	-0.00236282	0.000516208	
0.000215759	-0.00235677	-0.000375717	
0.000244888	-0.00235409	-0.000470998	
-0.000652564	-0.0020243	0.000496014	
-0.000111556	-0.00232112	7.23507e-05	
-0.000518412	-0.00235259	0.000852613	
-0.000402609	-0.00224893	0.000520921	
-0.000285824	-0.00228797	0.000327738	
0.000151931	-0.00228544	-0.000427345	
-0.00236173	-0.00152461	0.00202756	
-0.000745219	-0.00197421	0.000542888	
-0.000833726	-0.00180409	0.000502043	
-4.80669e-05	-0.00227579	-0.00010907	
-0.00035822	-0.00160285	-0.000342085	
-5.50443e-05	-0.00229571	-5.01919e-05	
-0.000476064	-0.00123256	-0.000513741	
-2.55232e-05	-0.00234137	-2.56329e-05	
-0.000229079	-0.00179848	-0.000352414	
-4.20323e-05	-0.00227206	-0.000106892	
-0.015096	0.00183543	0.0019394	
-0.000533489	-0.00215248	0.000503163	
-0.00021374	-0.000904862	-0.000530947	
-0.000130327	-0.00203863	-0.00024893	
0.0201613	0.00556737	-0.000194255	
0.00245229	-0.00106747	-0.0022567	
0.000497261	-0.00236769	-0.000297046	
6.39707e-05	-0.00244416	0.000302951	
1.37706e-05	-0.00261302	7.3877e-05	
0.000196405	-0.00240555	0.000105997	
0.000872362	-0.00257219	-0.00113486	
-0.000987805	-0.00256518	0.0013942	
0.000114179	-0.00221574	0.000338302	
-4.60342e-05	-0.00259377	0.000146948	
0.000445832	-0.00259868	-0.000613427	
0.000697524	-0.00248657	-0.000680625	
5.97161e-05	-0.00255764	0.000104515	
0.000193221	-0.00255248	-4.89133e-05	
7.68415e-05	-0.00257938	7.04952e-05	
0.00174933	-0.00120048	-0.00114397	
0.000510824	-0.00212034	-0.000133359	
0.00133803	-0.00168606	-0.000903346	
0.000516934	-0.00204272	0.000147437	
1.06166e-05	-0.0025537	1.98232e-05	
0.0026131	-0.000889789	-0.00143677	
1.29285e-05	-0.00257613	1.64326e-05	
0.000141891	-0.00260841	-8.10134e-05	
0.00346619	-0.000183725	0.00013182	
0.00015378	-0.00253713	9.60233e-05	
0.00335933	-0.000676849	-0.000216844	
0.000608588	-0.00230351	-0.000612565	
-2.45459e-05	-0.00258107	2.59367e-05	
0.000155924	-0.00233768	0.000102808	
0.000468421	-0.00125023	0.000516685	
9.91743e-05	-0.00261361	3.99777e-05	
-0.00523578	-0.000111113	0.00180062	
-0.000261392	-0.00237888	-3.55191e-05	
-2.53445e-06	-0.00244177	-0.000366369	
-0.00833537	0.00135939	0.00060825	
0.000360681	-0.00261276	-0.000396509	
-0.000203514	-0.00240656	-0.000118309	
-0.000277029	-0.00262273	0.000471189	
0.000250141	-0.00261208	-0.000354379	
0.000269598	-0.00261128	-0.000431737	
-0.000918431	-0.00216357	0.000769316	
-0.000192351	-0.00259846	0.000103692	
-0.000664612	-0.00259201	0.000840621	
-0.000590004	-0.00249422	0.000544247	
-0.000421245	-0.00255	0.000335453	
9.12273e-05	-0.0025806	-0.000360317	
-0.00286633	-0.000951857	0.00237365	
-0.00102421	-0.00204368	0.000802296	
-0.00121823	-0.00178654	0.000879558	
-0.000150838	-0.00253658	-0.000106455	
-0.00059461	-0.00180208	-5.69386e-05	
-0.000110359	-0.00256965	-1.40583e-05	
-0.000688659	-0.00139315	-0.000399793	
-5.77397e-05	-0.00259844	-2.93316e-06	
-0.000434368	-0.00202363	-0.000151121	
-0.000113373	-0.00255841	-8.40945e-05	
-0.0155327	0.00421359	0.000552957	
-0.000716884	-0.00232745	0.000642292	
-0.000335329	-0.00101094	-0.000591925	
-0.000273921	-0.00226444	-0.000163794	
0.0209708	0.00609853	0.000543925	
0.00274966	-0.000891025	-0.00210248	
0.00056239	-0.00206114	-0.000447345	
6.63513e-05	-0.0021643	0.00014913	
4.27024e-06	-0.00234265	2.22587e-05	
0.000177896	-0.00212265	2.02153e-05	
0.000886724	-0.00229323	-0.0011675	
-0.00101297	-0.0023048	0.00137859	
0.000185315	-0.0019487	5.0857e-05	
-3.85553e-05	-0.00230275	0.000108747	
0.000502603	-0.00231578	-0.00063402	
0.000745095	-0.00216846	-0.000773314	
8.6011e-05	-0.00226461	1.74886e-05	
0.000213709	-0.0022536	-0.000125846	
7.03551e-05	-0.00228445	2.24831e-05	
0.00178193	-0.00106945	-0.00111011	
0.000530184	-0.00182995	-0.000243618	
0.0013764	-0.00142389	-0.000899622	
0.000384113	-0.00179033	5.35301e-05	
2.78305e-05	-0.00227571	-6.77273e-06	
0.00270789	-0.000821298	-0.00142753	
1.57399e-05	-0.00230814	2.48831e-06	
0.000123582	-0.00233785	-0.000100316	
0.0036268	2.39107e-05	0.000169187	
0.000142277	-0.00224379	1.46082e-05	
0.00355139	-0.000487583	-0.00027158	
0.000826662	-0.00192141	-0.000790576	
-1.84306e-06	-0.00231217	1.75589e-05	
0.000192621	-0.00205102	2.83434e-06	
0.000374029	-0.00103055	0.000531494	
6.15374e-05	-0.00234505	3.49636e-05	
-0.00560416	-0.000144025	0.00177595	
-0.000334918	-0.0020805	0.000114594	
-1.37606e-05	-0.00216322	-0.000210602	
-0.00877679	0.00178031	0.000384278	
0.00035124	-0.00234244	-0.000390839	
-0.000181372	-0.00212119	-2.81963e-05	
-0.000311922	-0.00235022	0.000465946	
0.000252909	-0.00233821	-0.000334984	
0.000288887	-0.00233809	-0.000403832	
-0.00114185	-0.00173988	0.00101385	
-0.000196841	-0.0023022	0.000156578	
-0.000692056	-0.0023083	0.000864149	
-0.000643486	-0.0021748	0.00064306	
-0.000456358	-0.00224038	0.000426449	
0.000104381	-0.00229031	-0.000279481	
-0.00321939	-0.000860595	0.00222302	
-0.00110509	-0.00170284	0.000932948	
-0.00132328	-0.0014941	0.000988148	
-0.000138331	-0.00224323	-2.24783e-05	
-0.000394286	-0.00159276	-5.51876e-05	
-9.30153e-05	-0.00229045	1.78201e-05	
-0.000505745	-0.00120467	-0.000435103	
-4.86267e-05	-0.00232639	8.97023e-06	
-0.000340036	-0.00177167	-4.53174e-05	
-0.000109888	-0.00226704	-1.90772e-05	
-0.0160239	0.00487676	-0.000312249	
-0.000873266	-0.00196181	0.000761462	
-0.000277638	-0.000820146	-0.00056999	
-0.000308634	-0.00197685	2.28838e-05	
0.0217169	0.00609651	0.00192798	
0.00331729	-0.000851742	-0.00129125	
0.000662792	-0.00176515	-0.000391722	
8.36541e-05	-0.00187215	7.63755e-05	
-1.18741e-05	-0.00207897	2.27089e-05	
0.000124952	-0.00182691	4.9712e-05	
0.00106238	-0.00204768	-0.00100784	
-0.00124754	-0.00205253	0.00117648	
0.000243181	-0.00164312	1.61198e-06	
-6.26001e-05	-0.00205057	9.02109e-05	
0.000634961	-0.00205364	-0.000548847	
0.000910703	-0.00189348	-0.000687298	
8.58402e-05	-0.00202515	4.46422e-06	
0.000234145	-0.00201599	-0.000117403	
5.46307e-05	-0.0020372	1.94405e-05	
0.0020409	-0.000945069	-0.000587079	
0.000575321	-0.00153678	-0.000146106	
0.00155614	-0.00122799	-0.000448318	
0.000255055	-0.00150577	0.000184022	
2.95088e-05	-0.00202596	-5.39234e-06	
0.00304282	-0.000694451	-0.000834518	
7.22568e-06	-0.00205935	1.28663e-06	
0.000108953	-0.00207342	-7.24271e-05	
0.00374831	0.000171764	0.000385227	
0.000114439	-0.00200032	2.2482e-05	
0.00372355	-0.000378318	1.65773e-05	
0.000977978	-0.00163515	-0.000632808	
4.90022e-07	-0.00205355	7.54808e-06	
0.000133963	-0.00174718	3.57133e-05	
0.000232665	-0.000802585	0.000580336	
2.18603e-05	-0.00207934	4.6725e-05	
-0.00608499	-4.39288e-05	0.0010787	
-0.000356499	-0.00177611	9.3142e-05	
-2.33826e-05	-0.00186887	-0.000123898	
-0.00919468	0.00188812	-8.57094e-05	
0.000401024	-0.00208199	-0.000313424	
-0.00012401	-0.00182172	-7.01066e-05	
-0.000408452	-0.00208725	0.000401986	
0.000300006	-0.00208114	-0.000268337	
0.000361871	-0.00207423	-0.00033435	
-0.00133899	-0.00149707	0.000823494	
-0.000209991	-0.00204394	0.000127544	
-0.000841265	-0.00204916	0.000722435	
-0.000797342	-0.00188893	0.000587049	
-0.000540724	-0.00199522	0.000375947	
0.00017158	-0.00203407	-0.00023809	
-0.0038392	-0.000812547	0.00138738	
-0.00128563	-0.00141487	0.00074193	
-0.00161608	-0.00126761	0.000592225	
-0.000126572	-0.0019918	-1.46773e-05	
-0.000263072	-0.00132641	-0.000236667	
-6.39267e-05	-0.00203313	-3.72229e-06	
-0.000314338	-0.000951563	-0.000559875	
-3.11823e-05	-0.00206046	-7.25551e-07	
-0.000241502	-0.00149216	-0.000130141	
-7.90049e-05	-0.00202115	-2.27332e-05	
-0.0165848	0.00481544	-0.00112311	
-0.00097106	-0.0016802	0.000608778	
-0.000160844	-0.000658304	-0.00054299	
-0.000202707	-0.00168188	-6.76782e-05	
0.0223931	0.00583347	0.00308439	
0.00350269	-0.00069704	-0.00126188	
0.0008001	-0.00155166	-0.000315001	
0.000144159	-0.00165611	4.5277e-05	
-2.80129e-05	-0.00188205	3.04621e-05	
0.000106014	-0.0016166	7.72953e-05	
0.00125628	-0.00187113	-0.000762379	
-0.00144901	-0.00187252	0.000910425	
0.000329192	-0.00144255	1.03275e-05	
-6.98053e-05	-0.00183916	6.74684e-05	
0.00074999	-0.00185511	-0.000440174	
0.00107107	-0.00168336	-0.000535071	
0.000101322	-0.00181692	7.92059e-06	
0.000267585	-0.00180174	-7.9513e-05	
4.66443e-05	-0.00182512	3.20402e-05	
0.00213741	-0.00079715	-0.000573582	
0.000618407	-0.00134472	-9.57056e-05	
0.00161897	-0.00105791	-0.000449398	
0.000221131	-0.00131885	0.000200971	
2.21231e-05	-0.00182855	3.64689e-07	
0.00317009	-0.000550958	-0.000829862	
5.23953e-06	-0.00187397	1.19462e-05	
0.000112041	-0.00187433	-4.03749e-05	
0.0038698	0.000171651	0.000524271	
9.08117e-05	-0.00178153	5.51112e-05	
0.00388145	-0.000278345	7.32138e-05	
0.00110604	-0.0014426	-0.000495317	
6.12049e-06	-0.00186034	6.77376e-06	
0.000113816	-0.00154234	7.57425e-05	
0.000201642	-0.000695587	0.000529881	
-3.37783e-07	-0.00187801	6.37536e-05	
-0.00636721	0.000135529	0.00108081	
-0.000435302	-0.00156954	7.07371e-05	
-7.97435e-05	-0.00165824	-8.25881e-05	
-0.00959169	0.00175417	-0.000586408	
0.000458534	-0.0018851	-0.000229923	
-0.000113545	-0.00161605	-8.82766e-05	
-0.000488879	-0.0018944	0.000322468	
0.00033755	-0.00188953	-0.000207388	
0.000399158	-0.00188545	-0.000262353	
-0.00155445	-0.00132546	0.000650784	
-0.000248136	-0.00183625	9.3893e-05	
-0.000970937	-0.001857	0.000558554	
-0.000946661	-0.00168016	0.00045739	
-0.000629908	-0.00178788	0.000291835	
0.000213557	-0.0018246	-0.000208402	
-0.00404151	-0.00065986	0.00142365	
-0.00142838	-0.00125579	0.000526912	
-0.00174438	-0.00109019	0.000616127	
-0.000100614	-0.00177976	-5.36755e-05	
-0.00022743	-0.00115835	-0.000244273	
-4.41053e-05	-0.00183567	-2.97072e-05	
-0.000279417	-0.000823097	-0.000521872	
-2.45827e-05	-0.00186495	-1.64601e-05	
-0.000205775	-0.00130955	-0.000174399	
-6.13178e-05	-0.00181837	-4.79623e-05	
-0.0170621	0.00459581	-0.00210173	
-0.00108658	-0.00149176	0.000440016	
-0.000113244	-0.000563887	-0.000508322	
-0.000165073	-0.00149183	-0.00011826	
0.0231315	0.00565138	0.00336701	
0.00390217	-0.000820558	-0.00134574	
0.000876354	-0.00169639	-0.000321557	
0.000250061	-0.00180263	9.19473e-06	
-1.14872e-05	-0.00194556	2.34525e-05	
0.000122887	-0.00175472	9.69986e-05	
0.00125846	-0.00193062	-0.00075447	
-0.00149184	-0.00196521	0.000940113	
0.000403537	-0.00165761	2.75024e-05	
-7.10147e-05	-0.00195742	7.43551e-05	
0.00079225	-0.00196384	-0.00045996	
0.00112381	-0.001818	-0.000540696	
0.000164118	-0.00192763	-1.7844e-05	
0.000284971	-0.00189262	-7.68973e-05	
5.31518e-05	-0.00194722	4.03257e-05	
0.00234366	-0.000872705	-0.000575116	
0.000687626	-0.00159642	-5.52015e-05	
0.00175756	-0.00132135	-0.000407802	
0.000278798	-0.00158469	0.00026875	
2.68364e-05	-0.00192987	3.53927e-06	
0.00335933	-0.000550413	-0.000842879	
6.13548e-06	-0.00194185	1.37456e-05	
0.000107742	-0.00194347	-3.50371e-05	
0.00402702	0.0001652	0.000571688	
0.000102691	-0.00189049	6.8633e-05	
0.0040688	-0.000225969	0.000106825	
0.00116306	-0.00162822	-0.000482343	
8.85662e-06	-0.00197872	9.81241e-06	
0.000136819	-0.00170682	0.000102961	
0.000217877	-0.000716164	0.000561738	
-1.04458e-05	-0.00193946	7.60305e-05	
-0.00670274	0.000246892	0.0011261	
-0.000503259	-0.00172958	6.53924e-05	
-0.000183691	-0.0018236	-5.17722e-05	
-0.00997932	0.00175526	-0.000747759	
0.000460717	-0.0019393	-0.000227397	
-0.000133786	-0.00176883	-0.000113744	
-0.000484957	-0.00194057	0.000320079	
0.000367526	-0.00194196	-0.000228647	
0.00040646	-0.00197592	-0.000271195	
-0.00165301	-0.00156914	0.000637317	
-0.000259731	-0.00196678	8.95291e-05	
-0.00100303	-0.0019771	0.000568194	
-0.000996822	-0.00182875	0.000456392	
-0.00068908	-0.00188807	0.000310443	
0.000190767	-0.00195555	-0.000206893	
-0.00437257	-0.000720323	0.00148394	
-0.00154777	-0.00152214	0.000500388	
-0.00206223	-0.00124313	0.000701888	
-0.000115032	-0.00189567	-6.97997e-05	
-0.000265431	-0.00129229	-0.000302363	
-4.82702e-05	-0.00194499	-3.64312e-05	
-0.000305411	-0.000854042	-0.000561053	
-2.72247e-05	-0.00198167	-2.15736e-05	
-0.000262572	-0.00158364	-0.000237366	
-6.95713e-05	-0.00194106	-6.05229e-05	
-0.0175888	0.00437958	-0.0023655	
-0.00113982	-0.00167535	0.000420919	
-0.000115069	-0.000571204	-0.000520039	
-0.000199014	-0.00169354	-0.000161995	
0.0236981	0.00581575	0.00382195	
0.00413514	-0.000639821	-0.00145505	
0.00104204	-0.0017988	-0.000376139	
0.000326902	-0.0019328	-5.69611e-06	
4.3151e-05	-0.00219945	-2.75891e-06	
0.000144251	-0.0019003	0.00012262	
0.00126249	-0.00219339	-0.000740137	
-0.00141531	-0.0021856	0.000883379	
0.000613054	-0.00162991	-7.01096e-05	
-3.10674e-05	-0.00211349	5.5138e-05	
0.00079706	-0.00211376	-0.000454867	
0.00115913	-0.0019321	-0.000533991	
0.000216707	-0.0020603	-3.73237e-05	
0.000352106	-0.00204108	-0.000101181	
6.10206e-05	-0.00208446	4.55754e-05	
0.00249122	-0.000740692	-0.00064348	
0.000746022	-0.00146638	-9.08881e-05	
0.00182341	-0.00112443	-0.000472976	
0.000263336	-0.00142362	0.000256786	
3.21608e-05	-0.00210488	5.81449e-06	
0.00350068	-0.000408028	-0.000925007	
8.68732e-06	-0.0021994	1.97605e-05	
0.000119509	-0.00223588	-3.3239e-05	
0.00415825	0.000301726	0.000575612	
0.000113594	-0.00199316	7.86524e-05	
0.00424295	-6.4573e-05	8.85004e-05	
0.00123193	-0.0016566	-0.000483401	
1.04883e-05	-0.00212131	1.28106e-05	
0.000153405	-0.00176236	0.000125455	
0.000209626	-0.00065939	0.00052338	
-4.87926e-05	-0.00224108	0.000116208	
-0.00700984	0.000445602	0.00118843	
-0.000675159	-0.00181781	0.000127327	
-0.000307647	-0.00196557	-1.11769e-05	
-0.0103047	0.00194841	-0.000874506	
0.000459592	-0.00220699	-0.000215685	
-0.000157556	-0.00192112	-0.000142377	
-0.000456657	-0.0022029	0.000303625	
0.000355607	-0.0022231	-0.000219739	
0.000347368	-0.00221583	-0.000236215	
-0.00188979	-0.00150697	0.00073802	
-0.000307754	-0.00213751	0.000104764	
-0.00101213	-0.00214539	0.000560384	
-0.00101113	-0.00200056	0.000426343	
-0.000765632	-0.00205962	0.000336397	
0.000155592	-0.00211554	-0.00019963	
-0.00464484	-0.000542994	0.00162477	
-0.00164324	-0.00137051	0.000551453	
-0.00223831	-0.00110851	0.000792883	
-0.000129852	-0.00203331	-8.34239e-05	
-0.000263549	-0.00120793	-0.000295218	
-5.69788e-05	-0.00213732	-4.48874e-05	
-0.000294257	-0.000792522	-0.000529062	
-3.25308e-05	-0.00215581	-2.64683e-05	
-0.000246257	-0.0014063	-0.000225539	
-8.10614e-05	-0.00209461	-7.22629e-05	
-0.017961	0.004471	-0.00283752	
-0.00119924	-0.00171807	0.000418947	
-0.000109374	-0.00052308	-0.000476517	
-0.000217221	-0.00172082	-0.000188119	
0.0241255	0.00624692	0.00403545	
0.00426031	-0.000275867	-0.00159572	
0.00105202	-0.00138589	-0.000414662	
0.000359706	-0.00142399	-6.59009e-05	
5.31531e-05	-0.00160072	-1.22038e-05	
0.000116154	-0.00142885	0.000100546	
0.00129967	-0.00155113	-0.00077211	
-0.00144811	-0.00151681	0.000903422	
0.000662388	-0.0012024	-0.000157688	
-1.70598e-05	-0.00148683	3.96806e-05	
0.000848264	-0.00155012	-0.000495503	
0.00112963	-0.00146077	-0.00054621	
0.000213025	-0.00145347	-6.02255e-05	
0.000294498	-0.00145145	-9.38643e-05	
4.54455e-05	-0.00146531	3.62233e-05	
0.00255809	-0.000464438	-0.000767972	
0.000750474	-0.0011463	-0.000151783	
0.00187478	-0.000792931	-0.000587619	
0.000220009	-0.00113375	0.000206027	
2.4377e-05	-0.00148027	4.36654e-06	
0.00356046	-0.000163061	-0.00105226	
7.23776e-06	-0.00152049	1.40764e-05	
0.000129379	-0.00156322	-4.95636e-05	
0.00425804	0.000481986	0.000546259	
8.89368e-05	-0.00149641	6.29492e-05	
0.00436197	0.000158138	2.39826e-05	
0.00132886	-0.0012131	-0.000576362	
7.68492e-06	-0.00154845	9.69019e-06	
0.000132602	-0.00140378	0.000107526	
0.000173342	-0.000526739	0.000421206	
-1.51175e-05	-0.00157962	6.89226e-05	
-0.00723915	0.000718075	0.00127635	
-0.000735905	-0.00150881	0.000188496	
-0.000360508	-0.00159177	4.58893e-05	
-0.0105548	0.00228076	-0.000993406	
0.00045619	-0.00163119	-0.000232064	
-0.000135804	-0.00154817	-0.000121572	
-0.00048712	-0.00163649	0.00031801	
0.00035051	-0.00160419	-0.000218759	
0.000390418	-0.00160564	-0.000259965	
-0.00193609	-0.00115156	0.000814306	
-0.000308782	-0.00162049	0.000120613	
-0.00102729	-0.0016618	0.000582551	
-0.00102037	-0.00159254	0.000456847	
-0.000700952	-0.0016084	0.000318528	
0.000169087	-0.00161525	-0.000188463	
-0.0048743	-0.00028523	0.00181065	
-0.00164748	-0.00113731	0.000596225	
-0.00242284	-0.00101439	0.000894634	
-0.000110171	-0.00167014	-7.23217e-05	
-0.00024389	-0.00105875	-0.000262161	
-4.69272e-05	-0.00161061	-3.45429e-05	
-0.000260469	-0.00067804	-0.000452385	
-2.62945e-05	-0.00164548	-2.03398e-05	
-0.000230706	-0.00125972	-0.000203424	
-6.70063e-05	-0.0016198	-5.82291e-05	
-0.0182734	0.0047139	-0.00310234	
-0.00128695	-0.00140871	0.000502354	
-0.000101842	-0.00045631	-0.000417793	
-0.000183859	-0.00135915	-0.000153194	
0.0246217	0.00658069	0.00434269	
0.00439642	-0.000367123	-0.00158087	
0.00124966	-0.00134368	-0.000515349	
0.000408245	-0.00153731	-6.92804e-05	
6.54691e-05	-0.00135462	-2.04148e-05	
0.000130685	-0.00150502	0.000117101	
0.00128977	-0.00134603	-0.000755897	
-0.00151777	-0.00140188	0.000930214	
0.000784699	-0.00120556	-0.00021297	
-3.89997e-05	-0.00151138	5.97494e-05	
0.000796383	-0.00148048	-0.000455009	
0.00114602	-0.0015049	-0.000539202	
0.000188237	-0.00152779	-3.454e-05	
0.000305693	-0.00154905	-8.77004e-05	
5.05099e-05	-0.00151693	4.1488e-05	
0.00271765	-0.000523655	-0.00076025	
0.000794738	-0.00112341	-0.000172849	
0.00194999	-0.000793809	-0.000607772	
0.000224397	-0.00111805	0.000204727	
2.71664e-05	-0.00148319	8.02858e-06	
0.0037358	-0.000187983	-0.00103148	
7.52901e-06	-0.00138097	1.25933e-05	
0.00013545	-0.00135838	-5.86567e-05	
0.00438668	0.000548765	0.000633775	
9.60034e-05	-0.00155393	6.96132e-05	
0.00453387	0.000221533	8.07241e-05	
0.00137723	-0.00121129	-0.000588015	
6.17659e-06	-0.00143568	9.72612e-06	
0.000133634	-0.00132504	0.000108072	
0.000210657	-0.000613541	0.000486786	
-2.29136e-05	-0.00136537	5.7235e-05	
-0.00746611	0.000943862	0.00131774	
-0.000842517	-0.00115711	0.00029128	
-0.000409182	-0.00124917	0.000100056	
-0.0108062	0.00257774	-0.00109599	
0.000462132	-0.00136569	-0.000244586	
-0.000118169	-0.00125745	-0.000106249	
-0.000481071	-0.00137537	0.000305127	
0.000380272	-0.00138391	-0.000236084	
0.000426589	-0.00141613	-0.000279664	
-0.00202416	-0.00086798	0.00089539	
-0.000362709	-0.00151856	0.000150691	
-0.000939269	-0.00149107	0.000525023	
-0.00105666	-0.00129082	0.000496657	
-0.000770556	-0.00141994	0.000367081	
0.000137428	-0.00149257	-0.000166258	
-0.00499046	-0.000122353	0.00189517	
-0.00166958	-0.000831962	0.000667515	
-0.00239188	-0.000615753	0.000981822	
-9.31767e-05	-0.00139004	-6.10849e-05	
-0.00021221	-0.000886487	-0.000218742	
-4.86676e-05	-0.00152917	-3.35275e-05	
-0.000257782	-0.000645513	-0.000427331	
-2.43133e-05	-0.00144861	-1.88631e-05	
-0.000176591	-0.000938886	-0.000152596	
-6.38438e-05	-0.00146297	-5.51772e-05	
-0.0185474	0.00498758	-0.0033349	
-0.00129271	-0.00105711	0.000548536	
-0.000104466	-0.000441383	-0.000399384	
-0.000156684	-0.00109609	-0.000126015	
0.0250178	0.00700248	0.0045151	
0.00454002	-0.000121869	-0.0016845	
0.00134812	-0.00130303	-0.000555662	
0.000464522	-0.00138665	-0.000105745	
0.000164553	-0.00185727	-6.97384e-05	
0.000124808	-0.00137626	0.000113038	
0.00131959	-0.00178714	-0.000742048	
-0.00148705	-0.00173526	0.000891971	
0.000925365	-0.00109038	-0.000299983	
0.000118457	-0.00161711	-2.51068e-05	
0.000835464	-0.00172839	-0.000460992	
0.00116138	-0.001406	-0.000533968	
0.000238241	-0.00152826	-5.36571e-05	
0.000367311	-0.00151612	-0.000118014	
5.52406e-05	-0.00156334	4.62968e-05	
0.00279062	-0.000323455	-0.000857223	
0.000796526	-0.00102173	-0.000187059	
0.00199644	-0.000708973	-0.000639657	
0.000214839	-0.00104655	0.000194549	
3.21122e-05	-0.00169971	1.78491e-05	
0.00378165	2.83691e-06	-0.00113019	
1.09836e-05	-0.00178305	1.76268e-05	
0.00014224	-0.00187224	-5.37486e-05	
0.00446931	0.000731745	0.000604186	
9.25727e-05	-0.00146507	7.51892e-05	
0.00464059	0.00044345	1.88163e-05	
0.00144977	-0.00113565	-0.000616477	
7.94171e-06	-0.00174426	1.3612e-05	
0.000135968	-0.00128954	0.000109802	
0.000178417	-0.000506147	0.000390942	
-5.82818e-05	-0.00186907	9.60826e-05	
-0.00768058	0.00117445	0.00135598	
-0.000999127	-0.00140602	0.000325831	
-0.000395413	-0.00147062	5.67261e-05	
-0.0110292	0.00283789	-0.00119462	
0.000402066	-0.00183172	-0.000192117	
-0.000144393	-0.00147681	-0.000130899	
-0.000498336	-0.00176838	0.000305545	
0.000300888	-0.00174587	-0.000185041	
0.000412503	-0.00166911	-0.000270118	
-0.00220789	-0.00101366	0.000933245	
-0.000505105	-0.0014636	0.000227705	
-0.00103696	-0.00160866	0.000564676	
-0.00104594	-0.00140804	0.000461332	
-0.000781625	-0.00142453	0.000360595	
0.00013075	-0.00143574	-0.000161857	
-0.00533573	-4.48062e-05	0.00201619	
-0.00173175	-0.000982947	0.000641765	
-0.00249168	-0.00079209	0.000962325	
-9.66751e-05	-0.00142912	-7.04403e-05	
-0.000259621	-0.00105937	-0.000262581	
-5.44197e-05	-0.00155536	-3.77396e-05	
-0.000258149	-0.00063214	-0.000411293	
-2.94311e-05	-0.00165364	-2.42945e-05	
-0.000216531	-0.00113323	-0.000185769	
-6.50529e-05	-0.00143266	-5.61867e-05	
-0.0188456	0.00524028	-0.00352267	
-0.00139838	-0.00127418	0.000550351	
-0.000108442	-0.000429554	-0.000382542	
-0.000190461	-0.00128704	-0.00015023	
0.0252993	0.00746444	0.00457913	
0.00444749	0.00026313	-0.00173467	
0.0013282	-0.000773347	-0.000596593	
0.000602511	-0.000884907	-0.000228066	
7.29455e-05	-0.00118812	-2.44106e-05	
7.92522e-05	-0.000861243	7.34941e-05	
0.0013612	-0.00123451	-0.00075549	
-0.00151364	-0.00127489	0.000881362	
0.000911221	-0.000729367	-0.000343035	
0.000115181	-0.00116309	-3.04257e-05	
0.000909148	-0.00118164	-0.000501882	
0.00124793	-0.000985607	-0.000596733	
0.000265601	-0.00114022	-8.7444e-05	
0.00033822	-0.00111111	-0.000121735	
4.24945e-05	-0.00115323	3.63463e-05	
0.00283638	-9.35391e-05	-0.000958141	
0.000835921	-0.000700029	-0.00027094	
0.00199633	-0.000297551	-0.000745795	
0.000136982	-0.000668675	0.000125035	
2.35734e-05	-0.00115136	1.46881e-05	
0.00380356	0.000205792	-0.00124554	
8.32524e-06	-0.00121737	1.30981e-05	
0.000137892	-0.00116239	-5.97823e-05	
0.00451536	0.000943703	0.000569263	
7.23479e-05	-0.00113322	6.15063e-05	
0.00470345	0.000665056	-6.33105e-05	
0.00149253	-0.000685218	-0.000676605	
6.54906e-06	-0.00122535	1.37605e-05	
9.13284e-05	-0.000851914	7.44398e-05	
0.000135661	-0.000373025	0.000281055	
-4.66545e-05	-0.00116994	6.69268e-05	
-0.00776087	0.00151396	0.00148728	
-0.000950641	-0.000807881	0.000383108	
-0.00051197	-0.000899432	0.000180259	
-0.0111553	0.00319678	-0.00119792	
0.000475503	-0.0011992	-0.000244593	
-8.68162e-05	-0.000873742	-7.89255e-05	
-0.000537536	-0.00127862	0.00032018	
0.000349907	-0.00124324	-0.000209242	
0.000360357	-0.0012946	-0.000229668	
-0.00221875	-0.000564713	0.000995563	
-0.000523234	-0.00114734	0.000241547	
-0.00112162	-0.0011721	0.000608685	
-0.00112101	-0.00098636	0.000527622	
-0.000770252	-0.00109063	0.000363607	
0.00012432	-0.00114433	-0.000141201	
-0.00530119	0.000312655	0.00215253	
-0.00177538	-0.000565594	0.000736606	
-0.00250777	-0.000282874	0.00109246	
-7.62692e-05	-0.00113158	-5.94903e-05	
-0.000137207	-0.000553379	-0.000137584	
-4.27646e-05	-0.00115055	-3.02016e-05	
-0.000178263	-0.000431124	-0.000272717	
-2.39732e-05	-0.0012354	-1.93239e-05	
-0.000126896	-0.000660919	-0.000109566	
-5.2498e-05	-0.00112824	-4.64719e-05	
-0.0190785	0.0055075	-0.00353766	
-0.0014209	-0.000774542	0.000623442	
-8.35012e-05	-0.000309535	-0.000262918	
-0.000120383	-0.00079955	-9.63629e-05	
0.025757	0.00786161	0.00468753	
0.00463751	2.00836e-05	-0.0016685	
0.00143783	-0.00117926	-0.000572114	
0.000687342	-0.00126527	-0.000219092	
-7.76016e-06	-0.0014876	2.45822e-05	
0.000118126	-0.0012726	0.000110737	
0.00136425	-0.00152567	-0.000719601	
-0.0014315	-0.0015082	0.000808735	
0.00120806	-0.00109325	-0.000417085	
9.10136e-05	-0.00147388	-4.68584e-06	
0.000957997	-0.00144709	-0.000503469	
0.00132323	-0.0012734	-0.000585212	
0.000279697	-0.00148395	-7.21633e-05	
0.000469879	-0.00146113	-0.000164862	
5.51242e-05	-0.00146296	4.64086e-05	
0.00292708	-0.000248257	-0.00088362	
0.000934822	-0.000946961	-0.000254087	
0.00214632	-0.000566692	-0.000701559	
0.000194048	-0.000950107	0.000178423	