<VTKFile type="UnstructuredGrid" version="0.1" byte_order="LittleEndian">
	<UnstructuredGrid>
		<Piece NumberOfPoints="1560" NumberOfCells="1560">
			<CellData Scalars="scalars">
				<DataArray type="Float64" Name="Strength" NumberOfComponents="3" Format="ascii">
0.0168149	-0.0112409	0.00217489	
0.000648497	-0.0234472	0.0049704	
0.000557833	-0.0251868	0.00172813	
-0.000132159	-0.0264283	0.00184038	
-0.000713958	-0.026065	0.000523805	
0.000309745	-0.0257718	0.00162922	
0.000791049	-0.0264662	-0.000529981	
-0.00123063	-0.0257165	0.00129269	
-0.000298225	-0.0249511	0.00346079	
0.000190929	-0.0254696	0.000457345	
0.000806651	-0.0264127	-0.000345025	
0.000945828	-0.0254447	0.000663167	
0.000143036	-0.0267877	0.00093192	
0.000415488	-0.0262874	0.000930257	
0.000253302	-0.0260984	0.000708816	
-0.000840188	-0.0215053	0.00720122	
0.000156311	-0.0252633	0.00372754	
0.000138104	-0.02394	0.00491075	
-0.000157412	-0.0249867	0.00471459	
0.000251062	-0.0259185	0.000212114	
-0.000393103	-0.0201174	0.00864284	
-8.98553e-05	-0.0252136	0.000261438	
-0.000427299	-0.0259881	0.000275886	
0.00193445	-0.0132953	0.008619	
0.000391338	-0.0261482	0.00117842	
0.000277929	-0.0155279	0.00951894	
0.000815335	-0.0249136	0.0019766	
0.000166725	-0.0267201	5.04595e-05	
0.000340019	-0.0255796	0.00224359	
-0.00224355	-0.0172207	0.0101564	
-0.00012558	-0.0260264	0.000408607	
-0.00157228	-0.0179513	-0.00900497	
-0.000181536	-0.0254148	-0.00225636	
6.51421e-05	-0.0264048	-0.00187514	
-0.00581751	-0.0139828	-0.00782131	
0.000238546	-0.0262265	-0.000128372	
-0.000263016	-0.0258606	-0.00174671	
-0.000658227	-0.0267034	0.000345218	
0.000310891	-0.0261575	-0.000374608	
0.000574411	-0.0265871	-0.000557032	
-0.00033432	-0.0247269	-0.0030399	
9.32711e-05	-0.0255566	-0.00054275	
-0.000635884	-0.0265681	0.000283892	
-0.000883024	-0.0255339	-0.000867851	
-0.000785784	-0.0261661	-0.000753755	
0.000409701	-0.0260849	-0.00107939	
-0.000572297	-0.0217069	-0.00658702	
-0.000514294	-0.0247117	-0.00348896	
6.00356e-05	-0.0233763	-0.00469201	
-0.000476352	-0.0260711	-0.00126636	
0.000996324	-0.0231169	-0.00609923	
0.00011189	-0.0260143	-0.000492847	
0.00159205	-0.0192077	-0.00980607	
0.000138977	-0.0270949	-0.000264938	
0.000254338	-0.0239572	-0.0045365	
-0.000115637	-0.0265905	-0.00101506	
-0.0134482	-0.0112931	-0.00277606	
-0.000545353	-0.0260012	-0.00210587	
0.00125541	-0.0147534	-0.0107559	
5.23627e-05	-0.0252147	-0.00301109	
0.0185483	-0.000181266	-0.00330761	
0.0019563	-0.00427851	-0.00075713	
0.000339246	-0.00486984	6.76375e-05	
-0.000180187	-0.0049167	0.000540718	
-0.000157555	-0.00520821	0.000219166	
8.52397e-05	-0.00489265	0.000273502	
0.000865734	-0.00512853	-0.000958405	
-0.0010674	-0.00512679	0.00128814	
-0.000210288	-0.00461492	0.000851069	
-6.46853e-05	-0.00511204	0.000130148	
0.000500089	-0.00506721	-0.000564537	
0.000619105	-0.00508049	-0.00042639	
-4.81976e-05	-0.00504901	0.000206541	
0.000125046	-0.00510381	6.30265e-05	
2.83331e-05	-0.0050729	0.000104867	
0.00119789	-0.00383943	0.000363277	
0.000256023	-0.00453179	0.000472849	
0.000897469	-0.00424759	0.000176463	
0.000182576	-0.0044207	0.000814687	
1.75297e-05	-0.00496213	1.24139e-06	
0.00203245	-0.0036311	6.76151e-05	
-2.04132e-05	-0.00503723	4.52342e-05	
1.38471e-05	-0.00523593	1.30079e-05	
0.0030442	-0.00191695	0.000414313	
7.542e-05	-0.00513693	0.000197822	
0.00276206	-0.00253119	0.000384395	
0.000599974	-0.00475897	-0.000145544	
1.02173e-06	-0.00509916	4.86116e-06	
8.69842e-05	-0.00480926	0.0003752	
0.000222987	-0.00279361	0.00142201	
1.44355e-05	-0.00526631	0.00011281	
-0.00424547	-0.00337492	0.000717734	
-5.47458e-05	-0.00489051	-0.000413846	
0.000234071	-0.00494347	-0.000584663	
-0.00731049	-0.00197645	0.00101918	
0.000326041	-0.00525254	-0.000311757	
-5.91039e-05	-0.00490685	-0.000304764	
-0.000366207	-0.00520866	0.000458962	
0.00028696	-0.00516828	-0.000326135	
0.000351877	-0.00518449	-0.000445236	
-0.000637463	-0.00461584	-4.71781e-05	
-8.9006e-05	-0.00512031	9.10688e-06	
-0.000636781	-0.00518785	0.000696795	
-0.000512095	-0.00504248	0.000291579	
-0.000375355	-0.00509337	0.000176597	
0.000265721	-0.0050366	-0.000448483	
-0.00229684	-0.00412479	0.000625661	
-0.000788533	-0.00453848	-1.11698e-05	
-0.000750858	-0.00431112	-0.000275377	
-8.0986e-05	-0.0051314	-0.000216739	
-0.00020356	-0.00393031	-0.00100968	
-1.6274e-05	-0.00505137	-7.20846e-05	
-0.000315757	-0.00318412	-0.00145844	
-6.14368e-06	-0.00516172	-5.1595e-05	
-0.000173928	-0.00429303	-0.000799987	
-2.17692e-05	-0.00505605	-0.000158625	
-0.0143315	-0.000699881	0.00291352	
-0.000596906	-0.00489139	0.000138173	
-0.000266771	-0.00223528	-0.00136094	
-9.50541e-05	-0.00471725	-0.000531185	
0.0192311	0.00380962	-0.00278398	
0.00222869	-0.0014672	-0.00170159	
0.000358736	-0.00211277	-0.000195144	
-0.000127251	-0.0021674	0.000325844	
-6.5158e-05	-0.00235283	0.000123748	
7.49887e-05	-0.00213537	9.27474e-05	
0.000930159	-0.00232241	-0.00101216	
-0.0011033	-0.00230807	0.00126833	
-0.000105208	-0.00197108	0.000415542	
-6.50357e-05	-0.00230446	0.000122136	
0.000498006	-0.00231347	-0.000571828	
0.000644379	-0.00223282	-0.000599565	
-1.55994e-05	-0.00226625	0.000120031	
0.000138781	-0.00227739	-3.54428e-05	
3.42567e-05	-0.00229267	5.62975e-05	
0.00146514	-0.00140628	-0.000687947	
0.000345601	-0.00192046	-3.30825e-06	
0.00107025	-0.00169141	-0.000581369	
0.000256135	-0.00186101	0.000242116	
1.23973e-05	-0.00226424	1.21136e-05	
0.00233772	-0.00116811	-0.00111229	
-2.58464e-06	-0.00230215	1.63859e-05	
8.97631e-05	-0.00236297	-4.4821e-05	
0.00320912	-0.000257631	-0.000203033	
7.51793e-05	-0.00227606	8.29271e-05	
0.00305367	-0.000608006	-0.000451895	
0.000635514	-0.00205281	-0.000488009	
-1.7208e-05	-0.00231293	8.33553e-06	
7.22883e-05	-0.00208608	0.000126277	
0.000325773	-0.00116027	0.000416777	
4.05662e-05	-0.00237258	4.68916e-05	
-0.00468476	-0.000516772	0.00184869	
-0.000103934	-0.00212563	-0.000129777	
0.000191543	-0.00216988	-0.000380434	
-0.00771835	0.000800657	0.001313	
0.000353946	-0.00236783	-0.000355016	
-6.86152e-05	-0.00214407	-0.00011087	
-0.000345179	-0.00236391	0.000446609	
0.000280785	-0.00235653	-0.000328692	
0.000328272	-0.00235533	-0.000407974	
-0.000796135	-0.00197282	0.00049237	
-0.00014273	-0.0023188	7.89487e-05	
-0.000688373	-0.00234169	0.000755598	
-0.000529373	-0.00223262	0.000474088	
-0.000375967	-0.00227903	0.000293473	
0.000209178	-0.00229274	-0.000356105	
-0.0026193	-0.00134191	0.00183014	
-0.000899661	-0.00191038	0.000536122	
-0.000956046	-0.00174185	0.000502628	
-6.58814e-05	-0.00227586	-8.81232e-05	
-0.000317696	-0.00162802	-0.000250346	
-5.57535e-05	-0.0022956	-3.06645e-05	
-0.000409146	-0.0012958	-0.000404218	
-2.65849e-05	-0.00234098	-1.37146e-05	
-0.000218158	-0.00181811	-0.000240193	
-4.6848e-05	-0.00227286	-7.39674e-05	
-0.0149108	0.00266906	0.00229881	
-0.000676164	-0.00211762	0.000477751	
-0.000276319	-0.000941787	-0.000427814	
-0.000145518	-0.00204567	-0.000167947	
0.0200573	0.00575099	-0.00125684	
0.00261375	-0.00134065	-0.0019016	
0.00052228	-0.00236297	-0.000289065	
-2.43845e-05	-0.00245291	0.000225314	
-2.81051e-05	-0.002613	5.50176e-05	
0.000146025	-0.0024105	5.66048e-05	
0.00103595	-0.00257227	-0.000986971	
-0.00119869	-0.00257113	0.0012047	
5.1361e-05	-0.00222717	0.000270253	
-6.79881e-05	-0.00259453	0.000112921	
0.000555494	-0.00259355	-0.000538848	
0.000777676	-0.00247767	-0.000622372	
3.47379e-05	-0.00255885	6.76753e-05	
0.000187636	-0.0025519	-6.89267e-05	
5.90942e-05	-0.00257999	4.36478e-05	
0.00170614	-0.00139942	-0.000969581	
0.000480747	-0.00212736	-0.000130202	
0.00129747	-0.00178769	-0.000754248	
0.00035756	-0.00207734	0.000133809	
1.48416e-05	-0.00255326	4.79732e-06	
0.00262209	-0.00107058	-0.00128853	
9.68955e-06	-0.00257565	1.11455e-05	
0.000121338	-0.00260924	-7.61017e-05	
0.00346666	-0.00010724	-0.000158805	
0.000112774	-0.00254012	5.28565e-05	
0.00335223	-0.000534712	-0.000506791	
0.000741814	-0.00227682	-0.000562472	
-1.36529e-05	-0.00258074	1.6494e-05	
0.000166631	-0.00233809	6.34105e-05	
0.000429048	-0.00130424	0.000405441	
5.79748e-05	-0.00261457	3.50627e-05	
-0.00516215	-0.000242691	0.00198559	
-0.000247092	-0.00238031	-1.4261e-05	
8.67617e-05	-0.00245107	-0.000282015	
-0.00825113	0.00145087	0.00119723	
0.000399504	-0.00261454	-0.000341399	
-0.000152214	-0.00241183	-7.31542e-05	
-0.000377438	-0.00262106	0.000403892	
0.000299519	-0.00261255	-0.000305417	
0.000343638	-0.00261143	-0.000371694	
-0.000999896	-0.00215393	0.000690098	
-0.000186839	-0.00259833	0.000104885	
-0.000778544	-0.00259164	0.000735755	
-0.000659528	-0.00248481	0.000504169	
-0.00046023	-0.00254489	0.000318097	
0.000172049	-0.00258463	-0.00029256	
-0.00303186	-0.00116538	0.00205053	
-0.0010897	-0.00204503	0.000706461	
-0.00122468	-0.00184655	0.000734142	
-0.000113199	-0.0025396	-6.06217e-05	
-0.000413256	-0.0018503	-9.58007e-05	
-7.90729e-05	-0.00257034	6.63376e-07	
-0.000529438	-0.0014749	-0.000345168	
-4.06877e-05	-0.00259828	3.42725e-06	
-0.000302879	-0.00204901	-0.000125538	
-8.27754e-05	-0.00256002	-4.83652e-05	
-0.0154605	0.00430831	0.00118338	
-0.000807555	-0.00231442	0.000577619	
-0.000371029	-0.00107068	-0.000448095	
-0.000211704	-0.00227385	-0.000116446	
0.0209243	0.00614914	-0.000977843	
0.00286441	-0.00112338	-0.00181858	
0.000576845	-0.00206966	-0.000384362	
-2.44314e-07	-0.00216648	0.000126671	
-2.60477e-05	-0.00234214	2.60087e-05	
0.000125924	-0.00212616	1.60791e-05	
0.001058	-0.00230337	-0.000991387	
-0.00123171	-0.00230864	0.00117967	
0.000138356	-0.00195247	4.63179e-05	
-6.24602e-05	-0.00230271	8.84557e-05	
0.000596718	-0.00231466	-0.00054937	
0.000821648	-0.00217511	-0.000669466	
6.09945e-05	-0.00226508	9.03435e-06	
0.000199684	-0.00225521	-0.0001114	
5.31662e-05	-0.00228458	1.50628e-05	
0.0017931	-0.00120259	-0.000943045	
0.000494671	-0.00184575	-0.000192532	
0.00135144	-0.00152664	-0.000757385	
0.000268797	-0.00181027	7.80976e-05	
1.93664e-05	-0.00227541	-7.28741e-06	
0.00273397	-0.000925665	-0.00130794	
8.0443e-06	-0.00230775	3.04627e-06	
0.000112006	-0.00233891	-7.93732e-05	
0.00362298	0.000100546	-0.000178993	
9.81042e-05	-0.00224581	1.19757e-05	
0.00352818	-0.000352823	-0.0005824	
0.000885182	-0.00193809	-0.000678439	
5.18554e-08	-0.00231186	1.03061e-05	
0.000136974	-0.00205527	4.19179e-06	
0.000334264	-0.00110529	0.000388598	
3.11319e-05	-0.00234526	3.89793e-05	
-0.00553244	-0.000136105	0.00198234	
-0.000285236	-0.00208885	9.11821e-05	
5.47883e-05	-0.00216533	-0.000176741	
-0.00870648	0.00180891	0.0010853	
0.0003959	-0.00234474	-0.00032711	
-0.000128368	-0.00212486	-2.55553e-05	
-0.00039882	-0.00234885	0.000400433	
0.000301396	-0.00233845	-0.000286709	
0.00035604	-0.00233739	-0.00034883	
-0.0011809	-0.00179945	0.000852063	
-0.000196438	-0.00230339	0.000132066	
-0.00080343	-0.00231547	0.000738384	
-0.000710508	-0.00217605	0.000562198	
-0.000492207	-0.00224243	0.000369655	
0.000175467	-0.00228999	-0.000240769	
-0.00334231	-0.00103797	0.00194824	
-0.00115732	-0.00174362	0.000781861	
-0.00134828	-0.0015744	0.000813916	
-0.000105423	-0.00224471	-1.46503e-05	
-0.000295481	-0.00161247	-8.61477e-05	
-6.06979e-05	-0.00229119	8.62706e-06	
-0.000397595	-0.00127239	-0.000345181	
-3.3994e-05	-0.0023263	5.13768e-06	
-0.000234974	-0.00178766	-7.13199e-05	
-7.63786e-05	-0.00226807	-1.36882e-05	
-0.0160373	0.00474075	0.000765351	
-0.000901869	-0.00198935	0.000648006	
-0.000306764	-0.000897826	-0.00041767	
-0.000214167	-0.00198931	1.81416e-06	
0.021748	0.00621906	-0.000212032	
0.00328547	-0.000990511	-0.00127061	
0.000667374	-0.00177355	-0.000342981	
2.74619e-05	-0.00187379	7.34752e-05	
-2.51684e-05	-0.00207864	2.38849e-05	
7.90471e-05	-0.00182943	4.62848e-05	
0.00117776	-0.00205211	-0.000859671	
-0.00138384	-0.00205392	0.00100981	
0.000197047	-0.00164918	5.74553e-06	
-8.73265e-05	-0.00204978	8.0612e-05	
0.000686899	-0.00205582	-0.000472158	
0.000937708	-0.00191363	-0.00058765	
5.59287e-05	-0.00202588	8.96742e-06	
0.000210735	-0.00201937	-9.60939e-05	
3.10496e-05	-0.00203737	2.07516e-05	
0.00199327	-0.00103172	-0.000602468	
0.000534503	-0.00155204	-0.000138935	
0.00149853	-0.00129053	-0.000466987	
0.000188593	-0.00152022	0.000140255	
1.73911e-05	-0.00202584	-3.60059e-06	
0.00301967	-0.000772195	-0.000845804	
4.51794e-06	-0.00205905	1.55202e-06	
0.000107324	-0.0020737	-5.93087e-05	
0.00376115	0.000248128	-3.09919e-05	
6.82335e-05	-0.0020021	2.84723e-05	
0.00371666	-0.000213071	-0.000365114	
0.000999467	-0.00165206	-0.000549899	
-1.94889e-06	-0.00205336	5.17676e-06	
9.2876e-05	-0.0017499	3.07348e-05	
0.000225714	-0.000894462	0.000429189	
5.58617e-06	-0.00207923	4.72339e-05	
-0.00601428	-6.69157e-05	0.00140657	
-0.000327343	-0.00178227	8.12047e-05	
3.33193e-05	-0.0018694	-0.000110198	
-0.0091407	0.00195962	0.000772683	
0.000427542	-0.00208288	-0.000267684	
-8.48945e-05	-0.0018243	-5.79783e-05	
-0.000460558	-0.00208583	0.000348496	
0.000326482	-0.00208133	-0.000231135	
0.000400515	-0.00207382	-0.000288215	
-0.00135586	-0.00153755	0.000713942	
-0.000206613	-0.00204531	0.000104806	
-0.000906641	-0.0020554	0.000617675	
-0.000810723	-0.0019076	0.00050165	
-0.000539236	-0.00200603	0.000313608	
0.000221496	-0.00203213	-0.000209127	
-0.00382113	-0.000896912	0.00138161	
-0.00128732	-0.0014606	0.000643881	
-0.00158412	-0.00131592	0.000571846	
-7.40645e-05	-0.00199406	-2.49049e-05	
-0.000197188	-0.00134543	-0.00018803	
-4.45984e-05	-0.00203337	-8.81882e-06	
-0.000258817	-0.00103991	-0.000411582	
-2.38297e-05	-0.00206033	-3.97708e-06	
-0.000168119	-0.00150364	-0.000112078	
-4.56309e-05	-0.00202183	-2.55231e-05	
-0.0166293	0.00472838	0.000376049	
-0.000980846	-0.00169987	0.000534125	
-0.000212499	-0.00073552	-0.000409962	
-0.000143322	-0.00168811	-6.28607e-05	
0.0225245	0.00604427	0.000361766	
0.00347771	-0.000831945	-0.00124589	
0.000782102	-0.00156398	-0.000299214	
0.000110348	-0.00165903	2.92613e-05	
-3.32263e-05	-0.00188192	2.67974e-05	
7.03488e-05	-0.00161932	5.92705e-05	
0.0012969	-0.00187284	-0.000686093	
-0.00150092	-0.00187403	0.000818287	
0.000290433	-0.00145083	-9.5109e-06	
-8.20539e-05	-0.00183872	5.88923e-05	
0.000767862	-0.00185656	-0.000400827	
0.001068	-0.00169664	-0.000497718	
8.35884e-05	-0.00181754	-1.0597e-06	
0.000249571	-0.00180407	-8.00828e-05	
3.13502e-05	-0.00182535	2.26205e-05	
0.00209856	-0.000878797	-0.000594601	
0.000580401	-0.00136013	-0.000114237	
0.00157087	-0.00111772	-0.000473084	
0.000162401	-0.00133407	0.000150934	
1.58729e-05	-0.0018284	-8.43116e-07	
0.00314616	-0.000638185	-0.000852995	
3.10976e-06	-0.00187381	8.81325e-06	
0.000110588	-0.00187435	-3.82333e-05	
0.00389499	0.000291374	3.09226e-05	
5.97174e-05	-0.00178308	4.11889e-05	
0.00387204	-8.41814e-05	-0.000358732	
0.00109555	-0.00146084	-0.000464121	
2.86849e-06	-0.00186025	4.28599e-06	
7.60105e-05	-0.00154548	5.76908e-05	
0.000194174	-0.000785146	0.000388954	
-9.43186e-06	-0.00187819	5.43501e-05	
-0.00629251	8.56491e-05	0.00144198	
-0.000403036	-0.00157779	7.92762e-05	
-4.14653e-05	-0.00166044	-6.3501e-05	
-0.00956112	0.00189691	0.000503888	
0.000466422	-0.00188509	-0.00021237	
-7.56724e-05	-0.00161936	-6.62646e-05	
-0.000509542	-0.00189401	0.000290734	
0.000347341	-0.00188972	-0.000187017	
0.000413928	-0.00188569	-0.000235441	
-0.00153679	-0.00136177	0.000616307	
-0.000244146	-0.00183673	9.05744e-05	
-0.000994351	-0.00185866	0.000509069	
-0.000935643	-0.00169433	0.000426524	
-0.000620309	-0.00179388	0.00027348	
0.000237632	-0.00182444	-0.000179422	
-0.00403385	-0.000748172	0.00139755	
-0.00140308	-0.00129244	0.000505358	
-0.00172141	-0.00113796	0.000592838	
-6.59918e-05	-0.00178158	-4.08977e-05	
-0.000169829	-0.00117861	-0.000187904	
-3.36678e-05	-0.00183578	-2.28308e-05	
-0.00021942	-0.000913545	-0.000381218	
-1.88859e-05	-0.00186492	-1.30233e-05	
-0.000145239	-0.00132264	-0.000131889	
-4.09353e-05	-0.00181894	-3.47393e-05	
-0.0171794	0.00457566	-0.000145933	
-0.0010697	-0.00150946	0.00042074	
-0.000175158	-0.000644743	-0.000378017	
-0.000116339	-0.00149834	-9.04091e-05	
0.0232394	0.00608217	0.000384675	
0.00386478	-0.000973071	-0.00134827	
0.00085289	-0.00171113	-0.000306914	
0.000211836	-0.00180758	-5.88142e-06	
-1.54898e-05	-0.00194553	1.98462e-05	
8.05598e-05	-0.00175839	7.40565e-05	
0.00130068	-0.00193111	-0.000678063	
-0.00154908	-0.00196641	0.000839789	
0.000353316	-0.00166931	-4.45057e-06	
-8.52789e-05	-0.00195705	6.4029e-05	
0.000810221	-0.00196565	-0.000418915	
0.0011168	-0.00183289	-0.000503787	
0.000145219	-0.0019288	-2.79353e-05	
0.000263953	-0.00189536	-7.99748e-05	
3.4847e-05	-0.00194768	2.73514e-05	
0.00229334	-0.000971422	-0.000615033	
0.000635474	-0.00161644	-8.92059e-05	
0.00168991	-0.00139194	-0.00045448	
0.000200328	-0.00160691	0.000198769	
1.80064e-05	-0.00192978	2.2865e-06	
0.00332797	-0.000675639	-0.000869901	
3.87603e-06	-0.00194174	9.41287e-06	
0.000107804	-0.00194343	-3.38722e-05	
0.0040547	0.000319532	1.67234e-05	
6.55365e-05	-0.00189269	4.942e-05	
0.0040548	-4.19551e-05	-0.000387553	
0.00114439	-0.0016487	-0.00045717	
4.54018e-06	-0.00197869	5.57556e-06	
8.89319e-05	-0.0017115	7.60994e-05	
0.000204717	-0.00081586	0.000410707	
-1.93516e-05	-0.0019398	6.2949e-05	
-0.00661885	0.000149057	0.00153964	
-0.000464981	-0.00173977	8.06473e-05	
-0.000140172	-0.00182798	-3.14928e-05	
-0.00994721	0.00195977	0.000501199	
0.000468947	-0.00193926	-0.000209934	
-8.7575e-05	-0.00177338	-8.63024e-05	
-0.000506009	-0.00194029	0.000287783	
0.000379108	-0.0019424	-0.000203153	
0.00042375	-0.00197615	-0.000240938	
-0.00162432	-0.00160828	0.000612753	
-0.000254878	-0.00196728	8.85997e-05	
-0.00102661	-0.00197878	0.000517924	
-0.000979344	-0.00184497	0.000428054	
-0.000677765	-0.00189489	0.000292027	
0.000216949	-0.00195584	-0.000173955	
-0.00435663	-0.000813778	0.00147791	
-0.00150634	-0.00156575	0.000491848	
-0.00203045	-0.00130293	0.000684659	
-7.27205e-05	-0.00189832	-5.06507e-05	
-0.000195557	-0.00132029	-0.000225324	
-3.63683e-05	-0.0019452	-2.71208e-05	
-0.000234242	-0.000957994	-0.000406276	
-2.11777e-05	-0.00198175	-1.56864e-05	
-0.000181326	-0.00160312	-0.000175566	
-4.56708e-05	-0.00194205	-4.14283e-05	
-0.0176953	0.00450985	-0.00016836	
-0.00111486	-0.00169543	0.000407798	
-0.000183004	-0.000656181	-0.000382189	
-0.000137399	-0.00170325	-0.000119601	
0.0238588	0.00626845	0.000449981	
0.00410016	-0.000812209	-0.00146398	
0.00101381	-0.00181753	-0.000364017	
0.000282391	-0.00193975	-2.59485e-05	
3.86178e-05	-0.00219953	-6.1155e-06	
9.19997e-05	-0.00190557	8.93536e-05	
0.00130424	-0.00219308	-0.000665243	
-0.00147082	-0.00218572	0.000787641	
0.000562024	-0.00164685	-9.8783e-05	
-4.72112e-05	-0.00211327	4.63747e-05	
0.000813909	-0.00211564	-0.000414833	
0.00114669	-0.00194824	-0.000501558	
0.000194641	-0.00206212	-4.86265e-05	
0.000327431	-0.00204491	-0.000104835	
3.89578e-05	-0.00208515	3.08461e-05	
0.0024428	-0.00085805	-0.000678649	
0.000692902	-0.00149001	-0.000123054	
0.00176031	-0.00120151	-0.000518562	
0.000186091	-0.00144715	0.000183818	
2.09121e-05	-0.00210491	3.06684e-06	
0.00347418	-0.000575028	-0.000930224	
5.23166e-06	-0.00219935	1.20429e-05	
0.000117067	-0.00223601	-3.37618e-05	
0.00418061	0.000449952	-2.87533e-05	
7.12836e-05	-0.00199591	5.42583e-05	
0.00421538	0.000100635	-0.000454201	
0.00120614	-0.00168066	-0.000465753	
5.41543e-06	-0.00212135	5.96531e-06	
9.76587e-05	-0.00176873	8.80489e-05	
0.000194545	-0.000758066	0.000374909	
-6.12966e-05	-0.00224178	9.5538e-05	
-0.00691181	0.000338386	0.00167317	
-0.00063259	-0.00183194	0.000144763	
-0.000257303	-0.00197292	1.22461e-05	
-0.0102692	0.00218988	0.000527424	
0.00046673	-0.00220693	-0.000200542	
-0.000100645	-0.00192767	-0.00010239	
-0.000478168	-0.00220257	0.000271131	
0.000366726	-0.00222358	-0.000193961	
0.000364291	-0.00221594	-0.000207836	
-0.00185962	-0.00155529	0.000713914	
-0.000300626	-0.00213844	0.000104601	
-0.0010336	-0.00214735	0.000511762	
-0.00098365	-0.00201841	0.000406314	
-0.000751036	-0.00206786	0.000317141	
0.000185435	-0.00211612	-0.000163358	
-0.0046326	-0.000663518	0.00161004	
-0.00160393	-0.00141891	0.000544354	
-0.00220616	-0.00117917	0.000779728	
-8.09692e-05	-0.00203667	-5.81278e-05	
-0.000190322	-0.00123857	-0.000213939	
-4.17246e-05	-0.00213781	-3.14137e-05	
-0.000227398	-0.00089616	-0.000374363	
-2.42364e-05	-0.00215599	-1.673e-05	
-0.000166282	-0.00142681	-0.000162281	
-5.14726e-05	-0.00209611	-4.73001e-05	
-0.0181147	0.00464859	-0.000377533	
-0.00116781	-0.00174084	0.000414216	
-0.000173823	-0.000603131	-0.000344721	
-0.000146623	-0.00173363	-0.000131911	
0.0243425	0.00657513	0.000324061	
0.00424352	-0.000486714	-0.00158639	
0.00103188	-0.00140583	-0.000398636	
0.000327705	-0.00143126	-7.69257e-05	
4.87994e-05	-0.00160086	-1.52806e-05	
7.27031e-05	-0.00143365	7.12594e-05	
0.00134458	-0.00155179	-0.000690351	
-0.00150611	-0.00151769	0.000802295	
0.000625168	-0.00122058	-0.000170591	
-2.92273e-05	-0.00148681	3.18265e-05	
0.000870039	-0.00155264	-0.000448221	
0.00112631	-0.00147692	-0.000508909	
0.000197698	-0.00145534	-6.56653e-05	
0.000276614	-0.00145479	-9.62974e-05	
2.8343e-05	-0.00146594	2.31311e-05	
0.0025264	-0.000595614	-0.000778892	
0.000708158	-0.00117007	-0.000173004	
0.00182702	-0.000881277	-0.000610151	
0.000151754	-0.0011544	0.000145401	
1.58828e-05	-0.00148038	2.27668e-06	
0.00355133	-0.000349449	-0.00103181	
4.1701e-06	-0.0015205	8.57486e-06	
0.000128177	-0.00156342	-4.834e-05	
0.0042702	0.000613459	-0.000113811	
5.47682e-05	-0.00149881	4.18841e-05	
0.00431593	0.000289747	-0.000555901	
0.00131632	-0.00124148	-0.000544478	
3.68497e-06	-0.00154846	5.97822e-06	
8.26037e-05	-0.00140994	7.41309e-05	
0.000160533	-0.000610682	0.000294175	
-2.47e-05	-0.00158013	5.51627e-05	
-0.00713501	0.000559373	0.00180531	
-0.00069859	-0.00152494	0.000201726	
-0.000319425	-0.00160013	6.15758e-05	
-0.0105357	0.002451	0.000581706	
0.000464743	-0.00163143	-0.000212958	
-8.54479e-05	-0.00155438	-8.5214e-05	
-0.000509316	-0.00163627	0.000282972	
0.000362725	-0.00160473	-0.000193235	
0.000408203	-0.00160595	-0.000229112	
-0.00191845	-0.00120751	0.000774079	
-0.000303484	-0.00162174	0.000117467	
-0.0010519	-0.00166437	0.00052945	
-0.00100284	-0.00161076	0.000431617	
-0.000690316	-0.00161648	0.000299816	
0.000196249	-0.00161567	-0.000154959	
-0.00488159	-0.000453708	0.0017511	
-0.00161441	-0.00119228	0.000578891	
-0.00239201	-0.0011031	0.000871223	
-6.73537e-05	-0.00167327	-4.91693e-05	
-0.000171384	-0.00108869	-0.000186856	
-3.34616e-05	-0.00161113	-2.32963e-05	
-0.000200255	-0.000771193	-0.000312665	
-1.89836e-05	-0.00164563	-1.32545e-05	
-0.00015194	-0.00127993	-0.000144278	
-4.14006e-05	-0.0016212	-3.73664e-05	
-0.018474	0.0048498	-0.000350737	
-0.00126299	-0.00143552	0.000487733	
-0.000158251	-0.000529166	-0.000297078	
-0.000121366	-0.00137086	-0.000105479	
0.0249225	0.00675305	0.000200569	
0.00436432	-0.000621934	-0.00158601	
0.00123179	-0.00136958	-0.00049047	
0.000370028	-0.00154655	-8.1787e-05	
6.00388e-05	-0.00135493	-2.16876e-05	
7.95725e-05	-0.00151117	8.18089e-05	
0.0013331	-0.00134808	-0.000673744	
-0.0015773	-0.00140383	0.000823568	
0.000745182	-0.00122874	-0.000223474	
-5.393e-05	-0.00151138	4.76845e-05	
0.000816561	-0.00148272	-0.000410918	
0.00113926	-0.00152329	-0.000501378	
0.000168695	-0.00152981	-4.4952e-05	
0.000284013	-0.00155293	-9.25626e-05	
3.07919e-05	-0.00151782	2.51117e-05	
0.0026706	-0.000689087	-0.00079058	
0.000750118	-0.00115065	-0.000193013	
0.00189529	-0.000897643	-0.000634235	
0.000151023	-0.00114002	0.000142811	
1.73183e-05	-0.00148342	5.05264e-06	
0.00371226	-0.000431445	-0.00103652	
4.15153e-06	-0.00138107	7.2741e-06	
0.000133556	-0.00135885	-5.57945e-05	
0.00441521	0.000628123	-0.000118955	
5.76489e-05	-0.00155676	4.71539e-05	
0.00448838	0.000291529	-0.000586253	
0.00136089	-0.00124445	-0.000556934	
3.32201e-06	-0.00143572	5.71551e-06	
8.10896e-05	-0.00133187	7.38451e-05	
0.000191262	-0.00071507	0.000332161	
-3.25679e-05	-0.00136568	4.81961e-05	
-0.00735914	0.000689869	0.00191296	
-0.000817121	-0.00117575	0.000289829	
-0.000377772	-0.00125869	0.000106481	
-0.0108136	0.00263974	0.000659084	
0.000472378	-0.00136619	-0.000221854	
-7.23432e-05	-0.00126357	-7.20844e-05	
-0.000502691	-0.00137491	0.000271199	
0.000393709	-0.00138472	-0.000208166	
0.000445503	-0.00141665	-0.000246189	
-0.00201787	-0.000933208	0.000842752	
-0.000357975	-0.00152031	0.000144823	
-0.000960636	-0.00149453	0.000475356	
-0.00104808	-0.00131081	0.000461933	
-0.000764633	-0.00142963	0.00034117	
0.000164839	-0.00149306	-0.00013406	
-0.00500712	-0.000331976	0.00181997	
-0.00165145	-0.000892063	0.00063423	
-0.00238344	-0.000710286	0.000936471	
-5.52938e-05	-0.00139284	-4.20474e-05	
-0.000145614	-0.000913557	-0.000152701	
-3.3146e-05	-0.00152986	-2.30676e-05	
-0.000193539	-0.000738338	-0.000288983	
-1.717e-05	-0.00144879	-1.31081e-05	
-0.000113436	-0.000955061	-0.000106418	
-3.83933e-05	-0.00146452	-3.46304e-05	
-0.0188124	0.00500626	-0.000267918	
-0.00127799	-0.00108815	0.00052247	
-0.000157555	-0.000513319	-0.00027772	
-0.000100294	-0.00110675	-8.60013e-05	
0.025406	0.00692296	-4.13151e-05	
0.00452063	-0.000413219	-0.00168675	
0.00132873	-0.00133384	-0.000529943	
0.000429167	-0.00139745	-0.000116281	
0.000157502	-0.00185816	-6.77326e-05	
7.43603e-05	-0.00138272	7.69866e-05	
0.00135674	-0.00178976	-0.000666529	
-0.00154255	-0.00173636	0.000792087	
0.000891569	-0.00111791	-0.000302189	
0.000105013	-0.00161811	-2.73681e-05	
0.000854284	-0.00173035	-0.000419007	
0.00115367	-0.00142507	-0.000500192	
0.000217907	-0.00153095	-6.48528e-05	
0.000346122	-0.00152092	-0.000121828	
3.30796e-05	-0.00156449	2.77721e-05	
0.00275789	-0.000506943	-0.00087055	
0.000753184	-0.00105083	-0.000205645	
0.00194221	-0.000823972	-0.000666757	
0.00014104	-0.00106881	0.000132805	
2.0068e-05	-0.00170011	1.08808e-05	
0.00377023	-0.000244928	-0.00113588	
5.99976e-06	-0.00178328	9.66166e-06	
0.00013565	-0.00187312	-5.06975e-05	
0.00449472	0.000761296	-0.000209086	
5.44305e-05	-0.00146822	4.97614e-05	
0.0045825	0.000456061	-0.000694367	
0.00143239	-0.00117472	-0.000584388	
4.75118e-06	-0.0017444	8.433e-06	
8.07864e-05	-0.001297	7.43865e-05	
0.000158039	-0.000589956	0.000261313	
-7.35512e-05	-0.00186953	8.09065e-05	
-0.00757602	0.000811045	0.0020172	
-0.000961795	-0.00143117	0.000330235	
-0.000352224	-0.00148106	7.47757e-05	
-0.0110738	0.00275951	0.000749098	
0.000406801	-0.00183246	-0.0001766	
-8.60939e-05	-0.00148495	-8.63945e-05	
-0.000519685	-0.00176755	0.000274642	
0.000310178	-0.00174676	-0.000161613	
0.000431439	-0.0016695	-0.000237705	
-0.00218828	-0.00109353	0.000889047	
-0.000502845	-0.00146663	0.000213726	
-0.00105665	-0.00161382	0.000512734	
-0.00102963	-0.00142871	0.000434643	
-0.000773216	-0.00143484	0.000338094	
0.000159164	-0.00143621	-0.000130066	
-0.00534947	-0.000316277	0.00194974	
-0.00169778	-0.00105318	0.000621144	
-0.00246579	-0.000902588	0.000930288	
-5.60561e-05	-0.00143236	-4.74882e-05	
-0.000173484	-0.00109415	-0.000179082	
-3.60013e-05	-0.0015563	-2.52049e-05	
-0.000188799	-0.000725005	-0.000273131	
-2.04958e-05	-0.00165397	-1.65449e-05	
-0.00013579	-0.00115396	-0.00012717	
-3.82013e-05	-0.0014344	-3.47973e-05	
-0.0191771	0.00511265	-0.000173107	
-0.0013688	-0.00131325	0.000533866	
-0.000156479	-0.000500832	-0.000259885	
-0.000119095	-0.00130071	-0.000100944	
0.025773	0.00708845	-0.000286817	
0.00445598	-4.10066e-05	-0.00172967	
0.0013258	-0.000804244	-0.00056141	
0.000585704	-0.0008975	-0.000223848	
6.66665e-05	-0.00118866	-2.57158e-05	
4.62872e-05	-0.000865699	4.79464e-05	
0.0013976	-0.00123891	-0.000680401	
-0.00156509	-0.00127657	0.000786728	
0.000892231	-0.000756465	-0.000335129	
0.000105822	-0.00116404	-3.33604e-05	
0.000931023	-0.00118387	-0.000456372	
0.00125084	-0.00100614	-0.000556449	
0.000252023	-0.00114304	-9.25159e-05	
0.000323707	-0.00111556	-0.000122282	
2.51426e-05	-0.00115423	2.13698e-05	
0.00282481	-0.000288511	-0.000950492	
0.000809783	-0.000729174	-0.000274156	
0.00197319	-0.000415491	-0.00075015	
8.79977e-05	-0.000683533	8.30038e-05	
1.44905e-05	-0.00115169	9.07544e-06	
0.00381176	-4.37564e-05	-0.00123174	
4.54839e-06	-0.00121763	6.89573e-06	
0.000134294	-0.00116324	-5.55394e-05	
0.00454298	0.000899812	-0.000313844	
4.16595e-05	-0.00113595	3.94398e-05	
0.00463445	0.00061235	-0.000817344	
0.00149175	-0.00072674	-0.000635115	
3.96476e-06	-0.00122555	8.36856e-06	
5.31918e-05	-0.000857258	4.86922e-05	
0.000115323	-0.000435757	0.000183482	
-5.68228e-05	-0.0011703	5.56158e-05	
-0.00767132	0.00103736	0.00217251	
-0.00093564	-0.000831233	0.000371052	
-0.000491057	-0.000911107	0.000181211	
-0.0112356	0.00293636	0.000930911	
0.000484443	-0.0012001	-0.000223261	
-5.0594e-05	-0.000878936	-5.06893e-05	
-0.000558023	-0.00127781	0.000288353	
0.000360637	-0.00124431	-0.000184991	
0.000375968	-0.00129497	-0.000202899	
-0.00222052	-0.000649384	0.000939653	
-0.00052242	-0.00115103	0.000226508	
-0.00114413	-0.00117838	0.000554281	
-0.00111786	-0.00100822	0.000493144	
-0.000766956	-0.00110085	0.000340216	
0.00014871	-0.00114472	-0.000113064	
-0.00534773	3.50035e-05	0.00205447	
-0.00176504	-0.000639625	0.000700659	
-0.00251495	-0.00039606	0.00103929	
-4.31994e-05	-0.00113442	-3.84458e-05	
-8.9158e-05	-0.000572698	-9.11868e-05	
-2.75633e-05	-0.00115136	-1.95451e-05	
-0.000126064	-0.000495177	-0.000176643	
-1.6357e-05	-0.00123575	-1.25011e-05	
-7.76087e-05	-0.000673808	-7.19284e-05	
-3.03156e-05	-0.00112981	-2.811e-05	
-0.0194503	0.00522306	6.09657e-05	
-0.00141128	-0.000815115	0.000594208	
-0.000113335	-0.000359483	-0.000173148	
-7.36912e-05	-0.00080878	-6.29467e-05	
0.026351	0.00707317	-0.000569392	
0.00461009	-0.000326342	-0.00170934	
0.0014138	-0.00121725	-0.000554419	
0.000655475	-0.00128102	-0.000227792	
-1.93109e-05	-0.00148787	1.84318e-05	
6.73722e-05	-0.00127965	6.95793e-05	
0.00139235	-0.00153011	-0.000656939	
-0.00147539	-0.00151039	0.00072536	
0.00117111	-0.00113247	-0.000419861	
7.61671e-05	-0.00147493	-1.18232e-05	
0.000975573	-0.00144966	-0.00046327	
0.00131275	-0.00129777	-0.000556883	
0.000258482	-0.00148743	-8.45763e-05	
0.000449184	-0.00146771	-0.000167363	
3.18249e-05	-0.00146438	2.63825e-05	
0.00288917	-0.000477016	-0.00091075	
0.000891435	-0.000983092	-0.000273329	
0.00209113	-0.000708161	-0.000738044	