<VTKFile type="UnstructuredGrid" version="0.1" byte_order="LittleEndian">
	<UnstructuredGrid>
		<Piece NumberOfPoints="2280" NumberOfCells="2280">
			<CellData Scalars="scalars">
				<DataArray type="Float64" Name="Strength" NumberOfComponents="3" Format="ascii">
0.0155725	-0.0124959	0.00394854	
-0.00273173	-0.0231309	0.00571697	
-0.000171289	-0.02509	0.00291008	
-0.000547887	-0.0263271	0.00297956	
-0.000990339	-0.026066	0.000383127	
-0.000275538	-0.0256848	0.00274242	
0.000259023	-0.0264748	-0.000909403	
-0.00100277	-0.0257034	0.00181123	
-0.00136922	-0.0246493	0.0050463	
-6.96479e-06	-0.0254676	0.000901839	
0.000581604	-0.0264304	-0.000162155	
0.00031816	-0.0254352	0.00145607	
-6.48695e-05	-0.0267664	0.00160833	
0.000108647	-0.0262636	0.00169093	
7.11807e-05	-0.0260906	0.00121713	
-0.00471487	-0.0206025	0.0082786	
-0.00135033	-0.0249843	0.00513436	
-0.00206599	-0.0236077	0.00598962	
-0.00190284	-0.0246326	0.00603242	
0.000110729	-0.0259225	0.000598862	
-0.00532184	-0.0187385	0.0100113	
-0.000286409	-0.0252202	0.000316925	
-0.000741053	-0.0259896	1.39707e-05	
-0.00110447	-0.0115563	0.0109535	
5.07781e-05	-0.0261055	0.00206015	
-0.00437186	-0.0136259	0.0112702	
-0.000270305	-0.0247874	0.00332183	
4.63107e-05	-0.026727	0.000347478	
-0.000456774	-0.0254235	0.00363306	
-0.00735324	-0.0147362	0.0115564	
-0.000226003	-0.0260365	8.15338e-05	
0.0034154	-0.0165296	-0.0109969	
0.000495126	-0.0253	-0.00332306	
0.000514967	-0.026294	-0.00308541	
-0.00281967	-0.0131044	-0.010529	
3.5112e-05	-0.0262307	-0.00051132	
0.000355004	-0.0257706	-0.00283544	
-0.00063827	-0.0267133	0.000261659	
0.000276984	-0.0261623	-0.000591634	
0.00059754	-0.026591	-0.000760974	
0.0011641	-0.0245353	-0.004209	
0.000503476	-0.0255588	-0.000650375	
-0.000217061	-0.0265817	0.000492946	
-0.000263903	-0.025508	-0.00179203	
-0.000259692	-0.0261597	-0.00142783	
0.000748298	-0.0260692	-0.00144789	
0.00362117	-0.0209587	-0.00792094	
0.00130044	-0.0244884	-0.00468782	
0.00244067	-0.0229696	-0.00592735	
-8.67953e-07	-0.0260229	-0.00219757	
0.0042886	-0.0223652	-0.0073692	
0.000392661	-0.0260204	-0.000501622	
0.00591387	-0.0172689	-0.0115973	
0.000347661	-0.0271015	-0.000272385	
0.00209201	-0.023565	-0.00592398	
0.000289531	-0.0265733	-0.00155757	
-0.0125444	-0.0118432	-0.00432586	
0.000611539	-0.0259044	-0.00311571	
0.00522558	-0.0118538	-0.0129235	
0.00120373	-0.0250245	-0.00417653	
0.01828	-0.00337835	-0.00316367	
0.000857626	-0.0046275	-0.000759745	
0.000151482	-0.0048762	0.00021261	
-0.00017098	-0.00488902	0.000761499	
-0.000176395	-0.00520876	0.000224027	
-1.71224e-05	-0.00488164	0.000448518	
0.000483937	-0.00513607	-0.00117092	
-0.000683982	-0.00512578	0.00153509	
-0.000298772	-0.00454964	0.00113382	
-6.72689e-05	-0.0051117	0.000193711	
0.000327843	-0.00507212	-0.000655162	
0.000340476	-0.00511047	-0.000400219	
-5.4845e-05	-0.00504609	0.000301923	
4.45962e-05	-0.00510523	0.000156292	
6.8768e-06	-0.00507349	0.00015965	
0.000382467	-0.00397132	0.000634933	
-5.8028e-05	-0.00451708	0.000653138	
0.000251437	-0.00432905	0.00029089	
-0.000122243	-0.00437323	0.00105172	
-2.1005e-06	-0.00496381	3.13947e-05	
0.00111257	-0.00399413	0.000379703	
-6.40889e-05	-0.00503831	5.7585e-05	
-0.00010929	-0.00523612	-6.64142e-06	
0.00266884	-0.00230045	0.000842664	
1.46868e-05	-0.00513246	0.000328683	
0.00216051	-0.00298275	0.000793977	
0.000270078	-0.00479219	-3.3043e-05	
4.21339e-06	-0.00510095	7.3854e-06	
-4.16617e-05	-0.0047889	0.000592983	
-0.000415676	-0.00260413	0.00171026	
-3.34447e-05	-0.0052678	0.000100868	
-0.00334714	-0.00432252	0.000276217	
6.08565e-05	-0.00487436	-0.000582465	
0.000200968	-0.00491361	-0.0008149	
-0.00685908	-0.00335035	0.000437274	
0.000165529	-0.00525602	-0.00039399	
3.29475e-05	-0.00489559	-0.000466926	
-0.000259852	-0.00520754	0.00055121	
0.000173986	-0.00517188	-0.000370685	
0.000222748	-0.00518913	-0.000491421	
-0.000206613	-0.00465364	-0.000161578	
1.35149e-05	-0.00512276	2.31635e-05	
-0.000357393	-0.00519647	0.000831953	
-0.000284923	-0.00506485	0.000238293	
-0.00019336	-0.00510674	0.00013965	
0.000243203	-0.00503052	-0.00054071	
-0.00118615	-0.00458859	0.000489261	
-0.000279245	-0.00459722	-0.000130911	
-0.000151022	-0.00436008	-0.00044978	
-2.09782e-05	-0.00512618	-0.000353465	
0.000350573	-0.00383588	-0.00129621	
6.27187e-05	-0.00505243	-8.47806e-05	
0.000296947	-0.00298709	-0.00183257	
1.04772e-05	-0.00516369	-2.55358e-05	
0.000139046	-0.0042332	-0.00108026	
4.32281e-05	-0.00505522	-0.000226941	
-0.0138831	-0.00340365	0.00321957	
-0.00022941	-0.00492474	8.05407e-05	
0.000228452	-0.00201884	-0.00167085	
0.000110711	-0.00469045	-0.000734439	
0.0195813	0.00188108	-0.00241691	
0.00173	-0.00176715	-0.00197652	
0.000233134	-0.00213141	-0.000188704	
-8.60935e-05	-0.00215386	0.000419382	
-3.80982e-05	-0.00235163	0.000163573	
4.05057e-05	-0.00213355	0.000151008	
0.000610874	-0.00233681	-0.00120497	
-0.000728611	-0.00230391	0.00152213	
-8.85242e-05	-0.00193753	0.000555326	
-5.0137e-05	-0.00230306	0.00016419	
0.000295708	-0.00231935	-0.000681293	
0.000417699	-0.00226259	-0.000685475	
-6.58422e-06	-0.00226469	0.000160022	
8.30747e-05	-0.00228104	-3.69047e-05	
2.97895e-05	-0.00229283	8.51822e-05	
0.00134247	-0.0015154	-0.000708541	
0.000234976	-0.00193632	7.0108e-05	
0.000854658	-0.00179889	-0.000617372	
0.000272382	-0.00183578	0.000380046	
-2.52397e-06	-0.00226497	2.70818e-05	
0.00224554	-0.00130363	-0.00115325	
-1.72042e-05	-0.00230272	2.3539e-05	
6.35379e-05	-0.0023645	-4.21746e-05	
0.00318048	-0.000546369	8.42804e-05	
5.42923e-05	-0.00227634	0.00010924	
0.00299666	-0.000958783	-0.000112762	
0.00038549	-0.0021046	-0.000529492	
-3.25303e-05	-0.00231361	1.35191e-05	
2.05436e-05	-0.00208196	0.000199597	
0.000281203	-0.00111904	0.000543229	
5.78824e-05	-0.00237258	5.79435e-05	
-0.00476835	-0.00072795	0.00154672	
-6.60816e-05	-0.00212316	-0.000189897	
0.000138098	-0.00215561	-0.000476023	
-0.00783845	8.80895e-05	0.000765715	
0.000238872	-0.00237095	-0.000427242	
-3.32004e-05	-0.00214239	-0.000159852	
-0.000186421	-0.00236272	0.000540806	
0.00018018	-0.00235718	-0.000393833	
0.000199055	-0.00235392	-0.000494847	
-0.000556856	-0.00205134	0.000502777	
-8.95571e-05	-0.00232253	7.21165e-05	
-0.000421593	-0.00235832	0.000890522	
-0.00033224	-0.00225522	0.000544672	
-0.000234782	-0.00229136	0.000347341	
0.000127355	-0.00228261	-0.000452578	
-0.00221364	-0.00165949	0.00208872	
-0.000639381	-0.00200983	0.000548465	
-0.000724686	-0.00184738	0.00051552	
-3.66382e-05	-0.00227631	-0.000111276	
-0.000336337	-0.00160027	-0.000375906	
-4.9817e-05	-0.00229606	-5.58295e-05	
-0.000480416	-0.0012134	-0.000554145	
-2.19091e-05	-0.00234176	-2.96333e-05	
-0.000207738	-0.00179239	-0.000395133	
-3.36654e-05	-0.00227285	-0.00010297	
-0.0151623	0.00108418	0.00202396	
-0.000443492	-0.00216899	0.000520711	
-0.00016532	-0.000894435	-0.000565009	
-0.000106946	-0.00203702	-0.000273736	
0.0203171	0.00500134	-6.0331e-05	
0.00233819	-0.000960293	-0.00242057	
0.000459133	-0.00237568	-0.000297145	
8.53883e-05	-0.00243977	0.000334064	
3.24191e-05	-0.00261287	8.62764e-05	
0.000193614	-0.0024051	0.000126134	
0.000779407	-0.00257589	-0.00119362	
-0.000872069	-0.00256273	0.00147458	
0.00013882	-0.00221012	0.000366302	
-3.90828e-05	-0.00259335	0.000163941	
0.000382375	-0.00260163	-0.000644832	
0.000631937	-0.00249881	-0.000701401	
6.49572e-05	-0.00255718	0.000123823	
0.000183596	-0.00255392	-3.64713e-05	
7.97593e-05	-0.00257953	8.35011e-05	
0.00173528	-0.00113344	-0.00123096	
0.000514828	-0.00211963	-0.000133046	
0.00133996	-0.00164599	-0.000972431	
0.000587963	-0.00202328	0.000152517	
5.45652e-06	-0.00255407	2.78073e-05	
0.00260556	-0.000813074	-0.00149564	
1.2851e-05	-0.00257653	2.02015e-05	
0.000148381	-0.00260849	-7.88422e-05	
0.003458	-0.000270896	0.000202124	
0.000161246	-0.00253619	0.000118359	
0.00333216	-0.000822912	-0.000124319	
0.000526426	-0.00231839	-0.000633378	
-3.13114e-05	-0.00258141	2.9912e-05	
0.000138585	-0.00233834	0.000117994	
0.000453127	-0.0012347	0.000565755	
0.000116915	-0.00261317	4.30533e-05	
-0.00526607	-0.000180653	0.00170777	
-0.000248222	-0.0023805	-4.04461e-05	
-1.71115e-05	-0.00243787	-0.000393046	
-0.00837645	0.00115709	0.000481501	
0.000336139	-0.0026129	-0.000419194	
-0.000203018	-0.00240602	-0.000135066	
-0.000223369	-0.00262303	0.000499397	
0.000222629	-0.00261217	-0.000374872	
0.000230127	-0.00261099	-0.000458374	
-0.000856997	-0.00217852	0.000798462	
-0.000187458	-0.00259951	9.87962e-05	
-0.000594331	-0.00259599	0.000881324	
-0.000526558	-0.00250432	0.000564902	
-0.000385537	-0.00255561	0.000339853	
5.5249e-05	-0.00257755	-0.000392513	
-0.00276818	-0.000868436	0.00251835	
-0.000971414	-0.00205543	0.000837962	
-0.00120017	-0.0017666	0.000943062	
-0.000155962	-0.00253569	-0.000129324	
-0.000671256	-0.00177594	-2.73994e-05	
-0.000120067	-0.00256953	-2.39748e-05	
-0.000744528	-0.00135863	-0.000418462	
-6.28647e-05	-0.00259877	-7.83175e-06	
-0.000491897	-0.00200966	-0.000163735	
-0.000120539	-0.00255795	-0.000102921	
-0.0156413	0.00381571	0.000534091	
-0.000647261	-0.00234134	0.000666581	
-0.000297267	-0.000981986	-0.000657639	
-0.000291744	-0.00226087	-0.000184564	
0.0211087	0.00557763	0.000942666	
0.00268238	-0.000783983	-0.00222904	
0.000550552	-0.00205872	-0.000473773	
9.538e-05	-0.00216268	0.000161086	
2.03998e-05	-0.00234293	2.23057e-05	
0.000198687	-0.00212104	2.50582e-05	
0.000789235	-0.00228979	-0.00124273	
-0.000890163	-0.00230357	0.00146357	
0.000210633	-0.00194644	4.77977e-05	
-4.5436e-05	-0.00230249	0.000120061	
0.00044739	-0.00231726	-0.000670364	
0.00069236	-0.00217133	-0.000814404	
8.16926e-05	-0.0022652	2.28421e-05	
0.000203988	-0.00225481	-0.000128448	
6.19875e-05	-0.00228515	2.77832e-05	
0.00176984	-0.00101094	-0.00118252	
0.000546474	-0.0018211	-0.000273684	
0.00137365	-0.00138231	-0.000966921	
0.00043977	-0.00177819	3.34045e-05	
9.4396e-06	-0.00227626	-3.91167e-06	
0.00268745	-0.000810704	-0.00147256	
7.4906e-06	-0.0023086	8.84721e-07	
0.000128874	-0.00233751	-0.000109035	
0.00362046	-6.55092e-05	0.000278512	
0.000150759	-0.00224359	1.97725e-05	
0.00353882	-0.000621341	-0.000142871	
0.000796028	-0.00191348	-0.000840305	
-3.62809e-06	-0.00231252	2.07025e-05	
0.000221899	-0.0020483	4.01739e-06	
0.000371101	-0.000989743	0.000606119	
7.70512e-05	-0.00234501	3.04825e-05	
-0.0056381	-0.000256048	0.00165587	
-0.000356951	-0.00207659	0.000123613	
-4.60726e-05	-0.00216152	-0.000226266	
-0.00882102	0.00159838	0.000169626	
0.000326195	-0.00234143	-0.000419785	
-0.000205101	-0.00211928	-3.10544e-05	
-0.00026296	-0.0023509	0.000493897	
0.000224768	-0.00233852	-0.000355234	
0.000252038	-0.0023384	-0.000428314	
-0.00110661	-0.0017175	0.00108884	
-0.000177141	-0.00230367	0.00016474	
-0.000619906	-0.00230848	0.000917977	
-0.000600437	-0.00217785	0.000675007	
-0.00042426	-0.00224312	0.000447212	
8.48227e-05	-0.00228942	-0.000297063	
-0.00314999	-0.00082004	0.00233577	
-0.0010731	-0.00168119	0.00100705	
-0.00130686	-0.00144912	0.00107388	
-0.000147927	-0.00224295	-2.95395e-05	
-0.000439114	-0.00158197	-2.69091e-05	
-9.08213e-05	-0.00229086	2.1938e-05	
-0.000544954	-0.00116964	-0.000481284	
-5.6926e-05	-0.00232658	1.08835e-05	
-0.000393207	-0.00176127	-2.27352e-05	
-0.00010976	-0.00226748	-2.28043e-05	
-0.016105	0.00459621	-0.000578212	
-0.000853973	-0.00195108	0.000810035	
-0.000243776	-0.000779651	-0.000638337	
-0.000357291	-0.00196875	3.20977e-05	
0.0218097	0.00548533	0.00266781	
0.00333354	-0.000784871	-0.00129398	
0.000668692	-0.00175537	-0.000425617	
0.000110006	-0.00187117	7.41535e-05	
-4.08336e-06	-0.00207935	2.27e-05	
0.000153658	-0.00182516	4.29567e-05	
0.000994104	-0.00204479	-0.00108161	
-0.00116687	-0.00205331	0.00125609	
0.000267205	-0.00163962	-4.7124e-06	
-4.81296e-05	-0.00205115	9.41547e-05	
0.000606028	-0.00205242	-0.000586282	
0.000895208	-0.0018812	-0.000740561	
0.000102136	-0.00202478	-2.28373e-07	
0.000248573	-0.00201386	-0.000130289	
6.76241e-05	-0.00203723	1.79857e-05	
0.00206416	-0.000898862	-0.000580084	
0.000596913	-0.00152797	-0.000153664	
0.00158232	-0.00119853	-0.000438052	
0.000286694	-0.00149789	0.000201975	
3.69004e-05	-0.00202618	-7.42066e-06	
0.00304623	-0.000677552	-0.000838649	
9.32566e-06	-0.00205974	7.61094e-08	
0.000109303	-0.00207348	-7.89909e-05	
0.0037354	5.98395e-05	0.000528218	
0.000141165	-0.00199906	1.56213e-05	
0.00370387	-0.000520152	0.000160071	
0.000968192	-0.00162363	-0.000676732	
1.58653e-06	-0.00205389	7.78765e-06	
0.000158097	-0.00174545	3.30374e-05	
0.000221932	-0.000750123	0.00065057	
3.00605e-05	-0.00207958	4.55933e-05	
-0.006113	-0.000126806	0.000909558	
-0.000373595	-0.0017723	0.000103448	
-5.31249e-05	-0.00186847	-0.00012522	
-0.00923567	0.00164915	-0.000389683	
0.000384504	-0.00208186	-0.000336605	
-0.000146507	-0.00182036	-6.96679e-05	
-0.000380112	-0.00208776	0.000428145	
0.000284465	-0.00208138	-0.000286107	
0.000340423	-0.00207464	-0.00035601	
-0.00133007	-0.00147404	0.000878405	
-0.000205706	-0.00204408	0.00013765	
-0.000804195	-0.00204625	0.000772366	
-0.000789835	-0.00187714	0.000634492	
-0.000541188	-0.0019893	0.000407621	
0.000149266	-0.00203444	-0.00025292	
-0.00384669	-0.00077725	0.00138939	
-0.0012827	-0.00138978	0.000793278	
-0.00163047	-0.00124596	0.000600137	
-0.000149259	-0.00199063	-8.18245e-06	
-0.00029169	-0.00131686	-0.000256697	
-6.85439e-05	-0.00203333	-1.95554e-06	
-0.000337072	-0.000903498	-0.000622891	
-3.50749e-05	-0.00206075	2.02596e-06	
-0.000276936	-0.00148578	-0.000134105	
-9.77663e-05	-0.00202075	-1.80094e-05	
-0.0166391	0.00449759	-0.00161899	
-0.000967232	-0.00166764	0.000648897	
-0.00012413	-0.000614822	-0.000600602	
-0.000235673	-0.00167797	-6.36492e-05	
0.0224281	0.00505594	0.00410056	
0.00351493	-0.000639587	-0.00126071	
0.000809921	-0.00154508	-0.000323572	
0.000161594	-0.00165459	5.12793e-05	
-2.553e-05	-0.0018824	3.27979e-05	
0.000124923	-0.00161514	8.45041e-05	
0.00123406	-0.00187081	-0.000799899	
-0.00142343	-0.00187208	0.000952009	
0.000348141	-0.00143819	1.79787e-05	
-6.36474e-05	-0.00183955	7.15745e-05	
0.00074088	-0.0018548	-0.000457993	
0.00107253	-0.0016766	-0.000554433	
0.000110043	-0.00181675	1.22481e-05	
0.000276739	-0.00180071	-7.87109e-05	
5.44303e-05	-0.00182521	3.56747e-05	
0.0021553	-0.000755174	-0.000565396	
0.000636066	-0.00133706	-8.9569e-05	
0.00164061	-0.00103073	-0.000435605	
0.000247685	-0.00131084	0.000222055	
2.56852e-05	-0.00182877	1.25107e-06	
0.0031802	-0.000517177	-0.000815904	
6.17028e-06	-0.00187429	1.34199e-05	
0.000112432	-0.00187457	-4.14608e-05	
0.00384876	3.22021e-05	0.000688823	
0.000106447	-0.00178076	6.15177e-05	
0.00385822	-0.00046649	0.000229608	
0.00111121	-0.00143355	-0.000510633	
7.198e-06	-0.00186063	8.63451e-06	
0.000133494	-0.00154057	8.3084e-05	
0.000187475	-0.000643202	0.000597092	
3.59334e-06	-0.00187817	6.70552e-05	
-0.00640127	3.919e-05	0.000879183	
-0.000451837	-0.00156516	6.89392e-05	
-9.96548e-05	-0.00165704	-9.01859e-05	
-0.00961022	0.00146121	-0.000996432	
0.000454209	-0.00188542	-0.000238955	
-0.000133376	-0.00161424	-9.76513e-05	
-0.000479431	-0.00189476	0.000336387	
0.000332806	-0.0018897	-0.000216922	
0.000392078	-0.0018856	-0.000274267	
-0.00156262	-0.00130754	0.000668209	
-0.000250287	-0.00183619	9.56586e-05	
-0.000958851	-0.00185658	0.000581621	
-0.000952142	-0.0016732	0.000472719	
-0.00063441	-0.00178521	0.000300582	
0.000201334	-0.00182493	-0.000220629	
-0.00404368	-0.00063607	0.00143127	
-0.00143838	-0.00123813	0.000542204	
-0.00175469	-0.00106973	0.000624042	
-0.000118064	-0.00177883	-5.90415e-05	
-0.0002523	-0.00114857	-0.00026575	
-4.91842e-05	-0.00183575	-3.22169e-05	
-0.000295996	-0.000770846	-0.000588436	
-2.68738e-05	-0.00186518	-1.73802e-05	
-0.000234478	-0.0013023	-0.000192428	
-7.1337e-05	-0.00181818	-5.47154e-05	
-0.0170715	0.00416789	-0.00284224	
-0.00109614	-0.0014818	0.000450772	
-6.95173e-05	-0.000517087	-0.000562986	
-0.000189085	-0.00148808	-0.000131011	
0.0231539	0.00471824	0.00452081	
0.00391948	-0.000748327	-0.00134034	
0.000889496	-0.00168851	-0.000327917	
0.000269258	-0.00180004	1.62396e-05	
-1.01836e-05	-0.00194585	2.40917e-05	
0.000144563	-0.00175267	0.000107542	
0.00123582	-0.00193104	-0.00079125	
-0.00146204	-0.00196537	0.000986639	
0.000427823	-0.0016514	4.03622e-05	
-6.34952e-05	-0.00195781	7.92017e-05	
0.000782693	-0.00196356	-0.000478468	
0.00112717	-0.00181102	-0.000558145	
0.000173426	-0.00192724	-1.32362e-05	
0.00029541	-0.00189143	-7.5607e-05	
6.2105e-05	-0.00194724	4.50855e-05	
0.0023664	-0.000819395	-0.000563115	
0.000712132	-0.00158621	-4.12579e-05	
0.00178864	-0.0012866	-0.00038546	
0.000314719	-0.00157289	0.000297481	
3.08682e-05	-0.00193014	4.41994e-06	
0.00337078	-0.000508766	-0.000826697	
7.29341e-06	-0.00194217	1.6062e-05	
0.000107092	-0.00194374	-3.65845e-05	
0.00399873	-1.60931e-05	0.000768966	
0.000120979	-0.0018894	7.7051e-05	
0.00404401	-0.000432819	0.000293123	
0.00117246	-0.00161781	-0.000495214	
1.12545e-05	-0.00197895	1.35278e-05	
0.00016154	-0.00170404	0.000114993	
0.000202354	-0.000659958	0.000632055	
-6.61093e-06	-0.00193954	8.12986e-05	
-0.00674427	0.000135202	0.000882661	
-0.000523146	-0.00172408	5.85576e-05	
-0.000206128	-0.00182112	-6.17709e-05	
-0.00999875	0.001354	-0.00122182	
0.000455506	-0.00194005	-0.000234434	
-0.000156823	-0.00176618	-0.000127921	
-0.000474872	-0.00194077	0.000335691	
0.00036117	-0.00194206	-0.000240433	
0.000397954	-0.00197602	-0.000285169	
-0.00166665	-0.00154989	0.000649662	
-0.000261949	-0.00196678	8.99444e-05	
-0.00098982	-0.00197732	0.000591398	
-0.00100582	-0.00182089	0.000469373	
-0.000694386	-0.00188489	0.000320175	
0.000177726	-0.00195562	-0.000221055	
-0.00437586	-0.00068088	0.00149623	
-0.00156449	-0.00150271	0.000508109	
-0.00207551	-0.00121631	0.000711276	
-0.000136209	-0.00189424	-7.86359e-05	
-0.000295572	-0.00127823	-0.000333123	
-5.34236e-05	-0.00194506	-4.07886e-05	
-0.000321976	-0.00079372	-0.000635546	
-2.96726e-05	-0.00198188	-2.50909e-05	
-0.000300239	-0.00157264	-0.000265025	
-8.13493e-05	-0.0019407	-6.91556e-05	
-0.0175819	0.00383908	-0.00324743	
-0.00115236	-0.00166529	0.000427603	
-6.39512e-05	-0.000520737	-0.000578552	
-0.00022855	-0.00168803	-0.00018087	
0.0236911	0.0047795	0.00514181	
0.00415195	-0.000557861	-0.00144394	
0.00105725	-0.00178831	-0.000384672	
0.00035102	-0.00192877	2.3467e-06	
4.4751e-05	-0.00219965	-2.03884e-06	
0.000172538	-0.0018971	0.000137007	
0.00123928	-0.00219415	-0.000777695	
-0.00138573	-0.00218453	0.000932893	
0.000638392	-0.00162071	-6.01386e-05	
-2.28608e-05	-0.00211387	6.00655e-05	
0.00078863	-0.00211309	-0.000473749	
0.00116579	-0.00192352	-0.000551465	
0.000228131	-0.00205959	-3.17964e-05	
0.000364849	-0.00203931	-9.9578e-05	
7.25482e-05	-0.00208434	5.25409e-05	
0.00251256	-0.000688635	-0.0006204	
0.000770815	-0.00145436	-7.87253e-05	
0.00185233	-0.00108642	-0.000450813	
0.000299131	-0.00141094	0.000286214	
3.82149e-05	-0.00210511	7.25443e-06	
0.00351069	-0.00036093	-0.000910024	
1.04448e-05	-0.00219968	2.39828e-05	
0.00011951	-0.0022361	-3.34459e-05	
0.00413479	0.000104116	0.00078627	
0.000135889	-0.00199163	8.8988e-05	
0.00422578	-0.000280633	0.000299091	
0.00124513	-0.00164345	-0.000495045	
1.31229e-05	-0.00212156	1.69516e-05	
0.000183784	-0.00175835	0.00014191	
0.000191399	-0.000608013	0.000588505	
-4.29885e-05	-0.00224092	0.000125808	
-0.00705868	0.000356663	0.000909729	
-0.000697596	-0.00180993	0.000120812	
-0.000335012	-0.00196119	-2.19461e-05	
-0.0103228	0.00149146	-0.00143049	
0.000455191	-0.00220747	-0.00022301	
-0.000188613	-0.00191707	-0.000159764	
-0.000445633	-0.0022033	0.000319144	
0.000349396	-0.00222308	-0.000232748	
0.000338787	-0.00221589	-0.000251223	
-0.00190365	-0.00148182	0.000754189	
-0.000310747	-0.00213748	0.000104656	
-0.00100007	-0.00214495	0.00058449	
-0.00102632	-0.00199092	0.000436539	
-0.000772957	-0.00205566	0.000346268	
0.000140007	-0.00211533	-0.000217077	
-0.00464643	-0.000503145	0.00163629	
-0.00166028	-0.00134576	0.000562283	
-0.00224951	-0.00107743	0.000805305	
-0.000155941	-0.00203131	-9.4631e-05	
-0.000294664	-0.00119192	-0.000329295	
-6.44889e-05	-0.00213727	-5.11909e-05	
-0.000312446	-0.000732524	-0.00060042	
-3.62887e-05	-0.00215598	-3.12479e-05	
-0.000284141	-0.00139446	-0.000253261	
-9.65509e-05	-0.00209393	-8.42382e-05	
-0.0179437	0.00379665	-0.0038147	
-0.00121548	-0.00170588	0.000422973	
-5.70349e-05	-0.000477099	-0.000530828	
-0.000253688	-0.00171304	-0.000212901	
0.0241014	0.00517234	0.00550427	
0.00426759	-0.000180676	-0.00159273	
0.00106252	-0.00137457	-0.000426079	
0.000377144	-0.00141981	-6.1336e-05	
5.47543e-05	-0.00160083	-1.09119e-05	
0.000140015	-0.00142581	0.000113703	
0.00127434	-0.00155196	-0.000812341	
-0.00141581	-0.00151639	0.000954636	
0.000680381	-0.00119288	-0.000154325	
-1.07671e-05	-0.00148706	4.41637e-05	
0.00083627	-0.00154933	-0.000518591	
0.00113132	-0.00145266	-0.000564861	
0.000221021	-0.00145266	-5.78841e-05	
0.000303751	-0.00144983	-9.34262e-05	
5.43605e-05	-0.00146509	4.33446e-05	
0.00257066	-0.000404782	-0.00076184	
0.000770366	-0.00113413	-0.000144373	
0.0018971	-0.000750273	-0.00057324	
0.00025144	-0.00112232	0.000231432	
2.88341e-05	-0.00148043	5.67203e-06	
0.00356275	-0.000106211	-0.00105469	
8.70742e-06	-0.00152066	1.68223e-05	
0.000129189	-0.00156336	-5.07696e-05	
0.00424129	0.000268898	0.000783756	
0.000107507	-0.00149491	7.31996e-05	
0.00435811	-6.79018e-05	0.000262314	
0.00133451	-0.00119805	-0.000595027	
1.01145e-05	-0.00154864	1.23407e-05	
0.00015971	-0.00139979	0.000123003	
0.0001559	-0.000485421	0.000474311	
-1.04584e-05	-0.00157952	7.56085e-05	
-0.00729702	0.00061882	0.00097709	
-0.000755471	-0.00149978	0.000184179	
-0.000383246	-0.00158677	3.88117e-05	
-0.0105793	0.00179242	-0.00159857	
0.000450924	-0.00163132	-0.000242511	
-0.000163439	-0.00154418	-0.00013835	
-0.00047515	-0.00163686	0.000334865	
0.000343611	-0.00160408	-0.000231854	
0.000380704	-0.00160554	-0.000276	
-0.00194368	-0.00112358	0.000835856	
-0.000310935	-0.00162025	0.000122804	
-0.00101279	-0.00166145	0.00060916	
-0.00103041	-0.00158257	0.000469779	
-0.000705893	-0.00160437	0.000329413	
0.000154625	-0.00161501	-0.000204925	
-0.00487196	-0.00023919	0.00182647	
-0.00166114	-0.001111	0.000608658	
-0.0024336	-0.000976376	0.000908992	
-0.000133755	-0.00166813	-8.32609e-05	
-0.000274991	-0.00104264	-0.000294217	
-5.35191e-05	-0.00161053	-3.99507e-05	
-0.000279937	-0.000622017	-0.000516753	
-2.9919e-05	-0.00164557	-2.43313e-05	
-0.000268016	-0.00124794	-0.000229159	
-8.07476e-05	-0.00161909	-6.82052e-05	
-0.0182362	0.00399916	-0.00418872	
-0.00129921	-0.00139456	0.000510978	
-5.12911e-05	-0.000415415	-0.000466854	
-0.000216304	-0.00135179	-0.000175168	
0.0245532	0.0054612	0.00603082	
0.00441086	-0.00025048	-0.00156635	
0.00125876	-0.00132954	-0.000530187	
0.000429026	-0.00153202	-6.32551e-05	
6.72439e-05	-0.00135468	-1.89271e-05	
0.000158521	-0.00150112	0.000132734	
0.00126526	-0.00134637	-0.00079614	
-0.00148489	-0.00140085	0.000983759	
0.000803335	-0.00119338	-0.000212735	
-3.13533e-05	-0.00151158	6.60697e-05	
0.000785569	-0.00147977	-0.000476262	
0.00114995	-0.00149556	-0.000557321	
0.000198705	-0.00152681	-2.93767e-05	
0.000317118	-0.0015471	-8.55819e-05	
6.10047e-05	-0.00151655	5.00323e-05	
0.00273588	-0.000442959	-0.000748435	
0.00081541	-0.00110954	-0.000166828	
0.00197452	-0.00074371	-0.000593277	
0.000258043	-0.00110596	0.000229506	
3.22318e-05	-0.00148332	9.74746e-06	
0.00374303	-0.000101518	-0.00102061	
8.97305e-06	-0.00138109	1.61519e-05	
0.000135786	-0.00135842	-6.00764e-05	
0.00435984	0.000330471	0.000919265	
0.000116716	-0.00155213	8.11817e-05	
0.00452727	5.18659e-06	0.000362259	
0.00138504	-0.00119341	-0.000606414	
8.16057e-06	-0.00143583	1.132e-05	
0.00016189	-0.00132062	0.000123338	
0.000186798	-0.00056145	0.000554613	
-1.82655e-05	-0.00136536	6.20116e-05	
-0.00752798	0.000882486	0.000979619	
-0.000855375	-0.00114692	0.000294558	
-0.000426527	-0.00124368	9.71652e-05	
-0.0108248	0.00206736	-0.00181147	
0.000456571	-0.0013656	-0.000256095	
-0.00014307	-0.00125349	-0.000122026	
-0.000469691	-0.00137588	0.000320806	
0.000372893	-0.00138356	-0.000250652	
0.000416422	-0.00141589	-0.000296504	
-0.00202445	-0.00083534	0.000925946	
-0.000364568	-0.00151807	0.000153962	
-0.00092689	-0.00149026	0.000549325	
-0.0010621	-0.00128008	0.000513212	
-0.000773264	-0.00141507	0.000381086	
0.000122965	-0.00149221	-0.00018252	
-0.00498522	-5.44288e-05	0.00191471	
-0.00167645	-0.0008025	0.000686758	
-0.00239359	-0.000570938	0.00100566	
-0.000114055	-0.00138821	-7.04578e-05	
-0.000240871	-0.000871659	-0.000247001	
-5.62674e-05	-0.00152904	-3.86111e-05	
-0.000276251	-0.00058958	-0.000491761	
-2.7771e-05	-0.00144867	-2.18304e-05	
-0.000206704	-0.0009294	-0.000171859	
-7.77135e-05	-0.00146209	-6.5191e-05	
-0.0184794	0.00425333	-0.00455903	
-0.00129983	-0.00104107	0.000562685	
-5.23562e-05	-0.000401762	-0.000448436	
-0.00018588	-0.00108932	-0.000144167	
0.0249094	0.00586741	0.00641148	
0.00454807	1.0387e-05	-0.00167028	
0.00135738	-0.00128673	-0.000571354	
0.000483639	-0.00138049	-0.000102054	
0.000166976	-0.00185722	-6.99251e-05	
0.000151727	-0.00137223	0.000128836	
0.00129825	-0.00178713	-0.000779403	
-0.00145576	-0.00173464	0.000943864	
0.000941192	-0.00107606	-0.000302902	
0.000125213	-0.00161688	-2.34939e-05	
0.00082548	-0.00172749	-0.000482816	
0.00116522	-0.00139604	-0.000552216	
0.000249134	-0.00152692	-4.80928e-05	
0.000378484	-0.00151368	-0.000116901	
6.70999e-05	-0.0015628	5.61966e-05	
0.00280011	-0.000233837	-0.000857616	
0.000816141	-0.00100709	-0.000182488	
0.00201991	-0.000654219	-0.00062568	
0.000248553	-0.00103429	0.000218617	
3.83804e-05	-0.00169977	2.20757e-05	
0.00378051	0.00010605	-0.00113231	
1.33142e-05	-0.00178321	2.15793e-05	
0.000144154	-0.00187227	-5.38779e-05	
0.00444659	0.000510842	0.000927793	
0.000113215	-0.00146311	8.72651e-05	
0.00464587	0.000231448	0.000335516	
0.00145759	-0.00111491	-0.000636049	
1.00362e-05	-0.00174443	1.5966e-05	
0.0001653	-0.00128468	0.000125895	
0.000160039	-0.00046241	0.000448789	
-5.05303e-05	-0.00186917	0.000101284	
-0.00774405	0.00115377	0.000974426	
-0.00101798	-0.00139251	0.000326111	
-0.000419013	-0.00146444	4.91706e-05	
-0.0110314	0.00233601	-0.0020258	
0.000399092	-0.00183148	-0.000201932	
-0.000175224	-0.00147162	-0.000151079	
-0.000486534	-0.00176928	0.000320016	
0.000295705	-0.00174569	-0.000196899	
0.000402346	-0.00166899	-0.000286739	
-0.00221421	-0.000973948	0.000960964	
-0.000505751	-0.00146256	0.000234506	
-0.00102499	-0.00160662	0.000592288	
-0.0010548	-0.0013965	0.000476748	
-0.000785569	-0.00141925	0.000373791	
0.000115468	-0.00143537	-0.000177829	
-0.00532492	5.3089e-05	0.0020473	
-0.00174564	-0.000947902	0.000657429	
-0.00250078	-0.00074124	0.000980473	
-0.000119013	-0.00142702	-8.11108e-05	
-0.000296515	-0.00104008	-0.000298306	
-6.35132e-05	-0.00155506	-4.44258e-05	
-0.000277898	-0.000574574	-0.000477542	
-3.38699e-05	-0.00165368	-2.77806e-05	
-0.000255137	-0.00112075	-0.000211095	
-7.9596e-05	-0.00143168	-6.65789e-05	
-0.0187432	0.00447785	-0.00490511	
-0.00141304	-0.00125375	0.000560156	
-5.50578e-05	-0.000391362	-0.000431765	
-0.000227108	-0.00127836	-0.000172223	
0.0251489	0.00631491	0.0067217	
0.00444139	0.000396461	-0.00172787	
0.00132825	-0.000757217	-0.000617185	
0.000610871	-0.000878153	-0.000232329	
7.57427e-05	-0.00118806	-2.33408e-05	
9.66885e-05	-0.000858487	8.45109e-05	
0.00133996	-0.0012337	-0.000794146	
-0.00148491	-0.00127348	0.000931197	
0.000919163	-0.000715958	-0.000350373	
0.000119863	-0.0011628	-2.8583e-05	
0.000896991	-0.0011807	-0.000525782	
0.00124556	-0.000975167	-0.000618972	
0.00027256	-0.0011389	-8.53281e-05	
0.000345697	-0.00110897	-0.000121708	
5.17739e-05	-0.00115273	4.43346e-05	
0.00283403	9.96296e-07	-0.000971746	
0.00084689	-0.000686076	-0.000273004	
0.00200563	-0.000243919	-0.000741611	
0.000159135	-0.000660356	0.000142027	
2.8376e-05	-0.00115138	1.76624e-05	
0.00379264	0.000323009	-0.00125692	
1.00936e-05	-0.00121745	1.652e-05	
0.0001391	-0.00116224	-6.18619e-05	
0.00449516	0.000729391	0.000941275	
8.86502e-05	-0.00113157	7.1881e-05	
0.00472103	0.000463153	0.00029409	
0.00149131	-0.000664023	-0.000700378	
8.14597e-06	-0.00122544	1.64516e-05	
0.000111343	-0.000848472	8.57818e-05	
0.000122731	-0.000341021	0.00032431	
-4.17445e-05	-0.0011699	7.21475e-05	
-0.0078262	0.0015371	0.00108085	
-0.000957716	-0.000795946	0.000390731	
-0.000522624	-0.000893045	0.000181942	
-0.0111523	0.00269062	-0.00215022	
0.000470224	-0.00119891	-0.000256542	
-0.000105722	-0.000870462	-9.14786e-05	
-0.000526103	-0.00127928	0.000336628	
0.000344035	-0.0012428	-0.000222112	
0.000352079	-0.00129448	-0.000243548	
-0.00221497	-0.000524668	0.00102615	
-0.000522919	-0.00114601	0.0002492	
-0.00110826	-0.00116992	0.000637103	
-0.00112228	-0.000974704	0.00054675	
-0.000771786	-0.00108551	0.000376158	
0.00011129	-0.00114395	-0.000155585	
-0.00526976	0.000423696	0.00221272	
-0.00177768	-0.000530943	0.000757302	
-0.0025011	-0.000231532	0.00112067	
-9.42272e-05	-0.00112977	-6.95195e-05	
-0.000157677	-0.000542479	-0.000157633	
-5.03642e-05	-0.00115026	-3.53936e-05	
-0.000194048	-0.000390822	-0.000318804	
-2.76863e-05	-0.00123538	-2.24095e-05	
-0.000150166	-0.000653099	-0.000126001	
-6.4351e-05	-0.00112736	-5.54688e-05	
-0.0189501	0.00469582	-0.00511021	
-0.00142503	-0.000754139	0.000639166	
-4.38076e-05	-0.000283031	-0.000299803	
-0.000144004	-0.000793673	-0.000111497	
0.0255261	0.0067667	0.00712014	
0.00464472	0.00017884	-0.00164212	
0.00144887	-0.00116001	-0.000583944	
0.00070312	-0.00125703	-0.000217324	
-2.10422e-06	-0.00148769	2.80284e-05	
0.000144163	-0.00126828	0.000128597	
0.00134754	-0.00152495	-0.000752354	
-0.00140782	-0.00150688	0.000852067	
0.00122428	-0.00107396	-0.000420417	
9.87237e-05	-0.00147358	-1.25189e-06	
0.000948221	-0.00144633	-0.000524246	
0.00132723	-0.00126202	-0.000601364	
0.000290488	-0.00148234	-6.64167e-05	
0.000480266	-0.00145801	-0.000164297	
6.68846e-05	-0.00146229	5.62544e-05	
0.00293513	-0.00013245	-0.000884622	
0.000953322	-0.000930057	-0.000248646	
0.0021688	-0.000501986	-0.00068322	
0.00022651	-0.000937587	0.000204566	
3.73016e-05	-0.0014208	2.42573e-05	
0.00400793	0.000179256	-0.00113109	