<VTKFile type="UnstructuredGrid" version="0.1" byte_order="LittleEndian">
	<UnstructuredGrid>
		<Piece NumberOfPoints="2100" NumberOfCells="2100">
			<CellData Scalars="scalars">
				<DataArray type="Float64" Name="Strength" NumberOfComponents="3" Format="ascii">
0.0159613	-0.0121147	0.00354773	
-0.00190902	-0.0232003	0.00576134	
5.4585e-05	-0.0251178	0.00264396	
-0.00041948	-0.0263553	0.00271273	
-0.000947948	-0.0260635	0.000442133	
-8.99309e-05	-0.0257095	0.00248912	
0.000384575	-0.0264732	-0.00080159	
-0.00104518	-0.0257062	0.00169875	
-0.00107986	-0.0247223	0.00473745	
7.9278e-05	-0.0254677	0.000793465	
0.00067892	-0.0264246	-0.000218769	
0.000516401	-0.0254389	0.00127164	
2.40585e-05	-0.0267712	0.00144776	
0.000240855	-0.0262698	0.00151028	
0.000147025	-0.026091	0.00110197	
-0.00377317	-0.0207675	0.00834363	
-0.000971056	-0.0250464	0.004901	
-0.00162583	-0.0236667	0.00588447	
-0.00149659	-0.0246998	0.00586185	
0.000193701	-0.0259214	0.000496467	
-0.00407465	-0.0189998	0.0101003	
-0.000227698	-0.0252174	0.00031691	
-0.000705213	-0.0259877	0.000105716	
-0.000325535	-0.0118912	0.0106405	
0.000184967	-0.0261165	0.00185425	
-0.00324367	-0.0140102	0.011178	
3.80741e-05	-0.0248229	0.00303822	
0.000108323	-0.0267247	0.000267495	
-0.000214428	-0.0254663	0.00332699	
-0.00604835	-0.015247	0.0116479	
-0.000248584	-0.0260326	0.00019476	
0.00216203	-0.0167954	-0.0109106	
0.000297095	-0.0253297	-0.00309485	
0.000355023	-0.0263251	-0.00280454	
-0.0035814	-0.013263	-0.0100883	
4.9199e-05	-0.0262296	-0.00039482	
0.000156209	-0.0257963	-0.00258591	
-0.000670455	-0.0267088	0.000294411	
0.000273379	-0.0261603	-0.00053785	
0.000592848	-0.0265888	-0.000717489	
0.000794605	-0.0245804	-0.0040137	
0.000407935	-0.0255571	-0.000636813	
-0.000307768	-0.0265786	0.000440674	
-0.00047189	-0.0255158	-0.001581	
-0.00045125	-0.0261607	-0.00128056	
0.000659847	-0.0260711	-0.00137795	
0.0025325	-0.0211023	-0.0079569	
0.000854107	-0.0245384	-0.00451399	
0.00185681	-0.0230503	-0.00581658	
-0.000175023	-0.0260349	-0.00199347	
0.0034328	-0.0225198	-0.0073388	
0.00034053	-0.0260181	-0.000507642	
0.00478942	-0.0176313	-0.011568	
0.000314084	-0.0270986	-0.000280745	
0.00167189	-0.0236465	-0.00572144	
0.000162645	-0.0265761	-0.00144797	
-0.0127657	-0.0117088	-0.00402526	
0.000311016	-0.0259313	-0.00290912	
0.00429154	-0.0124608	-0.0126945	
0.000916173	-0.0250681	-0.00396827	
0.0184375	-0.00241944	-0.00310342	
0.00116644	-0.00456671	-0.000710963	
0.000206218	-0.00487505	0.000182253	
-0.000170776	-0.00489574	0.000713682	
-0.000176156	-0.00520785	0.000231826	
1.40227e-05	-0.00488451	0.000411447	
0.000583931	-0.00513634	-0.00112031	
-0.000781963	-0.00512551	0.00148613	
-0.000276927	-0.00456269	0.00108434	
-6.50716e-05	-0.00511171	0.000176331	
0.000374647	-0.00507001	-0.000642236	
0.000418318	-0.00510346	-0.000407775	
-4.98456e-05	-0.00504667	0.000279103	
7.15251e-05	-0.00510477	0.000134197	
1.52689e-05	-0.005073	0.000146046	
0.000623142	-0.0039402	0.000634586	
2.47772e-05	-0.00451987	0.000632983	
0.000434329	-0.00431315	0.000304939	
-3.64791e-05	-0.00437918	0.00103152	
4.34218e-06	-0.00496329	2.02254e-05	
0.00138979	-0.00390604	0.000376087	
-5.06466e-05	-0.00503785	5.58475e-05	
-7.88658e-05	-0.00523614	8.61148e-06	
0.00277982	-0.00218518	0.000786842	
3.542e-05	-0.00513347	0.000299422	
0.00234621	-0.00284735	0.000761093	
0.000360318	-0.00478564	-5.28202e-05	
4.23052e-06	-0.00510035	1.38784e-07	
-3.05323e-06	-0.00479399	0.00054809	
-0.000234568	-0.00262967	0.00170522	
-2.41571e-05	-0.00526695	0.000117563	
-0.00365049	-0.00406748	0.000289318	
2.9131e-05	-0.00487795	-0.000550688	
0.000205964	-0.00492106	-0.000763974	
-0.00702868	-0.00296563	0.000496475	
0.000206436	-0.00525592	-0.000366199	
5.32032e-06	-0.00489844	-0.000432568	
-0.000288615	-0.00520662	0.00053963	
0.000205188	-0.00517111	-0.0003573	
0.000259692	-0.00518784	-0.000479665	
-0.000322688	-0.00464681	-0.00015559	
-1.48946e-05	-0.00512207	1.70766e-05	
-0.00042902	-0.00519511	0.000802488	
-0.000349302	-0.00505949	0.000251975	
-0.000246182	-0.00510352	0.000146717	
0.000250212	-0.00503099	-0.000524662	
-0.00150661	-0.00449608	0.00045844	
-0.000416856	-0.0045865	-0.000126714	
-0.000325097	-0.00435029	-0.000448242	
-4.11956e-05	-0.00512729	-0.000324234	
0.000182796	-0.00385127	-0.00128364	
4.25933e-05	-0.0050521	-8.64821e-05	
0.000102029	-0.00301314	-0.00181033	
1.06213e-05	-0.00516304	-3.4224e-05	
4.9224e-05	-0.00424337	-0.00104618	
2.44404e-05	-0.00505511	-0.000214284	
-0.0140815	-0.0026284	0.00306865	
-0.000327806	-0.00491865	8.31746e-05	
9.92811e-05	-0.00205948	-0.00163345	
5.61463e-05	-0.00469545	-0.000705567	
0.0195033	0.00260138	-0.00233765	
0.0018873	-0.0016621	-0.00192225	
0.000270091	-0.00212699	-0.00018683	
-9.50862e-05	-0.00215658	0.00040196	
-4.30911e-05	-0.0023517	0.000156947	
5.22381e-05	-0.00213377	0.000140909	
0.000696725	-0.00233323	-0.00116403	
-0.000826954	-0.00230437	0.00146977	
-8.80988e-05	-0.00194411	0.000531371	
-5.24284e-05	-0.00230327	0.000155704	
0.000350992	-0.00231771	-0.000659237	
0.000479899	-0.00225599	-0.000665127	
-6.67474e-06	-0.00226436	0.000159887	
9.9879e-05	-0.00228008	-3.26251e-05	
3.35129e-05	-0.00229257	8.01468e-05	
0.00139165	-0.00147123	-0.000705732	
0.000273318	-0.00193146	5.86319e-05	
0.000937287	-0.00176133	-0.000604446	
0.000283323	-0.00183838	0.000358172	
3.15001e-06	-0.00226471	2.34699e-05	
0.00227719	-0.00124687	-0.00115297	
-1.17705e-05	-0.0023025	2.23997e-05	
7.27097e-05	-0.00236396	-4.09866e-05	
0.00319641	-0.000443776	5.52111e-05	
6.16852e-05	-0.00227591	0.000107488	
0.00303128	-0.000832949	-0.00016089	
0.000454431	-0.0020937	-0.000517095	
-2.87791e-05	-0.00231336	1.21675e-05	
3.74033e-05	-0.00208267	0.000187487	
0.000304501	-0.00112235	0.000523204	
5.43834e-05	-0.00237238	5.87306e-05	
-0.00476428	-0.00061637	0.0016039	
-8.0019e-05	-0.0021232	-0.00018142	
0.00015089	-0.00215824	-0.00045872	
-0.00782665	0.000348895	0.000793957	
0.00026997	-0.0023703	-0.000410268	
-4.48666e-05	-0.00214249	-0.000152681	
-0.000228765	-0.00236267	0.000523247	
0.000206948	-0.00235687	-0.000380625	
0.000233779	-0.002354	-0.000477548	
-0.000629962	-0.0020312	0.000497315	
-0.000106346	-0.00232149	7.18705e-05	
-0.000494935	-0.00235407	0.000862652	
-0.000385211	-0.00225067	0.000526981	
-0.00027315	-0.00228897	0.000332331	
0.000145563	-0.00228467	-0.00043435	
-0.00232584	-0.00155745	0.00204419	
-0.000720257	-0.00198328	0.000543807	
-0.000807278	-0.00181479	0.000507328	
-4.51458e-05	-0.0022759	-0.000110104	
-0.000355101	-0.00160144	-0.000352024	
-5.39412e-05	-0.00229577	-5.19865e-05	
-0.000478145	-0.00122704	-0.000524962	
-2.48889e-05	-0.00234146	-2.68788e-05	
-0.000225315	-0.00179662	-0.000364384	
-3.96526e-05	-0.00227232	-0.000105081	
-0.0151168	0.00166684	0.00193897	
-0.000512158	-0.00215676	0.000507339	
-0.000201433	-0.000902259	-0.000540146	
-0.00012519	-0.00203811	-0.000256091	
0.0201941	0.005456	-0.000129603	
0.00242517	-0.00104002	-0.00229859	
0.000488743	-0.0023695	-0.000297295	
7.2522e-05	-0.00244279	0.00031267	
1.86138e-05	-0.00261298	7.6806e-05	
0.000196667	-0.00240538	0.00011086	
0.000849777	-0.0025729	-0.00115048	
-0.000959506	-0.00256454	0.00141527	
0.000120874	-0.00221426	0.000345914	
-4.39579e-05	-0.00259367	0.000151322	
0.000430732	-0.0025994	-0.000621567	
0.000681905	-0.00248934	-0.000686795	
6.14604e-05	-0.00255754	0.000109395	
0.00019217	-0.00255275	-4.54671e-05	
7.80248e-05	-0.00257942	7.39051e-05	
0.00174513	-0.00118405	-0.00116737	
0.000512869	-0.00211992	-0.000133216	
0.00134068	-0.0016746	-0.000920791	
0.000535625	-0.00203788	0.000148452	
9.67232e-06	-0.00255381	2.18108e-05	
0.00261175	-0.000869131	-0.00145199	
1.29979e-05	-0.00257621	1.72413e-05	
0.000143848	-0.00260838	-8.07136e-05	
0.00346439	-0.000203177	0.000154483	
0.000157121	-0.00253681	0.000102076	
0.0033544	-0.00070991	-0.000188756	
0.000588884	-0.00230719	-0.000618237	
-2.6078e-05	-0.00258115	2.73054e-05	
0.000152302	-0.00233781	0.000106529	
0.000466093	-0.00124576	0.00052951	
0.000103759	-0.00261348	4.08432e-05	
-0.00524442	-0.000120936	0.00177556	
-0.000258695	-0.00237923	-3.64884e-05	
-5.08594e-06	-0.00244095	-0.000372097	
-0.00834577	0.00131742	0.000564125	
0.000354954	-0.00261273	-0.000402319	
-0.000204417	-0.00240636	-0.000122391	
-0.000263763	-0.00262283	0.00047865	
0.00024347	-0.00261211	-0.000359745	
0.000259795	-0.00261123	-0.000438746	
-0.000904471	-0.00216668	0.000777354	
-0.000191866	-0.00259867	0.000102559	
-0.000648066	-0.00259275	0.000851475	
-0.000577442	-0.00249648	0.000547861	
-0.000414057	-0.0025512	0.000336296	
8.1867e-05	-0.00257991	-0.000368596	
-0.00284248	-0.000928084	0.00241163	
-0.00101238	-0.00204594	0.000811708	
-0.00121483	-0.00178074	0.000896038	
-0.000153736	-0.00253625	-0.000112616	
-0.000613986	-0.00179585	-5.01511e-05	
-0.000113413	-0.00256959	-1.65212e-05	
-0.000705097	-0.00138331	-0.000405414	
-5.94183e-05	-0.00259851	-4.10968e-06	
-0.000449841	-0.00202004	-0.000154541	
-0.000115729	-0.0025583	-8.87456e-05	
-0.0155558	0.00413656	0.000522863	
-0.000700865	-0.00233054	0.000649041	
-0.000325937	-0.00100419	-0.000608471	
-0.000279393	-0.00226347	-0.000168679	
0.0209973	0.00599955	0.000674369	
0.00273336	-0.000864953	-0.0021346	
0.000559552	-0.00206048	-0.000454229	
7.38045e-05	-0.00216394	0.000152022	
8.37928e-06	-0.00234272	2.25036e-05	
0.000182933	-0.00212229	2.10928e-05	
0.000863489	-0.00229205	-0.00118722	
-0.000983332	-0.00230474	0.00140018	
0.000191461	-0.00194818	4.98283e-05	
-4.02165e-05	-0.00230268	0.000111895	
0.000489345	-0.00231601	-0.000643887	
0.00073248	-0.00216909	-0.000783827	
8.52826e-05	-0.00226474	1.85592e-05	
0.000210995	-0.00225396	-0.00012615	
6.86291e-05	-0.0022846	2.38606e-05	
0.00177979	-0.00105421	-0.00112813	
0.000534054	-0.00182785	-0.00025116	
0.00137514	-0.00141416	-0.000917033	
0.000398392	-0.00178738	4.90275e-05	
2.8149e-05	-0.00227584	-6.15112e-06	
0.00270466	-0.000812212	-0.00143904	
1.69571e-05	-0.00230821	2.32624e-06	
0.000124942	-0.00233774	-0.000102663	
0.00362543	4.04974e-06	0.000201762	
0.000144737	-0.00224372	1.62546e-05	
0.00354979	-0.00051789	-0.000236737	
0.000819221	-0.00191927	-0.000803546	
-2.26078e-06	-0.00231224	1.84403e-05	
0.000199789	-0.00205039	2.75252e-06	
0.000374458	-0.00102038	0.000550542	
6.53855e-05	-0.00234503	3.4213e-05	
-0.00561371	-0.000167291	0.00174442	
-0.000340274	-0.00207956	0.000117112	
-2.16282e-05	-0.00216285	-0.000214619	
-0.00878761	0.00174291	0.000316789	
0.000345165	-0.00234217	-0.00039822	
-0.000187096	-0.00212076	-2.86512e-05	
-0.000300291	-0.00235024	0.000473761	
0.0002461	-0.00233828	-0.000340101	
0.000279917	-0.00233819	-0.000410095	
-0.00113585	-0.00173223	0.0010336	
-0.000191864	-0.00230259	0.00015839	
-0.00067647	-0.00230773	0.000878162	
-0.000633255	-0.00217556	0.000650965	
-0.000448899	-0.00224097	0.000431893	
9.9472e-05	-0.00229008	-0.000283976	
-0.00320312	-0.000851481	0.00224999	
-0.001098	-0.00169675	0.000952314	
-0.00131923	-0.00148312	0.00101008	
-0.000141134	-0.00224314	-2.43017e-05	
-0.000406308	-0.00159002	-4.87193e-05	
-9.72271e-05	-0.00229036	1.87143e-05	
-0.000516781	-0.00119589	-0.000446216	
-5.0789e-05	-0.00232642	9.33048e-06	
-0.000353658	-0.00176918	-3.96815e-05	
-0.000110316	-0.00226711	-1.94333e-05	
-0.0160415	0.00481622	-0.000408833	
-0.00086881	-0.0019588	0.000774358	
-0.000268786	-0.000811563	-0.000586235	
-0.00032081	-0.00197494	2.53382e-05	
0.0217322	0.00597637	0.00214342	
0.00332166	-0.000834492	-0.00129178	
0.000662289	-0.00176384	-0.000398803	
9.19972e-05	-0.00187191	7.48595e-05	
-1.00115e-05	-0.00207906	2.27798e-05	
0.000132931	-0.00182647	4.78479e-05	
0.00104606	-0.00204748	-0.00102537	
-0.00122801	-0.00205267	0.00119694	
0.000249192	-0.00164229	3.07075e-07	
-5.91632e-05	-0.0020507	9.15785e-05	
0.000627845	-0.00205339	-0.000558224	
0.000907153	-0.00189047	-0.000700499	
8.98001e-05	-0.00202507	3.60447e-06	
0.000237748	-0.00201547	-0.000120459	
5.78959e-05	-0.00203722	1.89435e-05	
0.00204731	-0.000931936	-0.000586225	
0.000580665	-0.00153468	-0.000147385	
0.00156262	-0.00122103	-0.000445173	
0.000263065	-0.00150382	0.000188819	
3.13583e-05	-0.00202601	-5.84195e-06	
0.0030439	-0.000689568	-0.00083522	
7.62203e-06	-0.00205944	8.07313e-07	
0.000109192	-0.00207342	-7.4153e-05	
0.00374518	0.000147549	0.000426172	
0.000120937	-0.00200004	2.14139e-05	
0.00372001	-0.000410224	5.695e-05	
0.000975723	-0.00163245	-0.000643389	
7.60562e-07	-0.00205366	7.99661e-06	
0.000139775	-0.00174681	3.51863e-05	
0.000229836	-0.000789777	0.000598777	
2.38029e-05	-0.0020794	4.68121e-05	
-0.00609285	-5.93496e-05	0.001035	
-0.000360563	-0.00177526	9.52834e-05	
-3.25194e-05	-0.00186885	-0.000123258	
-0.00920441	0.0018376	-0.000175619	
0.000397067	-0.00208196	-0.000319166	
-0.000129487	-0.00182143	-6.97627e-05	
-0.000401443	-0.00208736	0.000408845	
0.000296317	-0.00208113	-0.00027325	
0.000356511	-0.0020743	-0.00034039	
-0.00133717	-0.00149135	0.00083695	
-0.000210599	-0.00204375	0.000130963	
-0.000832385	-0.00204844	0.000734979	
-0.000795918	-0.00188611	0.000598318	
-0.00054094	-0.00199386	0.000383307	
0.000164814	-0.00203433	-0.000241476	
-0.00384178	-0.000802405	0.00138672	
-0.00128524	-0.00140858	0.000754622	
-0.00161994	-0.00126195	0.000594106	
-0.000133525	-0.00199145	-1.29962e-05	
-0.000270057	-0.00132401	-0.000242357	
-6.66779e-05	-0.00203313	-2.82361e-06	
-0.000319843	-0.000939819	-0.000576345	
-3.22001e-05	-0.00206055	-2.49504e-07	
-0.000250911	-0.00149052	-0.000131548	
-8.36442e-05	-0.00202106	-2.17742e-05	
-0.0165924	0.00475786	-0.00126911	
-0.000969997	-0.00167727	0.000618721	
-0.000151832	-0.000648004	-0.000557779	
-0.000210828	-0.00168097	-6.71847e-05	
0.0223947	0.00567671	0.00336935	
0.00350569	-0.000682364	-0.0012622	
0.000802576	-0.00154993	-0.000317428	
0.000148525	-0.00165574	4.65979e-05	
-2.72702e-05	-0.00188213	3.08724e-05	
0.000110637	-0.00161627	7.88479e-05	
0.00125144	-0.00187078	-0.000771395	
-0.00144276	-0.00187233	0.000920919	
0.000334021	-0.00144145	1.22268e-05	
-6.83005e-05	-0.00183924	6.89193e-05	
0.000747882	-0.00185486	-0.000445169	
0.00107173	-0.0016816	-0.000539553	
0.000103674	-0.00181686	8.52391e-06	
0.000269927	-0.00180148	-7.93099e-05	
4.86282e-05	-0.00182515	3.29906e-05	
0.00214187	-0.000787917	-0.000570153	
0.000622931	-0.00134277	-9.41023e-05	
0.00162446	-0.00105126	-0.000445646	
0.000227763	-0.00131693	0.000206168	
2.29515e-05	-0.00182862	4.56332e-07	
0.00317265	-0.00054544	-0.00082449	
5.46234e-06	-0.00187403	1.22079e-05	
0.000112101	-0.00187438	-4.05707e-05	
0.00386469	0.000141076	0.000571092	
9.47862e-05	-0.00178134	5.70181e-05	
0.00387731	-0.000321101	0.000117927	
0.00110757	-0.00144013	-0.000499217	
6.42848e-06	-0.00186041	7.46115e-06	
0.000118717	-0.00154194	7.69716e-05	
0.000198715	-0.000682992	0.000547109	
7.3126e-07	-0.00187802	6.46742e-05	
-0.00637696	0.000120023	0.00102663	
-0.000439445	-0.00156843	7.04035e-05	
-8.47175e-05	-0.00165797	-8.42275e-05	
-0.00959642	0.00169083	-0.000698039	
0.00045756	-0.00188511	-0.000232393	
-0.000118351	-0.00161566	-9.03098e-05	
-0.000486551	-0.00189434	0.00032675	
0.00033629	-0.00188958	-0.000209601	
0.000397347	-0.00188547	-0.000265533	
-0.00155649	-0.00132094	0.000655242	
-0.000248657	-0.00183626	9.37879e-05	
-0.000968201	-0.00185662	0.000564821	
-0.000948257	-0.00167827	0.000461322	
-0.000631136	-0.00178715	0.000294209	
0.000210478	-0.00182469	-0.000211452	
-0.00404188	-0.000647934	0.00142885	
-0.00143141	-0.00125117	0.000529849	
-0.00174717	-0.00108486	0.000617943	
-0.000105043	-0.00177953	-5.53325e-05	
-0.00023371	-0.00115584	-0.000250336	
-4.54572e-05	-0.0018357	-3.03503e-05	
-0.000284144	-0.000810441	-0.000538876	
-2.53303e-05	-0.00186499	-1.67416e-05	
-0.000213083	-0.0013078	-0.000178763	
-6.40389e-05	-0.00181833	-4.89899e-05	
-0.0170594	0.0045116	-0.00231103	
-0.00108886	-0.00148916	0.000443334	
-0.000102122	-0.000552437	-0.000523047	
-0.000171084	-0.00149095	-0.000121131	
0.0231312	0.00545866	0.00368934	
0.0039071	-0.000802267	-0.00134305	
0.000879545	-0.00169454	-0.00032278	
0.000254885	-0.00180198	1.09289e-05	
-1.11578e-05	-0.0019456	2.40478e-05	
0.000128377	-0.00175422	9.93829e-05	
0.00125268	-0.00193081	-0.000763834	
-0.00148479	-0.00196524	0.000951388	
0.000409572	-0.0016561	3.09265e-05	
-6.9105e-05	-0.00195754	7.57992e-05	
0.000790065	-0.00196378	-0.000464226	
0.00112508	-0.00181604	-0.000544848	
0.000166597	-0.00192753	-1.66424e-05	
0.000287713	-0.00189231	-7.63169e-05	
5.54021e-05	-0.00194723	4.15426e-05	
0.00234948	-0.00086064	-0.000570149	
0.0006938	-0.00159389	-5.16668e-05	
0.00176542	-0.0013127	-0.000402165	
0.000287888	-0.00158189	0.000275605	
2.79127e-05	-0.00192994	4.02169e-06	
0.00336235	-0.000538198	-0.000839578	
6.4458e-06	-0.00194191	1.4299e-05	
0.00010752	-0.00194352	-3.51761e-05	
0.00402032	0.000124716	0.000628664	
0.000107199	-0.00189024	7.07343e-05	
0.00406455	-0.000272183	0.00016002	
0.00116568	-0.00162553	-0.000485268	
9.45915e-06	-0.00197878	1.10093e-05	
0.000142839	-0.00170615	0.000106157	
0.000214924	-0.0007024	0.000579978	
-9.51589e-06	-0.00193944	7.75204e-05	
-0.00671344	0.000229927	0.00106743	
-0.000508103	-0.00172827	6.33525e-05	
-0.000189232	-0.00182299	-5.43478e-05	
-0.00998398	0.00167002	-0.00088186	
0.000459499	-0.00193945	-0.000229027	
-0.000139396	-0.00176816	-0.000117643	
-0.00048242	-0.00194062	0.000324064	
0.000365974	-0.00194196	-0.00023142	
0.000404334	-0.00197599	-0.000274504	
-0.0016567	-0.00156418	0.000640134	
-0.000260471	-0.00196677	8.91679e-05	
-0.0010001	-0.00197709	0.000573629	
-0.000999213	-0.00182686	0.000458952	
-0.000690759	-0.00188724	0.000312321	
0.000187379	-0.00195552	-0.00021103	
-0.00437415	-0.000714027	0.00148298	
-0.00155227	-0.00151697	0.000502352	
-0.00206574	-0.00123636	0.00070375	
-0.000120348	-0.00189533	-7.23076e-05	
-0.000273326	-0.00128872	-0.000310505	
-4.97572e-05	-0.001945	-3.80189e-05	
-0.000309782	-0.000839485	-0.000580299	
-2.8001e-05	-0.00198172	-2.30037e-05	
-0.000272148	-0.00158096	-0.00024437	
-7.26849e-05	-0.00194096	-6.27407e-05	
-0.0175841	0.00426889	-0.00260532	
-0.00114297	-0.00167285	0.000422461	
-0.000102521	-0.000559144	-0.000535552	
-0.000206324	-0.00169223	-0.000166708	
0.0236905	0.00560263	0.00418759	
0.00413969	-0.000619713	-0.00145142	
0.00104585	-0.00179626	-0.000377863	
0.000332783	-0.00193184	-3.60965e-06	
4.35617e-05	-0.0021995	-2.43407e-06	
0.000151183	-0.00189954	0.000126372	
0.00125694	-0.00219356	-0.000749233	
-0.00140808	-0.00218559	0.000895039	
0.000619369	-0.00162765	-6.7448e-05	
-2.89552e-05	-0.00211361	5.61431e-05	
0.000795097	-0.00211358	-0.000459523	
0.00116091	-0.00192998	-0.000538009	
0.000219622	-0.00206013	-3.59712e-05	
0.000355418	-0.0020406	-0.000100749	
6.38618e-05	-0.00208445	4.74004e-05	
0.00249688	-0.000726097	-0.0006387	
0.000752345	-0.00146337	-8.74837e-05	
0.00183099	-0.00111506	-0.000466281	
0.000272176	-0.00142049	0.000264787	
3.37212e-05	-0.00210494	6.03276e-06	
0.0035029	-0.000390059	-0.000925219	
9.10967e-06	-0.00219944	2.08107e-05	
0.000119629	-0.00223593	-3.33469e-05	
0.00415275	0.000258096	0.000636265	
0.000119179	-0.00199277	8.1519e-05	
0.00424063	-0.000111641	0.00014825	
0.0012352	-0.00165337	-0.000486253	
1.12607e-05	-0.00212138	1.37574e-05	
0.000160827	-0.00176142	0.000129754	
0.000207149	-0.000645837	0.000540998	
-4.74042e-05	-0.00224102	0.000118772	
-0.00702369	0.000431492	0.00111334	
-0.000680642	-0.0018159	0.000125572	
-0.000314242	-0.00196455	-1.38313e-05	
-0.0103094	0.00185032	-0.00103103	
0.000458585	-0.0022071	-0.000217313	
-0.000165038	-0.00192017	-0.000146885	
-0.000454101	-0.00220293	0.000307523	
0.000354106	-0.00222307	-0.000222971	
0.000345153	-0.00221588	-0.000239788	
-0.00189345	-0.00150072	0.000741588	
-0.000308717	-0.00213746	0.000104871	
-0.00100955	-0.00214515	0.000566188	
-0.00101497	-0.00199815	0.000428846	
-0.000767724	-0.00205855	0.000338635	
0.000151705	-0.00211553	-0.000203936	
-0.0046455	-0.000534617	0.00162633	
-0.00164804	-0.00136416	0.000553106	
-0.00224127	-0.00110099	0.000795239	
-0.00013632	-0.00203282	-8.62407e-05	
-0.00027139	-0.00120386	-0.000304652	
-5.89653e-05	-0.00213732	-4.63374e-05	
-0.000299388	-0.000778112	-0.000547254	
-3.36378e-05	-0.00215583	-2.76219e-05	
-0.000255842	-0.00140342	-0.000232741	
-8.49766e-05	-0.00209446	-7.51661e-05	
-0.0179524	0.00433107	-0.00311058	
-0.00120336	-0.00171503	0.000419767	
-9.64198e-05	-0.00051216	-0.00049097	
-0.000226205	-0.00171897	-0.000194501	
0.0241116	0.00603394	0.00444052	
0.00426265	-0.000252149	-0.00159405	
0.00105477	-0.00138315	-0.000416913	
0.000363974	-0.00142299	-6.4578e-05	
5.35461e-05	-0.00160075	-1.18253e-05	
0.000121882	-0.00142815	0.000103859	
0.00129386	-0.00155123	-0.000781705	
-0.00144073	-0.00151674	0.000915319	
0.000666886	-0.00120009	-0.000156449	
-1.54674e-05	-0.0014869	4.06808e-05	
0.000845662	-0.00154988	-0.000500895	
0.00113034	-0.00145866	-0.000550532	
0.000215139	-0.00145325	-5.94826e-05	
0.000296876	-0.00145104	-9.36227e-05	
4.77741e-05	-0.00146525	3.7734e-05	
0.00256161	-0.000449752	-0.000765457	
0.000755584	-0.00114327	-0.000149452	
0.00188053	-0.000782305	-0.000583805	
0.000227939	-0.00113099	0.000212526	
2.55248e-05	-0.00148032	4.67301e-06	
0.00356063	-0.000142305	-0.00105534	
7.63321e-06	-0.00152051	1.47318e-05	
0.000129356	-0.00156325	-4.97692e-05	
0.00425415	0.000436213	0.000613891	
9.34771e-05	-0.00149606	6.55348e-05	
0.00436304	0.000110452	8.98913e-05	
0.00133062	-0.00120936	-0.000580251	
8.26675e-06	-0.00154848	1.02953e-05	
0.000139138	-0.00140288	0.000111289	
0.000169661	-0.000517	0.000434504	
-1.40248e-05	-0.00157959	7.05975e-05	
-0.0072537	0.000704724	0.00120208	
-0.000740796	-0.00150663	0.000186901	
-0.000366036	-0.00159058	4.40768e-05	
-0.0105599	0.00218082	-0.00116205	
0.000455019	-0.00163123	-0.000234398	
-0.000142406	-0.00154726	-0.00012574	
-0.00048442	-0.00163653	0.000322067	
0.000348884	-0.00160417	-0.000221784	
0.000388146	-0.00160561	-0.000263751	
-0.00193873	-0.00114457	0.000818026	
-0.000309507	-0.00162042	0.000121012	
-0.00102422	-0.00166157	0.000588738	
-0.00102305	-0.0015901	0.000459569	
-0.00070243	-0.00160735	0.000320846	
0.000165523	-0.00161522	-0.000192411	
-0.00487456	-0.000271042	0.00181278	
-0.00165142	-0.00113059	0.000598248	
-0.00242611	-0.00100451	0.000897206	
-0.000115912	-0.00166967	-7.51536e-05	
-0.000251792	-0.00105475	-0.000270694	
-4.86374e-05	-0.00161058	-3.58834e-05	
-0.000266138	-0.00066439	-0.000469048	
-2.72141e-05	-0.00164549	-2.12687e-05	
-0.000239946	-0.0012569	-0.000210114	
-7.04608e-05	-0.00161962	-6.07428e-05	
-0.0182591	0.00456893	-0.00340325	
-0.00129021	-0.00140522	0.000503966	
-8.97174e-05	-0.000446549	-0.000430915	
-0.000191761	-0.00135741	-0.000158854	
0.0245984	0.00635774	0.00480305	
0.0044009	-0.000338048	-0.00157559	
0.00125208	-0.00134013	-0.000518786	
0.000413345	-0.00153603	-6.77627e-05	
6.59509e-05	-0.00135463	-2.0094e-05	
0.000137364	-0.00150413	0.000120964	
0.00128417	-0.00134583	-0.000765768	
-0.00151016	-0.00140156	0.000943053	
0.000789377	-0.00120258	-0.000212642	
-3.70158e-05	-0.00151144	6.12139e-05	
0.00079405	-0.00148025	-0.000459975	
0.00114718	-0.00150255	-0.000543446	
0.00019091	-0.00152754	-3.32187e-05	
0.000308605	-0.00154857	-8.70015e-05	
5.31744e-05	-0.00151684	4.35267e-05	
0.00272262	-0.000503715	-0.000756519	
0.000800046	-0.00111995	-0.000170939	
0.00195642	-0.000781183	-0.000603833	
0.000232931	-0.00111513	0.000211009	
2.84865e-05	-0.00148325	8.1502e-06	
0.00373844	-0.000167107	-0.00102611	
7.84829e-06	-0.00138099	1.36854e-05	
0.00013554	-0.00135839	-5.90032e-05	
0.00438031	0.000502954	0.000714483	
0.000101085	-0.00155351	7.24146e-05	
0.00453421	0.000177763	0.000157069	
0.00137939	-0.00120698	-0.000591884	
6.60103e-06	-0.00143571	1.02682e-05	
0.000140516	-0.001324	0.000111964	
0.000205517	-0.000601108	0.000504099	
-2.18354e-05	-0.00136536	5.84506e-05	
-0.00748143	0.000940906	0.00123383	
-0.000845755	-0.0011546	0.000291904	
-0.000413438	-0.00124785	9.92725e-05	
-0.0108095	0.00247522	-0.00129392	
0.000460739	-0.00136571	-0.000247243	
-0.000124125	-0.00125656	-0.000110097	
-0.00047857	-0.00137541	0.000308896	
0.000378506	-0.00138386	-0.000239433	
0.000424207	-0.00141605	-0.000283816	
-0.00202497	-0.000859945	0.000901424	
-0.00036341	-0.00151838	0.000151344	
-0.000936574	-0.00149073	0.000530945	
-0.00105816	-0.00128819	0.000500412	
-0.000771486	-0.0014187	0.000370191	
0.000133833	-0.00149252	-0.000170099	
-0.00498961	-0.000103496	0.00189917	
-0.00167176	-0.0008245	0.00067145	
-0.00239275	-0.000604628	0.000986861	
-9.82421e-05	-0.00138962	-6.33854e-05	
-0.000219554	-0.000882808	-0.000226267	
-5.06391e-05	-0.00152915	-3.47077e-05	
-0.000262843	-0.000632026	-0.000444067	
-2.52213e-05	-0.00144862	-1.95924e-05	
-0.000184163	-0.000936577	-0.000157821	
-6.72722e-05	-0.00146277	-5.76235e-05	
-0.0185246	0.00484244	-0.00367241	
-0.00129478	-0.00105308	0.000551471	
-9.22572e-05	-0.000431839	-0.000412606	
-0.000163865	-0.00109452	-0.000130496	
0.0249823	0.00678348	0.00503647	
0.00454227	-8.83454e-05	-0.00168125	
0.00135081	-0.00129905	-0.000558488	
0.000469209	-0.00138519	-0.000104527	
0.000165279	-0.00185723	-6.98687e-05	
0.000131327	-0.00137534	0.000116892	
0.0013149	-0.001787	-0.000750713	
-0.0014799	-0.00173507	0.000904297	
0.000929614	-0.00108679	-0.00029994	
0.000120255	-0.00161704	-2.47611e-05	
0.000833123	-0.00172825	-0.000465998	
0.00116259	-0.00140355	-0.000537893	
0.000241004	-0.00152794	-5.21805e-05	
0.000370168	-0.00151552	-0.000117461	
5.82063e-05	-0.00156322	4.86143e-05	
0.00279329	-0.00030087	-0.000857292	
0.000801548	-0.00101809	-0.000185523	
0.00200258	-0.000695266	-0.000635852	
0.000223221	-0.00104358	0.000200937	
3.36774e-05	-0.00169973	1.90725e-05	
0.00378163	2.95324e-05	-0.00113073	
1.15748e-05	-0.00178307	1.86495e-05	
0.000142931	-0.00187222	-5.39191e-05	
0.00446384	0.000687358	0.000694034	
9.75712e-05	-0.00146462	7.82684e-05	
0.0046437	0.000402401	0.000104764	
0.00145214	-0.00113056	-0.000620366	
8.3999e-06	-0.00174429	1.42791e-05	
0.000143071	-0.00128841	0.000114016	
0.000175207	-0.000495439	0.000405822	
-5.65309e-05	-0.00186907	9.74205e-05	
-0.00769599	0.00118289	0.001262	
-0.00100398	-0.00140275	0.000325098	
-0.000401144	-0.00146916	5.46891e-05	
-0.0110279	0.00274204	-0.00142499	
0.000401333	-0.0018317	-0.000194078	
-0.00015188	-0.00147563	-0.000135704	
-0.000495695	-0.00176851	0.000309192	
0.000299651	-0.00174581	-0.000187928	
0.000410127	-0.00166909	-0.000274122	
-0.00221027	-0.00100382	0.000938427	
-0.000505579	-0.00146327	0.000229159	
-0.00103434	-0.00160817	0.000570966	
-0.00104832	-0.00140525	0.000464558	
-0.000782861	-0.00142321	0.000363409	
0.000127017	-0.00143568	-0.00016567	
-0.00533244	-1.68413e-05	0.00202601	
-0.00173571	-0.000974346	0.000644345	
-0.00249443	-0.000779353	0.000965929	
-0.000102079	-0.00142864	-7.31762e-05	
-0.000268965	-0.0010546	-0.000272199	
-5.67273e-05	-0.00155527	-3.96272e-05	
-0.000263993	-0.000618261	-0.000428324	
-3.0536e-05	-0.00165365	-2.52307e-05	
-0.000226237	-0.00113023	-0.000192422	
-6.86535e-05	-0.00143244	-5.88019e-05	
-0.0188128	0.00509773	-0.00390175	
-0.00140229	-0.00126924	0.000551893	
-9.61398e-05	-0.000420358	-0.000395814	
-0.000199423	-0.00128501	-0.000155968	
0.0252503	0.00726296	0.00515958	
0.00444619	0.000296291	-0.00173328	
0.0013286	-0.000769377	-0.000600873	
0.000604651	-0.000883293	-0.000228744	
7.36961e-05	-0.0011881	-2.41596e-05	
8.3499e-05	-0.000860591	7.63615e-05	
0.0013564	-0.0012342	-0.000764616	
-0.00150702	-0.00127461	0.000893073	
0.000913527	-0.000725984	-0.000344134	
0.00011642	-0.001163	-3.00103e-05	
0.000906407	-0.00118151	-0.000507184	
0.00124769	-0.000983048	-0.000601556	
0.000267401	-0.00113987	-8.68097e-05	
0.000340148	-0.00111057	-0.000121623	
4.47643e-05	-0.00115312	3.80746e-05	
0.0028367	-7.00223e-05	-0.000959778	
0.000838834	-0.000696654	-0.000270749	
0.00199895	-0.000283724	-0.000744492	
0.000142582	-0.00066661	0.000129731	
2.4759e-05	-0.00115136	1.54478e-05	
0.00380135	0.000236666	-0.00124748	
8.76888e-06	-0.00121737	1.39234e-05	
0.000138216	-0.00116234	-6.02778e-05	
0.00451026	0.000903355	0.000671194	
7.63054e-05	-0.00113284	6.40818e-05	
0.00470955	0.000627144	3.31057e-05	
0.00149272	-0.000679923	-0.000681545	
6.91407e-06	-0.00122539	1.43655e-05	
9.61919e-05	-0.000851118	7.73195e-05	
0.000133601	-0.000365124	0.00029219	
-4.54735e-05	-0.00116991	6.82853e-05	
-0.00777547	0.00153472	0.0013901	
-0.000952599	-0.000804945	0.000384444	
-0.0005147	-0.000897886	0.000180302	
-0.0111512	0.00310955	-0.00145428	
0.000474281	-0.00119918	-0.000247216	
-9.13875e-05	-0.000872978	-8.21257e-05	
-0.000535012	-0.00127873	0.000324023	
0.000348541	-0.00124314	-0.000212202	
0.000358427	-0.00129458	-0.000232975	
-0.00221833	-0.00055479	0.0010022	
-0.000523394	-0.00114694	0.000243275	
-0.00111865	-0.00117155	0.000615237	
-0.00112161	-0.000983499	0.000531736	
-0.000770891	-0.00108933	0.000366286	
0.000121155	-0.00114427	-0.00014462	
-0.00529383	0.00034322	0.00216667	
-0.00177608	-0.000557203	0.000741494	
-0.00250659	-0.000269916	0.00109869	
-8.06149e-05	-0.00113117	-6.19891e-05	
-0.000142443	-0.000550689	-0.000142931	
-4.46613e-05	-0.00115047	-3.15276e-05	
-0.000182772	-0.000421695	-0.000284218	
-2.49094e-05	-0.00123538	-2.01621e-05	
-0.000132753	-0.00065905	-0.00011383	
-5.54253e-05	-0.00112803	-4.87167e-05	
-0.0190403	0.00535772	-0.00396388	
-0.00142224	-0.000769518	0.000626657	
-7.44368e-05	-0.000303127	-0.000272914	
-0.000126183	-0.000798163	-0.000100309	
0.0256919	0.00767678	0.00533141	
0.00464034	6.14024e-05	-0.00166039	
0.0014409	-0.00117439	-0.000574463	
0.000691446	-0.00126324	-0.000217999	
-6.34045e-06	-0.00148761	2.55724e-05	
0.000124499	-0.00127158	0.000115396	
0.0013606	-0.00152536	-0.000727206	
-0.00142613	-0.00150795	0.000818742	
0.00121245	-0.00108839	-0.000417143	
9.29061e-05	-0.0014738	-3.77074e-06	
0.000955913	-0.00144687	-0.000508141	
0.00132452	-0.00127056	-0.000588635	
0.000282445	-0.00148354	-7.06353e-05	
0.000472562	-0.00146035	-0.000164582	
5.81663e-05	-0.0014628	4.89157e-05	
0.00292998	-0.000220172	-0.000882105	
0.000939767	-0.000942626	-0.000252178	
0.00215241	-0.000549956	-0.000696659	
0.000202276	-0.000947031	0.000185471	
3.24986e-05	-0.00142083	2.13932e-05	