<VTKFile type="UnstructuredGrid" version="0.1" byte_order="LittleEndian">
	<UnstructuredGrid>
		<Piece NumberOfPoints="1140" NumberOfCells="1140">
			<CellData Scalars="scalars">
				<DataArray type="Float64" Name="Strength" NumberOfComponents="3" Format="ascii">
0.0171444	-0.0109109	0.000819239	
0.00213098	-0.023637	0.00342479	
0.00067628	-0.025227	0.00100238	
-0.000109631	-0.0264703	0.00115676	
-0.000507132	-0.0260733	0.000434656	
0.000391911	-0.025808	0.000958031	
0.00108279	-0.0264594	-0.000429321	
-0.00139088	-0.0257247	0.000960282	
-7.07952e-06	-0.0250927	0.00225104	
0.000190565	-0.0254739	0.000233798	
0.000809989	-0.0264135	-0.000378305	
0.00104987	-0.0254504	0.000221303	
0.000150278	-0.0267997	0.000527895	
0.00043748	-0.0262989	0.000526061	
0.000257072	-0.0261059	0.000401335	
0.00085479	-0.0220999	0.00510321	
0.000706872	-0.0254129	0.00244372	
0.00114612	-0.0241819	0.00336529	
0.000558374	-0.0252198	0.00322702	
0.000222292	-0.0259205	7.00781e-05	
0.00162164	-0.0209723	0.00610214	
-2.46317e-05	-0.0252156	0.000161204	
-0.000182489	-0.0259926	0.000261369	
0.00309041	-0.0143834	0.00620287	
0.00039448	-0.0261669	0.000694661	
0.0021776	-0.0166991	0.00695027	
0.0011	-0.0249609	0.00106642	
0.000132605	-0.0267222	-6.2448e-05	
0.000483487	-0.0256427	0.0013572	
-0.000214817	-0.0186795	0.00747911	
1.56204e-05	-0.0260284	0.000408179	
-0.00352427	-0.0188348	-0.00622666	
-0.000381596	-0.025474	-0.00147252	
3.90913e-05	-0.0264497	-0.00114021	
-0.00694477	-0.0146595	-0.00524131	
0.000402599	-0.0262266	-3.97541e-05	
-0.000410197	-0.0259	-0.00104635	
-0.000612921	-0.0267063	0.000325889	
0.000346682	-0.0261594	-0.000247637	
0.000547538	-0.0265923	-0.000398349	
-0.000901568	-0.0248271	-0.0019165	
-0.000113875	-0.0255609	-0.000372599	
-0.000868449	-0.0265626	0.000241584	
-0.000979387	-0.0255447	-0.000339624	
-0.000879033	-0.0261724	-0.000335024	
0.000274692	-0.0261004	-0.000720896	
-0.00221097	-0.0221441	-0.00444328	
-0.00118905	-0.0248364	-0.00222978	
-0.000869913	-0.0236209	-0.00314785	
-0.00049495	-0.0260936	-0.000701125	
-0.000212958	-0.0235425	-0.0042879	
-5.55516e-05	-0.0260174	-0.000380992	
-7.30892e-05	-0.0204335	-0.0070908	
1.04358e-05	-0.0270981	-0.000183773	
-0.000448847	-0.0241916	-0.00305189	
-0.00021852	-0.0266035	-0.000602402	
-0.01373	-0.0112007	-0.00143102	
-0.00100859	-0.0260444	-0.00128343	
-0.000424929	-0.0164419	-0.0080355	
-0.000404447	-0.0253175	-0.00197143	
0.0184514	0.000589734	-0.00372209	
0.00229566	-0.00409327	-0.000823827	
0.000387595	-0.00486717	-2.7106e-05	
-0.000220093	-0.0049299	0.000389919	
-0.000150556	-0.0052105	0.000170443	
9.4559e-05	-0.00489824	0.000155989	
0.001048	-0.00511936	-0.00081776	
-0.00126557	-0.00513165	0.00107498	
-0.000206161	-0.00465427	0.00060411	
-6.53091e-05	-0.0051129	0.00010128	
0.000585232	-0.00506733	-0.000475983	
0.000718966	-0.00506785	-0.000425219	
-4.90344e-05	-0.00505113	0.000151565	
0.000146493	-0.00510375	1.63541e-05	
3.77207e-05	-0.00507349	7.70401e-05	
0.00139214	-0.00379011	6.92593e-05	
0.000351624	-0.00454229	0.000271437	
0.00106727	-0.004212	-2.02642e-05	
0.00023665	-0.0044616	0.000531966	
2.70579e-05	-0.00496227	-4.40253e-07	
0.00225516	-0.00348877	-0.000246606	
-6.1928e-06	-0.00503762	2.84118e-05	
5.79325e-05	-0.00523589	2.85935e-06	
0.00311035	-0.00185259	1.79423e-05	
7.76668e-05	-0.00513966	0.000117876	
0.00287165	-0.00243516	-4.29952e-05	
0.0007196	-0.00473937	-0.000231122	
7.48277e-07	-0.00509946	-5.06477e-06	
0.000108088	-0.00481897	0.00021992	
0.00033546	-0.00295294	0.00102325	
2.67703e-05	-0.0052671	8.49208e-05	
-0.00441398	-0.00305106	0.0010602	
-8.34906e-05	-0.00490078	-0.000270596	
0.000273769	-0.00495807	-0.000427116	
-0.00731685	-0.00158181	0.00151749	
0.000396889	-0.00525006	-0.000273847	
-8.05802e-05	-0.00491307	-0.000185761	
-0.000435584	-0.0052097	0.000384231	
0.000332301	-0.00516841	-0.000282349	
0.000411858	-0.00518688	-0.000363029	
-0.000776447	-0.00459402	9.3229e-05	
-0.000138227	-0.00511936	1.92263e-05	
-0.000779606	-0.00518084	0.000598145	
-0.00059199	-0.00503283	0.000312435	
-0.000437725	-0.00508793	0.000193486	
0.000281601	-0.00504245	-0.000368621	
-0.00263299	-0.00388821	0.000791669	
-0.000943743	-0.00450682	0.000142786	
-0.000904009	-0.00429036	-5.53531e-05	
-7.99707e-05	-0.00513473	-0.00012827	
-0.000273061	-0.00399908	-0.000666302	
-4.67678e-05	-0.00505158	-5.66079e-05	
-0.000382278	-0.00334414	-0.00102013	
-2.06882e-05	-0.00516223	-3.08388e-05	
-0.000220029	-0.00433535	-0.000511395	
-4.2552e-05	-0.00505754	-0.000104876	
-0.0143104	-2.51549e-06	0.00306331	
-0.00073703	-0.00486987	0.000216244	
-0.000375206	-0.00240165	-0.0010072	
-0.000148329	-0.00473497	-0.000326461	
0.0191589	0.00352497	-0.00348523	
0.00238981	-0.0014757	-0.00145956	
0.000397963	-0.00210565	-0.000198667	
-0.000174981	-0.00217435	0.000250809	
-9.31778e-05	-0.00235335	9.42565e-05	
6.96425e-05	-0.00213726	4.98532e-05	
0.00108483	-0.00231783	-0.000858538	
-0.00129193	-0.00231539	0.00106204	
-0.000149669	-0.00198886	0.000302706	
-8.09464e-05	-0.00230541	9.27894e-05	
0.000595018	-0.00231063	-0.000484578	
0.000734585	-0.00222247	-0.000531592	
-3.20707e-05	-0.00226776	8.43222e-05	
0.000143435	-0.00227689	-4.86529e-05	
2.69199e-05	-0.00229325	3.47914e-05	
0.00145341	-0.00143926	-0.000644034	
0.000350362	-0.00191898	-5.41477e-05	
0.00109199	-0.00169355	-0.000533746	
0.000184486	-0.00187943	0.000148807	
1.28898e-05	-0.00226432	3.7083e-06	
0.00235021	-0.00120945	-0.0010399	
1.38146e-06	-0.00230225	8.25098e-06	
8.827e-05	-0.00236315	-4.47133e-05	
0.00317456	-0.000298043	-0.000478699	
5.44524e-05	-0.0022778	4.64603e-05	
0.00300422	-0.000625624	-0.000688672	
0.00072888	-0.00202888	-0.000457761	
-7.89029e-06	-0.00231311	4.00659e-06	
7.11882e-05	-0.002089	6.93489e-05	
0.000261196	-0.00121079	0.000304227	
2.29512e-05	-0.00237312	3.61923e-05	
-0.00465363	-0.00063353	0.00188862	
-9.90917e-05	-0.00212869	-7.68328e-05	
0.000232056	-0.00217907	-0.000298134	
-0.00762243	0.000662782	0.001826	
0.000403479	-0.00236788	-0.00029846	
-6.81745e-05	-0.00214622	-6.50102e-05	
-0.000430416	-0.00236312	0.000371444	
0.000326865	-0.00235772	-0.00027348	
0.000392102	-0.00235697	-0.000337431	
-0.00085872	-0.00195137	0.000473192	
-0.000153072	-0.00231821	7.94676e-05	
-0.000803184	-0.00233917	0.000642559	
-0.000612658	-0.00222136	0.000425202	
-0.000423976	-0.00227388	0.000267388	
0.000266153	-0.00229726	-0.000282122	
-0.00278317	-0.00132009	0.00158939	
-0.000965195	-0.00188533	0.000511229	
-0.000993941	-0.00172914	0.000473118	
-5.52093e-05	-0.00227735	-5.32036e-05	
-0.000218253	-0.0016558	-0.000158756	
-4.11764e-05	-0.00229613	-1.42292e-05	
-0.000293467	-0.00135585	-0.000293749	
-1.95341e-05	-0.00234124	-4.85024e-06	
-0.000157614	-0.00183473	-0.000143336	
-3.651e-05	-0.00227392	-4.31724e-05	
-0.0148251	0.00254128	0.00286796	
-0.000753304	-0.00209858	0.000446746	
-0.000254776	-0.000992209	-0.00031241	
-0.000118838	-0.0020524	-9.27952e-05	
0.0201832	0.00468691	-0.00264173	
0.00269764	-0.00158017	-0.0015737	
0.000506646	-0.00237038	-0.000258309	
-0.000108163	-0.00245527	0.000172394	
-6.38061e-05	-0.00261273	4.70173e-05	
8.48266e-05	-0.00241425	3.05892e-05	
0.0011565	-0.00257816	-0.000826616	
-0.00135938	-0.00257791	0.00100536	
-3.65872e-05	-0.00223432	0.000208687	
-9.05521e-05	-0.00259496	8.75577e-05	
0.000633925	-0.00259111	-0.00045935	
0.000821683	-0.00248394	-0.000536768	
7.45012e-06	-0.00255973	4.24964e-05	
0.000171894	-0.00255312	-6.98962e-05	
3.80483e-05	-0.00258075	2.46472e-05	
0.00165157	-0.00156398	-0.000798572	
0.000424236	-0.00214033	-0.00011752	
0.00124074	-0.00187858	-0.000617489	
0.000213493	-0.00209849	0.000113992	
1.2344e-05	-0.00255338	-1.67068e-06	
0.00259149	-0.00127604	-0.00115751	
5.52496e-06	-0.00257578	6.48121e-06	
0.000103083	-0.00261062	-6.12687e-05	
0.00342591	-0.000229561	-0.000501156	
6.69548e-05	-0.0025423	3.12847e-05	
0.00329067	-0.000613386	-0.000752942	
0.000802946	-0.00227408	-0.000486494	
-6.49167e-06	-0.00258105	8.31301e-06	
9.91452e-05	-0.00234287	3.55201e-05	
0.000320889	-0.00136227	0.000303151	
2.48617e-05	-0.00261532	3.29729e-05	
-0.00512184	-0.00054231	0.0020284	
-0.000189572	-0.00238603	5.34155e-07	
0.000170447	-0.0024536	-0.000217273	
-0.00819646	0.00104499	0.00180718	
0.00042745	-0.00261738	-0.000282752	
-8.89758e-05	-0.00241603	-4.54301e-05	
-0.000452466	-0.0026186	0.000339265	
0.000336567	-0.00261389	-0.000252025	
0.00040024	-0.00261169	-0.000310129	
-0.00102642	-0.00217234	0.000587397	
-0.000175786	-0.00259973	9.21212e-05	
-0.000856506	-0.00259824	0.000618016	
-0.000694176	-0.00248784	0.000440335	
-0.000475775	-0.0025467	0.000279905	
0.000240013	-0.00258534	-0.000233905	
-0.00312642	-0.00141205	0.00173013	
-0.00110412	-0.00207201	0.00059881	
-0.00120455	-0.00190696	0.000602705	
-6.83183e-05	-0.00254186	-3.54063e-05	
-0.000244851	-0.00187968	-0.000104398	
-4.82268e-05	-0.00257121	2.75685e-06	
-0.000354342	-0.00154004	-0.00028059	
-2.41378e-05	-0.00259872	3.09524e-06	
-0.00017976	-0.00206504	-0.000102111	
-4.97126e-05	-0.00256132	-2.68185e-05	
-0.0155554	0.00348641	0.00211974	
-0.00084378	-0.00232069	0.000497477	
-0.000319588	-0.00113213	-0.00031925	
-0.000124459	-0.00228205	-8.40648e-05	
0.0210863	0.00490026	-0.00267066	
0.00293096	-0.00134388	-0.0015441	
0.000569744	-0.00208383	-0.000315429	
-6.93078e-05	-0.00216666	0.000110351	
-4.79318e-05	-0.0023421	2.71093e-05	
6.95721e-05	-0.00212915	1.83607e-05	
0.00118214	-0.00231195	-0.000818811	
-0.00139073	-0.00231306	0.000980341	
7.21459e-05	-0.00195644	4.36408e-05	
-8.82783e-05	-0.00230267	7.172e-05	
0.000665923	-0.00231542	-0.000461572	
0.000863007	-0.00219113	-0.000558382	
3.31862e-05	-0.00226591	7.12219e-06	
0.000182699	-0.00225774	-9.21748e-05	
3.05602e-05	-0.00228526	1.08009e-05	
0.00177403	-0.00133663	-0.000787051	
0.000451375	-0.00186039	-0.000158644	
0.00131611	-0.00161164	-0.000635113	
0.000164519	-0.00182302	7.92711e-05	
1.23059e-05	-0.00227565	-5.68981e-06	
0.00274347	-0.00106928	-0.00117283	
3.1721e-06	-0.00230796	2.19268e-06	
0.0001031	-0.00234021	-6.06622e-05	
0.00358703	-3.63911e-05	-0.000531719	
5.44525e-05	-0.00224761	1.36707e-05	
0.00346835	-0.000422846	-0.000832271	
0.000910135	-0.00196399	-0.000563664	
-1.16835e-06	-0.00231224	4.53982e-06	
7.67488e-05	-0.00205882	1.11251e-05	
0.000250827	-0.0011611	0.000272474	
7.63647e-06	-0.00234578	3.92415e-05	
-0.00549354	-0.000355105	0.00205895	
-0.000233602	-0.00209658	6.85824e-05	
0.00012852	-0.00216468	-0.000149101	
-0.00867573	0.00131612	0.00177356	
0.000426527	-0.00234737	-0.000267236	
-7.21065e-05	-0.00212793	-2.54491e-05	
-0.000464558	-0.00234738	0.000335566	
0.000336649	-0.00233945	-0.000237508	
0.000406256	-0.00233737	-0.000292247	
-0.0011906	-0.00185842	0.000700597	
-0.000190228	-0.00230539	0.000108308	
-0.000882894	-0.00232407	0.000612071	
-0.000738307	-0.00218938	0.000469318	
-0.000502523	-0.00225004	0.000306156	
0.000234956	-0.0022888	-0.000200734	
-0.00341865	-0.00120927	0.00170365	
-0.00118172	-0.0017815	0.000651134	
-0.00134798	-0.00164089	0.000672321	
-5.89132e-05	-0.0022467	-1.48553e-05	
-0.000183411	-0.00162869	-9.71911e-05	
-3.71981e-05	-0.00229189	1.32425e-06	
-0.000271083	-0.00132552	-0.000258755	
-2.05939e-05	-0.00232681	2.12075e-06	
-0.000140458	-0.00179791	-7.21408e-05	
-4.20257e-05	-0.0022692	-1.29893e-05	
-0.0161904	0.00369903	0.00199484	
-0.000908626	-0.00202024	0.000535943	
-0.000263419	-0.000961717	-0.000284848	
-0.000125105	-0.00199727	-1.27631e-05	
0.021934	0.00493019	-0.00229866	
0.00325512	-0.0011176	-0.00124298	
0.000666055	-0.00178281	-0.000298219	
-2.31155e-06	-0.00187513	5.38101e-05	
-3.68716e-05	-0.00207891	2.20321e-05	
4.76195e-05	-0.00183122	3.6688e-05	
0.00126299	-0.00205773	-0.00071641	
-0.00148564	-0.00205728	0.000848923	
0.000150486	-0.00165452	1.06882e-06	
-0.000100058	-0.00205005	6.5387e-05	
0.000729914	-0.00205539	-0.000407478	
0.000965348	-0.00192237	-0.000512433	
4.56594e-05	-0.00202651	-5.00639e-07	
0.000204037	-0.00202074	-8.92746e-05	
2.19781e-05	-0.00203789	1.06096e-05	
0.00194775	-0.00110847	-0.000615072	
0.000498509	-0.00156423	-0.000141595	
0.00144461	-0.00134587	-0.000481818	
0.000124249	-0.00153079	9.51884e-05	
1.39732e-05	-0.00202613	-6.25834e-06	
0.00298114	-0.000878638	-0.000875835	
6.46886e-07	-0.00205933	3.01227e-06	
0.00010232	-0.00207473	-4.64633e-05	
0.00373959	8.34618e-05	-0.000439973	
4.32437e-05	-0.00200335	1.8369e-05	
0.00366241	-0.000287459	-0.000692048	
0.00100224	-0.00167368	-0.000477669	
-2.58625e-06	-0.00205379	2.48297e-06	
5.56229e-05	-0.00175209	2.50414e-05	
0.00017383	-0.000960156	0.000289936	
-8.7162e-06	-0.00207974	4.27423e-05	
-0.00593933	-0.000260597	0.00166652	
-0.000296414	-0.00178862	7.1475e-05	
6.85276e-05	-0.00187016	-8.65867e-05	
-0.00913197	0.00144027	0.00154334	
0.000445629	-0.00208433	-0.000227899	
-4.93168e-05	-0.0018264	-4.73568e-05	
-0.000499904	-0.00208536	0.00029666	
0.000348159	-0.00208153	-0.000198449	
0.000427701	-0.00207458	-0.000243718	
-0.00135128	-0.00158076	0.000625196	
-0.000206136	-0.00204636	9.05397e-05	
-0.000954803	-0.00205997	0.000525602	
-0.000831282	-0.0019147	0.000440199	
-0.000552783	-0.00200797	0.000278683	
0.000250529	-0.00203286	-0.000168922	
-0.00379847	-0.000999156	0.00137306	
-0.00127251	-0.00150542	0.000567831	
-0.00154974	-0.0013621	0.000559304	
-4.79546e-05	-0.00199536	-1.36554e-05	
-0.000129949	-0.00136037	-0.000134072	
-3.09889e-05	-0.0020339	-7.4459e-06	
-0.000178862	-0.0010999	-0.000277809	
-1.56451e-05	-0.00206084	-4.57272e-06	
-0.000102775	-0.00151178	-8.42532e-05	
-2.94053e-05	-0.0020226	-1.42979e-05	
-0.0167893	0.00364363	0.00181627	
-0.000980174	-0.00172008	0.000469839	
-0.000195392	-0.000799134	-0.000279624	
-8.44795e-05	-0.00169287	-5.57947e-05	
0.0227231	0.00469596	-0.00209787	
0.0034529	-0.00095681	-0.00122474	
0.000768031	-0.00157471	-0.000283037	
8.19598e-05	-0.00166143	1.50684e-05	
-3.97654e-05	-0.00188236	2.23363e-05	
4.0781e-05	-0.00162144	4.21433e-05	
0.00133171	-0.00187471	-0.000613885	
-0.00154629	-0.00187562	0.000728974	
0.000255101	-0.00145771	-3.17174e-05	
-9.22959e-05	-0.00183887	5.15515e-05	
0.000783936	-0.00185807	-0.000363772	
0.0010678	-0.00170849	-0.000459227	
6.93241e-05	-0.00181852	-1.0076e-05	
0.000235463	-0.00180641	-7.98226e-05	
1.85301e-05	-0.001826	1.41266e-05	
0.00205986	-0.000954706	-0.000612205	
0.000543504	-0.00137413	-0.000133648	
0.00152496	-0.00117252	-0.000491636	
0.000103949	-0.00134517	0.000100676	
9.80224e-06	-0.00182885	-2.51968e-07	
0.00311424	-0.000757518	-0.000869331	
1.492e-06	-0.00187419	5.03148e-06	
0.000107705	-0.0018751	-3.63454e-05	
0.00387461	0.000135432	-0.000443121	
3.36943e-05	-0.00178452	2.86093e-05	
0.00381255	-0.000174028	-0.000735312	
0.00108658	-0.00147691	-0.000436884	
1.24188e-06	-0.00186072	1.73771e-06	
4.39917e-05	-0.00154789	3.88317e-05	
0.000146455	-0.000847484	0.000258366	
-1.83188e-05	-0.00187898	4.28952e-05	
-0.00621988	-0.000133795	0.00171385	
-0.000376498	-0.00158442	8.92232e-05	
-1.04921e-05	-0.00166208	-4.50689e-05	
-0.00953968	0.00138638	0.00146841	
0.000472101	-0.00188608	-0.000195285	
-4.38258e-05	-0.00162182	-4.61659e-05	
-0.000528705	-0.001894	0.000258893	
0.000355358	-0.00189063	-0.000165807	
0.000428648	-0.00188614	-0.000208737	
-0.00151899	-0.00139557	0.000586709	
-0.000239747	-0.00183791	8.68081e-05	
-0.00101246	-0.00186222	0.00046126	
-0.000928969	-0.00170631	0.000395442	
-0.000613394	-0.00179952	0.000254563	
0.000259366	-0.00182447	-0.000151482	
-0.00401911	-0.00084406	0.00138397	
-0.00137495	-0.00132907	0.000489695	
-0.00169186	-0.00118638	0.000584466	
-3.67559e-05	-0.00178316	-2.82347e-05	
-0.000110145	-0.00119415	-0.000127799	
-2.26393e-05	-0.00183641	-1.64358e-05	
-0.000152051	-0.000971257	-0.000250431	
-1.28537e-05	-0.00186547	-9.27518e-06	
-8.73681e-05	-0.00133181	-8.91388e-05	
-2.33361e-05	-0.00181986	-2.12523e-05	
-0.0173484	0.00343621	0.00160993	
-0.00105468	-0.00152551	0.000403806	
-0.000164617	-0.000706727	-0.000251984	
-7.15738e-05	-0.00150328	-5.99344e-05	
0.0234374	0.00461024	-0.00227604	
0.00382642	-0.00111637	-0.00134741	
0.000833429	-0.00172323	-0.000298544	
0.00018068	-0.0018116	-2.13865e-05	
-2.10969e-05	-0.00194621	1.48144e-05	
4.51679e-05	-0.00176132	4.95299e-05	
0.00133529	-0.00193228	-0.000608757	
-0.00159669	-0.00196722	0.000748798	
0.000308933	-0.0016785	-3.7521e-05	
-9.72701e-05	-0.00195737	5.55329e-05	
0.000826438	-0.00196764	-0.000380601	
0.00111252	-0.00184566	-0.00046991	
0.000129834	-0.00193032	-3.70364e-05	
0.000247229	-0.00189813	-8.19649e-05	
2.00486e-05	-0.00194859	1.59219e-05	
0.0022433	-0.00106059	-0.000651235	
0.000585997	-0.00163358	-0.000124276	
0.00162416	-0.00145493	-0.000497742	
0.00012512	-0.00162268	0.000126156	
1.098e-05	-0.00193042	1.48485e-06	
0.00328584	-0.000816566	-0.000905048	
1.91879e-06	-0.00194229	4.79575e-06	
0.00010459	-0.00194437	-3.37974e-05	
0.00402941	0.000139932	-0.000502886	
3.58645e-05	-0.00189456	3.2253e-05	
0.00398682	-0.000174998	-0.000801806	
0.00112772	-0.00166636	-0.000439089	
2.00333e-06	-0.00197932	2.24641e-06	
4.99497e-05	-0.00171492	4.81738e-05	
0.000151436	-0.000886155	0.000263332	
-2.90232e-05	-0.00194085	4.91859e-05	
-0.00653954	-0.000128864	0.00183746	
-0.000432195	-0.00174808	9.98881e-05	
-0.000104794	-0.00183136	-1.08436e-05	
-0.00991663	0.0014184	0.00157338	
0.000474486	-0.00194019	-0.000195529	
-4.93435e-05	-0.00177687	-5.65974e-05	
-0.000525199	-0.00194046	0.000256005	
0.000388349	-0.00194345	-0.000180311	
0.000439345	-0.00197666	-0.000212949	
-0.00159465	-0.0016449	0.000597453	
-0.000248676	-0.00196876	8.74482e-05	
-0.00104457	-0.00198214	0.000471694	
-0.000967287	-0.00185809	0.000402678	
-0.000668809	-0.00190139	0.000274348	
0.000239947	-0.0019563	-0.000143188	
-0.0043343	-0.000926965	0.00147641	
-0.00146261	-0.00160654	0.000496315	
-0.00199069	-0.00136224	0.000688413	
-3.91144e-05	-0.0019004	-3.22607e-05	
-0.000122794	-0.00134074	-0.000146496	
-2.41719e-05	-0.0019461	-1.74056e-05	
-0.000158491	-0.00102353	-0.000257799	
-1.43346e-05	-0.0019825	-9.54933e-06	
-0.000105706	-0.00161632	-0.000113033	
-2.49938e-05	-0.00194331	-2.37558e-05	
-0.0178437	0.00336779	0.00170627	
-0.00109183	-0.00171286	0.000402375	
-0.000166063	-0.00072237	-0.000248401	
-8.28437e-05	-0.00171017	-7.49974e-05	
0.0240763	0.00462001	-0.00245377	
0.0040646	-0.000989721	-0.00145617	
0.000990483	-0.00183303	-0.000357929	
0.000246434	-0.0019453	-4.56448e-05	
3.29037e-05	-0.00220059	-9.81452e-06	
4.98142e-05	-0.00190944	5.75526e-05	
0.00133599	-0.00219522	-0.000598734	
-0.00151397	-0.00218753	0.000703539	
0.000517758	-0.00166029	-0.000128991	
-6.01447e-05	-0.00211394	3.90956e-05	
0.000828453	-0.00211822	-0.000377454	
0.0011367	-0.00196277	-0.000473146	
0.000177147	-0.00206425	-5.80405e-05	
0.000308345	-0.00204859	-0.000107684	
2.15506e-05	-0.00208635	1.67256e-05	
0.00239154	-0.000968526	-0.000712106	
0.000644526	-0.00150917	-0.000159574	
0.00169845	-0.001274	-0.000553841	
0.000111871	-0.00146308	0.00011178	
1.2692e-05	-0.0021058	1.92282e-06	
0.00343107	-0.000730998	-0.000976231	
2.40423e-06	-0.0022002	6.25903e-06	
0.000112309	-0.00223728	-3.59258e-05	
0.00415396	0.000214142	-0.000582749	
3.74496e-05	-0.0019982	3.34114e-05	
0.00414066	-8.63508e-05	-0.000896833	
0.00118436	-0.00170093	-0.000454096	
2.38553e-06	-0.00212223	2.9619e-06	
5.32257e-05	-0.00177301	5.39626e-05	
0.000138571	-0.000825381	0.000232328	
-7.46803e-05	-0.00224322	7.58165e-05	
-0.00683513	-2.65881e-05	0.00198052	
-0.000596228	-0.0018434	0.000166755	
-0.000217892	-0.00197842	3.37128e-05	
-0.0102515	0.00150039	0.0017138	
0.000470575	-0.00220819	-0.000189418	
-5.48705e-05	-0.00193229	-6.35703e-05	
-0.000496891	-0.00220305	0.000240443	
0.00037539	-0.00222485	-0.000172431	
0.000377988	-0.00221685	-0.000182224	
-0.00182967	-0.00160017	0.000697292	
-0.000292712	-0.00214041	0.000104811	
-0.00104853	-0.00215148	0.000468985	
-0.00096339	-0.00203298	0.000388889	
-0.000738934	-0.00207568	0.000300903	
0.00021063	-0.00211691	-0.000131083	
-0.00461219	-0.000833099	0.0015904	
-0.00156215	-0.00146515	0.000548086	
-0.00216939	-0.00125094	0.000774397	
-4.19428e-05	-0.00203933	-3.54778e-05	
-0.000114038	-0.00125976	-0.000135009	
-2.69325e-05	-0.00213904	-1.97053e-05	
-0.000146173	-0.000960467	-0.0002297	
-1.59019e-05	-0.002157	-1.00352e-05	
-9.2837e-05	-0.00144012	-0.000100038	
-2.6897e-05	-0.00209774	-2.58736e-05	
-0.0182855	0.00338798	0.00175307	
-0.00113923	-0.00176077	0.000416171	
-0.000150871	-0.000665955	-0.000218168	
-8.52877e-05	-0.00174201	-7.85263e-05	
0.024597	0.00463713	-0.00272983	
0.0042249	-0.000700043	-0.0015607	
0.0010157	-0.00142272	-0.000386645	
0.000301068	-0.00143741	-8.80586e-05	
4.32465e-05	-0.00160191	-1.64584e-05	
3.7338e-05	-0.00143709	4.36307e-05	
0.00137937	-0.00155491	-0.000618409	
-0.00155157	-0.0015203	0.000713897	
0.000592673	-0.00123539	-0.000187194	
-3.92216e-05	-0.00148746	2.61227e-05	
0.000889219	-0.00155516	-0.000405862	
0.00112351	-0.00149219	-0.000475754	
0.000185843	-0.00145743	-7.01725e-05	
0.000262728	-0.00145812	-9.67068e-05	
1.49414e-05	-0.00146698	1.1565e-05	
0.00248897	-0.000722103	-0.000793492	
0.000668694	-0.00119052	-0.000196599	
0.0017801	-0.000963092	-0.000628461	
8.67232e-05	-0.00116797	8.61089e-05	
9.21052e-06	-0.00148115	1.81253e-06	
0.00351849	-0.000519727	-0.00107025	
1.86814e-06	-0.00152122	3.94319e-06	
0.000124846	-0.00156463	-4.70891e-05	
0.00424349	0.000316361	-0.000686895	
2.71862e-05	-0.00150079	2.51288e-05	
0.0042397	4.39549e-05	-0.00100625	
0.00130533	-0.00126574	-0.000520378	
1.96166e-06	-0.00154926	2.79316e-06	
4.25123e-05	-0.00141402	4.30448e-05	
0.000107778	-0.000666159	0.000175795	
-3.43184e-05	-0.00158126	4.18847e-05	
-0.0070643	0.000106841	0.00212689	
-0.000667443	-0.00153816	0.000216202	
-0.000286933	-0.00160667	7.65435e-05	
-0.01054	0.00157422	0.0018697	
0.000470469	-0.00163292	-0.000197224	
-4.42071e-05	-0.00155872	-4.98609e-05	
-0.000528493	-0.00163649	0.000251813	
0.000372057	-0.00160603	-0.000171255	
0.000422994	-0.00160691	-0.000201162	
-0.00189865	-0.00125945	0.000745848	
-0.000298368	-0.00162386	0.000113514	
-0.00107023	-0.00166942	0.00048176	
-0.000990193	-0.00162651	0.00040785	
-0.000682098	-0.00162433	0.000282074	
0.000219105	-0.0016162	-0.000125754	
-0.00486788	-0.000660594	0.00172612	
-0.00157821	-0.00124508	0.000572883	
-0.00235484	-0.00119128	0.000861256	
-3.28137e-05	-0.00167569	-2.9503e-05	
-9.7545e-05	-0.00110875	-0.000113094	
-2.0451e-05	-0.00161224	-1.4813e-05	
-0.000121766	-0.000827475	-0.000185695	
-1.20773e-05	-0.00164654	-8.14995e-06	
-8.03254e-05	-0.00129273	-8.49688e-05	
-2.04525e-05	-0.00162271	-1.95561e-05	
-0.0186739	0.00337763	0.00191824	
-0.00124056	-0.00146003	0.000479028	
-0.000128952	-0.000587329	-0.000180819	
-6.68385e-05	-0.00137828	-6.15989e-05	
0.0252073	0.00447208	-0.00302296	
0.00432692	-0.000870597	-0.00157914	
0.00121648	-0.00139194	-0.000473395	
0.000338011	-0.00155419	-9.77633e-05	
5.43231e-05	-0.00135605	-2.18919e-05	
3.84062e-05	-0.00151551	4.75691e-05	
0.00136578	-0.00135175	-0.000607083	
-0.00162315	-0.00140568	0.000737719	
0.000710598	-0.0012477	-0.000239134	
-6.58049e-05	-0.00151209	3.91736e-05	
0.000833934	-0.00148466	-0.000375189	
0.00113293	-0.00153961	-0.000473369	
0.0001536	-0.00153208	-5.37017e-05	
0.000266972	-0.00155683	-9.56435e-05	
1.55688e-05	-0.00151914	1.17658e-05	
0.00261712	-0.000843458	-0.000821885	
0.000707691	-0.00117429	-0.000217848	
0.00184064	-0.00099268	-0.000658483	
8.20639e-05	-0.0011542	8.07208e-05	
9.84732e-06	-0.00148442	3.22755e-06	
0.00366203	-0.000646817	-0.00110107	
1.62135e-06	-0.0013819	2.88438e-06	
0.000129951	-0.00136031	-5.22417e-05	
0.00438626	0.000243514	-0.000743477	
2.69435e-05	-0.00155914	2.74489e-05	
0.00440354	-3.49672e-05	-0.00107184	
0.0013461	-0.00127336	-0.000534883	
2.07828e-06	-0.00143662	2.71828e-06	
3.92319e-05	-0.00133629	4.1832e-05	
0.000119771	-0.00078058	0.000190529	
-4.18079e-05	-0.00136668	3.89348e-05	
-0.0072904	0.00013676	0.00225639	
-0.00079547	-0.00119161	0.000292164	
-0.000352351	-0.00126609	0.000118157	
-0.0108375	0.00156503	0.00202799	
0.0004793	-0.00136776	-0.000204837	
-3.5255e-05	-0.00126762	-4.05994e-05	
-0.00052046	-0.00137501	0.000243185	
0.000403925	-0.00138624	-0.000185088	
0.000461371	-0.0014175	-0.000218421	
-0.00200702	-0.000994619	0.00080581	
-0.000352754	-0.00152314	0.000138911	
-0.000975978	-0.00149965	0.000434609	
-0.00104112	-0.0013276	0.00043627	
-0.000759781	-0.00143886	0.000319802	
0.000187334	-0.0014936	-0.000107574	
-0.00499458	-0.000575703	0.00179982	
-0.00162743	-0.000950237	0.000617972	
-0.00236571	-0.000807022	0.000909119	
-2.54167e-05	-0.00139505	-2.53161e-05	
-7.80242e-05	-0.000931133	-8.80496e-05	
-1.91113e-05	-0.00153116	-1.41114e-05	
-0.000110366	-0.000792596	-0.000165371	
-1.05057e-05	-0.00144972	-7.45518e-06	
-5.63744e-05	-0.000965046	-6.01046e-05	
-1.77369e-05	-0.00146615	-1.72477e-05	
-0.0190405	0.003284	0.00210866	
-0.00126363	-0.00111607	0.000505133	
-0.00011914	-0.000570957	-0.0001623	
-5.21441e-05	-0.00111337	-4.79248e-05	
0.025719	0.00424255	-0.00339147	
0.00449407	-0.000694543	-0.00167841	
0.00131142	-0.0013604	-0.000515893	
0.000399515	-0.0014064	-0.000130614	
0.000149928	-0.00186036	-6.53238e-05	
3.34916e-05	-0.0013872	4.20695e-05	
0.00138434	-0.0017949	-0.00060785	
-0.00158514	-0.00173891	0.000714011	
0.000860402	-0.0011416	-0.000312563	
9.48032e-05	-0.0016199	-3.02325e-05	
0.000870283	-0.00173248	-0.00038743	
0.00114612	-0.00144228	-0.000478367	
0.000202002	-0.00153389	-7.53022e-05	
0.000329473	-0.00152571	-0.000124792	
1.55563e-05	-0.00156614	1.16554e-05	
0.00271413	-0.000679405	-0.000895381	
0.000711818	-0.00107592	-0.000230924	
0.00188637	-0.000931404	-0.000693104	
7.19734e-05	-0.00108281	7.09692e-05	
1.08897e-05	-0.00170152	5.86364e-06	
0.00373331	-0.000481597	-0.00118459	
2.1896e-06	-0.00178459	3.39336e-06	
0.00012761	-0.00187527	-4.82953e-05	
0.00446831	0.000297692	-0.000846432	
2.37138e-05	-0.00147088	2.73225e-05	
0.00450101	5.80312e-05	-0.00118151	
0.00141618	-0.00120837	-0.000565227	
2.92263e-06	-0.00174569	3.76934e-06	
3.65157e-05	-0.00130188	3.97338e-05	
9.11477e-05	-0.000643319	0.000143302	
-8.7757e-05	-0.00187102	6.6586e-05	
-0.00751005	0.000145045	0.00238498	
-0.000929279	-0.00145239	0.000341469	
-0.0003171	-0.00148918	9.64171e-05	
-0.0111087	0.00147162	0.0022071	
0.000408765	-0.00183463	-0.00016697	
-3.88801e-05	-0.00149021	-4.59485e-05	
-0.000537628	-0.00176803	0.000249151	
0.000317233	-0.00174859	-0.000143192	
0.000447196	-0.00167072	-0.000211001	
-0.0021654	-0.00116749	0.000863173	
-0.000499283	-0.00147082	0.000203724	
-0.00107093	-0.00162026	0.000472964	
-0.0010157	-0.00144599	0.000420181	
-0.000766057	-0.0014448	0.000321069	
0.000182617	-0.00143683	-0.000103695	
-0.00533252	-0.00060859	0.00193887	
-0.00165949	-0.00111857	0.000619797	
-0.00243042	-0.00101406	0.000918544	
-2.37185e-05	-0.00143501	-2.59378e-05	
-8.66029e-05	-0.00111589	-9.82444e-05	
-1.96032e-05	-0.00155792	-1.45741e-05	
-9.99868e-05	-0.000778217	-0.000148772	
-1.20035e-05	-0.00165529	-8.96769e-06	
-6.26471e-05	-0.00116658	-6.78662e-05	
-1.64612e-05	-0.0014363	-1.62345e-05	
-0.0194296	0.00306883	0.00235207	
-0.00134109	-0.00134783	0.000528663	
-0.000108143	-0.000558132	-0.000144523	
-5.80619e-05	-0.0013091	-5.37466e-05	
0.0261206	0.00392439	-0.00375798	
0.00445789	-0.00033767	-0.0017128	
0.00132225	-0.000832148	-0.000540944	
0.000571095	-0.000908666	-0.000225274	
6.02018e-05	-0.00119013	-2.61658e-05	
1.89028e-05	-0.000868755	2.45511e-05	
0.00142534	-0.00124544	-0.000626208	
-0.00160569	-0.00127899	0.000717372	
0.000873321	-0.000780769	-0.000337743	
9.83239e-05	-0.00116574	-3.5627e-05	
0.000949284	-0.00118675	-0.000422559	
0.00125129	-0.00102554	-0.000532786	
0.000241116	-0.00114618	-9.83697e-05	
0.000311721	-0.00112015	-0.000123967	
1.10551e-05	-0.00115571	8.53522e-06	
0.00279702	-0.000475061	-0.000967063	
0.000783188	-0.000755589	-0.00028743	
0.00194562	-0.000530478	-0.000760859	
4.14669e-05	-0.000692675	4.16906e-05	
7.53204e-06	-0.00115282	4.80561e-06	
0.00379254	-0.000303824	-0.00126251	
1.52984e-06	-0.00121875	2.23308e-06	
0.000129761	-0.00116505	-5.285e-05	
0.00452294	0.000341903	-0.000955851	
1.64091e-05	-0.00113829	1.98467e-05	
0.00456268	0.000149899	-0.00128707	
0.0014886	-0.000763603	-0.000611542	
2.43192e-06	-0.00122666	3.89275e-06	
2.18553e-05	-0.000860768	2.40342e-05	
6.00954e-05	-0.000474465	9.50436e-05	
-6.64282e-05	-0.00117141	4.51211e-05	
-0.007628	0.000283123	0.00253144	
-0.000921035	-0.000852588	0.000368796	
-0.000473516	-0.000921007	0.000186825	
-0.0112888	0.00145188	0.00240881	
0.000490444	-0.00120214	-0.000210275	
-2.08087e-05	-0.000882301	-2.5505e-05	
-0.000575053	-0.00127819	0.000264112	
0.000369162	-0.0012461	-0.000167042	
0.000389205	-0.00129609	-0.000181875	
-0.00221616	-0.00072913	0.00090801	
-0.000520465	-0.00115592	0.000216176	
-0.0011613	-0.0011868	0.000513651	
-0.00111397	-0.00102754	0.000474036	
-0.000763709	-0.0011111	0.000324238	
0.000168945	-0.00114518	-9.11973e-05	
-0.00536158	-0.000277728	0.0020204	
-0.00174863	-0.000709858	0.000686519	
-0.00251444	-0.000512938	0.00100324	
-1.65391e-05	-0.00113675	-1.99063e-05	
-4.04425e-05	-0.000584257	-4.77758e-05	
-1.41353e-05	-0.00115276	-1.05236e-05	
-6.09171e-05	-0.000530423	-9.10613e-05	
-8.96365e-06	-0.00123697	-6.39684e-06	
-3.24697e-05	-0.000681332	-3.58948e-05	
-1.19518e-05	-0.00113155	-1.19418e-05	
-0.0197152	0.00289273	0.00262992	
-0.0013999	-0.000853078	0.000580558	
-6.98808e-05	-0.000399598	-9.07331e-05	
-3.30786e-05	-0.000814389	-3.1214e-05	
0.0267072	0.00339298	-0.00410711	
0.00457521	-0.000655896	-0.00174082	
0.00139167	-0.00125069	-0.00055584	
0.000627693	-0.00129508	-0.0002427	
-3.03045e-05	-0.00148944	1.44537e-05	
2.4299e-05	-0.00128451	3.26129e-05	
0.00141353	-0.00153825	-0.000616632	
-0.00150997	-0.00151481	0.000669427	
0.00113545	-0.00116726	-0.000438752	
6.42364e-05	-0.00147712	-1.8399e-05	
0.000990878	-0.00145342	-0.000437301	
0.00130211	-0.00132089	-0.000548038	
0.000240501	-0.00149165	-9.65228e-05	
0.000431622	-0.00147455	-0.000173721	
1.26516e-05	-0.0014666	9.33404e-06	
0.00283179	-0.000694626	-0.000965112	
0.000847955	-0.00101574	-0.000304226	
0.00203255	-0.000839762	-0.000780701	
5.13438e-05	-0.000985375	5.28573e-05	