<VTKFile type="UnstructuredGrid" version="0.1" byte_order="LittleEndian">
	<UnstructuredGrid>
		<Piece NumberOfPoints="1260" NumberOfCells="1260">
			<CellData Scalars="scalars">
				<DataArray type="Float64" Name="Strength" NumberOfComponents="3" Format="ascii">
0.0170913	-0.0109572	0.00123395	
0.00179416	-0.0235856	0.00392768	
0.000675228	-0.0252168	0.00119876	
-9.44369e-05	-0.0264598	0.00134584	
-0.000562058	-0.0260701	0.000473714	
0.000392067	-0.0257989	0.00114054	
0.00100647	-0.026461	-0.000445935	
-0.00134711	-0.0257224	0.00105155	
-4.74555e-05	-0.0250578	0.00260223	
0.000197308	-0.0254722	0.000289493	
0.000822691	-0.0264119	-0.000378535	
0.00104162	-0.0254481	0.000339987	
0.000157711	-0.0267961	0.000635143	
0.000443626	-0.0262957	0.000634259	
0.000263742	-0.0261033	0.000483925	
0.000464881	-0.0219416	0.005785	
0.000600303	-0.0253742	0.0028304	
0.000919328	-0.0241166	0.0038559	
0.000407731	-0.0251573	0.00369217	
0.000238254	-0.0259193	0.000101774	
0.00116063	-0.0207492	0.00691154	
-3.99244e-05	-0.0252147	0.000189567	
-0.000247416	-0.0259908	0.000278105	
0.00284956	-0.0140921	0.0069394	
0.00040718	-0.0261621	0.000824348	
0.00175575	-0.0163879	0.00776023	
0.00105638	-0.0249492	0.00131905	
0.000150807	-0.0267207	-4.30442e-05	
0.000474682	-0.0256268	0.00160498	
-0.000671147	-0.0183003	0.00833575	
-2.18047e-05	-0.026027	0.000422262	
-0.00308759	-0.0186034	-0.00708998	
-0.000354074	-0.0254585	-0.00169982	
2.04012e-05	-0.0264386	-0.00134448	
-0.00671223	-0.0144683	-0.00601596	
0.000359519	-0.0262258	-5.66602e-05	
-0.000392836	-0.0258899	-0.00124248	
-0.000624859	-0.0267047	0.000336055	
0.000336048	-0.0261585	-0.000280159	
0.000555572	-0.0265904	-0.000442511	
-0.000793009	-0.0248012	-0.0022561	
-6.60709e-05	-0.025559	-0.000431036	
-0.000812004	-0.0265631	0.000243089	
-0.000974179	-0.0255416	-0.000481197	
-0.000874044	-0.0261702	-0.000445071	
0.000301549	-0.0260958	-0.000825327	
-0.00183891	-0.0220379	-0.00508784	
-0.00106254	-0.0248028	-0.00261978	
-0.000680429	-0.0235569	-0.00362635	
-0.000513141	-0.0260877	-0.000858288	
5.66023e-05	-0.0234307	-0.00486054	
-1.62407e-05	-0.0260157	-0.000425979	
0.000297138	-0.0201135	-0.00794303	
4.04253e-05	-0.0270965	-0.000210197	
-0.000305939	-0.0241303	-0.00350959	
-0.000204444	-0.0265995	-0.000716156	
-0.0136842	-0.011197	-0.00184564	
-0.000914184	-0.0260326	-0.00153163	
-5.30843e-05	-0.0159985	-0.00889232	
-0.000318935	-0.0252908	-0.00228354	
0.0184821	0.000474168	-0.00359877	
0.00222493	-0.00413528	-0.00080727	
0.000381184	-0.00486743	-2.32952e-06	
-0.00020456	-0.00492679	0.000431961	
-0.000150009	-0.00520968	0.00018665	
9.85041e-05	-0.00489676	0.000187245	
0.00100001	-0.0051217	-0.000860327	
-0.00121285	-0.00513001	0.00113986	
-0.000200251	-0.00464424	0.000677334	
-6.59837e-05	-0.00511249	0.000109848	
0.000563066	-0.00506723	-0.000500707	
0.000696556	-0.00507049	-0.00042802	
-4.8877e-05	-0.00505045	0.00016695	
0.00014185	-0.00510368	2.85831e-05	
3.45284e-05	-0.0050732	8.5019e-05	
0.00136064	-0.00379904	0.000151509	
0.000335145	-0.00453931	0.000331899	
0.00103768	-0.00421909	3.71305e-05	
0.000234396	-0.0044506	0.000616277	
2.36509e-05	-0.0049621	-3.69407e-07	
0.00221673	-0.0035181	-0.000163628	
-1.00179e-05	-0.00503743	3.33651e-05	
4.80059e-05	-0.0052358	7.31056e-06	
0.00310649	-0.00185505	0.000130594	
7.93654e-05	-0.00513891	0.00013987	
0.00285967	-0.00244867	7.53507e-05	
0.000693164	-0.00474408	-0.000208514	
5.59894e-07	-0.00509923	-3.04769e-06	
0.000107191	-0.00481649	0.000264049	
0.000327824	-0.00290919	0.00114316	
2.51054e-05	-0.00526674	9.1521e-05	
-0.00438462	-0.00312014	0.000978997	
-8.29192e-05	-0.00489799	-0.000311968	
0.000259546	-0.00495439	-0.000472947	
-0.00732832	-0.00165164	0.00138653	
0.000378083	-0.00525033	-0.000289455	
-7.98228e-05	-0.00491141	-0.000219314	
-0.000416514	-0.00520926	0.000407632	
0.000319505	-0.00516804	-0.000300296	
0.000396187	-0.00518608	-0.000387953	
-0.000750185	-0.00459886	5.2962e-05	
-0.000125418	-0.00511949	1.52191e-05	
-0.000743539	-0.00518255	0.000626831	
-0.000574803	-0.00503485	0.000308854	
-0.000423486	-0.00508911	0.000190225	
0.000278715	-0.00504061	-0.000392073	
-0.00256172	-0.00394317	0.000752437	
-0.00091339	-0.00451406	9.85612e-05	
-0.0008791	-0.00429405	-0.000119215	
-8.33728e-05	-0.00513381	-0.00015298	
-0.000271149	-0.00398073	-0.000767946	
-3.92975e-05	-0.00505139	-6.21117e-05	
-0.000386731	-0.00330122	-0.00114906	
-1.82014e-05	-0.00516198	-3.70977e-05	
-0.000220439	-0.00432429	-0.000595788	
-3.78531e-05	-0.00505703	-0.000120442	
-0.014324	-0.000138165	0.00300627	
-0.000708077	-0.00487479	0.00019474	
-0.000364866	-0.00235438	-0.00111605	
-0.000141657	-0.00473033	-0.00038693	
0.019161	0.00372542	-0.00327948	
0.00235112	-0.00146191	-0.00153376	
0.000389177	-0.00210717	-0.000198416	
-0.000156502	-0.00217276	0.000274527	
-8.48697e-05	-0.0023532	0.000102702	
7.36092e-05	-0.00213667	6.22372e-05	
0.00104306	-0.00231885	-0.000905452	
-0.00124083	-0.00231317	0.00112501	
-0.000135003	-0.0019846	0.00033529	
-7.65863e-05	-0.0023051	0.000101519	
0.000569239	-0.00231137	-0.00051059	
0.000712435	-0.00222414	-0.000553574	
-2.69985e-05	-0.00226733	9.46623e-05	
0.000143422	-0.0022769	-4.55856e-05	
2.95535e-05	-0.00229303	4.08232e-05	
0.00145945	-0.00142539	-0.000660536	
0.00035268	-0.00191879	-4.12402e-05	
0.00109089	-0.00168867	-0.000550629	
0.000207922	-0.00187477	0.000173381	
1.31255e-05	-0.00226423	6.01508e-06	
0.00235142	-0.00118755	-0.00106176	
4.49916e-07	-0.00230218	1.08221e-05	
8.97022e-05	-0.00236298	-4.53957e-05	
0.00318931	-0.000267003	-0.000395294	
6.14257e-05	-0.00227732	5.67991e-05	
0.00302151	-0.000605715	-0.00062988	
0.000706259	-0.0020343	-0.00046827	
-1.03611e-05	-0.002313	5.26202e-06	
7.3762e-05	-0.00208819	8.55038e-05	
0.000285594	-0.00119633	0.000337229	
2.84388e-05	-0.00237293	3.83977e-05	
-0.00465638	-0.000586173	0.00189737	
-0.000101182	-0.00212785	-9.20025e-05	
0.00021874	-0.00217665	-0.000323649	
-0.00764626	0.000745527	0.00169485	
0.000391358	-0.00236745	-0.000316413	
-7.12497e-05	-0.00214553	-7.85837e-05	
-0.000407028	-0.00236357	0.000393541	
0.000314817	-0.00235727	-0.000290405	
0.000374701	-0.00235656	-0.00035852	
-0.000845503	-0.00195495	0.00048162	
-0.000151357	-0.0023182	8.04297e-05	
-0.000773592	-0.002339	0.000677745	
-0.000593742	-0.00222345	0.000440163	
-0.000412883	-0.00227476	0.000276539	
0.000249998	-0.00229615	-0.000304016	
-0.00274719	-0.00131051	0.00165768	
-0.000952204	-0.00188891	0.000521698	
-0.000989483	-0.00172842	0.000484406	
-6.19929e-05	-0.00227682	-6.43779e-05	
-0.000249035	-0.00164881	-0.000183443	
-4.59452e-05	-0.00229593	-1.83725e-05	
-0.000329362	-0.00133985	-0.000326642	
-2.18509e-05	-0.00234111	-6.96116e-06	
-0.000178547	-0.00183055	-0.000168646	
-4.03706e-05	-0.00227359	-5.17032e-05	
-0.0148292	0.00267303	0.00273893	
-0.000735504	-0.00210241	0.00045738	
-0.000268826	-0.000976998	-0.000346285	
-0.000129304	-0.00205061	-0.000113323	
0.020133	0.00511296	-0.00224401	
0.00267697	-0.00151671	-0.00166774	
0.000511407	-0.00236799	-0.000268862	
-8.54203e-05	-0.00245493	0.000187009	
-5.43863e-05	-0.00261278	4.85293e-05	
0.000101608	-0.00241335	3.69511e-05	
0.00112428	-0.00257626	-0.000874475	
-0.00131587	-0.00257599	0.00106521	
-1.25628e-05	-0.00223262	0.000227026	
-8.44456e-05	-0.00259482	9.40966e-05	
0.000613368	-0.00259156	-0.000482986	
0.000810684	-0.00248169	-0.000562291	
1.51511e-05	-0.00255945	4.92551e-05	
0.000176797	-0.00255264	-7.08049e-05	
4.40365e-05	-0.00258048	3.03452e-05	
0.00166675	-0.00152038	-0.000848967	
0.000440542	-0.00213674	-0.000120269	
0.00125595	-0.00185533	-0.000655179	
0.000251468	-0.0020937	0.000121654	
1.33147e-05	-0.00255327	-1.05073e-07	
0.0025996	-0.0012187	-0.0011998	
6.64663e-06	-0.00257564	7.61343e-06	
0.000107734	-0.00261017	-6.60773e-05	
0.00344233	-0.000174092	-0.000406417	
7.98583e-05	-0.00254171	3.67912e-05	
0.00331176	-0.000572766	-0.000691043	
0.00078741	-0.00227424	-0.000509475	
-8.4134e-06	-0.00258089	1.0384e-05	
0.000117719	-0.00234171	4.30094e-05	
0.000359636	-0.0013459	0.000330762	
3.34628e-05	-0.00261506	3.38136e-05	
-0.00512951	-0.000442381	0.00203326	
-0.000209015	-0.00238423	-2.66897e-06	
0.000147666	-0.00245323	-0.000235423	
-0.00820879	0.00120776	0.00164924	
0.000420139	-0.00261649	-0.000299863	
-0.000106463	-0.00241501	-5.24037e-05	
-0.000432695	-0.00261938	0.000357317	
0.000326824	-0.00261338	-0.000267976	
0.000385132	-0.00261161	-0.000327999	
-0.00102143	-0.00216588	0.000618139	
-0.000178757	-0.00259924	9.70123e-05	
-0.000835895	-0.00259615	0.000652951	
-0.000685942	-0.00248651	0.000459285	
-0.000472299	-0.00254585	0.000292014	
0.000222117	-0.00258514	-0.000251646	
-0.00310219	-0.00134133	0.00182652	
-0.00110308	-0.00206271	0.000631124	
-0.00121182	-0.00189025	0.000638754	
-8.12081e-05	-0.00254127	-4.1969e-05	
-0.000289681	-0.00187311	-0.000106027	
-5.64637e-05	-0.00257093	2.91429e-06	
-0.000408131	-0.00152309	-0.000298552	
-2.84344e-05	-0.00259853	4.00016e-06	
-0.000215551	-0.00206113	-0.000108913	
-5.88911e-05	-0.00256094	-3.26745e-05	
-0.0155156	0.0038181	0.00185129	
-0.000833899	-0.00231891	0.000520632	
-0.000343435	-0.00111437	-0.000354338	
-0.000148041	-0.0022801	-9.35278e-05	
0.0210292	0.00538973	-0.00218747	
0.00291266	-0.00128716	-0.00162399	
0.000571482	-0.00207994	-0.000335714	
-5.10409e-05	-0.00216673	0.000115223	
-4.21245e-05	-0.00234204	2.66519e-05	
8.44553e-05	-0.00212844	1.79072e-05	
0.00114966	-0.00230934	-0.00086941	
-0.00134887	-0.00231107	0.00104015	
9.33444e-05	-0.00195538	4.3003e-05	
-8.18458e-05	-0.00230261	7.66082e-05	
0.000646847	-0.00231519	-0.000487886	
0.000851933	-0.00218657	-0.00059105	
4.03896e-05	-0.00226562	7.90983e-06	
0.000186784	-0.00225709	-9.68949e-05	
3.63389e-05	-0.00228501	1.26091e-05	
0.00178055	-0.0013006	-0.000830827	
0.000462544	-0.00185679	-0.000166233	
0.00132564	-0.00158958	-0.000669137	
0.000192475	-0.00181999	8.18624e-05	
1.38976e-05	-0.00227552	-5.09877e-06	
0.00274298	-0.00102033	-0.00121612	
4.39675e-06	-0.00230782	2.0761e-06	
0.000105114	-0.0023398	-6.59095e-05	
0.00360078	2.48914e-05	-0.000435739	
6.60563e-05	-0.00224713	1.33151e-05	
0.0034876	-0.00038592	-0.000769004	
0.000903213	-0.00195712	-0.000596468	
-1.07114e-06	-0.00231205	6.12816e-06	
9.2789e-05	-0.00205798	8.67449e-06	
0.000276833	-0.00114655	0.00030608	
1.40956e-05	-0.00234558	3.90827e-05	
-0.00550077	-0.000280278	0.00205156	
-0.000247802	-0.00209452	7.54781e-05	
0.000108847	-0.002165	-0.000157359	
-0.00868156	0.00150995	0.00159081	
0.000418266	-0.00234668	-0.000284096	
-8.71043e-05	-0.00212719	-2.61257e-05	
-0.000447	-0.00234774	0.00035477	
0.000327145	-0.00233907	-0.000252316	
0.000392826	-0.00233719	-0.000309808	
-0.00118894	-0.00184187	0.000744602	
-0.00019117	-0.00230484	0.000115187	
-0.000861192	-0.0023217	0.000649573	
-0.000731024	-0.0021856	0.000496251	
-0.000499083	-0.00224824	0.000323228	
0.000219508	-0.00228905	-0.000213077	
-0.00339957	-0.00115386	0.00177766	
-0.00117803	-0.00176891	0.000689757	
-0.00134879	-0.00162348	0.000710993	
-7.12216e-05	-0.00224619	-1.47751e-05	
-0.000215216	-0.00162467	-9.70979e-05	
-4.30721e-05	-0.00229167	2.64278e-06	
-0.000308527	-0.00131145	-0.000286039	
-2.41422e-05	-0.00232659	3.26621e-06	
-0.000166934	-0.00179538	-7.42599e-05	
-5.09555e-05	-0.00226885	-1.33002e-05	
-0.0161398	0.00408887	0.00165246	
-0.000906188	-0.00201215	0.000568256	
-0.000283542	-0.000944643	-0.000319841	
-0.000148752	-0.00199547	-9.60653e-06	
0.0218722	0.00544241	-0.0017327	
0.00326382	-0.00108103	-0.00125203	
0.000668302	-0.00177927	-0.000312331	
8.36678e-06	-0.00187483	5.6645e-05	
-3.3808e-05	-0.00207874	2.28311e-05	
5.78437e-05	-0.00183068	3.8048e-05	
0.00124035	-0.00205634	-0.000757322	
-0.00146075	-0.00205643	0.000891328	
0.0001632	-0.00165311	3.54565e-06	
-9.57857e-05	-0.00204997	6.87621e-05	
0.000719931	-0.00205497	-0.000425474	
0.000960338	-0.00191829	-0.000535164	
5.02352e-05	-0.00202622	1.13657e-06	
0.000207891	-0.00201999	-9.28133e-05	
2.64007e-05	-0.00203766	1.18102e-05	
0.00196109	-0.00108598	-0.000612419	
0.000508705	-0.00156085	-0.000139996	
0.00146012	-0.00133011	-0.000477983	
0.000143103	-0.00152801	0.000108892	
1.58711e-05	-0.00202595	-6.75047e-06	
0.00299329	-0.000843868	-0.000868876	
4.37328e-06	-0.0020592	-6.12432e-07	
0.00010323	-0.00207441	-4.93463e-05	
0.00374974	0.000154811	-0.000328551	
5.20179e-05	-0.00200293	1.94548e-05	
0.0036815	-0.00024428	-0.000605467	
0.0010013	-0.00166792	-0.000497842	
-2.74549e-06	-0.00205359	3.41253e-06	
6.67927e-05	-0.00175145	2.64754e-05	
0.000193203	-0.000943257	0.000329713	
-4.689e-06	-0.0020795	4.48399e-05	
-0.00596227	-0.000194582	0.00159479	
-0.000305393	-0.00178679	7.39259e-05	
5.69336e-05	-0.00187013	-9.12479e-05	
-0.00913101	0.0016425	0.00134771	
0.000441575	-0.00208378	-0.000238207	
-6.04629e-05	-0.0018258	-4.93769e-05	
-0.000489957	-0.00208529	0.00031157	
0.000343445	-0.00208116	-0.000208558	
0.000420671	-0.0020742	-0.000256934	
-0.00135255	-0.00156874	0.000650927	
-0.000206843	-0.00204593	9.45996e-05	
-0.000943729	-0.00205816	0.000550672	
-0.000828596	-0.00191097	0.000459534	
-0.000552418	-0.0020061	0.000290932	
0.000241474	-0.00203295	-0.000178307	
-0.00380476	-0.000968576	0.00137737	
-0.00127719	-0.00149286	0.000588873	
-0.0015604	-0.00134838	0.000562021	
-5.75841e-05	-0.0019949	-1.51518e-05	
-0.000149795	-0.00135643	-0.000150463	
-3.49181e-05	-0.00203367	-7.99977e-06	
-0.000204832	-0.00108465	-0.000316312	
-1.75506e-05	-0.00206063	-5.11675e-06	
-0.000121502	-0.00150964	-9.36218e-05	
-3.51305e-05	-0.00202231	-1.69014e-05	
-0.0167389	0.00405188	0.00142621	
-0.000981365	-0.00171397	0.000487911	
-0.000209042	-0.000780682	-0.000318796	
-0.00010085	-0.00169162	-5.90388e-05	
0.022665	0.00523755	-0.00143211	
0.00346059	-0.000919995	-0.00123067	
0.000771831	-0.00157177	-0.000286957	
8.96845e-05	-0.00166073	1.95963e-05	
-3.77087e-05	-0.00188214	2.326e-05	
4.89311e-05	-0.0016208	4.76177e-05	
0.00132229	-0.00187396	-0.000634403	
-0.00153362	-0.00187516	0.000754454	
0.000265067	-0.00145582	-2.48512e-05	
-8.95774e-05	-0.00183871	5.34425e-05	
0.000779137	-0.00185763	-0.000374533	
0.00106759	-0.0017053	-0.000469835	
7.30712e-05	-0.00181816	-7.64322e-06	
0.000239143	-0.00180568	-8.02301e-05	
2.18672e-05	-0.00182573	1.66729e-05	
0.00207179	-0.000932084	-0.0006065	
0.000554232	-0.00137011	-0.000127862	
0.00153848	-0.00115661	-0.000486251	
0.000120927	-0.0013423	0.000115536	
1.14343e-05	-0.00182861	-5.66e-07	
0.00312445	-0.000719105	-0.000865773	
1.89414e-06	-0.00187399	6.06107e-06	
0.000108814	-0.00187475	-3.68782e-05	
0.00388555	0.000203724	-0.000312265	
4.07011e-05	-0.00178408	3.2443e-05	
0.00383206	-0.000121954	-0.000642766	
0.00108899	-0.00147243	-0.000444346	
1.44984e-06	-0.0018605	2.25137e-06	
5.2808e-05	-0.00154718	4.53945e-05	
0.000162352	-0.000831478	0.000297152	
-1.57785e-05	-0.00187864	4.66493e-05	
-0.00624091	-5.09778e-05	0.00164337	
-0.000383944	-0.00158254	8.56688e-05	
-1.89147e-05	-0.00166159	-5.08316e-05	
-0.00954878	0.0015825	0.00120739	
0.000470615	-0.00188569	-0.000199838	
-5.26602e-05	-0.0016211	-5.23789e-05	
-0.000523299	-0.00189398	0.000267726	
0.000353244	-0.00189024	-0.000171901	
0.000424501	-0.00188592	-0.000216404	
-0.00152417	-0.00138582	0.00059501	
-0.000240963	-0.00183746	8.78187e-05	
-0.00100728	-0.00186115	0.000474977	
-0.000930451	-0.00170304	0.000404349	
-0.000615099	-0.00179786	0.000260245	
0.000253458	-0.00182435	-0.00015968	
-0.00402284	-0.000813878	0.00139098	
-0.00138327	-0.00131863	0.000493227	
-0.0017012	-0.00117197	0.000585472	
-4.47073e-05	-0.00178268	-3.18388e-05	
-0.000127942	-0.00119005	-0.000145952	
-2.57225e-05	-0.00183612	-1.83279e-05	
-0.000172591	-0.000956951	-0.000288326	
-1.44876e-05	-0.00186523	-1.00053e-05	
-0.000104131	-0.00132946	-0.000101751	
-2.81411e-05	-0.00181952	-2.49633e-05	
-0.0173016	0.0038713	0.00113119	
-0.00105885	-0.00152112	0.000407849	
-0.000175175	-0.000690106	-0.000287615	
-8.42061e-05	-0.00150196	-6.92511e-05	
0.0233791	0.00522038	-0.00155435	
0.00383773	-0.00107167	-0.00135039	
0.00083874	-0.00171983	-0.000300566	
0.000189148	-0.00181045	-1.69006e-05	
-1.94353e-05	-0.00194589	1.63755e-05	
5.49959e-05	-0.00176046	5.71043e-05	
0.00132587	-0.00193169	-0.000628264	
-0.00158347	-0.00196675	0.000774854	
0.000321402	-0.00167598	-2.78045e-05	
-9.41533e-05	-0.00195714	5.7895e-05	
0.000821714	-0.00196701	-0.00039146	
0.00111353	-0.00184202	-0.000479475	
0.000133922	-0.00192979	-3.45406e-05	
0.00025153	-0.00189727	-8.14849e-05	
2.39681e-05	-0.00194823	1.91292e-05	
0.00225823	-0.00103332	-0.000642777	
0.000600178	-0.00162879	-0.000113777	
0.0016435	-0.00143672	-0.000485472	
0.000147005	-0.00161862	0.000147719	
1.26144e-05	-0.00193013	1.72531e-06	
0.00330057	-0.000778027	-0.000885675	
2.48119e-06	-0.00194201	6.09514e-06	
0.000105732	-0.00194398	-3.35561e-05	
0.00404226	0.000222752	-0.000360566	
4.38524e-05	-0.00189397	3.72841e-05	
0.00400895	-0.000108509	-0.000701016	
0.00113231	-0.00166135	-0.000444001	
2.51785e-06	-0.00197902	2.90883e-06	
6.05745e-05	-0.00171398	5.61935e-05	
0.000170576	-0.00086855	0.000305816	
-2.60145e-05	-0.00194045	5.32851e-05	
-0.00656228	-2.71459e-05	0.00176187	
-0.000441401	-0.00174572	9.41083e-05	
-0.000114455	-0.0018304	-1.67719e-05	
-0.00992586	0.00165024	0.0012835	
0.000473128	-0.00193975	-0.000199515	
-6.00007e-05	-0.00177588	-6.5515e-05	
-0.000519779	-0.00194032	0.000265089	
0.000385874	-0.00194303	-0.000186588	
0.000435184	-0.00197633	-0.000220931	
-0.0016033	-0.00163434	0.000601233	
-0.000250354	-0.00196823	8.75535e-05	
-0.00103955	-0.0019811	0.000484493	
-0.000970243	-0.00185439	0.000410224	
-0.000671092	-0.00189949	0.000279261	
0.000233615	-0.00195609	-0.000151764	
-0.00434139	-0.000885904	0.00147991	
-0.00147553	-0.00159478	0.000493941	
-0.00200287	-0.00134457	0.000686378	
-4.81742e-05	-0.00189977	-3.75319e-05	
-0.000144793	-0.00133558	-0.000168903	
-2.74928e-05	-0.00194574	-2.02591e-05	
-0.000182631	-0.00100748	-0.00030031	
-1.61854e-05	-0.00198217	-1.11803e-05	
-0.000127367	-0.00161297	-0.000131446	
-3.0629e-05	-0.00194286	-2.86285e-05	
-0.0178034	0.00379815	0.00123699	
-0.00109836	-0.00170778	0.000403861	
-0.000179129	-0.000704666	-0.000286263	
-9.83559e-05	-0.00170836	-8.80507e-05	
0.024021	0.00525237	-0.00172623	
0.00407493	-0.000935395	-0.00146124	
0.00099673	-0.00182869	-0.000359481	
0.000256501	-0.0019437	-3.95092e-05	
3.49394e-05	-0.00220014	-9.15073e-06	
6.15226e-05	-0.00190833	6.6888e-05	
0.00132728	-0.00219413	-0.000618183	
-0.00150226	-0.00218638	0.000727943	
0.000530287	-0.00165653	-0.000120165	
-5.68287e-05	-0.0021136	4.11668e-05	
0.000823992	-0.0021174	-0.000388405	
0.00113913	-0.00195858	-0.000481511	
0.000181683	-0.00206353	-5.54562e-05	
0.000313231	-0.00204744	-0.000107248	
2.60761e-05	-0.00208589	2.07336e-05	
0.00240686	-0.000934528	-0.000704981	
0.000658483	-0.00150377	-0.000148897	
0.00171651	-0.00125298	-0.000544301	
0.000133833	-0.00145908	0.000132347	
1.47483e-05	-0.00210541	1.87792e-06	
0.00344581	-0.000685251	-0.000957511	
3.0855e-06	-0.0021998	7.97556e-06	
0.000113969	-0.00223676	-3.5139e-05	
0.00416705	0.000316169	-0.00043459	
4.67141e-05	-0.00199748	3.90592e-05	
0.00416415	-3.48148e-06	-0.000790033	
0.00119	-0.00169515	-0.000458038	
2.69743e-06	-0.00212183	3.93302e-06	
6.57148e-05	-0.00177182	6.38478e-05	
0.000159092	-0.000808636	0.000273202	
-7.05899e-05	-0.0022427	8.14274e-05	
-0.00685766	0.000100721	0.00190097	
-0.000606427	-0.00184013	0.000160536	
-0.000228718	-0.00197686	2.75311e-05	
-0.0102575	0.00178084	0.00140396	
0.000469631	-0.00220764	-0.000192373	
-6.75918e-05	-0.00193099	-7.536e-05	
-0.000491414	-0.0022028	0.000249317	
0.000373143	-0.00222428	-0.000178602	
0.000374389	-0.00221636	-0.000189865	
-0.00183825	-0.00158685	0.000702498	
-0.000294805	-0.00213973	0.000104601	
-0.00104426	-0.00215005	0.000481474	
-0.000968358	-0.00202887	0.000394575	
-0.000741806	-0.00207335	0.000306197	
0.000203764	-0.00211656	-0.000140265	
-0.00462098	-0.000780101	0.00159022	
-0.00157444	-0.00145126	0.000547521	
-0.00217983	-0.00122906	0.000778165	
-5.26122e-05	-0.00203854	-4.15797e-05	
-0.000136831	-0.00125442	-0.000158183	
-3.11568e-05	-0.00213856	-2.26874e-05	
-0.000171647	-0.000944872	-0.000271441	
-1.80989e-05	-0.00215656	-1.17119e-05	
-0.000114134	-0.00143675	-0.000118591	
-3.35635e-05	-0.00209717	-3.18175e-05	
-0.0182427	0.00387035	0.00120317	
-0.00114737	-0.00175492	0.000415575	
-0.000166028	-0.000648864	-0.000254504	
-0.000102898	-0.00173986	-9.36335e-05	
0.0245305	0.00538296	-0.00196371	
0.00423036	-0.000635671	-0.00157016	
0.00102012	-0.00141788	-0.000389717	
0.000308452	-0.00143565	-8.44595e-05	
4.49399e-05	-0.00160147	-1.62066e-05	
4.71519e-05	-0.00143613	5.17094e-05	
0.00137001	-0.00155393	-0.000637388	
-0.00153939	-0.00151956	0.000737105	
0.000601881	-0.0012312	-0.000182094	
-3.66284e-05	-0.00148715	2.7546e-05	
0.000883555	-0.00155456	-0.000417227	
0.00112413	-0.00148791	-0.000484447	
0.000188882	-0.00145675	-6.88909e-05	
0.000266385	-0.00145708	-9.67655e-05	
1.84325e-05	-0.00146657	1.48581e-05	
0.00250034	-0.000683143	-0.000790954	
0.00068016	-0.00118465	-0.000189562	
0.00179387	-0.000938802	-0.000623968	
0.000105584	-0.0011646	0.000103358	
1.08327e-05	-0.00148082	1.84784e-06	
0.00352997	-0.000466485	-0.00105627	
2.43756e-06	-0.00152088	5.28529e-06	
0.000126168	-0.00156412	-4.74947e-05	
0.00425574	0.000439054	-0.000537037	
3.46808e-05	-0.00150016	2.98518e-05	
0.00426189	0.000142719	-0.000901449	
0.00130831	-0.0012585	-0.000527501	
2.16083e-06	-0.00154889	3.64355e-06	
5.35974e-05	-0.00141292	5.18925e-05	
0.000126687	-0.000652504	0.000209918	
-3.15009e-05	-0.00158082	4.58851e-05	
-0.00708528	0.000259236	0.00204353	
-0.000676156	-0.00153441	0.000211797	
-0.000295885	-0.00160481	7.17666e-05	
-0.0105407	0.00191653	0.00153928	
0.000469099	-0.00163231	-0.000201251	
-5.56842e-05	-0.00155754	-6.00923e-05	
-0.00052305	-0.00163632	0.000260357	
0.000369661	-0.00160548	-0.000177307	
0.000418947	-0.00160653	-0.00020852	
-0.00190469	-0.00124399	0.000753116	
-0.000299822	-0.00162311	0.000114564	
-0.0010651	-0.0016679	0.000494584	
-0.000993511	-0.00162209	0.00041397	
-0.000684124	-0.00162201	0.000287106	
0.000212868	-0.00161596	-0.000133667	
-0.00487432	-0.000595909	0.00172873	
-0.00158876	-0.00122947	0.00057473	
-0.00236638	-0.0011647	0.000863244	
-4.21429e-05	-0.00167494	-3.50212e-05	
-0.0001195	-0.00110379	-0.000134585	
-2.39901e-05	-0.0016118	-1.72916e-05	
-0.000146132	-0.000814022	-0.000222384	
-1.38932e-05	-0.00164614	-9.71501e-06	
-0.000100962	-0.00128959	-0.000102151	
-2.6116e-05	-0.00162218	-2.44845e-05	
-0.0186242	0.00394107	0.00133117	
-0.00124701	-0.0014528	0.00048115	
-0.00014599	-0.000571239	-0.0002151	
-8.23463e-05	-0.00137638	-7.42892e-05	
0.0251345	0.00534787	-0.00221361	
0.00433799	-0.000797002	-0.00158243	
0.00122081	-0.00138533	-0.00047765	
0.000346858	-0.00155201	-9.27388e-05	
5.60461e-05	-0.00135559	-2.18846e-05	
4.97753e-05	-0.0015143	5.77603e-05	
0.00135708	-0.00135047	-0.000624133	
-0.00161098	-0.00140484	0.000759837	
0.000720458	-0.00124229	-0.000234075	
-6.27058e-05	-0.00151173	4.14596e-05	
0.000828974	-0.00148408	-0.000384337	
0.00113464	-0.00153489	-0.000480267	
0.000157511	-0.00153132	-5.10869e-05	
0.000271516	-0.00155564	-9.42618e-05	
1.95298e-05	-0.00151864	1.54577e-05	
0.00263336	-0.000796878	-0.000814195	
0.000719952	-0.00116761	-0.000209918	
0.00185697	-0.000964772	-0.00065104	
0.000101961	-0.00115071	9.87788e-05	
1.17127e-05	-0.00148399	3.70124e-06	
0.00367915	-0.000581482	-0.00107861	
2.25601e-06	-0.00138153	4.11429e-06	
0.000131155	-0.00135975	-5.31582e-05	
0.00440129	0.000394145	-0.000582736	
3.53221e-05	-0.00155837	3.34088e-05	
0.00442963	8.81233e-05	-0.00095829	
0.00135031	-0.00126495	-0.000540282	
2.15232e-06	-0.00143622	3.56685e-06	
5.08182e-05	-0.00133509	5.09652e-05	
0.000144829	-0.000764932	0.000230501	
-3.90765e-05	-0.00136628	4.15759e-05	
-0.00731139	0.00031832	0.0021678	
-0.000801628	-0.00118695	0.000291046	
-0.000359328	-0.00126401	0.000114189	
-0.0108342	0.00197408	0.00168316	
0.000477575	-0.00136715	-0.000208863	
-4.55956e-05	-0.0012665	-4.99001e-05	
-0.000515515	-0.00137491	0.000250286	
0.00040122	-0.00138566	-0.000191175	
0.000457139	-0.0014171	-0.00022569	
-0.00201028	-0.000976277	0.000815668	
-0.000354219	-0.00152218	0.000140285	
-0.000971811	-0.00149806	0.000444979	
-0.001043	-0.00132303	0.000441874	
-0.000760977	-0.00143617	0.000325267	
0.000181226	-0.00149333	-0.000114799	
-0.00500014	-0.000500709	0.00180203	
-0.00163457	-0.000933277	0.000621594	
-0.00237132	-0.000777991	0.000916047	
-3.35256e-05	-0.00139436	-2.99708e-05	
-9.80154e-05	-0.000926868	-0.000106775	
-2.2961e-05	-0.00153066	-1.66734e-05	
-0.000136098	-0.000780026	-0.000200189	
-1.23416e-05	-0.00144931	-9.11915e-06	
-7.27213e-05	-0.000962634	-7.33325e-05	
-2.33235e-05	-0.00146558	-2.21552e-05	
-0.0189855	0.00393949	0.00149043	
-0.00126785	-0.00110774	0.000509353	
-0.000138875	-0.000555306	-0.00019605	
-6.58278e-05	-0.00111168	-5.88064e-05	
0.0256424	0.0052583	-0.0025594	
0.00450228	-0.00061058	-0.00168084	
0.00131631	-0.00135261	-0.000518529	
0.000407806	-0.00140381	-0.000125864	
0.000152003	-0.00185951	-6.61121e-05	
4.48688e-05	-0.00138593	5.20582e-05	
0.00137697	-0.00179312	-0.000622057	
-0.00157372	-0.00173783	0.000733377	
0.00086929	-0.00113483	-0.000308503	
9.74162e-05	-0.00161922	-2.91492e-05	
0.000865685	-0.00173177	-0.000394831	
0.0011483	-0.00143726	-0.000482706	
0.000206215	-0.00153291	-7.2053e-05	
0.000333963	-0.00152422	-0.000123567	
2.03685e-05	-0.0015655	1.65258e-05	
0.00272869	-0.000627043	-0.000885532	
0.000723809	-0.0010688	-0.000222694	
0.00190319	-0.000899534	-0.000684686	
9.19366e-05	-0.00107941	8.89457e-05	
1.32313e-05	-0.00170091	7.13016e-06	
0.003747	-0.000409447	-0.00116484	
3.13246e-06	-0.00178399	5.00263e-06	
0.000130138	-0.00187441	-4.88033e-05	
0.00448264	0.000472742	-0.000684154	
3.21704e-05	-0.00147002	3.37603e-05	
0.0045249	0.000200559	-0.00107109	
0.00142079	-0.00119861	-0.000569133	
3.20885e-06	-0.00174512	5.1575e-06	
4.88371e-05	-0.00130055	4.95226e-05	
0.000114153	-0.000630752	0.000176727	
-8.35754e-05	-0.00187039	7.05606e-05	
-0.0075311	0.00036159	0.00229013	
-0.00093841	-0.00144626	0.000337376	
-0.000326808	-0.00148687	8.96261e-05	
-0.0111082	0.0019445	0.00183887	
0.000408487	-0.00183374	-0.00016892	
-5.2038e-05	-0.00148878	-5.72358e-05	
-0.000532562	-0.00176772	0.000255453	
0.000315413	-0.00174784	-0.000147928	
0.000442909	-0.00167018	-0.000217749	
-0.00217206	-0.00114573	0.00086887	
-0.000500284	-0.00146943	0.000205894	
-0.00106698	-0.00161821	0.000482596	
-0.00101963	-0.00144095	0.000422702	
-0.000768016	-0.00144186	0.000324686	
0.000176081	-0.00143652	-0.000110975	
-0.00534013	-0.000519587	0.00193561	
-0.00167081	-0.00109955	0.000618436	
-0.00244135	-0.000981154	0.000919595	
-3.25772e-05	-0.00143417	-3.2464e-05	
-0.000112302	-0.00111073	-0.000121276	
-2.41519e-05	-0.00155728	-1.7609e-05	
-0.000127355	-0.000766139	-0.00018369	
-1.44044e-05	-0.00165472	-1.11989e-05	
-8.36259e-05	-0.00116355	-8.49297e-05	
-2.23898e-05	-0.00143563	-2.14974e-05	
-0.019374	0.00383309	0.0017057	
-0.00134933	-0.00133748	0.000528547	
-0.000130744	-0.000543026	-0.000177816	
-7.54845e-05	-0.00130698	-6.71878e-05	
0.0260439	0.00509904	-0.00290419	
0.00445725	-0.000249622	-0.00171686	
0.00132318	-0.000823992	-0.000544495	
0.000575163	-0.000905364	-0.000223904	
6.19939e-05	-0.00118954	-2.57887e-05	
2.66582e-05	-0.000867885	3.1191e-05	
0.00141769	-0.00124329	-0.000638303	
-0.00159447	-0.00127808	0.000733213	
0.000878771	-0.000773694	-0.000335512	
0.000100301	-0.00116508	-3.48877e-05	
0.000943948	-0.00118583	-0.000430197	
0.00125111	-0.00101977	-0.000537112	
0.000244126	-0.00114512	-9.6452e-05	
0.000315007	-0.00111871	-0.000122853	
1.49521e-05	-0.00115513	1.24662e-05	
0.00280679	-0.000418639	-0.000958512	
0.000790947	-0.000748021	-0.000282043	
0.00195381	-0.000496677	-0.000756131	
5.50809e-05	-0.000690478	5.34886e-05	
9.35636e-06	-0.00115232	5.83162e-06	
0.00380157	-0.000224191	-0.00124561	
2.31184e-06	-0.00121824	3.43723e-06	
0.000131205	-0.00116434	-5.32648e-05	
0.00453539	0.000546088	-0.000797168	
2.34532e-05	-0.00113753	2.5426e-05	
0.00458251	0.000310678	-0.00118279	
0.00148941	-0.000752945	-0.000615802	
2.7376e-06	-0.00122616	5.24894e-06	
3.06809e-05	-0.000859806	3.10183e-05	
7.87568e-05	-0.000465573	0.000120037	
-6.35566e-05	-0.00117093	4.81063e-05	
-0.00764242	0.000524123	0.00243897	
-0.000925299	-0.00084606	0.000368084	
-0.00047842	-0.00091809	0.000184394	
-0.0112839	0.0019671	0.00206294	
0.000488903	-0.00120134	-0.000212637	
-2.91689e-05	-0.000881372	-3.25094e-05	
-0.000570182	-0.00127791	0.000269797	
0.000366859	-0.00124538	-0.000171223	
0.000385517	-0.00129556	-0.000187083	
-0.00221747	-0.000705566	0.000913891	
-0.000520972	-0.00115433	0.000218121	
-0.00115637	-0.00118418	0.000522839	
-0.00111493	-0.00102191	0.000477341	
-0.000764583	-0.00110805	0.000327098	
0.00016319	-0.00114492	-9.70396e-05	
-0.00535988	-0.000180055	0.00202273	
-0.00175371	-0.000689235	0.00068765	
-0.00251536	-0.000477918	0.0010097	
-2.39367e-05	-0.001136	-2.52196e-05	
-5.50646e-05	-0.000581596	-5.94884e-05	
-1.79353e-05	-0.00115221	-1.29681e-05	
-8.09054e-05	-0.000522502	-0.000115531	
-1.10726e-05	-0.00123644	-8.25874e-06	
-4.54523e-05	-0.000679536	-4.62991e-05	
-1.70818e-05	-0.00113093	-1.67511e-05	
-0.0196605	0.00372248	0.00202224	
-0.00140321	-0.000841677	0.000582284	
-8.85645e-05	-0.00038942	-0.00011401	
-4.47297e-05	-0.000812968	-4.0309e-05	
0.0266417	0.00466409	-0.00331723	
0.00458717	-0.000556662	-0.00172415	
0.00139775	-0.00124083	-0.000552097	
0.000635519	-0.00129085	-0.000236942	
-2.71066e-05	-0.00148872	1.53536e-05	
3.65219e-05	-0.0012831	4.28527e-05	
0.00140756	-0.00153544	-0.000623671	
-0.0015002	-0.00151317	0.000680439	
0.00114574	-0.00115701	-0.000430705	
6.7515e-05	-0.00147622	-1.68517e-05	
0.000986291	-0.00145214	-0.00044159	
0.001305	-0.00131391	-0.000546932	
0.000245422	-0.00149021	-9.24965e-05	
0.000436488	-0.00147237	-0.000170551	
1.79675e-05	-0.00146573	1.41039e-05	
0.00285052	-0.000629052	-0.00094495	
0.000860784	-0.00100626	-0.000293028	
0.00204977	-0.000801224	-0.000765776	
7.18476e-05	-0.000982257	7.01352e-05	