<VTKFile type="UnstructuredGrid" version="0.1" byte_order="LittleEndian">
	<UnstructuredGrid>
		<Piece NumberOfPoints="1080" NumberOfCells="1080">
			<CellData Scalars="scalars">
				<DataArray type="Float64" Name="Strength" NumberOfComponents="3" Format="ascii">
0.0171565	-0.010905	0.000606295	
0.00226792	-0.023662	0.00315937	
0.000668354	-0.0252321	0.000906267	
-0.000123898	-0.0264753	0.00106422	
-0.000480897	-0.0260752	0.000409721	
0.000384481	-0.0258125	0.000867536	
0.00111751	-0.0264589	-0.000422854	
-0.00141257	-0.0257259	0.000918172	
-3.943e-07	-0.0251089	0.00207533	
0.000185945	-0.0254751	0.00020726	
0.000801591	-0.0264148	-0.000375385	
0.00104849	-0.025452	0.00016374	
0.000143526	-0.0268016	0.000476724	
0.000432009	-0.0263009	0.000472788	
0.000252332	-0.0261075	0.000360796	
0.00101302	-0.0221731	0.00474921	
0.000745612	-0.0254307	0.00224954	
0.0012351	-0.0242131	0.00310799	
0.000614647	-0.0252493	0.00298643	
0.000212728	-0.0259215	5.70126e-05	
0.00180762	-0.0210756	0.00568375	
-1.8844e-05	-0.0252167	0.000147012	
-0.000148442	-0.0259941	0.000247652	
0.00318538	-0.0145227	0.00582075	
0.000379763	-0.0261698	0.000628665	
0.00235056	-0.0168418	0.00654217	
0.00111008	-0.0249666	0.000943167	
0.000122043	-0.0267233	-6.90509e-05	
0.00047825	-0.0256503	0.00123575	
-2.90746e-05	-0.0188549	0.00703125	
3.00148e-05	-0.0260297	0.000396795	
-0.00370329	-0.0189427	-0.00578286	
-0.000385618	-0.0254815	-0.0013596	
5.48329e-05	-0.0264549	-0.0010422	
-0.0070305	-0.0147539	-0.00484974	
0.000421314	-0.0262273	-3.4805e-05	
-0.000411671	-0.0259049	-0.00094967	
-0.000608222	-0.0267074	0.00031834	
0.000352147	-0.0261604	-0.000233094	
0.000544775	-0.0265936	-0.000376002	
-0.000940443	-0.0248395	-0.00174411	
-0.00013421	-0.0255621	-0.000341833	
-0.000891254	-0.0265628	0.000242593	
-0.000972951	-0.0255469	-0.000269896	
-0.000877567	-0.0261739	-0.000281871	
0.000264906	-0.0261029	-0.000668562	
-0.0023543	-0.0221947	-0.00410979	
-0.00123549	-0.0248519	-0.00203362	
-0.000943186	-0.0236503	-0.00290579	
-0.000480021	-0.0260967	-0.000627299	
-0.000313637	-0.0235944	-0.00399072	
-7.04589e-05	-0.0260186	-0.000356927	
-0.000221115	-0.0205822	-0.00664769	
-2.14637e-07	-0.0270993	-0.000169563	
-0.000492971	-0.0242203	-0.0028169	
-0.000220217	-0.0266056	-0.00054774	
-0.0137379	-0.0112153	-0.00122506	
-0.00104305	-0.0260502	-0.0011588	
-0.000572929	-0.0166475	-0.0075931	
-0.000431498	-0.02533	-0.00181504	
0.0184372	0.000614008	-0.00378161	
0.00232435	-0.00407568	-0.000831199	
0.000388912	-0.00486721	-3.87523e-05	
-0.000229332	-0.00493133	0.000368824	
-0.00015146	-0.00521095	0.000161762	
9.15681e-05	-0.00489899	0.000140268	
0.00107088	-0.00511829	-0.000795933	
-0.0012913	-0.00513245	0.0010414	
-0.000211294	-0.00465885	0.000567435	
-6.48053e-05	-0.00511317	9.66764e-05	
0.00059557	-0.00506757	-0.000462481	
0.000728749	-0.00506689	-0.000422749	
-4.88179e-05	-0.00505156	0.000143035	
0.000148503	-0.00510385	1.06151e-05	
3.95348e-05	-0.00507374	7.25592e-05	
0.00140064	-0.00378763	3.08181e-05	
0.00035715	-0.0045437	0.000241352	
0.00107663	-0.00420954	-4.8709e-05	
0.000233758	-0.0044668	0.00048952	
2.84505e-05	-0.00496243	-1.19828e-07	
0.00226786	-0.00347765	-0.000285897	
-4.25684e-06	-0.00503781	2.56144e-05	
6.22537e-05	-0.00523607	1.0913e-07	
0.00310801	-0.00185597	-3.87805e-05	
7.557e-05	-0.00514009	0.000107577	
0.00287344	-0.00243119	-0.000101525	
0.000730987	-0.00473729	-0.000242103	
6.79702e-07	-0.00509967	-5.57021e-06	
0.000105516	-0.00482016	0.000199014	
0.000332796	-0.00297392	0.000962171	
2.65769e-05	-0.00526734	8.12943e-05	
-0.00442276	-0.00302589	0.00109516	
-8.22783e-05	-0.00490214	-0.00024961	
0.000282638	-0.0049597	-0.000404556	
-0.00730863	-0.00155992	0.00157671	
0.000405507	-0.00525002	-0.000265857	
-7.98172e-05	-0.00491392	-0.00016886	
-0.000445703	-0.0052099	0.000372168	
0.000338313	-0.00516873	-0.000272664	
0.000419451	-0.00518736	-0.000349981	
-0.000785889	-0.00459213	0.000113449	
-0.000145555	-0.00511932	2.08203e-05	
-0.000795949	-0.00518033	0.00058269	
-0.000599502	-0.00503207	0.000313799	
-0.000444007	-0.00508754	0.000194334	
0.000288043	-0.00504348	-0.000351968	
-0.00265776	-0.00386688	0.000813777	
-0.000954239	-0.00450409	0.000162701	
-0.000911707	-0.00428918	-2.40694e-05	
-7.72411e-05	-0.0051352	-0.000116682	
-0.000269186	-0.00400766	-0.000615226	
-5.06107e-05	-0.00505174	-5.48378e-05	
-0.000374186	-0.00336471	-0.000953906	
-2.1085e-05	-0.00516246	-2.7827e-05	
-0.000216405	-0.00434043	-0.00046963	
-4.4097e-05	-0.00505786	-9.73202e-05	
-0.0143032	3.71039e-05	0.00309192	
-0.000747778	-0.00486803	0.000225978	
-0.000374037	-0.00242463	-0.000951551	
-0.000147117	-0.00473716	-0.00029737	
0.0191624	0.00339099	-0.00358708	
0.00240706	-0.00148465	-0.00142215	
0.000403066	-0.00210473	-0.00019926	
-0.000184856	-0.00217497	0.000238922	
-9.71922e-05	-0.00235345	8.99992e-05	
6.46252e-05	-0.00213764	4.38529e-05	
0.00110451	-0.00231767	-0.000834165	
-0.0013165	-0.00231629	0.00103012	
-0.000157352	-0.00199075	0.000286582	
-8.33323e-05	-0.00230556	8.88255e-05	
0.000607067	-0.00231046	-0.000470883	
0.000744347	-0.0022223	-0.000519233	
-3.48417e-05	-0.00226797	7.93378e-05	
0.000142986	-0.00227698	-4.9733e-05	
2.53829e-05	-0.0022934	3.17273e-05	
0.00144993	-0.00144685	-0.000635183	
0.000348279	-0.00191926	-6.0164e-05	
0.00109155	-0.00169668	-0.00052508	
0.000173418	-0.00188157	0.000135576	
1.2537e-05	-0.00226439	2.90466e-06	
0.00234992	-0.00122245	-0.0010256	
1.62578e-06	-0.00230233	7.19033e-06	
8.75635e-05	-0.00236329	-4.40277e-05	
0.00316623	-0.000318523	-0.000517574	
5.0388e-05	-0.00227807	4.20627e-05	
0.00299542	-0.000639438	-0.000713216	
0.000739012	-0.00202669	-0.000451825	
-6.73956e-06	-0.00231321	3.21326e-06	
6.93351e-05	-0.00208941	6.15429e-05	
0.000248201	-0.00121773	0.000287394	
2.02617e-05	-0.00237327	3.46501e-05	
-0.00465512	-0.000658179	0.0018766	
-9.36388e-05	-0.0021293	-6.9245e-05	
0.00024157	-0.00217998	-0.000284394	
-0.0076123	0.000609106	0.00188387	
0.000409278	-0.00236813	-0.000289329	
-6.39298e-05	-0.00214664	-5.81507e-05	
-0.000441271	-0.00236301	0.000359997	
0.000332623	-0.00235799	-0.000264764	
0.000400496	-0.00235715	-0.000326817	
-0.000864354	-0.00195029	0.000467875	
-0.000153686	-0.00231828	7.86408e-05	
-0.000816984	-0.0023395	0.000624348	
-0.000620818	-0.00222081	0.000416808	
-0.000428826	-0.00227366	0.00026225	
0.000274308	-0.00229769	-0.000271378	
-0.00279921	-0.00133174	0.00155163	
-0.000970724	-0.00188427	0.000505058	
-0.000995025	-0.00173033	0.000466918	
-5.15617e-05	-0.00227764	-4.79234e-05	
-0.00020259	-0.00165899	-0.00014653	
-3.85378e-05	-0.00229626	-1.26011e-05	
-0.000273294	-0.00136353	-0.00027759	
-1.84291e-05	-0.00234135	-3.79043e-06	
-0.000146947	-0.00183672	-0.000129525	
-3.42291e-05	-0.00227411	-3.92099e-05	
-0.014827	0.00244808	0.002932	
-0.000762181	-0.00209666	0.00044137	
-0.000245776	-0.000999866	-0.000295027	
-0.000113016	-0.00205325	-8.31185e-05	
0.0202115	0.00443721	-0.00283043	
0.00270809	-0.00161022	-0.00152518	
0.000504126	-0.00237166	-0.000252961	
-0.000119237	-0.0024554	0.000164994	
-6.83051e-05	-0.00261274	4.54717e-05	
7.67278e-05	-0.00241469	2.74626e-05	
0.00117174	-0.00257919	-0.000802453	
-0.00138023	-0.00257893	0.000974811	
-4.7961e-05	-0.00223515	0.00019863	
-9.34528e-05	-0.00259509	8.37072e-05	
0.000643735	-0.00259108	-0.000446547	
0.00082689	-0.00248518	-0.000523835	
3.52679e-06	-0.0025599	4.00667e-05	
0.000169474	-0.00255341	-6.93118e-05	
3.49862e-05	-0.00258092	2.23751e-05	
0.00164533	-0.00158438	-0.00077127	
0.00041683	-0.00214195	-0.000116656	
0.00123442	-0.00188874	-0.000599631	
0.000194729	-0.00210068	0.000109382	
1.19711e-05	-0.00255348	-2.94354e-06	
0.00258786	-0.00130341	-0.00113544	
4.91388e-06	-0.00257588	5.81555e-06	
0.000100953	-0.00261092	-5.77033e-05	
0.00341678	-0.000262933	-0.000543385	
6.05982e-05	-0.00254262	2.81976e-05	
0.003278	-0.000641532	-0.00078348	
0.000810214	-0.00227388	-0.000476296	
-5.69794e-06	-0.00258119	6.69664e-06	
9.0198e-05	-0.00234341	3.20316e-05	
0.000300292	-0.00137018	0.000288814	
2.06548e-05	-0.00261549	3.30429e-05	
-0.00511708	-0.000601783	0.00202372	
-0.000180258	-0.00238689	2.44229e-06	
0.000181502	-0.00245376	-0.000207862	
-0.00818946	0.000947796	0.00188712	
0.000431028	-0.00261789	-0.000273482	
-8.04429e-05	-0.00241653	-4.18672e-05	
-0.000461664	-0.00261841	0.000329366	
0.000341308	-0.00261416	-0.000243979	
0.000407584	-0.00261178	-0.000300872	
-0.00102886	-0.00217544	0.000572255	
-0.00017452	-0.00259999	9.02627e-05	
-0.000866345	-0.00259938	0.000600057	
-0.000697911	-0.00248867	0.000430627	
-0.00047727	-0.0025472	0.000273953	
0.000248794	-0.00258539	-0.000225351	
-0.00313764	-0.00144504	0.00168254	
-0.00110449	-0.00207656	0.000582853	
-0.00120019	-0.0019154	0.000585047	
-6.20577e-05	-0.00254218	-3.20035e-05	
-0.000223575	-0.00188249	-0.000103298	
-4.43288e-05	-0.00257138	2.57169e-06	
-0.00032726	-0.00154794	-0.000270532	
-2.22191e-05	-0.00259886	3.04049e-06	
-0.00016291	-0.00206679	-9.72622e-05	
-4.52238e-05	-0.00256155	-2.43223e-05	
-0.015577	0.00329383	0.00225061	
-0.000848512	-0.00232175	0.000485249	
-0.000305163	-0.00114099	-0.000301796	
-0.000113369	-0.00228296	-7.87117e-05	
0.0211151	0.00465297	-0.00285977	
0.00293979	-0.00137122	-0.00150344	
0.000568878	-0.00208581	-0.000304929	
-7.80949e-05	-0.00216663	0.000107822	
-5.06328e-05	-0.00234219	2.71565e-05	
6.24344e-05	-0.00212951	1.87241e-05	
0.00119772	-0.00231324	-0.000793166	
-0.00141064	-0.0023139	0.000950636	
6.17187e-05	-0.00195695	4.32413e-05	
-9.13477e-05	-0.00230274	6.9769e-05	
0.000674716	-0.00231574	-0.000447913	
0.000868213	-0.00219347	-0.000541787	
2.97606e-05	-0.00226609	6.80307e-06	
0.00018064	-0.00225816	-8.93602e-05	
2.76921e-05	-0.00228542	1.02755e-05	
0.00177069	-0.00135353	-0.000765935	
0.000445593	-0.00186224	-0.000155021	
0.00131151	-0.00162211	-0.000618428	
0.000151431	-0.00182444	7.5784e-05	
1.14348e-05	-0.00227576	-4.95293e-06	
0.00274362	-0.00109362	-0.00115033	
2.61865e-06	-0.00230808	2.04597e-06	
0.000102173	-0.00234047	-5.83857e-05	
0.00357896	-7.40565e-05	-0.000577867	
4.88061e-05	-0.00224788	1.40105e-05	
0.00345758	-0.000450996	-0.000861031	
0.000913409	-0.00196738	-0.000547284	
-1.16815e-06	-0.00231238	3.95533e-06	
6.88038e-05	-0.00205925	1.21349e-05	
0.000235243	-0.00116785	0.000257636	
4.49867e-06	-0.00234595	3.87968e-05	
-0.00548998	-0.000407175	0.00205886	
-0.000226807	-0.00209758	6.53544e-05	
0.000138025	-0.00216451	-0.000145195	
-0.00867359	0.00121133	0.00185308	
0.000430334	-0.00234777	-0.00025913	
-6.48042e-05	-0.00212832	-2.52987e-05	
-0.000472827	-0.00234729	0.000325785	
0.000341171	-0.00233969	-0.000229901	
0.000412675	-0.00233751	-0.00028331	
-0.00119165	-0.00186606	0.000679007	
-0.000189703	-0.00230574	0.00010449	
-0.000893251	-0.00232524	0.000593255	
-0.000741703	-0.00219138	0.000455356	
-0.000504137	-0.00225114	0.000296324	
0.000242456	-0.00228866	-0.000194843	
-0.00342756	-0.00123809	0.00166539	
-0.00118048	-0.00178988	0.000630863	
-0.00134841	-0.00164831	0.000653754	
-5.28208e-05	-0.00224699	-1.52853e-05	
-0.00016801	-0.00163051	-9.60832e-05	
-3.43166e-05	-0.00229206	3.19532e-07	
-0.000250064	-0.00133193	-0.000247583	
-1.89954e-05	-0.00232696	1.55286e-06	
-0.000127239	-0.00179907	-7.07853e-05	
-3.77793e-05	-0.00226941	-1.28219e-05	
-0.0162159	0.00347771	0.00215907	
-0.00090968	-0.00202419	0.000519994	
-0.000251071	-0.000970139	-0.000267326	
-0.000113604	-0.00199811	-1.36219e-05	
0.0219651	0.00463351	-0.00256606	
0.00325095	-0.00113687	-0.00123703	
0.000665115	-0.00178443	-0.00029177	
-7.67322e-06	-0.00187532	5.23782e-05	
-3.86448e-05	-0.00207905	2.20716e-05	
4.289e-05	-0.00183152	3.56089e-05	
0.00127247	-0.00205868	-0.000697825	
-0.00149744	-0.00205804	0.000827448	
0.00014448	-0.00165521	-6.94784e-07	
-0.000102151	-0.00205013	6.41932e-05	
0.000734859	-0.00205577	-0.00039768	
0.000968131	-0.0019243	-0.000500845	
4.34073e-05	-0.00202671	-9.95921e-07	
0.000202486	-0.00202112	-8.77705e-05	
2.00339e-05	-0.00203806	9.73903e-06	
0.0019412	-0.00112	-0.000615319	
0.000493217	-0.001566	-0.000142333	
0.00143699	-0.00135334	-0.00048441	
0.00011502	-0.0015321	8.78637e-05	
1.28427e-05	-0.00202629	-5.77636e-06	
0.00297476	-0.00089674	-0.000879272	
4.79897e-07	-0.00205947	2.6419e-06	
0.000101893	-0.00207496	-4.50894e-05	
0.00373328	4.01495e-05	-0.000492436	
3.87827e-05	-0.00200361	1.78328e-05	
0.00365157	-0.000314245	-0.00073469	
0.00100302	-0.00167641	-0.000467427	
-2.33768e-06	-0.00205394	2.42678e-06	
5.02793e-05	-0.00175244	2.34718e-05	
0.000162952	-0.000968008	0.00026992	
-1.07049e-05	-0.00207994	4.1474e-05	
-0.00592782	-0.000298441	0.00169978	
-0.000292053	-0.00178956	7.02771e-05	
7.42143e-05	-0.00187022	-8.42788e-05	
-0.00913167	0.00131773	0.00164416	
0.000447884	-0.00208457	-0.000223	
-4.41452e-05	-0.00182673	-4.61381e-05	
-0.000505001	-0.00208533	0.000289483	
0.000350565	-0.00208179	-0.000193159	
0.000431403	-0.00207468	-0.000237954	
-0.0013508	-0.00158647	0.000612614	
-0.000205795	-0.00204664	8.84349e-05	
-0.000960579	-0.00206066	0.000513393	
-0.000832873	-0.00191655	0.000430084	
-0.000553171	-0.00200903	0.000271523	
0.000254877	-0.0020329	-0.000163806	
-0.00379691	-0.0010158	0.00136559	
-0.00127039	-0.00151135	0.000557642	
-0.00154432	-0.00136915	0.000557802	
-4.30235e-05	-0.00199564	-1.33855e-05	
-0.000119654	-0.00136225	-0.000125756	
-2.87351e-05	-0.00203408	-7.38326e-06	
-0.000166887	-0.00110672	-0.000258129	
-1.45746e-05	-0.002061	-4.89787e-06	
-9.3436e-05	-0.00151278	-7.95353e-05	
-2.65242e-05	-0.00202281	-1.34507e-05	
-0.0168145	0.00341068	0.00200018	
-0.000980073	-0.00172269	0.000461483	
-0.000186448	-0.000807458	-0.000261659	
-7.67061e-05	-0.00169348	-5.36702e-05	
0.022751	0.00436666	-0.00242108	
0.00344903	-0.000975266	-0.00122175	
0.000766227	-0.00157606	-0.000281796	
7.80978e-05	-0.00166181	1.28389e-05	
-4.06572e-05	-0.00188253	2.16003e-05	
3.65942e-05	-0.0016218	3.91661e-05	
0.00133653	-0.00187511	-0.000603535	
-0.00155277	-0.0018756	0.000716658	
0.000250162	-0.00145865	-3.56335e-05	
-9.35904e-05	-0.00183902	4.99182e-05	
0.000786337	-0.00185841	-0.000358342	
0.0010679	-0.0017102	-0.000453805	
6.7463e-05	-0.00181874	-1.19021e-05	
0.000233636	-0.00180682	-7.97179e-05	
1.69769e-05	-0.00182619	1.21487e-05	
0.00205372	-0.000966618	-0.000614569	
0.000538154	-0.0013761	-0.000136936	
0.00151811	-0.00118042	-0.000494635	
9.54079e-05	-0.00134655	9.27471e-05	
8.99946e-06	-0.00182901	-7.24057e-07	
0.00310881	-0.000780067	-0.000868651	
1.25557e-06	-0.00187435	3.85568e-06	
0.000107171	-0.00187532	-3.61664e-05	
0.0038675	9.32742e-05	-0.00050633	
3.02241e-05	-0.0017848	2.66135e-05	
0.00380231	-0.000205762	-0.000777223	
0.00108541	-0.00147908	-0.000433538	
1.0658e-06	-0.00186089	1.47501e-06	
3.96673e-05	-0.00154827	3.54776e-05	
0.000137263	-0.000854928	0.000238597	
-1.96475e-05	-0.00187919	4.16708e-05	
-0.00620955	-0.000180784	0.0017456	
-0.000372864	-0.00158534	9.15055e-05	
-6.24912e-06	-0.00166235	-4.23763e-05	
-0.00953517	0.00126932	0.00158941	
0.000472913	-0.00188626	-0.000193614	
-3.94393e-05	-0.00162222	-4.22632e-05	
-0.000531462	-0.0018941	0.000254225	
0.000356399	-0.00189088	-0.000162695	
0.000430726	-0.00188629	-0.000204944	
-0.00151642	-0.00140035	0.000582963	
-0.000239114	-0.00183816	8.7048e-05	
-0.00101505	-0.00186279	0.000454523	
-0.000928344	-0.00170787	0.000391358	
-0.000612691	-0.00180039	0.000251528	
0.000262239	-0.00182462	-0.000146711	
-0.0040165	-0.000860429	0.00138208	
-0.00137089	-0.00133418	0.000488128	
-0.00168691	-0.00119355	0.000584934	
-3.2894e-05	-0.00178346	-2.57509e-05	
-0.00010119	-0.00119612	-0.000117694	
-2.11207e-05	-0.0018366	-1.47782e-05	
-0.0001411	-0.000977755	-0.000231504	
-1.21383e-05	-0.00186565	-7.98877e-06	
-7.89727e-05	-0.00133294	-8.23707e-05	
-2.09501e-05	-0.00182008	-1.87865e-05	
-0.0173684	0.00320469	0.00181938	
-0.00105254	-0.00152779	0.000401928	
-0.000156658	-0.000714965	-0.000233564	
-6.52973e-05	-0.00150393	-5.48888e-05	
0.0234613	0.00428665	-0.00258666	
0.00382055	-0.00113899	-0.0013464	
0.00083076	-0.00172493	-0.000298027	
0.000176304	-0.00181223	-2.42998e-05	
-2.20136e-05	-0.00194643	1.40042e-05	
4.02783e-05	-0.00176179	4.54981e-05	
0.00133995	-0.0019326	-0.000599313	
-0.00160322	-0.00196743	0.00073625	
0.000302702	-0.00167976	-4.26285e-05	
-9.87951e-05	-0.00195754	5.44009e-05	
0.000828848	-0.00196795	-0.000375391	
0.00111201	-0.00184749	-0.000465594	
0.00012784	-0.00193064	-3.83059e-05	
0.000245091	-0.00189861	-8.23562e-05	
1.81432e-05	-0.00194883	1.42226e-05	
0.00223531	-0.00107564	-0.000654685	
0.000578762	-0.00163598	-0.000129901	
0.00161421	-0.00146435	-0.000503638	
0.000113867	-0.00162458	0.000115246	
1.02158e-05	-0.00193063	1.43079e-06	
0.00327785	-0.000837698	-0.000914747	
1.64132e-06	-0.00194248	4.17495e-06	
0.000103929	-0.00194463	-3.39966e-05	
0.00402121	8.92753e-05	-0.000570169	
3.18996e-05	-0.00189491	2.96045e-05	
0.0039746	-0.000214572	-0.000849503	
0.00112536	-0.00166887	-0.000437202	
1.82462e-06	-0.00197953	1.96415e-06	
4.47208e-05	-0.00171542	4.3889e-05	
0.000140499	-0.000894192	0.000242053	
-3.05741e-05	-0.00194111	4.70861e-05	
-0.00652768	-0.000187603	0.00187329	
-0.00042761	-0.00174926	0.000103233	
-0.000100088	-0.00183187	-7.99885e-06	
-0.0099114	0.00128029	0.00170844	
0.000475142	-0.00194048	-0.000193751	
-4.41161e-05	-0.00177739	-5.21455e-05	
-0.00052793	-0.00194059	0.000251411	
0.000389624	-0.00194371	-0.000177255	
0.000441407	-0.00197687	-0.000209032	
-0.00159028	-0.00165035	0.000595616	
-0.000247786	-0.00196909	8.75488e-05	
-0.00104701	-0.00198272	0.000465625	
-0.000965871	-0.00185993	0.000399244	
-0.000667798	-0.00190238	0.00027186	
0.000243084	-0.00195645	-0.000138938	
-0.00433149	-0.000952069	0.0014696	
-0.00145631	-0.00161248	0.00049704	
-0.00198526	-0.00137131	0.000687262	
-3.46833e-05	-0.00190076	-2.96017e-05	
-0.00011145	-0.00134316	-0.000134914	
-2.24973e-05	-0.00194634	-1.59677e-05	
-0.000145559	-0.00103074	-0.00023671	
-1.34127e-05	-0.00198272	-8.76944e-06	
-9.46731e-05	-0.0016179	-0.000103483	
-2.22204e-05	-0.00194358	-2.13344e-05	
-0.0178626	0.00311793	0.00192695	
-0.00108855	-0.00171542	0.000402081	
-0.000156549	-0.000731146	-0.000228629	
-7.51282e-05	-0.00171106	-6.80895e-05	
0.0241019	0.0042467	-0.00279448	
0.0040593	-0.00101854	-0.00145299	
0.00098732	-0.00183521	-0.000357791	
0.000241399	-0.00194614	-4.9196e-05	
3.17742e-05	-0.00220091	-1.00079e-05	
4.3981e-05	-0.00191004	5.22224e-05	
0.00134021	-0.00219601	-0.000588982	
-0.00151993	-0.00218817	0.000691399	
0.000511494	-0.00166214	-0.000133986	
-6.17471e-05	-0.00211419	3.82965e-05	
0.00083071	-0.00211873	-0.000371991	
0.00113567	-0.00196492	-0.000468978	
0.000174938	-0.00206468	-5.91934e-05	
0.000305962	-0.00204923	-0.000107979	
1.93949e-05	-0.00208666	1.50092e-05	
0.00238347	-0.000986281	-0.000715706	
0.000637449	-0.00151188	-0.000165122	
0.00168929	-0.00128485	-0.000558217	
0.000100716	-0.00146494	0.000101194	
1.16964e-05	-0.00210608	2.15459e-06	
0.00342274	-0.000755824	-0.000986998	
2.06813e-06	-0.00220047	5.4008e-06	
0.000111397	-0.00223763	-3.66262e-05	
0.00414564	0.000153286	-0.000651937	
3.28483e-05	-0.00199861	3.05362e-05	
0.00412805	-0.000134587	-0.000946056	
0.00118159	-0.00170373	-0.00045288	
2.26244e-06	-0.00212251	2.29999e-06	
4.70184e-05	-0.00177364	4.85986e-05	
0.000126988	-0.000833033	0.000211394	
-7.67992e-05	-0.00224357	7.29748e-05	
-0.00682298	-9.17442e-05	0.00202	
-0.000591119	-0.00184504	0.00017033	
-0.000212505	-0.00197925	3.7422e-05	
-0.0102476	0.0013364	0.0018567	
0.000471087	-0.00220854	-0.000188201	
-4.8476e-05	-0.00193297	-5.72762e-05	
-0.000499655	-0.00220325	0.00023612	
0.00037654	-0.0022252	-0.00016938	
0.000379777	-0.00221717	-0.000178514	
-0.00182532	-0.0016066	0.000695954	
-0.000291734	-0.00214085	0.000104587	
-0.00105056	-0.00215235	0.000462951	
-0.000960952	-0.0020351	0.000386251	
-0.000737556	-0.00207691	0.000298328	
0.000214039	-0.00211714	-0.000126674	
-0.00460769	-0.000861941	0.00158975	
-0.00155605	-0.00147202	0.000548818	
-0.00216359	-0.00126177	0.000774674	
-3.67318e-05	-0.00203977	-3.24843e-05	
-0.000102322	-0.00126222	-0.000123183	
-2.47988e-05	-0.00213936	-1.855e-05	
-0.000132746	-0.000967461	-0.000208391	
-1.46916e-05	-0.0021573	-9.04554e-06	
-8.21881e-05	-0.00144167	-9.03652e-05	
-2.36251e-05	-0.0020981	-2.31267e-05	
-0.0183053	0.00310395	0.00200517	
-0.0011351	-0.00176381	0.000416678	
-0.000140488	-0.000674245	-0.000199454	
-7.63803e-05	-0.00174307	-7.07045e-05	
0.0246266	0.00420348	-0.00308244	
0.004222	-0.000733103	-0.00155639	
0.00101342	-0.00142527	-0.000385445	
0.000297446	-0.00143833	-8.99336e-05	
4.23218e-05	-0.00160219	-1.65733e-05	
3.24451e-05	-0.00143762	3.95517e-05	
0.00138399	-0.0015555	-0.000609489	
-0.00155776	-0.00152073	0.000702643	
0.000588008	-0.00123753	-0.000189984	
-4.04003e-05	-0.00148769	2.52484e-05	
0.000892131	-0.00155551	-0.000400428	
0.00112338	-0.00149436	-0.000471617	
0.0001844	-0.00145782	-7.08567e-05	
0.00026092	-0.00145871	-9.68126e-05	
1.32639e-05	-0.00146724	1.00044e-05	
0.00248307	-0.000741786	-0.000795166	
0.000662865	-0.00119346	-0.000200553	
0.00177293	-0.000975597	-0.000631185	
7.72736e-05	-0.00116952	7.74283e-05	
8.42607e-06	-0.00148139	1.82911e-06	
0.00351207	-0.000547823	-0.00107844	
1.60192e-06	-0.00152146	3.3334e-06	
0.000124106	-0.00156496	-4.69372e-05	
0.00423581	0.000244277	-0.000755666	
2.3456e-05	-0.00150116	2.27304e-05	
0.00422802	-1.25328e-05	-0.00105413	
0.00130379	-0.0012694	-0.000517501	
1.91869e-06	-0.0015495	2.39042e-06	
3.70471e-05	-0.00141459	3.87284e-05	
9.72382e-05	-0.000672151	0.000159186	
-3.57644e-05	-0.00158155	4.00764e-05	
-0.0070534	2.35967e-05	0.00216626	
-0.000663057	-0.00154012	0.000218584	
-0.000282491	-0.00160763	7.91979e-05	
-0.0105382	0.00137302	0.00202059	
0.000471141	-0.0016333	-0.000195412	
-3.85089e-05	-0.00155934	-4.46283e-05	
-0.000531234	-0.00163663	0.000247734	
0.000373269	-0.00160637	-0.000168361	
0.000424995	-0.00160715	-0.00019774	
-0.00189568	-0.00126759	0.000742144	
-0.00029762	-0.00162432	0.000113054	
-0.00107279	-0.00167028	0.000475733	
-0.000988669	-0.0016287	0.00040523	
-0.000681123	-0.00162556	0.000279793	
0.000222184	-0.00161636	-0.000121962	
-0.00486449	-0.000695649	0.00172469	
-0.00157278	-0.00125295	0.000572776	
-0.00234879	-0.00120516	0.000860779	
-2.81969e-05	-0.00167611	-2.6716e-05	
-8.63561e-05	-0.00111102	-0.000101912	
-1.86714e-05	-0.00161253	-1.36488e-05	
-0.000108895	-0.000833285	-0.000168003	
-1.11148e-05	-0.00164681	-7.3511e-06	
-7.00107e-05	-0.00129415	-7.67276e-05	
-1.76642e-05	-0.00162304	-1.71084e-05	
-0.0186957	0.00305073	0.00218464	
-0.00123724	-0.00146385	0.000478279	
-0.000118222	-0.000594705	-0.000163975	
-5.90585e-05	-0.00137921	-5.50491e-05	
0.0252381	0.00396797	-0.00338773	
0.00432131	-0.000907496	-0.00157845	
0.00121427	-0.00139524	-0.000472431	
0.000333582	-0.00155534	-0.000100609	
5.34004e-05	-0.00135635	-2.19355e-05	
3.27056e-05	-0.00151616	4.23101e-05	
0.00137011	-0.00135251	-0.000599447	
-0.00162937	-0.00140623	0.000727391	
0.000705654	-0.00125043	-0.000242131	
-6.73187e-05	-0.00151236	3.80075e-05	
0.000836498	-0.00148498	-0.00037122	
0.00113191	-0.00154208	-0.000471067	
0.000151626	-0.00153256	-5.495e-05	
0.000264737	-0.0015575	-9.62613e-05	
1.34974e-05	-0.00151948	9.55078e-06	
0.00260787	-0.000867507	-0.000828501	
0.000701501	-0.00117763	-0.0002223	
0.00183248	-0.00100647	-0.000662922	
7.20089e-05	-0.0011558	7.14839e-05	
8.91398e-06	-0.0014847	3.24605e-06	
0.00365243	-0.000680777	-0.0011146	
1.31434e-06	-0.00138215	2.31952e-06	
0.000129286	-0.00136067	-5.17722e-05	
0.00437656	0.000157177	-0.000816246	
2.2792e-05	-0.00155959	2.4326e-05	
0.00438952	-0.000103834	-0.00112337	
0.001344	-0.00127766	-0.000532877	
2.00491e-06	-0.00143689	2.2536e-06	
3.34717e-05	-0.00133692	3.70431e-05	
0.000105937	-0.000787449	0.000170701	
-4.32285e-05	-0.00136695	3.76261e-05	
-0.00727928	3.8658e-05	0.00229851	
-0.000792416	-0.00119399	0.000293158	
-0.00034892	-0.00126716	0.000120368	
-0.010836	0.0013374	0.00218149	
0.000480125	-0.00136819	-0.000202988	
-3.01403e-05	-0.00126819	-3.60035e-05	
-0.000522957	-0.00137514	0.000239968	
0.000405297	-0.0013866	-0.000182276	
0.000463586	-0.00141776	-0.000214937	
-0.00200535	-0.00100394	0.000801987	
-0.00035202	-0.00152371	0.000138374	
-0.000978192	-0.00150057	0.000429718	
-0.00104011	-0.00133	0.000434293	
-0.000759238	-0.00144025	0.000317573	
0.00019043	-0.0014938	-0.000104049	
-0.00499147	-0.000616144	0.00179967	
-0.00162375	-0.000958821	0.000617142	
-0.00236276	-0.000821955	0.000906579	
-2.13938e-05	-0.00139546	-2.27991e-05	
-6.77952e-05	-0.000933038	-7.86941e-05	
-1.71519e-05	-0.00153149	-1.28465e-05	
-9.68854e-05	-0.000798062	-0.000148062	
-9.56917e-06	-0.00145	-6.6289e-06	
-4.81853e-05	-0.000966154	-5.34247e-05	
-1.49792e-05	-0.00146651	-1.4874e-05	
-0.0190637	0.00290744	0.0023837	
-0.0012616	-0.00112028	0.00050369	
-0.000107033	-0.00057803	-0.000145762	
-4.52937e-05	-0.00111417	-4.26008e-05	
0.0257481	0.00365317	-0.00376904	
0.00449025	-0.000737417	-0.00167801	
0.00130902	-0.0013643	-0.000516023	
0.000395381	-0.00140775	-0.000133618	
0.000148831	-0.00186091	-6.50523e-05	
2.77852e-05	-0.00138787	3.69833e-05	
0.00138815	-0.00179595	-0.000601934	
-0.00159101	-0.00173958	0.000705794	
0.000855921	-0.00114503	-0.000315432	
9.35257e-05	-0.00162035	-3.0773e-05	
0.000872839	-0.00173293	-0.000384225	
0.00114512	-0.00144488	-0.000477291	
0.000199884	-0.00153449	-7.68469e-05	
0.000327273	-0.00152656	-0.000125646	
1.32255e-05	-0.00156655	9.39188e-06	
0.00270644	-0.000705872	-0.00090192	
0.00070588	-0.00107938	-0.000235907	
0.00187793	-0.000947367	-0.000698313	
6.17826e-05	-0.00108435	6.21388e-05	
9.76396e-06	-0.00170194	5.14982e-06	
0.00372529	-0.000519038	-0.00119783	
1.71538e-06	-0.00178501	2.60663e-06	
0.000126271	-0.00187583	-4.81526e-05	
0.00445835	0.000196011	-0.000920701	
1.95023e-05	-0.00147138	2.41116e-05	
0.00448831	-2.05236e-05	-0.00123125	
0.00141394	-0.00121323	-0.000564682	
2.83064e-06	-0.00174609	3.12038e-06	
3.03145e-05	-0.00130258	3.4463e-05	
7.8602e-05	-0.000648735	0.000126787	
-8.99627e-05	-0.00187146	6.4298e-05	
-0.00749843	2.94936e-05	0.00243127	
-0.000924507	-0.0014557	0.000344245	
-0.000312313	-0.00149037	0.000100415	
-0.0111068	0.00122649	0.00235354	
0.000408899	-0.0018352	-0.000166503	
-3.23517e-05	-0.00149096	-4.02588e-05	
-0.000540278	-0.00176827	0.000246596	
0.000318165	-0.00174908	-0.000141335	
0.000449436	-0.00167108	-0.000208068	
-0.00216202	-0.0011785	0.000862305	
-0.000498799	-0.00147161	0.000203076	
-0.00107309	-0.00162142	0.000468852	
-0.00101394	-0.00144852	0.000419848	
-0.000765258	-0.0014464	0.000319532	
0.000185938	-0.00143705	-0.000100265	
-0.00532825	-0.000656401	0.00194283	
-0.00165374	-0.00112821	0.000621787	
-0.00242477	-0.00103083	0.000919778	
-1.93558e-05	-0.0014355	-2.27064e-05	
-7.32326e-05	-0.00111813	-8.77179e-05	
-1.73066e-05	-0.00155833	-1.30935e-05	
-8.56828e-05	-0.000783381	-0.000131452	
-1.07777e-05	-0.00165569	-7.88287e-06	
-5.21902e-05	-0.00116796	-5.91713e-05	
-1.34331e-05	-0.00143671	-1.33986e-05	
-0.0194504	0.00265441	0.00261903	
-0.00133698	-0.00135311	0.0005299	
-9.46394e-05	-0.00056482	-0.000128274	
-4.93025e-05	-0.00131013	-4.70638e-05	
0.026149	0.00330329	-0.00409437	
0.00445711	-0.00038378	-0.00171676	
0.00132196	-0.000836316	-0.00054079	
0.000569134	-0.000910352	-0.000226807	
5.92588e-05	-0.00119053	-2.63364e-05	
1.50117e-05	-0.000869224	2.11028e-05	
0.00142941	-0.00124666	-0.000622009	
-0.00161168	-0.0012799	0.000710743	
0.000870602	-0.000784421	-0.00033991	
9.73789e-05	-0.00116615	-3.61261e-05	
0.000952171	-0.00118731	-0.00041991	
0.00125153	-0.00102855	-0.000532343	
0.000239668	-0.0011468	-9.95807e-05	
0.000310133	-0.00112098	-0.000124696	
9.06651e-06	-0.00115608	6.79622e-06	
0.0027914	-0.000506095	-0.000973481	
0.000779	-0.000759833	-0.000290802	
0.00194149	-0.000548142	-0.000764732	
3.45181e-05	-0.000693682	3.57464e-05	
6.63332e-06	-0.00115316	4.14092e-06	
0.00378679	-0.0003458	-0.00127553	
1.13033e-06	-0.00121911	1.64193e-06	
0.000128988	-0.0011655	-5.28979e-05	
0.00451571	0.000236298	-0.00101889	
1.28686e-05	-0.00113874	1.70992e-05	
0.00455219	6.11058e-05	-0.0013342	
0.00148831	-0.000769157	-0.000611152	
2.30814e-06	-0.00122701	3.23082e-06	
1.73622e-05	-0.000861276	2.0561e-05	
4.99853e-05	-0.000478204	8.28275e-05	
-6.79372e-05	-0.00117173	4.36928e-05	
-0.00761983	0.000153007	0.0025776	
-0.000918825	-0.000856062	0.000370434	
-0.000471064	-0.000922553	0.000188676	
-0.0112895	0.00117589	0.00254939	
0.000491278	-0.00120267	-0.000209738	
-1.66479e-05	-0.000882796	-2.19154e-05	
-0.000577615	-0.00127845	0.000261897	
0.0003704	-0.00124656	-0.000165426	
0.000391221	-0.00129642	-0.000179803	
-0.00221589	-0.000741226	0.000906998	
-0.000520313	-0.00115684	0.000215665	
-0.00116394	-0.00118824	0.000510613	
-0.00111362	-0.00103053	0.000473818	
-0.0007634	-0.00111275	0.000323703	
0.000171897	-0.00114539	-8.83885e-05	
-0.00536168	-0.000331753	0.00202431	
-0.00174609	-0.00072038	0.00068804	
-0.0025143	-0.000531022	0.00100177	
-1.2844e-05	-0.0011372	-1.73413e-05	
-3.29365e-05	-0.000585428	-4.22036e-05	
-1.22085e-05	-0.00115312	-9.32209e-06	
-5.02647e-05	-0.000533666	-7.98003e-05	
-7.88391e-06	-0.00123734	-5.48668e-06	
-2.57952e-05	-0.00068215	-3.08344e-05	
-9.41255e-06	-0.00113194	-9.62552e-06	
-0.0197355	0.00242812	0.0028904	
-0.00139837	-0.000859006	0.000581324	
-5.89363e-05	-0.000403965	-7.96873e-05	
-2.72254e-05	-0.00081508	-2.67702e-05	
0.0267506	0.0026506	-0.00446985	
0.00458011	-0.000706706	-0.00177667	
0.00139309	-0.0012556	-0.000567794	
0.000625755	-0.00129701	-0.000250027	
-3.21512e-05	-0.00148949	1.43752e-05	
1.77394e-05	-0.00128493	2.78189e-05	
0.00142211	-0.00153924	-0.000624124	
-0.00152114	-0.00151509	0.000675465	
0.00113391	-0.00117214	-0.000450096	
6.27429e-05	-0.00147727	-1.94255e-05	
0.000997192	-0.00145367	-0.000442936	
0.00130532	-0.00132425	-0.000558334	
0.000238902	-0.0014921	-0.000100248	
0.000430693	-0.0014754	-0.000178427	
9.86186e-06	-0.00146674	7.00849e-06	
0.00282786	-0.000728025	-0.000991082	
0.000843506	-0.00102066	-0.000314925	
0.00202914	-0.000859056	-0.000801018	
4.04671e-05	-0.000986569	4.45685e-05	
7.8441e-06	-0.00142318	5.19379e-06	