<VTKFile type="UnstructuredGrid" version="0.1" byte_order="LittleEndian">
	<UnstructuredGrid>
		<Piece NumberOfPoints="480" NumberOfCells="480">
			<CellData Scalars="scalars">
				<DataArray type="Float64" Name="Strength" NumberOfComponents="3" Format="ascii">
0.0167282	-0.0114906	-0.00138996	
0.00245904	-0.0238742	0.000670903	
0.000403922	-0.0252866	0.000171443	
-0.000434555	-0.0265243	0.000330649	
-0.000362624	-0.0261102	0.000136718	
0.000127612	-0.025862	0.000188869	
0.00130031	-0.0264817	-0.000344233	
-0.00158414	-0.0257554	0.000534553	
-0.000284174	-0.0252199	0.000580142	
8.33851e-05	-0.0255036	2.30812e-05	
0.000715831	-0.0264482	-0.000260967	
0.000859106	-0.0254893	-0.000219867	
-2.581e-05	-0.0268355	5.29875e-05	
0.000239214	-0.0263365	7.84724e-05	
0.000114599	-0.0261391	2.26158e-05	
0.00132357	-0.0226452	0.00141638	
0.000581523	-0.0255633	0.000524094	
0.00120362	-0.0244356	0.000733339	
0.000450823	-0.0254502	0.000813999	
9.84272e-05	-0.025951	7.61172e-07	
0.00225711	-0.0217515	0.00168509	
-8.72459e-06	-0.0252448	3.53408e-05	
3.20477e-05	-0.0260262	7.41111e-05	
0.00298608	-0.0155615	0.00215438	
0.000105765	-0.0262103	0.000124649	
0.00263005	-0.0179142	0.00225598	
0.000921939	-0.0250255	-3.46673e-05	
5.21071e-05	-0.0267534	-7.61481e-05	
0.000188285	-0.0257165	0.000264271	
0.000395598	-0.0199748	0.00263927	
8.88961e-05	-0.0260625	0.000195276	
-0.00407278	-0.0196994	-0.00156035	
-0.000126101	-0.0255508	-0.000422183	
0.000420632	-0.0265036	-0.000267381	
-0.00671646	-0.0156457	-0.00120673	
0.000533967	-0.0262552	-5.02567e-05	
-0.000162378	-0.0259575	-0.000204581	
-0.000567624	-0.0267397	0.000187722	
0.000400414	-0.026189	-0.000112998	
0.000549197	-0.0266248	-0.000173421	
-0.000774633	-0.0249384	-0.000266824	
-0.000184298	-0.0255913	-5.4871e-05	
-0.000991411	-0.0265895	0.000243262	
-0.000686149	-0.0255877	0.000195868	
-0.000668677	-0.0262101	7.63118e-05	
0.000323905	-0.0261384	-0.000182322	
-0.00265084	-0.022547	-0.000988401	
-0.00103527	-0.024976	-0.000320778	
-0.000805108	-0.0238557	-0.000671528	
-0.000134153	-0.0261386	-9.40802e-05	
-0.000337265	-0.0239266	-0.0012503	
-9.28309e-05	-0.0260487	-0.000121067	
-0.000483974	-0.0215297	-0.00233369	
-3.94531e-05	-0.0271302	-3.42698e-05	
-0.000257568	-0.0244087	-0.000753419	
-8.19875e-05	-0.0266409	-7.49911e-05	
-0.0132932	-0.0117924	0.00076256	
-0.000934711	-0.0261146	-0.000110241	
-0.00063218	-0.0180739	-0.00302259	
-0.000274695	-0.0254283	-0.000416641	
0.0183808	-0.000274913	-0.00402427	
0.00240127	-0.0040486	-0.000783878	
0.000366389	-0.00487446	-0.000106889	
-0.000337287	-0.00494175	0.000188991	
-0.000180514	-0.00521802	8.19096e-05	
3.28889e-05	-0.00490802	2.76201e-05	
0.00124584	-0.00511909	-0.000544605	
-0.00150753	-0.00514236	0.000682093	
-0.000325975	-0.00468721	0.000239856	
-8.18644e-05	-0.00511919	4.86489e-05	
0.000680439	-0.00507469	-0.000310604	
0.000783709	-0.00507094	-0.000349277	
-8.13103e-05	-0.00505852	5.48573e-05	
0.000139669	-0.00510968	-3.34211e-05	
1.71364e-05	-0.00507992	1.35003e-05	
0.00132194	-0.00381359	-0.00024932	
0.000307305	-0.00455999	-6.85362e-06	
0.00102058	-0.0042228	-0.000245761	
0.000102867	-0.0045028	0.000132873	
1.85031e-05	-0.00496799	-3.78781e-06	
0.00224279	-0.00347118	-0.000534044	
3.11012e-07	-0.00504348	3.44196e-06	
7.38852e-05	-0.00524213	-1.66952e-05	
0.00296148	-0.00202643	-0.000488289	
2.37303e-05	-0.00514775	2.4533e-05	
0.00275538	-0.00251558	-0.0005287	
0.000763476	-0.0047363	-0.000289845	
3.16947e-06	-0.00510544	-7.17906e-06	
4.29838e-05	-0.00483165	3.60304e-05	
0.000144588	-0.00312355	0.0003695	
1.44862e-05	-0.00527414	3.8093e-05	
-0.00440918	-0.00299589	0.00124856	
-1.94995e-05	-0.00491518	-7.76398e-05	
0.000383048	-0.00497176	-0.000204511	
-0.00720242	-0.0017723	0.00182435	
0.000468364	-0.00525456	-0.000184919	
-3.52383e-05	-0.00492361	-3.34274e-05	
-0.000530824	-0.00521596	0.000239509	
0.000387515	-0.00517544	-0.000173071	
0.000486485	-0.00519484	-0.000216447	
-0.000770357	-0.00459624	0.000243715	
-0.000151725	-0.00512453	4.58771e-05	
-0.000912383	-0.00518499	0.000402993	
-0.0006403	-0.00503517	0.000285016	
-0.000471198	-0.00509139	0.000177773	
0.000367831	-0.00505296	-0.000185463	
-0.00274426	-0.00380806	0.000843577	
-0.000940316	-0.00450694	0.000294906	
-0.000855845	-0.00430216	0.000202197	
-2.62762e-05	-0.00514307	-2.32852e-05	
-0.000103298	-0.00406341	-0.000185362	
-2.77403e-05	-0.00505767	-1.39295e-05	
-0.000147998	-0.00350222	-0.000351959	
-1.21772e-05	-0.0051684	-7.6711e-06	
-7.17055e-05	-0.00437486	-0.000127665	
-1.85656e-05	-0.00506454	-1.97881e-05	
-0.0142695	-0.000539678	0.00316129	
-0.000775248	-0.00486798	0.000276741	
-0.000177082	-0.00260057	-0.000394793	
-6.2434e-05	-0.00475451	-6.41431e-05	
0.0193235	0.00101301	-0.00403704	
0.0025255	-0.00163732	-0.00100742	
0.000398794	-0.00211271	-0.000156357	
-0.000276163	-0.0021774	0.000139829	
-0.000133511	-0.0023559	5.63553e-05	
1.31697e-05	-0.0021422	9.16723e-06	
0.00126574	-0.00232471	-0.000563332	
-0.00152408	-0.00232735	0.00068377	
-0.000252315	-0.00199984	0.000144151	
-0.000107507	-0.00230862	5.24517e-05	
0.000704528	-0.00231307	-0.000319845	
0.000818728	-0.00223086	-0.000370003	
-6.37089e-05	-0.00227142	3.49393e-05	
0.000133358	-0.00228054	-4.84255e-05	
7.22316e-06	-0.00229664	4.37621e-06	
0.00140414	-0.00155237	-0.000486446	
0.000304556	-0.00192862	-9.29411e-05	
0.00106521	-0.00175033	-0.000407245	
5.14364e-05	-0.00189644	3.82915e-05	
7.33104e-06	-0.00226731	-4.61582e-07	
0.00235272	-0.00137536	-0.00082041	
4.51588e-07	-0.00230526	3.72109e-07	
8.0997e-05	-0.00236692	-3.15839e-05	
0.00306317	-0.000668442	-0.000748731	
9.94251e-06	-0.00228207	1.06575e-05	
0.0028939	-0.000903746	-0.000842849	
0.000798884	-0.00202927	-0.000348135	
4.14957e-07	-0.00231621	-2.00094e-06	
1.82081e-05	-0.00209462	1.2008e-05	
7.483e-05	-0.00127031	0.000119065	
-3.95028e-06	-0.0023767	2.10934e-05	
-0.0046809	-0.00104582	0.00164056	
-2.91554e-05	-0.00213549	-2.12297e-05	
0.000334274	-0.00218366	-0.000164963	
-0.00758065	-0.000299315	0.00207193	
0.000458522	-0.00237236	-0.000196396	
-1.42816e-05	-0.00215151	-1.23385e-05	
-0.0005292	-0.00236407	0.00024022	
0.000381871	-0.00236247	-0.000173497	
0.000469954	-0.00236101	-0.000213616	
-0.000887249	-0.00196592	0.000370336	
-0.000154482	-0.00232165	6.19514e-05	
-0.000929713	-0.00234835	0.00042144	
-0.000678104	-0.00222648	0.000305018	
-0.000459899	-0.00227786	0.00019289	
0.000347884	-0.00230126	-0.00016426	
-0.00292582	-0.00149441	0.00113198	
-0.000990802	-0.00190382	0.000402216	
-0.000980626	-0.00176558	0.000374761	
-1.00583e-05	-0.0022818	-1.19663e-05	
-5.04295e-05	-0.00167878	-5.14248e-05	
-1.36861e-05	-0.00229946	-4.27091e-06	
-7.45034e-05	-0.00141414	-0.000115077	
-6.61308e-06	-0.00234443	-1.01844e-06	
-3.3875e-05	-0.00184954	-3.36917e-05	
-8.09849e-06	-0.0022776	-7.20432e-06	
-0.0149586	0.000640859	0.00313023	
-0.000792481	-0.0021101	0.000333198	
-8.77693e-05	-0.00106219	-0.000127653	
-3.00458e-05	-0.00206105	-1.639e-05	
0.020454	0.00101481	-0.00402209	
0.00279047	-0.00184899	-0.001086	
0.000484845	-0.00238691	-0.000185204	
-0.000209831	-0.00245712	0.000103452	
-0.000102472	-0.00261576	3.61249e-05	
1.11562e-05	-0.00242023	8.81882e-06	
0.00130433	-0.00259278	-0.000550839	
-0.00155975	-0.00259028	0.000663347	
-0.000140018	-0.00224259	9.36371e-05	
-0.000120133	-0.00259857	5.52813e-05	
0.000726823	-0.00259441	-0.000316406	
0.000873844	-0.00250306	-0.000374841	
-2.92448e-05	-0.00256386	1.22384e-05	
0.000149771	-0.00255879	-5.70153e-05	
7.90781e-06	-0.002585	1.34637e-06	
0.0015871	-0.00174235	-0.000548789	
0.000357977	-0.00215691	-0.000119071	
0.00117828	-0.00197521	-0.000444367	
4.65994e-05	-0.00211583	4.22173e-05	
6.96538e-06	-0.00255721	-2.8265e-06	
0.00256717	-0.00154419	-0.000891286	
-8.72644e-09	-0.00257953	2.63578e-06	
8.68574e-05	-0.00261585	-3.43131e-05	
0.0032916	-0.000757966	-0.000809968	
8.4535e-06	-0.00254746	1.06514e-05	
0.00314689	-0.00102758	-0.000933855	
0.00087295	-0.00227864	-0.000363129	
6.20718e-07	-0.00258501	-1.66774e-06	
1.57068e-05	-0.00234958	1.05635e-05	
7.55281e-05	-0.00142839	0.000121896	
-1.25891e-05	-0.00261962	2.51613e-05	
-0.00511608	-0.00120233	0.00180938	
-0.000103265	-0.00239574	1.21226e-05	
0.000273911	-0.00245537	-0.000125139	
-0.00817241	-0.000373434	0.00218384	
0.000464079	-0.00262442	-0.000191305	
-1.22657e-05	-0.00242239	-1.34315e-05	
-0.000537623	-0.00261985	0.000228176	
0.000381991	-0.00261917	-0.00016419	
0.000468969	-0.00261564	-0.000204955	
-0.00105432	-0.00220462	0.0004277	
-0.000164817	-0.00260521	6.36281e-05	
-0.000955296	-0.00261275	0.000411356	
-0.000730318	-0.00250255	0.000316864	
-0.000490447	-0.00255611	0.000200449	
0.000323085	-0.00258736	-0.000143207	
-0.0032398	-0.00170553	0.0012311	
-0.00108964	-0.00212999	0.000427885	
-0.00116856	-0.00198155	0.000442546	
-8.29297e-06	-0.00254712	-9.1768e-06	
-4.66791e-05	-0.00190081	-5.29202e-05	
-1.43913e-05	-0.00257542	-1.20749e-06	
-7.54059e-05	-0.0016026	-0.0001203	
-7.01523e-06	-0.00260278	-5.44192e-07	
-2.75203e-05	-0.00207904	-3.60542e-05	
-7.43608e-06	-0.00256588	-2.20776e-06	
-0.0157647	0.000623998	0.0030481	
-0.000863097	-0.00234679	0.000355739	
-9.11314e-05	-0.00121198	-0.000129517	
-2.46365e-05	-0.00229126	-2.14647e-05	
0.0213578	0.000862113	-0.00419117	
0.00301584	-0.00159129	-0.00115069	
0.000565226	-0.00210411	-0.000218987	
-0.000148248	-0.00216988	7.32569e-05	
-7.42527e-05	-0.00234657	2.44086e-05	
5.76443e-06	-0.00213569	1.15068e-05	
0.00133353	-0.00232572	-0.000555881	
-0.00158704	-0.00232332	0.000663683	
-2.14841e-05	-0.00196336	2.12857e-05	
-0.000117941	-0.00230667	5.12209e-05	
0.000756674	-0.00232027	-0.00032233	
0.000918844	-0.0022149	-0.000389713	
3.52075e-06	-0.00227105	-3.64082e-06	
0.000165197	-0.00226499	-6.32884e-05	
5.44622e-06	-0.00229023	-1.45717e-06	
0.00173593	-0.00149651	-0.000593038	
0.000400485	-0.00187909	-0.000146055	
0.00127602	-0.00170573	-0.00049156	
3.46428e-05	-0.00183679	2.36433e-05	
5.41744e-06	-0.00228036	-3.80728e-08	
0.00273964	-0.00131866	-0.000946127	
-1.03324e-06	-0.00231273	-8.14263e-07	
9.2135e-05	-0.00234632	-3.62131e-05	
0.00346389	-0.000634992	-0.000870647	
4.0502e-06	-0.00225331	8.85338e-06	
0.00334293	-0.000865739	-0.0010137	
0.000946635	-0.00199861	-0.000396352	
1.18733e-06	-0.00231708	-1.16979e-06	
7.742e-06	-0.00206552	8.64146e-06	
4.99363e-05	-0.00121847	9.49139e-05	
-2.30515e-05	-0.00235097	2.64274e-05	
-0.00548314	-0.001019	0.00192832	
-0.000172786	-0.00210846	5.21124e-05	
0.000214948	-0.00216664	-9.62548e-05	
-0.00865787	-0.000295924	0.00227072	
0.000463887	-0.00235464	-0.000187226	
-6.73766e-06	-0.00213471	-1.24705e-05	
-0.000545212	-0.00234998	0.000231345	
0.000379607	-0.0023456	-0.000159297	
0.000468794	-0.00234232	-0.000197847	
-0.00120346	-0.0019298	0.000492797	
-0.000186189	-0.00231187	7.34289e-05	
-0.000985538	-0.00233794	0.000418024	
-0.000775357	-0.0022104	0.000330142	
-0.000521499	-0.00226312	0.000212207	
0.000304777	-0.00229117	-0.000129086	
-0.00351613	-0.00147472	0.00130684	
-0.00117025	-0.00185907	0.000465377	
-0.00133782	-0.00171835	0.000517195	
-4.0338e-06	-0.00225262	-8.74018e-06	
-3.0648e-05	-0.00164607	-4.04288e-05	
-1.10292e-05	-0.00229673	-4.48123e-06	
-4.84125e-05	-0.00137845	-9.02668e-05	
-5.8402e-06	-0.00233184	-1.12703e-06	
-1.63169e-05	-0.00181011	-2.3766e-05	
-4.50363e-06	-0.00227454	-2.30395e-06	
-0.0164013	0.000527465	0.00310809	
-0.000920707	-0.00205994	0.000378273	
-6.10545e-05	-0.00103487	-9.67482e-05	
-1.77793e-05	-0.00200655	-8.38726e-06	
0.0221028	0.000619895	-0.00419587	
0.00321565	-0.00134085	-0.00115298	
0.000658173	-0.00180245	-0.000241541	
-5.31605e-05	-0.00188255	2.73019e-05	
-5.57246e-05	-0.0020862	1.54919e-05	
2.75666e-07	-0.00183929	1.48822e-05	
0.00135588	-0.00207233	-0.00053389	
-0.00160272	-0.00207278	0.000623775	
9.00661e-05	-0.00166512	-2.78756e-05	
-0.000120341	-0.00205669	5.24048e-05	
0.000782513	-0.00206447	-0.000308934	
0.000994625	-0.00194609	-0.000399445	
2.29822e-05	-0.00203415	-1.03965e-05	
0.000187423	-0.00203028	-7.23431e-05	
2.30458e-06	-0.00204567	-3.19096e-06	
0.00186741	-0.00125015	-0.000614905	
0.000443165	-0.00158585	-0.000160353	
0.00136279	-0.00143471	-0.000495799	
1.98321e-05	-0.00154525	2.06549e-05	
5.57082e-06	-0.00203366	3.23445e-08	
0.00288903	-0.00110314	-0.000943109	
-8.63589e-07	-0.00206655	-7.08694e-07	
9.44957e-05	-0.00208289	-3.78895e-05	
0.00360842	-0.000553406	-0.000884426	
1.58871e-07	-0.00201201	6.90834e-06	
0.003514	-0.000736339	-0.00102442	
0.00101281	-0.00170001	-0.000392069	
1.35351e-06	-0.00206165	6.21981e-08	
3.42106e-06	-0.00175983	6.98035e-06	
2.48393e-05	-0.00102025	6.88383e-05	
-3.13784e-05	-0.00208783	2.5158e-05	
-0.00580766	-0.000867726	0.00190914	
-0.000253797	-0.0018019	7.95817e-05	
0.000124217	-0.00187623	-5.19703e-05	
-0.00906224	-0.000299361	0.00226095	
0.000466682	-0.0020929	-0.000179865	
-8.39346e-07	-0.00183447	-1.40102e-05	
-0.000551586	-0.00209088	0.000220356	
0.00037146	-0.00208952	-0.000146961	
0.000462736	-0.00208234	-0.000178405	
-0.00134424	-0.0016376	0.000519869	
-0.000202277	-0.00205496	7.17898e-05	
-0.00101257	-0.00207468	0.000398023	
-0.000848461	-0.00193699	0.000344507	
-0.000556403	-0.00202272	0.000213449	
0.000294873	-0.00203955	-0.000109831	
-0.00375899	-0.00123391	0.00131627	
-0.00124708	-0.00156988	0.000473829	
-0.00149244	-0.00144275	0.00054142	
-6.37556e-07	-0.00200368	-6.20132e-06	
-1.44636e-05	-0.0013787	-3.58126e-05	
-9.16536e-06	-0.0020417	-4.32441e-06	
-2.589e-05	-0.00115216	-6.36454e-05	
-4.35381e-06	-0.00206884	-1.45298e-06	
-4.74312e-06	-0.00152402	-2.10121e-05	
-2.50759e-07	-0.00203037	-7.33691e-07	
-0.0169135	0.000351045	0.00313067	
-0.00097797	-0.00175306	0.000384866	
-3.2851e-05	-0.000870207	-7.09822e-05	
-7.91461e-06	-0.00170252	-1.17384e-05	
0.0226908	0.000356451	-0.00436214	
0.00338151	-0.00118186	-0.00118587	
0.000743234	-0.00159737	-0.000274316	
4.28275e-05	-0.00167169	-1.22306e-05	
-5.22926e-05	-0.00189141	1.42094e-05	
-8.30862e-08	-0.00163161	7.75583e-06	
0.00136447	-0.00188795	-0.000525366	
-0.00159609	-0.00188771	0.000605485	
0.000203312	-0.00147296	-7.26498e-05	
-0.000104416	-0.00184834	4.20212e-05	
0.000804352	-0.00186878	-0.000310513	
0.00106235	-0.00173201	-0.00040944	
4.97055e-05	-0.00182818	-2.73e-05	
0.000215381	-0.00181912	-8.3231e-05	
1.51599e-06	-0.00183537	-3.58592e-06	
0.00196804	-0.00110012	-0.000647286	
0.000483382	-0.00139884	-0.000172255	
0.00144058	-0.00126159	-0.000518428	
1.1511e-05	-0.00136066	1.12143e-05	
4.05436e-06	-0.00183824	-8.22238e-08	
0.00300177	-0.000980819	-0.000978867	
-1.06747e-06	-0.00188297	-1.37514e-06	
9.9457e-05	-0.00188529	-3.71958e-05	
0.00373007	-0.000511745	-0.00092744	
-1.15316e-06	-0.00179492	4.70757e-06	
0.00365627	-0.000667722	-0.00106731	
0.00106821	-0.0015073	-0.000405548	
2.75294e-06	-0.00187026	6.84041e-07	
1.09691e-06	-0.00155876	4.58776e-06	
1.17046e-05	-0.00090293	4.12345e-05	
-3.52285e-05	-0.00188779	2.1537e-05	
-0.00605925	-0.000794245	0.00195914	
-0.000335848	-0.00160071	0.000115637	
3.18174e-05	-0.00167097	-1.14248e-05	
-0.00938947	-0.000332592	0.00233621	
0.000475175	-0.00189647	-0.000180921	
-5.904e-07	-0.00163281	-7.37835e-06	
-0.000551522	-0.00190193	0.000217464	
0.000363547	-0.00190053	-0.000138524	
0.00044578	-0.00189535	-0.000170677	
-0.00148039	-0.00145305	0.000551337	
-0.000230014	-0.00184896	8.58289e-05	
-0.00103007	-0.00187672	0.000397595	
-0.000916184	-0.00172877	0.000357465	
-0.00059991	-0.00181655	0.00023211	
0.000287977	-0.00183286	-0.000107492	
-0.00394948	-0.00109035	0.00135488	
-0.00131915	-0.00138909	0.000479535	
-0.00162689	-0.00127024	0.000587026	
1.48944e-06	-0.00179346	-4.10414e-06	
-6.52652e-06	-0.00121225	-2.0888e-05	
-5.75404e-06	-0.00184635	-2.6454e-06	
-1.2656e-05	-0.00102008	-3.60381e-05	
-5.03091e-06	-0.00187493	-2.40855e-06	
1.56557e-07	-0.0013449	-1.12924e-05	
2.37987e-06	-0.0018294	3.50357e-06	
-0.0173266	0.000158598	0.00323831	
-0.00102492	-0.00155772	0.000388834	
-1.6521e-05	-0.000772025	-4.11682e-05	
-5.31003e-06	-0.00151407	-5.69046e-06	
0.0230853	3.98781e-05	-0.0048189	
0.00358357	-0.00138076	-0.001358	
0.000759044	-0.00175065	-0.000312209	
0.000130126	-0.00182617	-5.79696e-05	
-3.22509e-05	-0.00195958	6.61563e-06	
-2.37315e-06	-0.00177543	5.28107e-06	
0.00129042	-0.0019493	-0.00055243	
-0.00155606	-0.00198306	0.000655756	
0.000234184	-0.00169908	-9.39356e-05	
-0.000105706	-0.00197054	4.73488e-05	
0.000794794	-0.00198145	-0.000346634	
0.00104427	-0.00187208	-0.000443624	
0.000106346	-0.00194248	-5.12407e-05	
0.000214588	-0.00191162	-8.88853e-05	
2.17428e-06	-0.00196002	-1.85359e-06	
0.0020522	-0.00122919	-0.000737864	
0.000488094	-0.00166544	-0.000187815	
0.00144552	-0.00155718	-0.000570878	
1.02959e-05	-0.00164405	8.76337e-06	
1.45841e-06	-0.00194312	-9.75727e-07	
0.00305694	-0.00106486	-0.00106421	
-7.24886e-07	-0.00195586	-1.11577e-06	
8.9837e-05	-0.00195735	-3.87181e-05	
0.00381435	-0.000578877	-0.001016	
-1.98504e-06	-0.0019044	2.73741e-06	
0.0037434	-0.000732431	-0.00114393	
0.00104267	-0.00170204	-0.000433387	
2.94559e-06	-0.00199165	-5.50865e-07	
-1.45774e-06	-0.00172964	3.0387e-06	
4.72465e-06	-0.000944711	2.5549e-05	
-4.19688e-05	-0.00195329	2.66427e-05	
-0.00621508	-0.000867334	0.00208339	
-0.000364315	-0.00176878	0.00014328	
-5.67923e-05	-0.00184459	2.83308e-05	
-0.00958838	-0.000472666	0.0025666	
0.000450006	-0.0019546	-0.000192464	
2.47818e-07	-0.00179119	-7.04299e-06	
-0.000518378	-0.00195209	0.000220974	
0.000373816	-0.00195759	-0.000160037	
0.000429443	-0.00198907	-0.000183393	
-0.00146455	-0.00171174	0.000597598	
-0.000222382	-0.00198378	9.26285e-05	
-0.00099518	-0.00199975	0.000435545	
-0.000896333	-0.00188474	0.000389895	
-0.000618318	-0.0019205	0.000261808	
0.000253469	-0.00196697	-0.000105921	
-0.00409836	-0.00120888	0.00150514	
-0.00132152	-0.00167462	0.000529957	
-0.00183099	-0.00146641	0.000723056	
3.2491e-06	-0.00191044	-1.53029e-06	
-3.43639e-06	-0.00136334	-1.4134e-05	
-1.98353e-06	-0.00195845	-7.48887e-10	
-6.12053e-06	-0.00107604	-2.05591e-05	
-4.02484e-06	-0.00199479	-8.26435e-07	
2.42084e-06	-0.00163328	-8.71232e-06	
1.13201e-07	-0.0019556	8.27447e-07	
-0.0175405	-7.4773e-05	0.00362747	
-0.000994429	-0.0017492	0.000419102	
-7.09292e-06	-0.000787714	-2.33086e-05	
-4.58849e-06	-0.0017262	-4.97478e-06	
				</DataArray>
				<DataArray type="Float64" Name="Time Step Shed" NumberOfComponents="1" Format="ascii">
3	
3	
3	
3	
3	
3	
3	
3	
3	
3	
3	
3	
3	
3	
3	
3	
3	
3	
3	
3	
3	
3	
3	
3	
3	
3	
3	
3	
3	
3	
3	
3	
3	
3	
3	
3	
3	
3	
3	
3	
3	
3	
3	
3	
3	
3	
3	
3	
3	
3	
3	
3	
3	
3	
3	
3	
3	
3	
3	
3	
4	
4	
4	
4	
4	
4	
4	
4	
4	
4	
4	
4	
4	
4	
4	
4	
4	
4	
4	
4	
4	
4	
4	
4	
4	
4	
4	
4	
4	
4	
4	
4	
4	
4	
4	
4	
4	
4	
4	
4	
4	
4	
4	
4	
4	
4	
4	
4	
4	
4	
4	
4	
4	
4	
4	
4	
4	
4	
4	
4	
5	
5	
5	
5	
5	
5	
5	
5	
5	
5	
5	
5	
5	
5	
5	
5	
5	
5	
5	
5	
5	
5	
5	
5	
5	
5	
5	
5	
5	
5	
5	
5	
5	
5	
5	
5	
5	
5	
5	
5	
5	
5	
5	
5	
5	
5	
5	
5	
5	
5	
5	
5	
5	
5	
5	
5	
5	
5	
5	
5	
6	
6	
6	
6	
6	
6	
6	
6	
6	
6	
6	
6	
6	
6	
6	
6	
6	
6	
6	
6	
6	
6	
6	
6	
6	
6	
6	
6	
6	
6	
6	
6	
6	
6	
6	
6	
6	
6	
6	
6	
6	
6	
6	
6	
6	
6	
6	
6	
6	
6	
6	
6	
6	
6	
6	
6	
6	
6	
6	
6	
7	
7	
7	
7	
7	
7	
7	
7	
7	
7	
7	
7	
7	
7	
7	
7	
7	
7	
7	
7	
7	
7	
7	
7	
7	
7	
7	
7	
7	
7	
7	
7	
7	
7	
7	
7	
7	
7	
7	
7	
7	
7	
7	
7	
7	
7	
7	
7	
7	
7	
7	
7	
7	
7	
7	
7	
7	
7	
7	
7	
8	
8	
8	
8	
8	
8	
8	
8	
8	
8	
8	
8	
8	
8	
8	
8	
8	
8	
8	
8	
8	
8	
8	
8	
8	
8	
8	
8	
8	
8	
8	
8	
8	
8	
8	
8	
8	
8	
8	
8	
8	
8	
8	
8	
8	
8	
8	
8	
8	
8	
8	
8	
8	
8	
8	
8	
8	
8	
8	
8	
9	
9	
9	
9	
9	
9	
9	
9	
9	
9	
9	
9	
9	
9	
9	
9	
9	
9	
9	
9	
9	
9	
9	
9	
9	
9	
9	
9	
9	
9	
9	
9	
9	
9	
9	
9	
9	
9	
9	
9	
9	
9	
9	
9	
9	
9	
9	
9	
9	
9	
9	
9	
9	
9	
9	
9	
9	
9	
9	
9	
10	
10	
10	
10	
10	
10	
10	
10	
10	
10	
10	
10	
10	
10	
10	
10	
10	
10	
10	
10	
10	
10	
10	
10	
10	
10	
10	
10	
10	
10	
10	
10	
10	
10	
10	
10	
10	
10	
10	
10	
10	
10	
10	
10	
10	
10	
10	
10	
10	
10	
10	
10	
10	
10	
10	
10	
10	
10	
10	
10	
				</DataArray>
			</CellData>
			<Points>
				<DataArray type="Float64" Name="Position" NumberOfComponents="3" Format="ascii">
1.95665	2.92623	0.115171	
1.94741	2.34044	0.0853429	
1.9413	1.64775	0.10319	
1.94527	1.44805	0.106126	
1.94184	0.14904	0.112875	
1.94445	1.54755	0.10581	
1.94396	0.249284	0.114448	
1.94247	0.450293	0.113	
1.94412	1.94732	0.0965728	
1.94019	0.849667	0.110492	
1.94389	0.650262	0.110141	
1.94196	1.34805	0.107399	
1.94506	1.04988	0.108994	
1.94435	1.14951	0.109409	
1.9445	0.949872	0.110406	
1.94832	2.43905	0.0839974	
1.9472	2.04667	0.0933562	
1.94848	2.24314	0.088499	
1.94963	2.14537	0.0907419	
1.94475	0.749911	0.112018	
1.95063	2.53807	0.0810035	
1.94247	0.349768	0.115869	
1.94292	0.0490778	0.11291	
1.95356	2.83195	0.0906873	
1.94548	1.24859	0.109046	
1.95233	2.73517	0.0785728	
1.94468	1.84756	0.100858	
1.94741	0.55061	0.11201	
1.94717	1.74807	0.103345	
1.95245	2.63706	0.0777257	
1.94267	-0.0505895	0.112393	
1.94821	-2.63531	0.0772908	
1.94086	-1.64753	0.10169	
1.94418	-1.44901	0.106009	
1.95335	-2.83001	0.0958305	
1.94281	-0.150365	0.111784	
1.94333	-1.54794	0.104768	
1.94447	-0.250351	0.1113	
1.94305	-0.350356	0.110613	
1.94419	-0.449732	0.109329	
1.94264	-1.94556	0.097883	
1.94066	-0.84906	0.110912	
1.94402	-0.649379	0.109871	
1.94196	-1.34933	0.107763	
1.94362	-1.14959	0.109512	
1.94422	-0.949309	0.110651	
1.94786	-2.43945	0.0808578	
1.94555	-2.04526	0.09688	
1.94664	-2.24282	0.0904518	
1.94485	-1.24913	0.109287	
1.9494	-2.34087	0.0854345	
1.94478	-0.749296	0.11227	
1.95069	-2.53807	0.0781665	
1.94756	-0.549796	0.110098	
1.9469	-2.14431	0.0954849	
1.94685	-1.04961	0.110831	
1.95814	-2.92597	0.11916	
1.9462	-1.74738	0.101356	
1.95288	-2.73383	0.0806277	
1.94542	-1.8465	0.100385	
1.87159	2.93733	0.0738628	
1.8926	2.34777	0.00955345	
1.89851	1.64939	0.0271558	
1.90258	1.44924	0.0274421	
1.90164	0.149403	0.0355821	
1.90082	1.54906	0.0275353	
1.90268	0.249727	0.0364519	
1.9017	0.449606	0.0362651	
1.89744	1.94972	0.019785	
1.90048	0.850168	0.034491	
1.90207	0.650391	0.0319403	
1.90017	1.34939	0.0306965	
1.90254	1.0503	0.0299976	
1.90129	1.15041	0.030489	
1.90143	0.950024	0.0318744	
1.88933	2.44738	0.0108442	
1.89816	2.04983	0.0148783	
1.8953	2.24907	0.00996573	
1.89736	2.14972	0.0112981	
1.90187	0.750485	0.0332272	
1.88631	2.54741	0.00985916	
1.90035	0.349899	0.0394468	
1.90249	0.0496369	0.0347427	
1.87333	2.84588	0.0372878	
1.90162	1.24957	0.0298757	
1.87688	2.74792	0.0166786	
1.89745	1.84973	0.0236113	
1.90322	0.550173	0.0316615	
1.89927	1.74983	0.0242396	
1.8817	2.64778	0.0101463	
1.90244	-0.0499905	0.0341264	
1.88074	-2.6474	0.00996949	
1.89798	-1.64949	0.024888	
1.90185	-1.45022	0.027204	
1.87414	-2.8444	0.0424763	
1.90154	-0.149932	0.0334815	
1.89979	-1.54957	0.0261843	
1.90298	-0.249891	0.0320918	
1.90199	-0.350165	0.0324031	
1.90348	-0.449646	0.0305887	
1.89587	-1.94908	0.0216931	
1.90105	-0.849806	0.0348702	
1.90276	-0.650278	0.0311238	
1.89942	-1.35047	0.0307479	
1.90123	-1.15063	0.0313158	
1.90186	-0.949812	0.0325848	
1.88828	-2.44748	0.00735138	
1.89615	-2.04899	0.0199537	
1.89322	-2.24751	0.0131041	
1.9011	-1.25034	0.0306289	
1.89214	-2.34724	0.00917078	
1.90264	-0.750235	0.0332847	
1.88538	-2.54789	0.00646833	
1.90399	-0.549937	0.0288226	
1.89398	-2.14846	0.01898	
1.9024	-1.05025	0.030935	
1.87279	-2.93634	0.0783744	
1.89941	-1.74954	0.0219042	
1.87678	-2.74706	0.0194658	
1.89687	-1.84956	0.0217776	
1.77459	2.94316	0.0504324	
1.79028	2.35081	-0.0297356	
1.79838	1.65005	-0.0185136	
1.80198	1.44977	-0.019731	
1.80242	0.149695	-0.0126769	
1.80043	1.54978	-0.0190406	
1.80348	0.24983	-0.0118747	
1.8028	0.449527	-0.0113196	
1.7964	1.9508	-0.0239014	
1.80156	0.850299	-0.0126958	
1.80208	0.65034	-0.0154163	
1.80067	1.3498	-0.016523	
1.80208	1.05052	-0.0175048	
1.8011	1.15063	-0.0169088	
1.80145	0.950207	-0.0156195	
1.78737	2.45088	-0.0265952	
1.79624	2.05121	-0.0283683	
1.79235	2.25143	-0.032462	
1.79493	2.1516	-0.0310458	
1.80228	0.750582	-0.0145298	
1.78419	2.55147	-0.0250097	
1.80202	0.349832	-0.00824161	
1.80315	0.0499152	-0.0139385	
1.77419	2.8521	0.0113161	
1.80181	1.24994	-0.0174333	
1.77624	2.75339	-0.0117793	
1.7972	1.85064	-0.0209781	
1.80288	0.550168	-0.0161861	
1.7986	1.75061	-0.0213204	
1.78004	2.65237	-0.0217571	
1.80327	-0.0497624	-0.0145093	
1.77908	-2.65241	-0.0217511	
1.7975	-1.65026	-0.0209637	
1.80124	-1.45082	-0.0201379	
1.77515	-2.85068	0.0166988	
1.80219	-0.149727	-0.0149861	
1.79931	-1.5503	-0.0204273	
1.80317	-0.249614	-0.0164879	
1.80252	-0.3499	-0.015776	
1.8035	-0.449556	-0.0175905	
1.79515	-1.95043	-0.0217705	
1.80208	-0.850174	-0.0125503	
1.80272	-0.650441	-0.0166932	
1.7999	-1.35103	-0.0162833	
1.80127	-1.15095	-0.0159713	
1.80195	-0.950118	-0.0149613	
1.78588	-2.45098	-0.0297008	
1.79488	-2.05064	-0.0230097	
1.79143	-2.24975	-0.0278634	
1.80137	-1.25079	-0.016481	
1.78979	-2.34999	-0.0299845	
1.80312	-0.750571	-0.0148602	
1.78308	-2.55215	-0.0282811	
1.80346	-0.550119	-0.0193748	
1.79256	-2.15029	-0.0236491	
1.80223	-1.05064	-0.0164217	
1.77594	-2.94201	0.0549003	
1.7984	-1.75054	-0.0239554	
1.77614	-2.75288	-0.0087787	
1.79611	-1.85083	-0.022941	
1.67483	2.94699	0.0362589	
1.67997	2.35197	-0.038399	
1.68692	1.65022	-0.0304384	
1.68937	1.44997	-0.0325794	
1.68981	0.14991	-0.0264821	
1.68836	1.54987	-0.0314337	
1.69112	0.24988	-0.0260892	
1.69065	0.449607	-0.0251719	
1.68494	1.95126	-0.0344709	
1.68929	0.850295	-0.0259752	
1.6898	0.650285	-0.0286213	
1.68868	1.3499	-0.0290197	
1.68904	1.05049	-0.0306917	
1.68864	1.1507	-0.0298511	
1.68906	0.950204	-0.028603	
1.67837	2.45241	-0.0348412	
1.68456	2.05182	-0.0381304	
1.68131	2.25245	-0.0412608	
1.68328	2.15219	-0.040224	
1.69009	0.750613	-0.0278633	
1.67633	2.55305	-0.0328064	
1.69035	0.349841	-0.0220851	
1.69059	0.0501293	-0.0280098	
1.67214	2.85476	0.00116019	
1.68942	1.25001	-0.0305776	
1.67197	2.75527	-0.0194946	
1.6857	1.85101	-0.0322044	
1.69029	0.550182	-0.0293607	
1.68706	1.75091	-0.0332029	
1.67371	2.65409	-0.0290294	
1.6905	-0.0497789	-0.0285159	
1.67273	-2.65428	-0.0287975	
1.68544	-1.65059	-0.0326942	
1.68853	-1.45117	-0.032901	
1.67298	-2.85355	0.00595222	
1.68944	-0.149707	-0.0284869	
1.6867	-1.55053	-0.0326205	
1.69035	-0.249479	-0.0301193	
1.68993	-0.349864	-0.0290247	
1.6906	-0.449562	-0.0308376	
1.68377	-1.95095	-0.0325651	
1.68992	-0.850211	-0.0259207	
1.69034	-0.650416	-0.0298722	
1.68765	-1.35133	-0.0286802	
1.68912	-1.15112	-0.0289886	
1.6897	-0.950196	-0.027888	
1.67682	-2.45239	-0.0375171	
1.6837	-2.05135	-0.0332747	
1.68043	-2.25082	-0.0370825	
1.68913	-1.25095	-0.029645	
1.67955	-2.35115	-0.0387095	
1.69082	-0.75064	-0.02833	
1.67509	-2.55381	-0.03564	
1.69045	-0.55012	-0.0321131	
1.68105	-2.15094	-0.0349813	
1.68936	-1.05073	-0.0295953	
1.67606	-2.94594	0.0401899	
1.68578	-1.75097	-0.0357706	
1.67186	-2.75503	-0.0167797	
1.68443	-1.85136	-0.0342288	
1.5744	2.94962	0.0242165	
1.57363	2.35267	-0.0356278	
1.57794	1.65041	-0.0290767	
1.58036	1.45001	-0.0317296	
1.58032	0.149905	-0.0264536	
1.5792	1.54991	-0.0303252	
1.58143	0.249868	-0.0264402	
1.58118	0.449585	-0.0251705	
1.57692	1.95146	-0.03223	
1.58006	0.850353	-0.0255002	
1.58008	0.650253	-0.028101	
1.57969	1.34985	-0.0278519	
1.57959	1.05068	-0.0300536	
1.57961	1.15085	-0.0290684	
1.5799	0.950258	-0.0278898	
1.57229	2.45302	-0.0324068	
1.57661	2.05217	-0.0351245	
1.57393	2.25289	-0.0379682	
1.57577	2.15266	-0.0368714	
1.58032	0.750475	-0.0273995	
1.57097	2.55369	-0.0309252	
1.5809	0.349906	-0.02221	
1.58122	0.0502367	-0.0280213	
1.57099	2.85583	-0.00421148	
1.58013	1.24997	-0.02978	
1.5698	2.75571	-0.0201726	
1.57734	1.85127	-0.0304248	
1.58052	0.550155	-0.028879	
1.5779	1.75109	-0.0318248	
1.57011	2.65456	-0.0277553	
1.58099	-0.0497402	-0.0283906	
1.56923	-2.65475	-0.0273289	
1.57649	-1.65085	-0.0309564	
1.57959	-1.45142	-0.0319034	
1.57165	-2.85504	-0.000501848	
1.58009	-0.149656	-0.0279028	
1.5777	-1.55072	-0.0311878	
1.58051	-0.249416	-0.0296702	
1.58023	-0.34989	-0.0282476	
1.58068	-0.449563	-0.0299975	
1.57562	-1.95127	-0.0305364	
1.58076	-0.850349	-0.0254926	
1.58063	-0.650397	-0.0291199	
1.57867	-1.35147	-0.0277193	
1.57992	-1.15127	-0.0281676	
1.58051	-0.950343	-0.0272551	
1.5713	-2.45312	-0.0346707	
1.57594	-2.05166	-0.0310132	
1.57366	-2.25137	-0.0346075	
1.57959	-1.25097	-0.0289021	
1.57362	-2.35183	-0.0360878	
1.58098	-0.750558	-0.0278563	
1.57046	-2.55441	-0.0332083	
1.58061	-0.550091	-0.0311039	
1.57431	-2.15143	-0.0327216	
1.58021	-1.05088	-0.0289964	
1.57541	-2.94879	0.0273176	
1.57703	-1.75103	-0.0341105	
1.56959	-2.75568	-0.0180923	
1.57609	-1.85163	-0.0324077	
1.47431	2.95115	0.0110732	
1.4711	2.35324	-0.0310167	
1.47342	1.65059	-0.0254217	
1.47493	1.45017	-0.0283506	
1.47457	0.149989	-0.0239086	
1.47413	1.55031	-0.0268192	
1.47574	0.25007	-0.024284	
1.4759	0.449684	-0.0227642	
1.47239	1.95114	-0.0279683	
1.47414	0.850218	-0.0226214	
1.47479	0.650411	-0.0251976	
1.47511	1.34978	-0.0243212	
1.4737	1.05062	-0.0269954	
1.47415	1.15072	-0.0259375	
1.4736	0.950018	-0.0247686	
1.47057	2.45358	-0.028506	
1.47304	2.05207	-0.0303251	
1.47136	2.2532	-0.0326839	
1.47286	2.15275	-0.0319665	
1.47489	0.750677	-0.0245084	
1.4692	2.55376	-0.0277622	
1.47553	0.349908	-0.0199955	
1.47521	0.0500702	-0.0253673	
1.47117	2.85586	-0.00978792	
1.47525	1.24999	-0.0267027	
1.46929	2.75488	-0.0201418	
1.47246	1.8509	-0.0264337	
1.47518	0.550131	-0.0260661	
1.47291	1.75125	-0.0281324	
1.46864	2.65382	-0.0253294	
1.47498	-0.0497766	-0.0255978	
1.46829	-2.65431	-0.0248011	
1.47314	-1.65088	-0.0269677	
1.4738	-1.45139	-0.0283039	
1.47152	-2.85528	-0.00739539	
1.47429	-0.149777	-0.024958	
1.47351	-1.55063	-0.0273866	
1.47456	-0.249515	-0.0266121	
1.47469	-0.34984	-0.0250002	
1.47515	-0.449548	-0.0266011	
1.47258	-1.95122	-0.0266601	
1.47473	-0.850335	-0.0225939	
1.47544	-0.650527	-0.025921	
1.47453	-1.35146	-0.024267	
1.47441	-1.15132	-0.0250846	
1.47426	-0.950084	-0.0242015	
1.46972	-2.45336	-0.030172	
1.47313	-2.05174	-0.0271846	
1.47073	-2.25168	-0.0301225	
1.4751	-1.25096	-0.0259205	
1.47081	-2.3523	-0.0315028	
1.47533	-0.750821	-0.0247568	
1.46881	-2.55446	-0.0293137	
1.47522	-0.549841	-0.0276784	
1.47151	-2.15174	-0.0283336	
1.47453	-1.05077	-0.0259784	
1.47526	-2.95058	0.0131655	
1.47327	-1.75134	-0.0301438	
1.46895	-2.75496	-0.018899	
1.47227	-1.8514	-0.028428	