<VTKFile type="UnstructuredGrid" version="0.1" byte_order="LittleEndian">
	<UnstructuredGrid>
		<Piece NumberOfPoints="780" NumberOfCells="780">
			<CellData Scalars="scalars">
				<DataArray type="Float64" Name="Strength" NumberOfComponents="3" Format="ascii">
0.0170646	-0.0110545	-0.000441422	
0.00262521	-0.0237755	0.00180466	
0.000574308	-0.0252562	0.000483927	
-0.000249683	-0.0264982	0.000641015	
-0.000386682	-0.026088	0.000272603	
0.000289167	-0.0258339	0.00047771	
0.00124513	-0.0264627	-0.000392196	
-0.00150776	-0.0257358	0.000718642	
-6.07172e-05	-0.0251739	0.00124775	
0.000146738	-0.025484	9.49886e-05	
0.000759857	-0.0264252	-0.000334087	
0.00097932	-0.0254645	-8.04012e-05	
7.32942e-05	-0.0268138	0.000234012	
0.000350804	-0.0263139	0.000234427	
0.000199855	-0.0261184	0.000167998	
0.00144543	-0.0224689	0.00294772	
0.000779633	-0.0255062	0.00130219	
0.00141876	-0.0243439	0.00182244	
0.000682105	-0.0253696	0.00180992	
0.000161385	-0.0259302	1.18519e-05	
0.00234308	-0.0214931	0.00356542	
-2.47225e-06	-0.0252255	8.19083e-05	
-2.29948e-05	-0.0260047	0.000164632	
0.0033401	-0.0151256	0.00390271	
0.000257657	-0.0261863	0.000325252	
0.00278493	-0.0174907	0.00431029	
0.00108079	-0.0249929	0.000378453	
8.00313e-05	-0.0267328	-8.1632e-05	
0.000382659	-0.025683	0.00068804	
0.000493788	-0.0195585	0.0047464	
8.411e-05	-0.0260404	0.000304134	
-0.00420994	-0.0193907	-0.00354684	
-0.000322492	-0.0255156	-0.00083029	
0.000207427	-0.0264784	-0.000585754	
-0.00713159	-0.0152139	-0.00291588	
0.000493917	-0.0262353	-3.0404e-05	
-0.000345339	-0.0259283	-0.000513447	
-0.000582959	-0.0267177	0.00026161	
0.000377484	-0.0261694	-0.000164737	
0.000540451	-0.0266041	-0.000268476	
-0.000970843	-0.0248928	-0.000918701	
-0.000195111	-0.0255713	-0.00018689	
-0.00097271	-0.0265691	0.000248632	
-0.000854917	-0.0255621	3.22325e-05	
-0.000795704	-0.0261867	-4.77924e-05	
0.000263336	-0.0261168	-0.000406373	
-0.00275574	-0.0224032	-0.00243562	
-0.00126797	-0.0249205	-0.00107624	
-0.00104128	-0.0237748	-0.00167434	
-0.000331431	-0.0261141	-0.000293322	
-0.000528041	-0.0238016	-0.002516	
-0.000113789	-0.0260278	-0.000231321	
-0.000626616	-0.0211801	-0.004393	
-3.8927e-05	-0.0271093	-9.53628e-05	
-0.000512743	-0.0243351	-0.00168134	
-0.000174159	-0.0266187	-0.000283714	
-0.0136304	-0.0114123	-0.000192342	
-0.00107637	-0.0260791	-0.000570775	
-0.000901069	-0.0175164	-0.00527647	
-0.000443777	-0.0253835	-0.00105039	
0.0183827	0.000387044	-0.00403364	
0.00240064	-0.00403346	-0.000830287	
0.000384439	-0.0048689	-8.39669e-05	
-0.000279356	-0.00493693	0.000272206	
-0.000162337	-0.00521359	0.000118727	
6.7205e-05	-0.00490267	7.44279e-05	
0.00116913	-0.00511619	-0.000676182	
-0.00140705	-0.00513733	0.000865077	
-0.000259836	-0.0046764	0.000391974	
-6.33483e-05	-0.00511518	7.14325e-05	
0.000641966	-0.00506987	-0.000388641	
0.000765517	-0.00506523	-0.00040036	
-5.77931e-05	-0.00505413	9.84835e-05	
0.000152433	-0.00510532	-1.81037e-05	
3.33202e-05	-0.00507572	4.15695e-05	
0.00139006	-0.00379079	-0.000135127	
0.000348792	-0.0045514	0.000101017	
0.00107588	-0.00420825	-0.000169936	
0.000185162	-0.00448806	0.000292988	
2.87735e-05	-0.00496392	-3.40913e-06	
0.0022835	-0.00345249	-0.00044281	
2.05822e-07	-0.00503951	1.33248e-05	
7.44955e-05	-0.00523777	-1.08898e-05	
0.00305951	-0.00191284	-0.000291897	
6.08456e-05	-0.00514285	5.83167e-05	
0.00283866	-0.00244949	-0.000350198	
0.000759445	-0.00473276	-0.000278194	
2.13522e-06	-0.00510141	-6.95602e-06	
7.77519e-05	-0.00482551	0.000109147	
0.000267513	-0.00306396	0.000656877	
2.20497e-05	-0.00526953	5.91085e-05	
-0.00443551	-0.00296322	0.00121345	
-5.88577e-05	-0.00490836	-0.000154035	
0.000331998	-0.00496613	-0.000297693	
-0.00725871	-0.00156893	0.00178004	
0.000441683	-0.00525087	-0.000224948	
-6.37626e-05	-0.00491804	-9.21772e-05	
-0.000491547	-0.00521183	0.000307226	
0.000365473	-0.00517093	-0.000223932	
0.000454183	-0.00519032	-0.000282901	
-0.000796068	-0.00458941	0.0001973	
-0.000155252	-0.00512049	3.89986e-05	
-0.000863774	-0.0051804	0.000496911	
-0.000625443	-0.00503108	0.000309069	
-0.000465594	-0.00508712	0.000196733	
0.000326397	-0.00504812	-0.000265513	
-0.00273414	-0.00380607	0.000856222	
-0.000967612	-0.00449919	0.000248176	
-0.000908308	-0.00429019	0.000111989	
-5.52442e-05	-0.00513819	-6.21961e-05	
-0.00020717	-0.00404214	-0.000377313	
-4.34989e-05	-0.00505348	-3.06716e-05	
-0.000283973	-0.00344884	-0.000638951	
-1.86639e-05	-0.00516429	-1.52702e-05	
-0.000161194	-0.00436095	-0.000279613	
-4.06538e-05	-0.00506013	-5.5606e-05	
-0.0142735	-5.78922e-05	0.00320485	
-0.000776074	-0.00486375	0.00026299	
-0.000312072	-0.00252766	-0.000667823	
-0.000116929	-0.00474637	-0.000164789	
0.0192294	0.00240506	-0.0039523	
0.00247831	-0.00155101	-0.00121923	
0.000402757	-0.00210729	-0.000182388	
-0.000233837	-0.0021764	0.000185675	
-0.000116655	-0.00235407	7.22592e-05	
3.78251e-05	-0.00213949	2.19007e-05	
0.0011925	-0.00231964	-0.000703264	
-0.00142902	-0.00232196	0.00085956	
-0.00019976	-0.00199764	0.00020819	
-9.55246e-05	-0.00230653	6.89646e-05	
0.000661001	-0.00231063	-0.000397418	
0.000785973	-0.00222435	-0.000450168	
-4.96286e-05	-0.00226921	5.53269e-05	
0.000138485	-0.00227799	-5.24203e-05	
1.6476e-05	-0.00229441	1.68816e-05	
0.00142721	-0.00149881	-0.000566223	
0.000332559	-0.00192192	-8.66642e-05	
0.00108311	-0.00171818	-0.000474804	
0.00011457	-0.00189011	7.91139e-05	
1.04925e-05	-0.00226516	-5.88909e-07	
0.00234958	-0.00129637	-0.000935291	
1.72394e-06	-0.00230314	3.06177e-06	
8.40811e-05	-0.00236441	-3.91433e-05	
0.00311779	-0.000463954	-0.0006722	
2.92152e-05	-0.00227956	2.23657e-05	
0.00294408	-0.000751139	-0.000810724	
0.00077721	-0.00202208	-0.000412591	
-2.33005e-06	-0.00231406	2.1538e-07	
4.60445e-05	-0.00209165	3.03402e-05	
0.000164199	-0.00124902	0.000204636	
7.05589e-06	-0.00237432	2.86666e-05	
-0.00466004	-0.000839087	0.00179339	
-6.06987e-05	-0.00213213	-4.09314e-05	
0.000290448	-0.00218236	-0.000220976	
-0.00758216	0.000231589	0.00207142	
0.000435934	-0.00236956	-0.000243541	
-3.87165e-05	-0.0021487	-3.0298e-05	
-0.00048997	-0.00236265	0.000301624	
0.000359221	-0.00235964	-0.000219986	
0.000438161	-0.00235857	-0.000270818	
-0.000882437	-0.00195126	0.000434551	
-0.000154878	-0.00231917	7.21475e-05	
-0.000878829	-0.00234273	0.000526244	
-0.000653564	-0.00222145	0.00036649	
-0.000447213	-0.00227434	0.000231542	
0.000313371	-0.00229938	-0.000217016	
-0.00286981	-0.00140823	0.00134604	
-0.000988525	-0.00188551	0.000470085	
-0.000994716	-0.00174115	0.000430805	
-3.03202e-05	-0.00227924	-2.59091e-05	
-0.000123685	-0.00167132	-9.1263e-05	
-2.55438e-05	-0.0022972	-6.51447e-06	
-0.000169967	-0.00139432	-0.000200324	
-1.22063e-05	-0.00234224	-1.63961e-06	
-9.32202e-05	-0.00184428	-6.90567e-05	
-2.10662e-05	-0.0022753	-2.08895e-05	
-0.0148811	0.00169149	0.00314669	
-0.000781587	-0.00210017	0.000394394	
-0.000178048	-0.00103566	-0.000210771	
-7.39065e-05	-0.0020572	-4.19462e-05	
0.0203453	0.00291971	-0.00361867	
0.00274984	-0.00174615	-0.00128881	
0.000492673	-0.00237885	-0.000218324	
-0.00016933	-0.00245568	0.000132146	
-8.72399e-05	-0.00261344	4.13839e-05	
4.01794e-05	-0.00241688	1.64257e-05	
0.00124177	-0.00258595	-0.000673084	
-0.00147577	-0.00258496	0.000814229	
-9.95265e-05	-0.00223859	0.000148521	
-0.000107497	-0.00259608	6.78109e-05	
0.000688097	-0.0025918	-0.00038018	
0.000850311	-0.00249363	-0.000448915	
-1.46025e-05	-0.00256116	2.54465e-05	
0.000158302	-0.00255536	-6.43851e-05	
2.02114e-05	-0.00258222	1.14287e-05	
0.00161113	-0.00167462	-0.000647565	
0.000383425	-0.00214955	-0.000114245	
0.0012002	-0.00193844	-0.000509897	
0.00011164	-0.00210916	8.12624e-05	
9.58553e-06	-0.00255454	-4.40909e-06	
0.00257377	-0.00143304	-0.00100909	
2.08762e-06	-0.00257692	4.42522e-06	
9.27833e-05	-0.00261267	-4.55055e-05	
0.00336054	-0.000477183	-0.000713874	
3.1549e-05	-0.00254439	1.83019e-05	
0.00321232	-0.00081333	-0.0008885	
0.000842962	-0.00227538	-0.000416892	
-2.21682e-06	-0.00258232	1.46684e-06	
4.89291e-05	-0.002346	1.98349e-05	
0.000189982	-0.00140484	0.00021019	
2.03445e-06	-0.00261679	3.15037e-05	
-0.00510854	-0.000899176	0.00193769	
-0.000137364	-0.00239097	6.98921e-06	
0.000232421	-0.00245404	-0.000164313	
-0.00817418	0.000366726	0.00212736	
0.000448037	-0.00262057	-0.000230102	
-4.27102e-05	-0.00241893	-2.55882e-05	
-0.000502895	-0.00261813	0.000278129	
0.00036323	-0.00261586	-0.000203356	
0.000440149	-0.00261304	-0.000251771	
-0.00103945	-0.00219151	0.000493643	
-0.00016871	-0.00260188	7.67917e-05	
-0.000913131	-0.00260574	0.000503367	
-0.00071414	-0.00249478	0.000373838	
-0.000483776	-0.00255084	0.000237456	
0.000289169	-0.00258567	-0.000183711	
-0.00319055	-0.00158812	0.00144346	
-0.00110417	-0.00209968	0.000501963	
-0.00118112	-0.00195217	0.000502776	
-3.2365e-05	-0.00254404	-1.867e-05	
-0.000124738	-0.00189327	-8.88481e-05	
-2.75156e-05	-0.00257264	4.31879e-07	
-0.000195555	-0.00158096	-0.000205069	
-1.35718e-05	-0.00260006	8.72614e-07	
-8.68448e-05	-0.00207353	-7.20996e-05	
-2.42375e-05	-0.00256303	-1.24862e-05	
-0.0156844	0.0020998	0.00278865	
-0.000862889	-0.00233084	0.000420261	
-0.000211605	-0.00118217	-0.000214762	
-6.34657e-05	-0.00228691	-5.27468e-05	
0.0212619	0.00296125	-0.00374724	
0.00297715	-0.00149336	-0.00130969	
0.000565449	-0.00209479	-0.000257392	
-0.000116713	-0.00216699	9.19176e-05	
-6.29559e-05	-0.00234322	2.72379e-05	
3.09331e-05	-0.00213157	1.72378e-05	
0.00126926	-0.00231897	-0.000664701	
-0.00150409	-0.00231765	0.000796381	
1.5448e-05	-0.00195928	3.69679e-05	
-0.000105568	-0.00230366	5.92524e-05	
0.000716779	-0.00231692	-0.000381612	
0.000893481	-0.00220412	-0.000460188	
1.47834e-05	-0.00226748	2.0968e-06	
0.000171486	-0.00226064	-7.51217e-05	
1.51475e-05	-0.00228677	4.99286e-06	
0.00175281	-0.00143049	-0.000666586	
0.000420178	-0.00187048	-0.000143126	
0.00129016	-0.00166879	-0.000541098	
8.79786e-05	-0.00183057	5.73029e-05	
7.86175e-06	-0.00227698	-3.08851e-06	
0.00274478	-0.00120939	-0.00103163	
4.89026e-07	-0.00230926	6.15495e-07	
9.71672e-05	-0.00234233	-4.49443e-05	
0.00352818	-0.00032137	-0.000765291	
2.37713e-05	-0.00224957	1.27727e-05	
0.00340229	-0.000630346	-0.000962638	
0.000928922	-0.00198369	-0.000464396	
-4.34695e-07	-0.00231363	4.58534e-07	
3.47155e-05	-0.00206144	1.26345e-05	
0.000148455	-0.00119744	0.000179966	
-9.93298e-06	-0.00234735	3.43598e-05	
-0.00548226	-0.000692571	0.00200878	
-0.000196463	-0.00210234	5.43567e-05	
0.000180282	-0.00216429	-0.000121009	
-0.00866544	0.000528911	0.00216602	
0.000447845	-0.00235014	-0.000219032	
-3.233e-05	-0.00213047	-2.07211e-05	
-0.000510885	-0.00234735	0.000275764	
0.000361579	-0.00234143	-0.000192062	
0.000442025	-0.00233874	-0.000238073	
-0.00119608	-0.00190068	0.000574973	
-0.000187352	-0.0023079	8.68091e-05	
-0.000941021	-0.00233097	0.000498869	
-0.000758152	-0.0022007	0.000387567	
-0.000512076	-0.00225642	0.000249915	
0.000276085	-0.00228882	-0.000161294	
-0.00347475	-0.00136347	0.00146624	
-0.00117355	-0.00182775	0.000535556	
-0.00134145	-0.00168679	0.00057161	
-2.55392e-05	-0.00224877	-1.32026e-05	
-9.47225e-05	-0.00163849	-7.76571e-05	
-2.16473e-05	-0.00229337	-3.34042e-06	
-0.00014603	-0.00135974	-0.000175566	
-1.19068e-05	-0.00232827	-5.27653e-07	
-6.72224e-05	-0.00180416	-5.41052e-05	
-1.90463e-05	-0.00227091	-8.59751e-06	
-0.0163341	0.00215795	0.00278936	
-0.000913975	-0.00204303	0.000441471	
-0.000169669	-0.001008	-0.000181554	
-6.11815e-05	-0.00200173	-1.65026e-05	
0.0220994	0.00282092	-0.0036258	
0.00323162	-0.00123746	-0.00120063	
0.000661698	-0.00179236	-0.00026139	
-3.20729e-05	-0.0018768	4.0956e-05	
-4.70078e-05	-0.00208035	1.89576e-05	
1.98714e-05	-0.00183355	2.64744e-05	
0.0013178	-0.0020633	-0.000606534	
-0.00155431	-0.00206325	0.000715291	
0.000114774	-0.00165891	-9.50722e-06	
-0.000111709	-0.00205123	5.70921e-05	
0.000758585	-0.00205839	-0.000348418	
0.000982109	-0.00193371	-0.000444819	
3.29577e-05	-0.00202828	-5.38282e-06	
0.000195001	-0.00202362	-7.93741e-05	
1.08745e-05	-0.00203949	4.13606e-06	
0.00190641	-0.00118267	-0.00061329	
0.000469698	-0.00157424	-0.000148171	
0.0013986	-0.00139383	-0.00048999	
6.60221e-05	-0.00153788	5.63605e-05	
8.39145e-06	-0.00202764	-3.42535e-06	
0.00293864	-0.000998398	-0.000895921	
-5.77381e-07	-0.00206082	1.22906e-06	
9.96805e-05	-0.00207665	-3.97721e-05	
0.00368449	-0.00023698	-0.000728814	
1.79715e-05	-0.00200536	1.36195e-05	
0.00359036	-0.000494894	-0.000911619	
0.00100832	-0.001689	-0.000417865	
-1.02577e-06	-0.00205531	9.9149e-07	
2.48642e-05	-0.00175451	1.6886e-05	
0.000101155	-0.000999912	0.000169777	
-2.11494e-05	-0.00208147	3.42397e-05	
-0.00587146	-0.000546119	0.00183147	
-0.000271221	-0.00179442	6.86362e-05	
0.000101009	-0.00187111	-6.77501e-05	
-0.00912372	0.000552578	0.00204174	
0.000458573	-0.00208652	-0.000198026	
-1.98602e-05	-0.00182891	-3.39277e-05	
-0.000529388	-0.00208603	0.000252122	
0.000361823	-0.00208372	-0.000166648	
0.000447709	-0.00207643	-0.000205362	
-0.00134907	-0.00161495	0.000547872	
-0.000204755	-0.00204853	7.86542e-05	
-0.000987626	-0.00206579	0.000448922	
-0.000841279	-0.00192536	0.000382408	
-0.000555484	-0.00201422	0.000239097	
0.000275586	-0.00203371	-0.000136605	
-0.00378134	-0.0011171	0.00133836	
-0.00125991	-0.00154089	0.000507283	
-0.00151822	-0.0014048	0.000548941	
-2.00119e-05	-0.00199745	-9.8655e-06	
-6.70712e-05	-0.00137046	-8.11098e-05	
-1.81835e-05	-0.00203552	-6.24067e-06	
-0.000101046	-0.00113413	-0.000160504	
-9.32629e-06	-0.00206241	-3.62175e-06	
-4.80843e-05	-0.00151751	-5.11418e-05	
-1.31576e-05	-0.00202435	-6.92702e-06	
-0.0169184	0.00202734	0.00272374	
-0.000979432	-0.00173704	0.000416934	
-0.000122644	-0.000844614	-0.000169684	
-3.93925e-05	-0.00169664	-3.86983e-05	
0.0228431	0.00250073	-0.00364011	
0.00342952	-0.00107953	-0.00120233	
0.000757404	-0.00158393	-0.000274788	
5.92658e-05	-0.0016642	7.56181e-07	
-4.60395e-05	-0.00188405	1.77477e-05	
1.65825e-05	-0.00162403	2.41404e-05	
0.00135972	-0.00187851	-0.00055504	
-0.00158428	-0.00187844	0.000654658	
0.000226139	-0.00146359	-5.35712e-05	
-9.98827e-05	-0.00184035	4.47024e-05	
0.000798933	-0.00186055	-0.000332705	
0.00106919	-0.00171946	-0.000427966	
5.85587e-05	-0.00182048	-1.88665e-05	
0.000225184	-0.00180946	-7.98844e-05	
8.90971e-06	-0.00182778	4.51562e-06	
0.00202101	-0.00103246	-0.000623757	
0.000511838	-0.00138612	-0.000153485	
0.00148383	-0.00122148	-0.000508596	
5.21936e-05	-0.00135261	5.3511e-05	
6.10253e-06	-0.00183048	-6.81961e-07	
0.00307149	-0.000877679	-0.000913694	
-1.88876e-08	-0.00187586	1.23783e-06	
0.000103806	-0.00187714	-3.63357e-05	
0.00381591	-0.000190754	-0.000776843	
1.32603e-05	-0.00178669	1.64268e-05	
0.00373999	-0.000419171	-0.000967403	
0.00108072	-0.001491	-0.000415928	
9.25967e-07	-0.00186241	1.57133e-07	
1.87064e-05	-0.00155053	2.04994e-05	
8.00048e-05	-0.000884356	0.000143372	
-2.72743e-05	-0.00188089	3.27621e-05	
-0.00615286	-0.000469894	0.00189236	
-0.000354415	-0.0015906	0.00010245	
1.44604e-05	-0.0016642	-2.75164e-05	
-0.00950003	0.000505491	0.0021013	
0.000476407	-0.00188836	-0.000183804	
-1.80601e-05	-0.00162458	-2.44012e-05	
-0.000545134	-0.00189525	0.000232194	
0.000362141	-0.00189273	-0.000148768	
0.000440774	-0.00188786	-0.000186352	
-0.00150373	-0.00142593	0.0005657	
-0.000236346	-0.00184015	8.54116e-05	
-0.0010282	-0.00186653	0.000422944	
-0.00092559	-0.00171688	0.000370866	
-0.000609451	-0.00180531	0.000238497	
0.000277011	-0.0018257	-0.000126075	
-0.00400286	-0.000973458	0.00135916	
-0.00135009	-0.00136117	0.000482561	
-0.00166343	-0.00123143	0.000583825	
-1.40843e-05	-0.00178539	-1.54668e-05	
-5.28655e-05	-0.00120423	-7.20399e-05	
-1.36623e-05	-0.00183817	-8.87734e-06	
-7.95096e-05	-0.00100359	-0.000137429	
-7.91635e-06	-0.00186722	-4.67274e-06	
-3.70381e-05	-0.00133794	-4.88053e-05	
-9.23552e-06	-0.00182176	-8.61117e-06	
-0.0174399	0.00177009	0.00268913	
-0.00104213	-0.00154032	0.000393413	
-9.68009e-05	-0.000749748	-0.000143796	
-3.38168e-05	-0.00150724	-3.07363e-05	
0.0235449	0.00219606	-0.00386679	
0.00379181	-0.00126902	-0.00133443	
0.000818446	-0.00173427	-0.000297088	
0.000155119	-0.00181602	-3.83702e-05	
-2.80098e-05	-0.0019484	1.02794e-05	
1.6362e-05	-0.00176471	2.58768e-05	
0.00136266	-0.00193657	-0.000555682	
-0.0016358	-0.0019715	0.000675776	
0.0002719	-0.00168638	-6.87094e-05	
-0.000106159	-0.00195933	4.83631e-05	
0.000841981	-0.00197074	-0.0003507	
0.00111068	-0.00185802	-0.000445332	
0.000118625	-0.00193307	-4.51915e-05	
0.000235054	-0.00190184	-8.47491e-05	
8.99418e-06	-0.00195093	4.59828e-06	
0.0021917	-0.00115537	-0.000678792	
0.000543068	-0.00164803	-0.000159719	
0.00156449	-0.00151343	-0.0005312	
5.70576e-05	-0.00163283	6.11349e-05	
6.5941e-06	-0.00193257	1.17845e-06	
0.00323069	-0.000953779	-0.00097894	
2.38099e-07	-0.00194441	1.33923e-06	
9.97845e-05	-0.00194687	-3.54307e-05	
0.00396272	-0.000240238	-0.000849822	
1.22385e-05	-0.00189733	1.7296e-05	
0.00390376	-0.000470402	-0.00105246	
0.00111571	-0.00168255	-0.000427356	
1.73967e-06	-0.00198153	4.77872e-07	
1.87365e-05	-0.00171849	2.32993e-05	
7.35525e-05	-0.000925694	0.00013703	
-3.90318e-05	-0.00194323	3.68426e-05	
-0.0064632	-0.000530114	0.00203989	
-0.00040467	-0.00175588	0.000121036	
-7.64834e-05	-0.00183511	9.57539e-06	
-0.0098736	0.000411724	0.00223736	
0.000478594	-0.00194292	-0.000186295	
-1.81613e-05	-0.00178057	-2.71224e-05	
-0.000541999	-0.0019421	0.000230852	
0.000395992	-0.00194602	-0.000163106	
0.000451784	-0.00197894	-0.000190545	
-0.00156898	-0.00167992	0.00058831	
-0.00024385	-0.00197161	8.82342e-05	
-0.00105987	-0.00198737	0.000436354	
-0.000959941	-0.00187009	0.000384756	
-0.000663452	-0.00190826	0.000261142	
0.000258883	-0.00195811	-0.000117275	
-0.00430463	-0.00108649	0.00147715	
-0.00142399	-0.00164421	0.000504423	
-0.00195336	-0.00142111	0.000694519	
-1.28244e-05	-0.00190324	-1.68119e-05	
-5.21835e-05	-0.00135327	-7.70547e-05	
-1.36322e-05	-0.0019484	-9.29758e-06	
-7.38077e-05	-0.00105856	-0.000132812	
-8.25816e-06	-0.00198477	-4.94205e-06	
-3.93533e-05	-0.00162484	-5.51969e-05	
-8.61926e-06	-0.00194579	-8.5676e-06	
-0.0179236	0.00153386	0.00284169	
-0.00107222	-0.00172968	0.00040352	
-8.69987e-05	-0.000767011	-0.000133763	
-3.53759e-05	-0.00171559	-3.43794e-05	
0.024196	0.00184195	-0.00417784	
0.00403918	-0.00117245	-0.00147162	
0.000974868	-0.00184712	-0.0003668	
0.000217292	-0.00195093	-6.58686e-05	
2.49937e-05	-0.0022032	-1.23885e-05	
1.45961e-05	-0.00191341	2.76381e-05	
0.00136582	-0.00219989	-0.000562212	
-0.00155647	-0.00219163	0.00064942	
0.000481472	-0.00167189	-0.000160916	
-7.00963e-05	-0.00211613	3.43341e-05	
0.00084698	-0.00212125	-0.000356618	
0.00113454	-0.00197646	-0.000462324	
0.000165308	-0.00206744	-6.77795e-05	
0.000295121	-0.00205311	-0.000112239	
8.43103e-06	-0.00208885	3.61844e-06	
0.0023416	-0.00108135	-0.000759027	
0.000602748	-0.00152593	-0.000196865	
0.00164517	-0.00134172	-0.00059463	
4.44711e-05	-0.00147265	5.09487e-05	
7.04682e-06	-0.00210815	2.11073e-06	
0.00337799	-0.000894805	-0.00107599	
1.99193e-07	-0.00220255	1.17967e-06	
0.00010516	-0.00224024	-3.85578e-05	
0.0040892	-0.000235609	-0.000943636	
1.01218e-05	-0.00200119	1.67062e-05	
0.00405964	-0.000438202	-0.00117103	
0.00117107	-0.00171996	-0.000455827	
2.42923e-06	-0.00212462	3.44656e-07	
1.63125e-05	-0.00177705	2.41088e-05	
5.62799e-05	-0.000861285	0.000114459	
-8.83534e-05	-0.00224595	5.92301e-05	
-0.00676438	-0.00051351	0.00223707	
-0.000566711	-0.00185409	0.000193217	
-0.000186452	-0.00198384	5.71714e-05	
-0.010221	0.000324833	0.0024256	
0.000474133	-0.00221145	-0.000186664	
-1.64542e-05	-0.0019366	-2.82132e-05	
-0.000515575	-0.00220492	0.000221728	
0.000383435	-0.0022278	-0.000159254	
0.000391041	-0.00221931	-0.000165607	
-0.00180827	-0.0016445	0.000700152	
-0.000287163	-0.00214377	0.000107694	
-0.00106576	-0.00215745	0.000444287	
-0.000952573	-0.00204601	0.000386522	
-0.000733552	-0.00208378	0.000294493	
0.000232479	-0.00211884	-0.000106471	
-0.00458747	-0.00102681	0.00163191	
-0.00152837	-0.00150913	0.000566093	
-0.0021373	-0.00132289	0.000793287	
-1.11029e-05	-0.00204246	-1.75528e-05	
-4.07503e-05	-0.00127202	-6.75248e-05	
-1.3666e-05	-0.0021416	-1.08697e-05	
-5.74815e-05	-0.000992723	-0.00011146	
-8.50744e-06	-0.00215951	-4.79322e-06	
-2.80173e-05	-0.00144808	-4.60456e-05	
-7.42689e-06	-0.00210049	-7.99724e-06	
-0.0183728	0.00130276	0.00302906	
-0.00111685	-0.00178103	0.000430206	
-6.6579e-05	-0.000706982	-0.000110927	
-3.085e-05	-0.001748	-3.42223e-05	
0.0247007	0.00151034	-0.00445271	
0.00421099	-0.000904112	-0.001585	
0.00100488	-0.0014391	-0.000394151	
0.000280064	-0.00144421	-0.000102764	
3.69158e-05	-0.00160525	-1.7962e-05	
7.82942e-06	-0.00144132	1.88673e-05	
0.00141014	-0.00156073	-0.000588155	
-0.00159388	-0.00152482	0.000670663	
0.000566233	-0.0012493	-0.000212233	
-4.68163e-05	-0.00149022	2.31638e-05	
0.00091017	-0.00155854	-0.000388033	
0.00112492	-0.00150715	-0.000469681	
0.000178088	-0.00146138	-7.68441e-05	
0.000253083	-0.00146295	-0.000100739	
4.87947e-06	-0.00146991	1.51217e-06	
0.00244833	-0.000848449	-0.000839144	
0.000634725	-0.0012091	-0.000229496	
0.0017398	-0.00103849	-0.000667361	
2.88464e-05	-0.00117652	3.47466e-05	
4.77506e-06	-0.00148395	1.70095e-06	
0.00347168	-0.000701191	-0.0011697	
-9.04409e-08	-0.00152419	3.80833e-07	
0.000120008	-0.00156818	-4.79712e-05	
0.00418142	-0.000190387	-0.0010283	
4.94258e-06	-0.00150422	1.09371e-05	
0.00416329	-0.000350918	-0.00126618	
0.00129969	-0.00128904	-0.000521804	
2.07486e-06	-0.00155213	4.28529e-07	
9.5091e-06	-0.00141838	1.73794e-05	
3.42579e-05	-0.000694647	7.78753e-05	
-4.3905e-05	-0.00158444	3.17457e-05	
-0.00699331	-0.000450788	0.00239161	
-0.000641556	-0.00155155	0.0002398	
-0.000261042	-0.00161382	9.69079e-05	
-0.0105055	0.00023971	0.00257187	
0.000475409	-0.00163701	-0.000194566	
-9.8476e-06	-0.00156352	-2.03293e-05	
-0.000546688	-0.0016391	0.000236346	
0.000380443	-0.00160978	-0.000160608	
0.000436967	-0.00161	-0.000187052	
-0.00188432	-0.00130964	0.000753116	
-0.000294562	-0.00162814	0.000115557	
-0.00108942	-0.00167653	0.000461449	
-0.000982983	-0.0016412	0.000410562	
-0.000678686	-0.00163322	0.000279092	
0.000238473	-0.00161852	-0.000106169	
-0.00484422	-0.000884694	0.00178386	
-0.00154767	-0.00129283	0.000596644	
-0.00231945	-0.00127664	0.000893611	
-5.86999e-06	-0.00167975	-1.34677e-05	
-2.73595e-05	-0.00112053	-5.15819e-05	
-9.34083e-06	-0.00161537	-7.40556e-06	
-3.80923e-05	-0.000855061	-8.06971e-05	
-5.90501e-06	-0.00164969	-3.16544e-06	
-1.74838e-05	-0.00130108	-3.52877e-05	
-4.17914e-06	-0.00162622	-4.87778e-06	
-0.0187434	0.00104145	0.00321171	
-0.00122307	-0.00148483	0.00049226	
-4.49389e-05	-0.000623311	-8.28976e-05	
-1.93258e-05	-0.00138427	-2.3707e-05	
0.025235	0.00108645	-0.00473695	
0.00427605	-0.00109096	-0.00161715	
0.00120026	-0.00141357	-0.000483887	
0.000311175	-0.00156397	-0.000119614	
4.84999e-05	-0.00136057	-2.37395e-05	
4.89878e-06	-0.00152204	1.67936e-05	
0.00138742	-0.00135965	-0.000579235	
-0.00165492	-0.00141136	0.000698561	
0.000678893	-0.00126508	-0.000265723	
-7.4567e-05	-0.00151633	3.42071e-05	
0.000847457	-0.00148971	-0.000361724	
0.00112501	-0.00155727	-0.000472464	
0.00014105	-0.00153778	-6.39557e-05	
0.000252655	-0.00156397	-0.000103582	
3.09003e-06	-0.00152429	-2.28728e-07	
0.00255077	-0.000984894	-0.00089052	
0.000667657	-0.00119565	-0.000253727	
0.00178657	-0.001075	-0.000699578	
2.14087e-05	-0.00116414	2.47619e-05	
5.0765e-06	-0.00148929	1.94248e-06	
0.00358421	-0.000848822	-0.0012275	
-1.27302e-07	-0.00138617	-5.47285e-07	
0.00012452	-0.00136526	-5.25158e-05	
0.00429906	-0.000316503	-0.00108534	
2.57434e-06	-0.0015654	9.47828e-06	
0.00430255	-0.000479952	-0.00132276	
0.00132948	-0.00129972	-0.000541543	
2.14672e-06	-0.00144165	3.19057e-07	
5.07307e-06	-0.00134192	1.27965e-05	
2.68157e-05	-0.00081272	6.83273e-05	
-5.06362e-05	-0.00137124	3.09123e-05	
-0.00720033	-0.000476501	0.002495	
-0.000773877	-0.00120791	0.000310658	
-0.000331378	-0.00127481	0.00013443	
-0.0107732	0.00011489	0.00270745	
0.000482649	-0.00137292	-0.000200333	
-4.48418e-06	-0.00127286	-1.26259e-05	
-0.000534188	-0.00137804	0.000230192	
0.000410911	-0.00139081	-0.000174442	
0.000472938	-0.00142172	-0.000204282	
-0.00198869	-0.00105019	0.000810994	
-0.000347234	-0.00152944	0.000141375	
-0.000986298	-0.00150851	0.000419091	
-0.00103288	-0.00134442	0.000437291	
-0.000754071	-0.00144972	0.00031688	
0.000205692	-0.00149809	-8.83436e-05	
-0.00495647	-0.000815324	0.00184618	
-0.00159914	-0.00100095	0.000635515	
-0.00233762	-0.00089439	0.000923476	
-1.8344e-06	-0.00140032	-9.00791e-06	
-1.52847e-05	-0.000941643	-3.32307e-05	
-7.39653e-06	-0.00153647	-5.7636e-06	
-2.48592e-05	-0.000818393	-5.80849e-05	
-4.34807e-06	-0.00145479	-1.8708e-06	
-7.31229e-06	-0.000972124	-1.95063e-05	
-8.44007e-07	-0.0014711	-1.97357e-06	
-0.0190529	0.000761442	0.00339773	
-0.00124699	-0.00114276	0.000515559	
-2.98349e-05	-0.000604822	-5.98272e-05	
-1.10151e-05	-0.00111928	-1.38228e-05	
0.0256032	0.000779838	-0.00499149	
0.00442091	-0.000925923	-0.00168449	
0.00128234	-0.00138667	-0.000525682	
0.000372255	-0.00141777	-0.000151027	
0.000140857	-0.00186931	-6.59945e-05	
1.74965e-06	-0.00139508	1.02779e-05	
0.00138586	-0.00180652	-0.000588477	
-0.00159893	-0.00174848	0.000672025	
0.000824446	-0.00116362	-0.0003345	
8.61618e-05	-0.00162827	-3.35327e-05	
0.000874044	-0.00174118	-0.000372533	
0.00112858	-0.00146013	-0.000475943	
0.000187726	-0.00154191	-8.75015e-05	
0.000312589	-0.00153665	-0.00013402	
1.84299e-06	-0.00157412	-1.79145e-06	
0.00263897	-0.000827394	-0.000945441	
0.000667538	-0.00109875	-0.000261049	
0.00182106	-0.00101605	-0.00071771	
1.33235e-05	-0.001093	1.3176e-05	
4.23305e-06	-0.00170998	2.11733e-06	
0.00364435	-0.000692041	-0.00127607	
-3.42486e-07	-0.00179234	-1.45203e-06	
0.000119263	-0.00188484	-4.91317e-05	
0.00437603	-0.000281611	-0.00114154	
2.18405e-07	-0.0014792	6.02247e-06	
0.0044021	-0.000410159	-0.00136621	
0.00138678	-0.00123922	-0.000571364	
3.21171e-06	-0.00175412	1.42936e-06	
2.67602e-06	-0.00131081	7.71953e-06	
1.22174e-05	-0.00066822	3.59205e-05	
-0.000100008	-0.00187859	5.10085e-05	
-0.00738897	-0.000515098	0.00254526	
-0.000892915	-0.00147504	0.000360735	
-0.000286697	-0.00149989	0.000120825	
-0.0109939	-4.03026e-05	0.0028179	
0.000404387	-0.00184391	-0.000170027	
-2.56496e-06	-0.00149934	-1.11421e-05	
-0.000544372	-0.00177507	0.000238373	
0.000318332	-0.00175673	-0.000134197	
0.00045513	-0.00167797	-0.000194286	
-0.00212188	-0.0012296	0.000860613	
-0.000488824	-0.00148056	0.000205324	
-0.00106869	-0.00163247	0.000456308	
-0.000994537	-0.00146368	0.000422676	
-0.000751366	-0.00145893	0.000320994	
0.00019892	-0.00144338	-8.35617e-05	
-0.00525449	-0.000875148	0.00195472	
-0.00160674	-0.00117227	0.000634533	
-0.00236919	-0.00110723	0.000934286	
3.52333e-07	-0.00144276	-5.76546e-06	
-1.02055e-05	-0.00112881	-2.48644e-05	
-5.46844e-06	-0.00156593	-4.2931e-06	
-1.39834e-05	-0.000802078	-3.44356e-05	
-5.84515e-06	-0.00166318	-2.86287e-06	
-2.89548e-06	-0.00117579	-1.3914e-05	
1.23661e-06	-0.00144311	1.6958e-06	
-0.0193375	0.000485756	0.00362782	
-0.00130414	-0.00138137	0.000540938	
-1.69515e-05	-0.000588634	-3.62452e-05	
-8.5684e-06	-0.00131808	-9.50549e-06	
0.0256226	0.000399539	-0.00550892	
0.00419418	-0.000564735	-0.00173704	
0.00121619	-0.000856628	-0.000563853	
0.000515901	-0.000920591	-0.000246296	
4.98669e-05	-0.00119809	-2.90365e-05	
-9.26589e-07	-0.000874834	3.57029e-06	
0.00132476	-0.00125801	-0.000637293	
-0.00150262	-0.00128867	0.000709291	
0.000795631	-0.000801614	-0.000358473	
8.49214e-05	-0.00117369	-3.97283e-05	
0.000879175	-0.00119395	-0.000429379	
0.00115711	-0.00104335	-0.00054525	
0.000216022	-0.00115332	-0.000108485	
0.000280387	-0.00112827	-0.000133389	
1.83971e-06	-0.00116187	-2.27024e-07	
0.00261457	-0.000626622	-0.00102641	
0.000709095	-0.000779731	-0.000310698	
0.00180696	-0.000613347	-0.000780977	
5.67401e-06	-0.000699675	4.97779e-06	
1.07436e-06	-0.0011604	-2.26335e-07	
0.00357974	-0.000520836	-0.00134594	
-3.52707e-07	-0.00122685	-7.19499e-07	
0.000115861	-0.0011726	-5.64513e-05	
0.00436177	-0.000250422	-0.00122888	
-1.00876e-06	-0.00114327	2.47854e-06	
0.00438021	-0.000330445	-0.00143005	
0.00137486	-0.00079436	-0.000627926	
2.29049e-06	-0.0012337	1.98953e-07	
-2.88129e-07	-0.00086766	2.71212e-06	
3.56043e-06	-0.000491118	1.50663e-05	
-6.67523e-05	-0.0011782	3.78348e-05	
-0.00731916	-0.000387583	0.00262552	
-0.000840886	-0.000872894	0.000388849	
-0.000425183	-0.000931707	0.000204893	
-0.0109492	-0.000114803	0.00307423	
0.000452795	-0.00121096	-0.000219398	
-3.62006e-07	-0.000888638	-4.59706e-06	
-0.000538856	-0.00128569	0.000261912	
0.000343344	-0.00125472	-0.000166597	
0.000365312	-0.00130333	-0.000176247	
-0.00205419	-0.000792309	0.00092208	
-0.000474098	-0.00116578	0.000224129	
-0.00107038	-0.00119813	0.000524815	
-0.00102427	-0.00104532	0.000490508	
-0.000700374	-0.00112314	0.000334776	
0.000167654	-0.00115084	-8.0163e-05	
-0.00508783	-0.000547253	0.00203686	
-0.00161427	-0.0007632	0.000711591	
-0.00235534	-0.000606296	0.00101531	
1.84563e-06	-0.00114176	-1.66396e-06	
-2.49251e-06	-0.000591043	-7.28216e-06	
-1.45324e-06	-0.00116024	-2.01721e-07	
-4.26337e-06	-0.000545446	-1.20352e-05	
-3.13304e-06	-0.00124404	-6.65724e-07	
3.63237e-07	-0.000686578	-4.78705e-06	
-4.20387e-07	-0.00113776	3.05905e-10	
-0.0193006	0.000241336	0.00409251	
-0.00128599	-0.00088457	0.000601787	
-5.07367e-06	-0.000418427	-1.38229e-05	
-3.24442e-06	-0.000821186	-3.46145e-06	
				</DataArray>
				<DataArray type="Float64" Name="Time Step Shed" NumberOfComponents="1" Format="ascii">
3	
3	
3	
3	
3	
3	
3	
3	
3	
3	
3	
3	
3	
3	
3	
3	
3	
3	
3	
3	
3	
3	
3	
3	
3	
3	
3	
3	
3	
3	
3	
3	
3	
3	
3	
3	
3	
3	
3	
3	
3	
3	
3	
3	
3	
3	
3	
3	
3	
3	
3	
3	
3	
3	
3	
3	
3	
3	
3	
3	
4	
4	
4	
4	
4	
4	
4	
4	
4	
4	
4	
4	
4	
4	
4	
4	
4	
4	
4	
4	
4	
4	
4	
4	
4	
4	
4	
4	
4	
4	
4	
4	
4	
4	
4	
4	
4	
4	
4	
4	
4	
4	
4	
4	
4	
4	
4	
4	
4	
4	
4	
4	
4	
4	
4	
4	
4	
4	
4	
4	
5	
5	
5	
5	
5	
5	
5	
5	
5	
5	
5	
5	
5	
5	
5	
5	
5	
5	
5	
5	
5	
5	
5	
5	
5	
5	
5	
5	
5	
5	
5	
5	
5	
5	
5	
5	
5	
5	
5	
5	
5	
5	
5	
5	
5	
5	
5	
5	
5	
5	
5	
5	
5	
5	
5	
5	
5	
5	
5	
5	
6	
6	
6	
6	
6	