<VTKFile type="UnstructuredGrid" version="0.1" byte_order="LittleEndian">
	<UnstructuredGrid>
		<Piece NumberOfPoints="1800" NumberOfCells="1800">
			<CellData Scalars="scalars">
				<DataArray type="Float64" Name="Strength" NumberOfComponents="3" Format="ascii">
0.0164997	-0.0115688	0.00280049	
-0.000458126	-0.0233334	0.00550211	
0.000383967	-0.0251584	0.00214863	
-0.000219526	-0.026398	0.00223494	
-0.000827944	-0.0260627	0.000512771	
0.000179419	-0.025746	0.00202057	
0.000610671	-0.0264698	-0.000633843	
-0.00113869	-0.0257116	0.00148058	
-0.000615351	-0.024851	0.00408592	
0.000163939	-0.0254681	0.000602502	
0.000768562	-0.0264162	-0.000295068	
0.000798719	-0.0254416	0.000935277	
0.000111337	-0.0267801	0.00115857	
0.000368052	-0.0262795	0.0011836	
0.000226616	-0.0260941	0.000892613	
-0.0021193	-0.0211465	0.00796088	
-0.000325063	-0.0251645	0.00433521	
-0.000655549	-0.0238033	0.00549775	
-0.000743203	-0.0248465	0.00535409	
0.000244242	-0.0259187	0.000328055	
-0.00195046	-0.0195852	0.00960001	
-0.000138697	-0.0252145	0.000300873	
-0.000567228	-0.0259866	0.00022511	
0.000981336	-0.0126211	0.00972102	
0.000336139	-0.0261344	0.00147706	
-0.00122127	-0.0148138	0.0105276	
0.000509827	-0.0248769	0.00247811	
0.00015873	-0.0267205	0.000140652	
0.000140044	-0.0255334	0.00273991	
-0.0038421	-0.0163065	0.0111369	
-0.000204915	-0.0260278	0.000344587	
-2.00207e-05	-0.0173994	-0.0101503	
2.26599e-06	-0.025378	-0.00265116	
0.000145082	-0.0263715	-0.00229904	
-0.00487109	-0.0136217	-0.0090123	
0.000133973	-0.0262277	-0.000225662	
-0.000124279	-0.0258339	-0.00213092	
-0.000677596	-0.0267042	0.000333523	
0.000290826	-0.0261581	-0.000447712	
0.000587105	-0.0265865	-0.000634481	
0.000151602	-0.0246618	-0.00354509	
0.000233849	-0.0255558	-0.00060153	
-0.000478915	-0.0265724	0.000341747	
-0.000750151	-0.0255258	-0.00118865	
-0.000667716	-0.0261631	-0.00099816	
0.000515103	-0.0260775	-0.00123037	
0.000719737	-0.021415	-0.00746906	
6.9884e-05	-0.0246332	-0.00403872	
0.000831281	-0.0232219	-0.00534106	
-0.000381473	-0.0260553	-0.00159892	
0.00200217	-0.0228443	-0.006839	
0.000224658	-0.0260147	-0.000515482	
0.00292016	-0.0184526	-0.0108883	
0.00022733	-0.0270944	-0.000284189	
0.000865514	-0.0238112	-0.00518246	
-9.31681e-06	-0.026583	-0.00122683	
-0.0131771	-0.0114493	-0.00338178	
-0.000179884	-0.0259719	-0.00249798	
0.0025754	-0.0136892	-0.011868	
0.000427019	-0.0251485	-0.00349476	
0.0185521	-0.00103949	-0.00315071	
0.00164441	-0.00441565	-0.000713616	
0.000288084	-0.00487214	0.000122123	
-0.000171409	-0.00490746	0.000622358	
-0.000166924	-0.00520742	0.0002334	
6.07968e-05	-0.00488904	0.000339183	
0.000746302	-0.00513302	-0.00103243	
-0.000938541	-0.00512453	0.00139354	
-0.000237881	-0.00458988	0.0009706	
-6.50069e-05	-0.0051117	0.000149418	
0.000446182	-0.00506778	-0.000605857	
0.000538742	-0.00509029	-0.000419467	
-4.72713e-05	-0.0050478	0.000238976	
0.000106198	-0.00510403	9.44695e-05	
2.33521e-05	-0.0050727	0.000122613	
0.000982556	-0.00388194	0.000525067	
0.00015956	-0.00452605	0.000561786	
0.000717171	-0.0042775	0.000262141	
9.86582e-05	-0.00439817	0.000940644	
1.12774e-05	-0.00496242	7.19836e-06	
0.00179404	-0.0037479	0.000240862	
-3.05504e-05	-0.00503736	5.15586e-05	
-2.33118e-05	-0.00523605	1.68506e-05	
0.00294604	-0.00201573	0.000611811	
6.35529e-05	-0.00513515	0.00024457	
0.00261108	-0.0026457	0.000607406	
0.000502743	-0.00477145	-9.84906e-05	
1.82807e-06	-0.0050994	-2.80786e-06	
5.38913e-05	-0.0048025	0.000458942	
5.60193e-05	-0.00270822	0.00159315	
-3.24793e-06	-0.00526619	0.000125729	
-0.00404198	-0.00365541	0.000488904	
-2.1155e-05	-0.00488462	-0.000482467	
0.000217591	-0.00493368	-0.000668851	
-0.00722869	-0.00236876	0.000739706	
0.000275564	-0.00525443	-0.000330333	
-3.54107e-05	-0.0049031	-0.000365708	
-0.000331247	-0.00520703	0.000503243	
0.000253105	-0.00516949	-0.000338735	
0.000317083	-0.00518559	-0.000460377	
-0.000509734	-0.0046307	-0.000109586	
-5.34022e-05	-0.00512101	8.51931e-06	
-0.000546014	-0.00519015	0.000755954	
-0.000446475	-0.00504976	0.000274755	
-0.000323906	-0.00509769	0.000162365	
0.000258899	-0.0050334	-0.000488435	
-0.00199052	-0.00429526	0.000523853	
-0.000639682	-0.00456121	-8.12308e-05	
-0.000586219	-0.00432902	-0.000377557	
-6.78306e-05	-0.00512933	-0.000267131	
-6.67446e-05	-0.00389106	-0.00116806	
7.33538e-06	-0.00505158	-7.88674e-05	
-0.000174561	-0.00309519	-0.00165943	
6.88387e-06	-0.00516189	-5.20139e-05	
-8.91454e-05	-0.00426823	-0.000934637	
-3.80061e-06	-0.00505533	-0.000186966	
-0.0142766	-0.00144644	0.0029261	
-0.000485492	-0.00490457	0.000104612	
-0.00012434	-0.00214767	-0.00151366	
-3.36193e-05	-0.00470665	-0.000624179	
0.0193423	0.00346476	-0.00248911	
0.00210137	-0.00152255	-0.00181149	
0.000324564	-0.00211877	-0.00019037	
-0.000109917	-0.00216251	0.000362806	
-5.28696e-05	-0.00235229	0.000140222	
6.91634e-05	-0.0021345	0.00011626	
0.000831017	-0.0023267	-0.00108571	
-0.000984516	-0.00230548	0.00136681	
-9.23201e-05	-0.00195844	0.000474157	
-5.79845e-05	-0.00230386	0.000138044	
0.000435193	-0.00231533	-0.000614479	
0.000576718	-0.00224289	-0.000630247	
-9.27966e-06	-0.00226524	0.000139824	
0.000125182	-0.00227839	-2.93202e-05	
3.5577e-05	-0.00229243	6.81643e-05	
0.00144941	-0.0014173	-0.000698843	
0.00032278	-0.00192425	2.73165e-05	
0.00102922	-0.00171255	-0.000593561	
0.000278634	-0.00184969	0.000297321	
9.36979e-06	-0.00226435	1.73137e-05	
0.00231616	-0.00118278	-0.00114171	
-5.72419e-06	-0.00230222	1.99259e-05	
8.50899e-05	-0.00236326	-4.26185e-05	
0.00321093	-0.000311039	-6.38611e-05	
7.32016e-05	-0.00227554	9.83948e-05	
0.00306016	-0.000670822	-0.000297068	
0.000562369	-0.00207128	-0.000499699	
-2.29051e-05	-0.00231298	1.01348e-05	
6.13848e-05	-0.00208433	0.000157345	
0.000330622	-0.00113731	0.000472339	
4.84021e-05	-0.00237236	5.37305e-05	
-0.00472289	-0.000518912	0.00175037	
-9.81362e-05	-0.00212418	-0.000156405	
0.000171204	-0.00216438	-0.000419704	
-0.00777893	0.000677244	0.001	
0.000319188	-0.00236877	-0.000381175	
-6.20126e-05	-0.00214314	-0.000132377	
-0.000294459	-0.00236343	0.000484087	
0.00024982	-0.00235645	-0.000354245	
0.000288102	-0.00235454	-0.000441928	
-0.000734033	-0.00199631	0.000494417	
-0.000129719	-0.0023198	7.54701e-05	
-0.000607929	-0.00234657	0.000808022	
-0.000469686	-0.00224081	0.000497981	
-0.000332419	-0.00228375	0.000309971	
0.000179174	-0.00228903	-0.000394707	
-0.00250009	-0.00140847	0.00194335	
-0.000833158	-0.001939	0.000540936	
-0.000907947	-0.00176656	0.000505814	
-5.85482e-05	-0.00227557	-0.00010099	
-0.000350129	-0.00161327	-0.000297916	
-5.76144e-05	-0.00229553	-4.12532e-05	
-0.000453068	-0.00126121	-0.000462327	
-2.69434e-05	-0.00234103	-2.00449e-05	
-0.000232376	-0.00180763	-0.000298535	
-4.65982e-05	-0.00227229	-9.20925e-05	
-0.0150012	0.00237874	0.00204531	
-0.000612879	-0.00213397	0.000490365	
-0.000254619	-0.000919786	-0.000485188	
-0.00014464	-0.00204167	-0.000211776	
0.0200726	0.00582691	-0.000609628	
0.00254202	-0.00119903	-0.00208451	
0.000526014	-0.00236137	-0.000295789	
2.32514e-05	-0.00244929	0.000262457	
-6.91629e-06	-0.00261307	6.30206e-05	
0.000179391	-0.00240764	7.98876e-05	
0.000957544	-0.00257131	-0.0010655	
-0.00109721	-0.00256792	0.00130397	
8.34715e-05	-0.00222164	0.000305487	
-5.5874e-05	-0.00259419	0.000129288	
0.000503126	-0.00259597	-0.000577827	
0.000743085	-0.00247935	-0.000657041	
4.92228e-05	-0.00255818	8.57917e-05	
0.000193108	-0.00255183	-6.08766e-05	
6.96679e-05	-0.00257962	5.64051e-05	
0.00173336	-0.00129551	-0.00106129	
0.000497537	-0.00212335	-0.00013267	
0.00132271	-0.00173446	-0.000830813	
0.000439876	-0.00206092	0.00014155	
1.38035e-05	-0.00255339	1.13782e-05	
0.0026176	-0.000979516	-0.00136784	
1.17668e-05	-0.00257583	1.35301e-05	
0.000132316	-0.00260868	-8.0319e-05	
0.00347054	-0.000123248	1.03564e-05	
0.00013617	-0.00253856	7.23058e-05	
0.00336697	-0.000572758	-0.000347581	
0.00068083	-0.00228903	-0.000589362	
-1.87482e-05	-0.00258079	2.0757e-05	
0.000167343	-0.00233745	8.31246e-05	
0.00046149	-0.00127385	0.000462219	
7.88826e-05	-0.00261408	3.74987e-05	
-0.00519991	-0.000130822	0.00189774	
-0.000262945	-0.0023786	-2.48382e-05	
3.83275e-05	-0.00244728	-0.000323316	
-0.00829116	0.00147083	0.000866903	
0.000381168	-0.00261346	-0.000370061	
-0.000186517	-0.00240873	-9.5126e-05	
-0.000328721	-0.00262216	0.000438477	
0.000275617	-0.00261224	-0.000331122	
0.000307971	-0.00261134	-0.000402995	
-0.00096557	-0.00215505	0.000734024	
-0.000191457	-0.00259807	0.000106602	
-0.00072534	-0.0025909	0.000791075	
-0.000630738	-0.00248732	0.000528284	
-0.000444632	-0.00254633	0.00032976	
0.000130812	-0.0025831	-0.000326628	
-0.00295263	-0.00105152	0.00222055	
-0.0010619	-0.00204078	0.000758994	
-0.00122519	-0.00181467	0.000808973	
-0.000134942	-0.00253803	-8.17992e-05	
-0.000510054	-0.00182679	-8.03136e-05	
-9.57784e-05	-0.00256992	-5.47323e-06	
-0.000615421	-0.0014334	-0.00037584	
-4.97331e-05	-0.00259826	1.03378e-06	
-0.000369231	-0.00203725	-0.000138376	
-0.000100401	-0.00255913	-6.56647e-05	
-0.0154707	0.00438181	0.000784411	
-0.000774998	-0.00231605	0.00061449	
-0.00036376	-0.00103916	-0.000522038	
-0.000246752	-0.002269	-0.000139332	
0.0209072	0.00630939	-0.000124577	
0.00281317	-0.000996487	-0.00196638	
0.000572928	-0.00206409	-0.000418471	
3.75121e-05	-0.00216556	0.000136158	
-1.1264e-05	-0.00234237	2.3671e-05	
0.000156537	-0.00212411	1.5986e-05	
0.000975325	-0.00229833	-0.00108342	
-0.00112619	-0.0023069	0.00128361	
0.000159202	-0.00195076	5.19712e-05	
-4.47598e-05	-0.00230288	9.68494e-05	
0.000552486	-0.00231477	-0.000593596	
0.000793873	-0.00216672	-0.000727523	
7.65266e-05	-0.00226468	1.3199e-05	
0.000209996	-0.00225392	-0.000120496	
6.51609e-05	-0.00228436	1.81796e-05	
0.00178937	-0.00113353	-0.00103144	
0.000513412	-0.00183797	-0.000216307	
0.00137212	-0.00147067	-0.000827775	
0.00032864	-0.00180075	6.73027e-05	
2.46034e-05	-0.00227545	-7.93646e-06	
0.00272142	-0.000864248	-0.00137477	
1.15191e-05	-0.00230785	2.92286e-06	
0.000117871	-0.00233826	-9.05935e-05	
0.00362885	8.45376e-05	1.30795e-05	
0.000125316	-0.00224452	1.07319e-05	
0.00354778	-0.000391102	-0.000422057	
0.000856825	-0.00192971	-0.000736013	
9.46756e-07	-0.00231189	1.33032e-05	
0.000165006	-0.00205323	2.87995e-06	
0.000363848	-0.00106929	0.000456672	
4.60077e-05	-0.00234509	3.75736e-05	
-0.00556674	-9.39618e-05	0.00188939	
-0.000314614	-0.00208393	0.000105458	
1.84802e-05	-0.00216453	-0.000193181	
-0.00873651	0.00186392	0.000707263	
0.000375024	-0.00234346	-0.000359831	
-0.000159909	-0.0021227	-2.50779e-05	
-0.000355583	-0.0023498	0.000434507	
0.000278365	-0.0023381	-0.000312531	
0.000323187	-0.00233776	-0.000377298	
-0.00116426	-0.00176914	0.000934233	
-0.000200932	-0.00230225	0.000145987	
-0.000751331	-0.00231086	0.000804822	
-0.000680827	-0.00217383	0.000605933	
-0.000483113	-0.00223889	0.000402334	
0.000135491	-0.00229069	-0.000260271	
-0.00328215	-0.000945759	0.00209233	
-0.00113357	-0.00172381	0.000856815	
-0.0013379	-0.00153645	0.000899133	
-0.000127316	-0.00224364	-1.56062e-05	
-0.000345924	-0.00160298	-7.48758e-05	
-7.61328e-05	-0.0022908	1.32981e-05	
-0.000458924	-0.00124017	-0.000383848	
-4.013e-05	-0.00232625	6.97347e-06	
-0.000287313	-0.00178038	-6.10665e-05	
-9.59891e-05	-0.00226741	-1.58596e-05	
-0.0160051	0.00492643	0.000148128	
-0.000891323	-0.00197324	0.000708758	
-0.000301086	-0.000859687	-0.000494773	
-0.000261372	-0.00198361	1.28093e-05	
0.0216971	0.00636203	0.000935701	
0.00330105	-0.000917973	-0.0012857	
0.000665393	-0.00176909	-0.000368284	
5.23195e-05	-0.00187306	7.75764e-05	
-1.88129e-05	-0.00207871	2.4143e-05	
9.6198e-05	-0.0018284	5.19017e-05	
0.00112299	-0.00204923	-0.000936056	
-0.00131841	-0.0020525	0.00109608	
0.000220866	-0.00164617	3.25533e-06	
-7.52688e-05	-0.00205011	8.54494e-05	
0.000661756	-0.00205431	-0.000512699	
0.000924466	-0.00190389	-0.000637838	
7.13521e-05	-0.00202546	6.24238e-06	
0.000221107	-0.00201781	-0.000106339	
4.25192e-05	-0.0020372	2.07293e-05	
0.00201812	-0.000987182	-0.000595029	
0.000554689	-0.00154459	-0.000142393	
0.0015276	-0.00125958	-0.000457578	
0.000222213	-0.00151324	0.000163878	
2.28991e-05	-0.00202582	-4.36175e-06	
0.00303304	-0.000730987	-0.00083637	
6.15287e-06	-0.0020591	6.94802e-07	
0.000108225	-0.00207349	-6.52381e-05	
0.00375809	0.000240164	0.000193988	
8.9709e-05	-0.0020013	2.67533e-05	
0.0037282	-0.000272964	-0.00016374	
0.000988105	-0.00164406	-0.000592459	
-5.70983e-07	-0.00205335	5.94418e-06	
0.000112663	-0.00174863	3.37025e-05	
0.000236583	-0.000850409	0.000505793	
1.38196e-05	-0.00207922	4.68159e-05	
-0.00605124	-2.72331e-05	0.00124676	
-0.00034188	-0.00177913	8.7831e-05	
1.24487e-05	-0.00186888	-0.00012248	
-0.00916186	0.00200338	0.000315982	
0.000415004	-0.00208218	-0.000291679	
-0.000103901	-0.00182303	-6.4428e-05	
-0.000435426	-0.00208642	0.000376082	
0.000313455	-0.00208118	-0.000250091	
0.00038215	-0.00207374	-0.000312761	
-0.0013472	-0.0015177	0.000770418	
-0.000208088	-0.00204459	0.000116032	
-0.000874921	-0.00205221	0.000671435	
-0.000804062	-0.0018985	0.000544913	
-0.000540356	-0.00200038	0.00034651	
0.000197375	-0.00203294	-0.00022511	
-0.00382914	-0.000848041	0.00139158	
-0.0012892	-0.00143631	0.000692684	
-0.0016004	-0.00129139	0.000582423	
-0.000100181	-0.00199304	-1.93667e-05	
-0.000232244	-0.00133591	-0.000213835	
-5.3739e-05	-0.0020332	-6.67027e-06	
-0.000290677	-0.000997974	-0.000486989	
-2.76231e-05	-0.00206028	-2.48545e-06	
-0.000204567	-0.00149822	-0.00012288	
-6.17762e-05	-0.00202148	-2.5052e-05	
-0.0165814	0.00491391	-0.000429783	
-0.000976224	-0.00168981	0.000572634	
-0.00019301	-0.000697352	-0.000480159	
-0.000172068	-0.00168529	-6.52583e-05	
0.0224314	0.00617537	0.00179804	
0.00349033	-0.000761045	-0.00125727	
0.000790857	-0.00155793	-0.000306945	
0.000127273	-0.00165758	3.82527e-05	
-3.04679e-05	-0.00188191	2.86161e-05	
8.80019e-05	-0.00161799	6.87661e-05	
0.00127637	-0.00187187	-0.000725707	
-0.00147429	-0.00187335	0.000866444	
0.00031039	-0.00144667	1.44883e-06	
-7.57363e-05	-0.00183886	6.3189e-05	
0.000758528	-0.00185599	-0.000420528	
0.00106931	-0.00168996	-0.000516875	
9.22389e-05	-0.00181715	3.76442e-06	
0.000258532	-0.00180279	-8.00919e-05	
3.90006e-05	-0.00182513	2.7745e-05	
0.00211845	-0.000835759	-0.00058708	
0.000599966	-0.00135238	-0.000103884	
0.00159582	-0.00108637	-0.000462913	
0.00019319	-0.00132678	0.000175958	
1.9016e-05	-0.00182839	-2.48622e-07	
0.00315966	-0.000587012	-0.000841909	
4.14184e-06	-0.00187381	1.0563e-05	
0.000111712	-0.00187423	-4.0157e-05	
0.00388699	0.00026811	0.000297336	
7.53631e-05	-0.00178227	4.82307e-05	
0.00388594	-0.000144818	-0.000132421	
0.00110086	-0.00145154	-0.000480106	
4.42051e-06	-0.00186019	5.68298e-06	
9.47277e-05	-0.00154395	6.74475e-05	
0.000205262	-0.000742707	0.000459877	
-4.81489e-06	-0.00187802	5.9445e-05	
-0.00632945	0.000143406	0.00127323	
-0.000419078	-0.00157373	7.45332e-05	
-6.03055e-05	-0.00165937	-7.42265e-05	
-0.00957422	0.00191802	-6.38337e-05	
0.000462546	-0.00188496	-0.000221655	
-9.4564e-05	-0.00161776	-7.78504e-05	
-0.000498911	-0.00189421	0.000306951	
0.000342643	-0.00188947	-0.000197965	
0.000406376	-0.0018855	-0.00024929	
-0.00154538	-0.00134375	0.000634102	
-0.000246014	-0.00183641	9.2363e-05	
-0.000982308	-0.00185784	0.000534636	
-0.000940812	-0.00168721	0.000442761	
-0.000624903	-0.00179076	0.00028324	
0.000225645	-0.00182437	-0.000195153	
-0.00403921	-0.00070345	0.00140689	
-0.00141675	-0.00127325	0.000515702	
-0.00173314	-0.00111294	0.000606296	
-8.33536e-05	-0.00178064	-4.79354e-05	
-0.000200418	-0.00116857	-0.000217628	
-3.88284e-05	-0.00183563	-2.70437e-05	
-0.000253766	-0.000871072	-0.000452433	
-2.16913e-05	-0.00186482	-1.51559e-05	
-0.000176086	-0.00131631	-0.000154789	
-5.08283e-05	-0.00181858	-4.17539e-05	
-0.0171001	0.00475535	-0.00116651	
-0.00107808	-0.00150067	0.000430125	
-0.000151915	-0.000606278	-0.000445543	
-0.000140963	-0.0014952	-0.000104952	
0.0231636	0.00612073	0.00194832	
0.00388289	-0.000894836	-0.00135204	
0.000864216	-0.00170383	-0.000314766	
0.000230841	-0.00180515	1.50815e-06	
-1.29038e-05	-0.00194545	2.23294e-05	
0.000101597	-0.00175667	8.54368e-05	
0.00127907	-0.00193107	-0.00071743	
-0.00151984	-0.00196609	0.000891826	
0.000378725	-0.00166358	1.2251e-05	
-7.81433e-05	-0.00195716	6.90487e-05	
0.000800729	-0.00196475	-0.000440363	
0.00111988	-0.0018253	-0.000523501	
0.000154534	-0.00192812	-2.28505e-05	
0.000274367	-0.0018939	-7.93028e-05	
4.40508e-05	-0.00194737	3.36879e-05	
0.00231938	-0.000921843	-0.000594555	
0.000662829	-0.00160616	-7.19922e-05	
0.00172452	-0.00135596	-0.000433054	
0.000240927	-0.00159624	0.000234976	
2.24304e-05	-0.00192976	2.46527e-06	
0.00334547	-0.000606926	-0.000855885	
4.96993e-06	-0.00194173	1.17882e-05	
0.000108403	-0.00194333	-3.50689e-05	
0.00404751	0.000282501	0.000309442	
8.39737e-05	-0.00189161	5.87205e-05	
0.00407198	-8.88081e-05	-0.00013057	
0.00115382	-0.00163828	-0.000470034	
6.35999e-06	-0.00197859	7.68944e-06	
0.00011247	-0.00170932	8.92259e-05	
0.000219217	-0.000768343	0.000487357	
-1.47111e-05	-0.00193957	6.98405e-05	
-0.00666111	0.000234285	0.00134267	
-0.000483821	-0.00173479	7.33719e-05	
-0.000161619	-0.0018259	-4.10843e-05	
-0.00996153	0.00197094	-0.000147875	
0.000465037	-0.00193909	-0.000219375	
-0.000110683	-0.00177126	-9.95675e-05	
-0.000495045	-0.00194037	0.000304951	
0.000373457	-0.00194203	-0.000216783	
0.000414857	-0.001976	-0.000256526	
-0.00163887	-0.0015884	0.000625419	
-0.000257222	-0.00196695	8.90096e-05	
-0.00101449	-0.00197786	0.000544196	
-0.000987515	-0.00183675	0.000443841	
-0.000682826	-0.00189144	0.000302435	
0.000203688	-0.00195564	-0.000191146	
-0.00436511	-0.000753633	0.00148678	
-0.00152812	-0.00154313	0.000495865	
-0.00204781	-0.00127085	0.000693409	
-9.37415e-05	-0.00189704	-6.01752e-05	
-0.000232925	-0.00130666	-0.000265018	
-4.23771e-05	-0.00194503	-3.20432e-05	
-0.000274057	-0.000909813	-0.00048429	
-2.4103e-05	-0.00198161	-1.92682e-05	
-0.000223534	-0.00159394	-0.00020637	
-5.73656e-05	-0.00194149	-5.13846e-05	
-0.0176279	0.00462373	-0.00130809	
-0.00112765	-0.001685	0.000414979	
-0.000158445	-0.000615673	-0.000453623	
-0.000168175	-0.00169872	-0.000140538	
0.0237574	0.00633401	0.00221019	
0.00411751	-0.000722554	-0.00146389	
0.00102788	-0.00180805	-0.000370745	
0.000304316	-0.00193638	-1.57705e-05	
4.09464e-05	-0.00219939	-3.71981e-06	
0.000117552	-0.00190315	0.000105585	
0.00128365	-0.00219299	-0.000703731	
-0.00144333	-0.00218564	0.00083648	
0.000587694	-0.00163854	-8.39264e-05	
-3.92394e-05	-0.0021133	5.04205e-05	
0.000805085	-0.00211458	-0.000436102	
0.00115303	-0.00193994	-0.00051816	
0.000205448	-0.00206117	-4.29913e-05	
0.000339417	-0.00204299	-0.000102868	
5.00009e-05	-0.00208474	3.7529e-05	
0.00246826	-0.000799798	-0.00065899	
0.000720048	-0.00147825	-0.00010646	
0.00179293	-0.00116235	-0.00049586	
0.000225843	-0.00143595	0.00022173	
2.59929e-05	-0.0021048	4.17757e-06	
0.00348944	-0.000486053	-0.000926598	
7.04979e-06	-0.00219928	1.59225e-05	
0.000118635	-0.00223582	-3.3061e-05	
0.00417509	0.00042519	0.000293551	
9.19082e-05	-0.00199461	6.65851e-05	
0.00423832	7.06479e-05	-0.000178776	
0.00121886	-0.00166893	-0.000473866	
7.80726e-06	-0.00212123	9.07868e-06	
0.000124828	-0.00176581	0.000106878	
0.000209359	-0.000710499	0.000451784	
-5.45618e-05	-0.00224138	0.000105353	
-0.0069576	0.000439775	0.00145474	
-0.000653895	-0.00182491	0.000136456	
-0.000281898	-0.00196942	1.1806e-06	
-0.0102857	0.00219341	-0.000187901	
0.000463447	-0.00220676	-0.000208801	
-0.00012849	-0.0019247	-0.000121743	
-0.000466958	-0.00220275	0.000287854	
0.0003613	-0.00222326	-0.00020695	
0.000356017	-0.00221581	-0.000222349	
-0.00187533	-0.00153057	0.000725781	
-0.00030407	-0.00213789	0.000104893	
-0.00102249	-0.00214645	0.000536635	
-0.000996833	-0.00200958	0.000417049	
-0.00075802	-0.00206381	0.000326712	
0.00017045	-0.00211587	-0.000181176	
-0.00463687	-0.000588471	0.00162909	
-0.00162436	-0.00139386	0.000548335	
-0.00222338	-0.00114236	0.00078574	
-0.00010464	-0.00203513	-7.11637e-05	
-0.000229419	-0.00122388	-0.000255354	
-4.90808e-05	-0.0021375	-3.84557e-05	
-0.000265725	-0.000847415	-0.000453849	
-2.82547e-05	-0.00215578	-2.2054e-05	
-0.000206877	-0.00141726	-0.000194608	
-6.5915e-05	-0.00209535	-6.02278e-05	
-0.018023	0.00476606	-0.00165613	
-0.00118338	-0.00172953	0.000416548	
-0.000152075	-0.000564234	-0.000413724	
-0.000181411	-0.00172774	-0.000160415	
0.02421	0.00674474	0.00224892	
0.00425137	-0.000377335	-0.00159638	
0.0010416	-0.00139594	-0.000407136	
0.000343313	-0.00142773	-7.18008e-05	
5.12243e-05	-0.0016007	-1.38775e-05	
9.39795e-05	-0.00143144	8.58537e-05	
0.00132211	-0.001551	-0.000733281	
-0.00147718	-0.00151699	0.000854798	
0.000643905	-0.00121154	-0.000164035	
-2.32157e-05	-0.00148677	3.55847e-05	
0.000858746	-0.00155117	-0.000473538	
0.00112752	-0.00146859	-0.000529166	
0.000204957	-0.0014544	-6.3233e-05	
0.000285127	-0.00145313	-9.54547e-05	
3.65403e-05	-0.00146559	2.97156e-05	
0.00254406	-0.000530277	-0.000770083	
0.000729627	-0.00115828	-0.000162012	
0.00185144	-0.000835891	-0.000600717	
0.000186902	-0.00114465	0.000176738	
1.99837e-05	-0.00148026	3.13204e-06	
0.00355849	-0.000255244	-0.00103759	
5.64955e-06	-0.0015204	1.14692e-05	
0.000129042	-0.00156319	-4.91604e-05	
0.00426848	0.000608469	0.000231833	
7.14066e-05	-0.00149769	5.22651e-05	
0.00434611	0.000281733	-0.000262523	
0.0013224	-0.00122725	-0.000560987	
5.49034e-06	-0.00154837	7.49043e-06	
0.00010714	-0.00140715	9.07726e-05	
0.000172907	-0.000570459	0.000360163	
-1.96469e-05	-0.0015798	6.21455e-05	
-0.00718148	0.000703472	0.00156416	
-0.000716745	-0.00151706	0.000195809	
-0.000339168	-0.00159617	5.45344e-05	
-0.0105394	0.00251928	-0.000221361	
0.000460547	-0.00163117	-0.000222997	
-0.000110064	-0.00155155	-0.000103285	
-0.000497873	-0.0016364	0.000301148	
0.000356791	-0.00160431	-0.000206555	
0.000399379	-0.00160572	-0.000245075	
-0.00192723	-0.00117861	0.000795988	
-0.000305926	-0.00162107	0.000119078	
-0.00103924	-0.00166284	0.000557739	
-0.00101052	-0.00160177	0.000446151	
-0.000694892	-0.0016125	0.000310139	
0.000182979	-0.0016154	-0.000172375	
-0.00487654	-0.000355906	0.00178936	
-0.00163099	-0.00116424	0.000589079	
-0.00240775	-0.0010569	0.000885092	
-8.80368e-05	-0.00167185	-6.05739e-05	
-0.000209753	-0.00107444	-0.000225264	
-4.01611e-05	-0.00161081	-2.90556e-05	
-0.000236059	-0.000727608	-0.00038363	
-2.26565e-05	-0.00164547	-1.6583e-05	
-0.000191925	-0.00127062	-0.000174182	
-5.37404e-05	-0.00162052	-4.79739e-05	
-0.0183574	0.00502613	-0.0017675	
-0.00127426	-0.0014221	0.000496905	
-0.000140261	-0.000493708	-0.000360195	
-0.000152486	-0.00136554	-0.000129058	
0.024749	0.00704753	0.00233943	
0.00438101	-0.000490151	-0.0015875	
0.00124035	-0.00135685	-0.000503045	
0.000388603	-0.00154206	-7.62488e-05	
6.28488e-05	-0.00135469	-2.10193e-05	
0.000104727	-0.00150833	9.95262e-05	
0.00131154	-0.00134699	-0.000715771	
-0.00154749	-0.00140314	0.000878095	
0.000764796	-0.00121741	-0.000217812	
-4.66983e-05	-0.0015113	5.37987e-05	
0.000806007	-0.00148172	-0.000433571	
0.00114213	-0.00151408	-0.000521304	
0.000178001	-0.00152879	-3.98922e-05	
0.000294469	-0.00155098	-9.06347e-05	
4.02643e-05	-0.00151735	3.30361e-05	
0.00269573	-0.00060433	-0.000776049	
0.000772868	-0.00113704	-0.00018249	
0.00192343	-0.000845266	-0.000621674	
0.000188648	-0.00112968	0.000174961	
2.20637e-05	-0.00148324	6.30544e-06	
0.00372936	-0.000312939	-0.00102089	
5.83091e-06	-0.00138093	9.87578e-06	
0.000134702	-0.00135847	-5.78576e-05	
0.00440685	0.000656607	0.00027362	
7.62819e-05	-0.00155543	5.81783e-05	
0.00451984	0.000320255	-0.000249282	
0.00136883	-0.00122798	-0.000572794	
4.62834e-06	-0.00143563	7.44824e-06	
0.000106597	-0.00132881	9.08657e-05	
0.000209696	-0.000667169	0.000410839	
-2.75273e-05	-0.00136543	5.29721e-05	
-0.00740545	0.000889751	0.00164241	
-0.000829315	-0.00116667	0.000290873	
-0.000392815	-0.00125409	0.000104182	
-0.0108014	0.00278576	-0.000237985	
0.000467454	-0.00136569	-0.000234006	
-9.48643e-05	-0.00126078	-8.91283e-05	
-0.000491677	-0.00137521	0.00028836	
0.000387112	-0.00138418	-0.000222631	
0.000435996	-0.00141639	-0.000263179	
-0.00202097	-0.00089992	0.000870348	
-0.000359947	-0.00151942	0.000147918	
-0.000949659	-0.00149273	0.000501195	
-0.00105141	-0.00130098	0.000480948	
-0.000766993	-0.00142487	0.000354889	
0.000151473	-0.00149282	-0.000150333	
-0.00500293	-0.000222286	0.00184985	
-0.0016604	-0.000861782	0.000652078	
-0.00238834	-0.000661863	0.000959276	
-7.35773e-05	-0.00139155	-5.1666e-05	
-0.000180694	-0.000900735	-0.000186554	
-4.0751e-05	-0.00152947	-2.8509e-05	
-0.000232111	-0.000695666	-0.000357779	
-2.07055e-05	-0.00144863	-1.61052e-05	
-0.000145438	-0.00094767	-0.000129589	
-5.06484e-05	-0.00146377	-4.51286e-05	
-0.0186664	0.00526561	-0.00185015	
-0.00128488	-0.00107273	0.000536485	
-0.000142251	-0.000478015	-0.000341373	
-0.000128269	-0.00110194	-0.000105821	
0.0251954	0.00738016	0.00227862	
0.00453125	-0.000263057	-0.00168934	
0.00133807	-0.00131865	-0.000542952	
0.000446445	-0.00139218	-0.000111038	
0.000161136	-0.00185753	-6.91686e-05	
9.91543e-05	-0.00137967	9.60838e-05	
0.00133848	-0.00178806	-0.000705174	
-0.00151512	-0.00173577	0.000842704	
0.000908527	-0.00110423	-0.000300721	
0.000111421	-0.00161752	-2.62573e-05	
0.000844747	-0.00172923	-0.000440719	
0.00115705	-0.00141555	-0.000517785	
0.000227647	-0.00152959	-5.94671e-05	
0.000356286	-0.0015185	-0.000120506	
4.37421e-05	-0.00156388	3.70397e-05	
0.0027767	-0.000416677	-0.000859856	
0.000775412	-0.0010362	-0.000195918	
0.00197034	-0.000765729	-0.000653733	
0.000178907	-0.00105839	0.000164867	
2.59027e-05	-0.00169982	1.37443e-05	
0.00378002	-0.000124979	-0.0011254	
8.48369e-06	-0.00178304	1.35078e-05	
0.000139173	-0.00187252	-5.22847e-05	
0.00448692	0.000822321	0.000210278	
7.30074e-05	-0.00146675	6.24683e-05	
0.00461785	0.000521495	-0.000339529	
0.00144086	-0.00115539	-0.000600624	
6.26042e-06	-0.00174423	1.09119e-05	
0.00010782	-0.00129362	9.23411e-05	
0.000176936	-0.000549799	0.000327758	
-6.56063e-05	-0.0018692	8.8545e-05	
-0.00762029	0.00106524	0.00172084	
-0.000980037	-0.00141883	0.000328307	
-0.000373257	-0.00147605	6.58489e-05	
-0.011043	0.00299591	-0.000236116	
0.000404722	-0.00183188	-0.000184424	
-0.000114582	-0.00148126	-0.000108926	
-0.000508875	-0.0017679	0.000290421	
0.000305669	-0.00174618	-0.0001735	
0.000421965	-0.0016692	-0.000254401	
-0.00219806	-0.00105317	0.000912227	
-0.000503736	-0.00146508	0.000220729	
-0.00104698	-0.00161096	0.000539263	
-0.001037	-0.00141871	0.000448512	
-0.000776947	-0.00142967	0.000350094	
0.000145318	-0.00143595	-0.000146404	
-0.00534719	-0.000175144	0.00197502	
-0.00171564	-0.00101672	0.000631984	
-0.00248014	-0.000845477	0.000945489	
-7.57361e-05	-0.00143086	-5.9104e-05	
-0.000218819	-0.00107782	-0.000221702	
-4.50857e-05	-0.00155576	-3.17212e-05	
-0.00022884	-0.000682645	-0.00034218	
-2.49981e-05	-0.00165373	-2.04541e-05	
-0.000176827	-0.00114439	-0.000157459	
-5.11957e-05	-0.00143354	-4.56777e-05	
-0.0190039	0.00546849	-0.00187034	
-0.00138311	-0.00129389	0.000542924	
-0.000145161	-0.000465469	-0.000323906	
-0.000154524	-0.00129455	-0.000125525	
0.0255296	0.00771726	0.00212086	
0.00445233	0.000114159	-0.00173612	
0.00132692	-0.000788779	-0.000579156	
0.000593983	-0.000891266	-0.000225705	
6.98093e-05	-0.00118829	-2.52042e-05	
6.25229e-05	-0.000863637	6.10533e-05	
0.00137958	-0.00123633	-0.000718678	
-0.00153955	-0.00127586	0.000834397	
0.000901972	-0.000742741	-0.000338803	
0.000110303	-0.00116349	-3.1966e-05	
0.000920028	-0.00118265	-0.000479579	
0.00124915	-0.000995894	-0.000576894	
0.00025858	-0.00114161	-9.00022e-05	
0.000330716	-0.00111333	-0.000122029	
3.34898e-05	-0.0011537	2.87022e-05	
0.00283356	-0.00019142	-0.00094992	
0.000823528	-0.000714168	-0.000271899	
0.00198563	-0.000354912	-0.000748261	
0.000113357	-0.000676556	0.000104939	
1.88578e-05	-0.00115144	1.17786e-05	
0.00381046	8.33654e-05	-0.00123566	
6.41671e-06	-0.00121742	9.86095e-06	
0.000136282	-0.00116269	-5.77821e-05	
0.00453298	0.0010065	0.00012889	
5.67176e-05	-0.00113467	5.05884e-05	
0.00467217	0.000715015	-0.000452522	
0.00149223	-0.000705878	-0.000655829	
5.17492e-06	-0.00122536	1.09229e-05	
7.20584e-05	-0.000854799	6.20996e-05	
0.000132479	-0.000405596	0.00023366	
-5.15954e-05	-0.00117004	6.13325e-05	
-0.00770375	0.00134836	0.00187668	
-0.000942959	-0.000819536	0.00037745	
-0.000501238	-0.000905404	0.000180607	
-0.0111873	0.00327913	-0.000124111	
0.000480186	-0.00119947	-0.000233923	
-6.84032e-05	-0.000876576	-6.49141e-05	
-0.000547687	-0.0012782	0.000304417	
0.000355289	-0.00124369	-0.000197321	
0.000368097	-0.00129471	-0.000216674	
-0.00222011	-0.000605292	0.000968191	
-0.000522573	-0.0011491	0.000234486	
-0.001133	-0.00117496	0.000581879	
-0.00111896	-0.000997499	0.00051086	
-0.000768098	-0.00109577	0.000352623	
0.00013679	-0.00114452	-0.000127304	
-0.00532584	0.000182538	0.0021034	
-0.00177089	-0.000601126	0.000718773	
-0.00251234	-0.000337113	0.00106547	
-5.93289e-05	-0.0011331	-4.91115e-05	
-0.000114465	-0.000563653	-0.000115068	
-3.51452e-05	-0.00115089	-2.48999e-05	
-0.000155978	-0.000465724	-0.000225499	
-2.0264e-05	-0.00123549	-1.60232e-05	
-0.000102706	-0.000667904	-9.12722e-05	
-4.11071e-05	-0.00112903	-3.74438e-05	
-0.0192606	0.00569152	-0.00170295	
-0.00141581	-0.000794601	0.000609718	
-0.000108697	-0.00033452	-0.000219553	
-9.69693e-05	-0.000804613	-7.97401e-05	
0.0260602	0.00793872	0.00197526	
0.00462518	-0.000150544	-0.0016931	
0.00142575	-0.00119842	-0.000562805	
0.000671298	-0.00127329	-0.000222684	
-1.32487e-05	-0.00148761	2.14328e-05	
9.25018e-05	-0.00127642	9.04877e-05	
0.00137837	-0.00152745	-0.000688809	
-0.00145374	-0.00150902	0.000767341	
0.00119008	-0.00111272	-0.000417424	
8.33975e-05	-0.00147432	-8.26856e-06	
0.000966663	-0.00144824	-0.000483645	
0.00131815	-0.00128551	-0.000570238	
0.000268794	-0.00148564	-7.84941e-05	
0.000459288	-0.00146438	-0.00016605	
4.31153e-05	-0.00146362	3.64223e-05	
0.00291108	-0.000363954	-0.000893987	
0.000914012	-0.000964728	-0.000262535	
0.00212059	-0.00063557	-0.000719388	
0.000158725	-0.000961986	0.000147498	