<VTKFile type="UnstructuredGrid" version="0.1" byte_order="LittleEndian">
	<UnstructuredGrid>
		<Piece NumberOfPoints="840" NumberOfCells="840">
			<CellData Scalars="scalars">
				<DataArray type="Float64" Name="Strength" NumberOfComponents="3" Format="ascii">
0.0171013	-0.0110039	-0.000233346	
0.00260132	-0.0237543	0.0020697	
0.000600765	-0.0252514	0.000560387	
-0.000216006	-0.0264937	0.000720706	
-0.000399711	-0.026085	0.000300736	
0.000312979	-0.0258297	0.000549545	
0.00122489	-0.0264613	-0.000397507	
-0.00149116	-0.0257333	0.00075817	
-3.48029e-05	-0.025163	0.00140381	
0.000157613	-0.0254816	0.000114411	
0.000766908	-0.0264224	-0.000343635	
0.00100107	-0.0254612	-3.67382e-05	
9.11791e-05	-0.0268109	0.000279084	
0.000371224	-0.0263109	0.000276861	
0.000213939	-0.0261157	0.000204002	
0.00141214	-0.0224196	0.00329921	
0.00079163	-0.0254931	0.00148287	
0.00141655	-0.0243212	0.00207384	
0.000693828	-0.0253491	0.0020383	
0.000172376	-0.0259279	1.79694e-05	
0.0022906	-0.0214231	0.00398116	
-4.04241e-06	-0.0252233	9.35884e-05	
-4.25981e-05	-0.0260022	0.000183193	
0.0033517	-0.0150187	0.00427942	
0.000287809	-0.0261826	0.000378758	
0.00275077	-0.0173802	0.004748	
0.00109859	-0.0249877	0.000484425	
8.68633e-05	-0.0267303	-8.10689e-05	
0.000406929	-0.0256768	0.000793581	
0.000443855	-0.0194417	0.00519926	
7.71731e-05	-0.0260377	0.00032471	
-0.00416615	-0.0193135	-0.00398095	
-0.000350979	-0.0255092	-0.000926243	
0.000167384	-0.026474	-0.000668893	
-0.0071558	-0.0151236	-0.00329245	
0.000481537	-0.026233	-2.74001e-05	
-0.00036461	-0.0259238	-0.000594113	
-0.000586414	-0.0267152	0.000273514	
0.000373154	-0.0261671	-0.000176477	
0.000541986	-0.0266014	-0.000289998	
-0.000985409	-0.0248832	-0.00107494	
-0.000189891	-0.0255689	-0.000216738	
-0.000959618	-0.0265671	0.00024593	
-0.000887325	-0.0255584	-1.90497e-05	
-0.000817827	-0.0261836	-8.7892e-05	
0.000257544	-0.0261137	-0.000456924	
-0.00271923	-0.0223674	-0.0027618	
-0.00128493	-0.0249083	-0.00125717	
-0.00105492	-0.0237539	-0.00190981	
-0.000370392	-0.0261103	-0.000350875	
-0.000521378	-0.0237675	-0.00280168	
-0.00010984	-0.0260252	-0.000255743	
-0.000590828	-0.0210804	-0.00484205	
-3.31467e-05	-0.0271067	-0.000110018	
-0.000533886	-0.0243159	-0.00189883	
-0.000189308	-0.0266157	-0.000332515	
-0.0136665	-0.0113626	-0.000402559	
-0.00108666	-0.0260731	-0.000683956	
-0.000890643	-0.017366	-0.00574651	
-0.000462012	-0.0253741	-0.0011943	
0.0183916	0.000486177	-0.00398948	
0.00239167	-0.00403782	-0.000832131	
0.000386242	-0.0048684	-7.56355e-05	
-0.000268878	-0.00493595	0.000290594	
-0.000159079	-0.00521303	0.000125901	
7.29049e-05	-0.00490191	8.63248e-05	
0.00115172	-0.00511621	-0.000701248	
-0.00138548	-0.00513608	0.000902517	
-0.000248299	-0.00467355	0.0004257	
-6.02531e-05	-0.00511469	7.72236e-05	
0.000632648	-0.00506944	-0.000402582	
0.000759193	-0.00506526	-0.000405169	
-5.29744e-05	-0.00505354	0.00010825	
0.000152014	-0.00510491	-1.27227e-05	
3.61218e-05	-0.00507519	4.80648e-05	
0.00139866	-0.0037881	-0.000105859	
0.000354051	-0.00454983	0.000127121	
0.0010819	-0.004207	-0.000149028	
0.000198636	-0.00448441	0.000330107	
3.05411e-05	-0.00496349	-2.50508e-06	
0.00228567	-0.00345385	-0.000416395	
-4.72678e-07	-0.00503908	1.56995e-05	
7.36505e-05	-0.0052373	-1.00114e-05	
0.00307352	-0.00189654	-0.000246767	
6.27832e-05	-0.00514221	6.71112e-05	
0.0028502	-0.00244175	-0.000305953	
0.000756238	-0.0047331	-0.000272257	
1.80743e-06	-0.00510094	-6.96734e-06	
8.43605e-05	-0.00482445	0.00012674	
0.000286585	-0.00304825	0.000717108	
2.32141e-05	-0.00526899	6.32036e-05	
-0.00443647	-0.00296769	0.00119731	
-6.51034e-05	-0.00490718	-0.00017205	
0.000321345	-0.00496504	-0.000318011	
-0.00726904	-0.00155073	0.00175406	
0.0004351	-0.00525057	-0.000232813	
-6.84066e-05	-0.0049172	-0.000106609	
-0.000482809	-0.00521138	0.000320588	
0.000360464	-0.00517039	-0.000233843	
0.000448131	-0.00518959	-0.000296887	
-0.000798119	-0.00458912	0.000183333	
-0.00015444	-0.0051201	3.58888e-05	
-0.000851847	-0.00518009	0.000514663	
-0.000621458	-0.00503094	0.000311036	
-0.000461541	-0.00508703	0.000196712	
0.000318364	-0.00504723	-0.000282629	
-0.00272531	-0.00381278	0.0008517	
-0.000969412	-0.00449905	0.000233506	
-0.000914743	-0.00428886	8.85252e-05	
-6.04125e-05	-0.00513751	-7.1893e-05	
-0.00022459	-0.00403644	-0.000421391	
-4.59147e-05	-0.00505299	-3.4803e-05	
-0.000306842	-0.00343435	-0.000700986	
-1.93742e-05	-0.00516381	-1.75239e-05	
-0.000176475	-0.00435752	-0.000313923	
-4.4525e-05	-0.00505953	-6.4405e-05	
-0.0142785	3.79238e-06	0.00318795	
-0.000773509	-0.00486393	0.000257072	
-0.000331327	-0.00250908	-0.000724605	
-0.000125381	-0.00474468	-0.000190144	
0.0192116	0.00264754	-0.00389379	
0.00246684	-0.00153358	-0.00126224	
0.000403464	-0.00210651	-0.000186699	
-0.000224253	-0.00217627	0.000195783	
-0.000112889	-0.00235391	7.56247e-05	
4.32342e-05	-0.00213911	2.55011e-05	
0.00117594	-0.00231895	-0.000730938	
-0.00140779	-0.00232068	0.000895336	
-0.000188344	-0.001997	0.000222071	
-9.30192e-05	-0.00230631	7.28127e-05	
0.000651019	-0.00231045	-0.000412746	
0.000778593	-0.00222347	-0.000465272	
-4.65392e-05	-0.00226894	5.98141e-05	
0.000139486	-0.00227772	-5.24818e-05	
1.83873e-05	-0.00229416	1.96787e-05	
0.00143231	-0.00148748	-0.000581856	
0.000338342	-0.00192078	-8.40402e-05	
0.00108673	-0.00171186	-0.000487774	
0.000128619	-0.00188858	8.83855e-05	
1.10581e-05	-0.00226493	-2.17283e-07	
0.00234961	-0.00128005	-0.00095631	
1.73176e-06	-0.00230292	4.00136e-06	
8.46603e-05	-0.00236413	-4.03044e-05	
0.00312814	-0.000429676	-0.000647228	
3.35442e-05	-0.00227923	2.55173e-05	
0.00295486	-0.000724388	-0.000795593	
0.000771997	-0.00202149	-0.000423326	
-3.08994e-06	-0.00231383	8.67203e-07	
5.20653e-05	-0.00209119	3.51672e-05	
0.000181879	-0.00124349	0.000221487	
9.60308e-06	-0.00237407	2.98211e-05	
-0.00465829	-0.000799097	0.00181497	
-6.76366e-05	-0.00213158	-4.57823e-05	
0.000280635	-0.00218211	-0.0002331	
-0.00758548	0.000320545	0.00204852	
0.000430893	-0.0023692	-0.000253079	
-4.39577e-05	-0.00214829	-3.50793e-05	
-0.000480877	-0.00236264	0.000313785	
0.000354158	-0.00235926	-0.000229397	
0.000431141	-0.0023582	-0.000282755	
-0.000881062	-0.001949	0.000445719	
-0.000154839	-0.00231891	7.38501e-05	
-0.000867319	-0.00234189	0.000546828	
-0.000647872	-0.0022209	0.000377815	
-0.000444124	-0.00227397	0.000238527	
0.000305773	-0.0022991	-0.000227837	
-0.00285678	-0.00139185	0.00138866	
-0.000985599	-0.0018849	0.000476907	
-0.000995217	-0.00173878	0.000437575	
-3.47597e-05	-0.0022789	-2.95139e-05	
-0.000140347	-0.00166928	-0.000100638	
-2.82058e-05	-0.00229694	-7.25398e-06	
-0.000190532	-0.00138912	-0.000215752	
-1.34443e-05	-0.002342	-1.91421e-06	
-0.000103249	-0.00184308	-8.01495e-05	
-2.38802e-05	-0.00227502	-2.40024e-05	
-0.0148667	0.00188163	0.003115	
-0.000778847	-0.0020987	0.000405635	
-0.000193821	-0.00102906	-0.000227524	
-8.32946e-05	-0.00205645	-4.8377e-05	
0.0203206	0.00324607	-0.0034961	
0.00274229	-0.00172169	-0.00133478	
0.000494906	-0.00237733	-0.000225496	
-0.000160093	-0.00245557	0.000139073	
-8.37825e-05	-0.00261323	4.17488e-05	
4.70372e-05	-0.0024164	1.87847e-05	
0.00122871	-0.0025845	-0.000699339	
-0.00145774	-0.0025837	0.000847193	
-9.02308e-05	-0.00223792	0.00015892	
-0.000104764	-0.00259578	7.12805e-05	
0.000679833	-0.00259162	-0.000393034	
0.000845854	-0.00249193	-0.000463814	
-1.12133e-05	-0.00256084	2.78039e-05	
0.000160412	-0.00255489	-6.57758e-05	
2.30004e-05	-0.00258188	1.36185e-05	
0.00161744	-0.00165875	-0.000670587	
0.000389255	-0.00214818	-0.000113689	
0.00120629	-0.00192962	-0.000526626	
0.000126889	-0.00210771	8.76018e-05	
1.01476e-05	-0.00255422	-3.91926e-06	
0.00257646	-0.00140833	-0.00103504	
2.58011e-06	-0.00257664	4.8623e-06	
9.4164e-05	-0.00261224	-4.85478e-05	
0.00337318	-0.000428513	-0.000685486	
3.6978e-05	-0.00254398	1.99414e-05	
0.00322604	-0.00077482	-0.000872713	
0.000836712	-0.00227498	-0.000428845	
-2.84064e-06	-0.00258201	2.86352e-06	
5.65891e-05	-0.00234546	2.25614e-05	
0.00021279	-0.00139872	0.00022671	
5.43731e-06	-0.00261645	3.20995e-05	
-0.00510908	-0.000838947	0.00196139	
-0.000145365	-0.00239015	5.89918e-06	
0.000223007	-0.00245394	-0.000173313	
-0.00817623	0.000496261	0.00209481	
0.000444707	-0.00262002	-0.000238608	
-4.97737e-05	-0.00241841	-2.92356e-05	
-0.000495278	-0.00261806	0.000288646	
0.000359141	-0.00261544	-0.000211625	
0.00043423	-0.00261265	-0.00026194	
-0.00103729	-0.00218849	0.000508969	
-0.000169756	-0.00260143	7.91664e-05	
-0.000904383	-0.00260441	0.000522922	
-0.00071108	-0.00249348	0.000385255	
-0.000482482	-0.00255009	0.000244417	
0.000281636	-0.00258553	-0.000192338	
-0.00318011	-0.00156284	0.00149108	
-0.00110792	-0.00209323	0.000518112	
-0.00118502	-0.00194528	0.000518008	
-3.79293e-05	-0.00254361	-2.14586e-05	
-0.000142905	-0.00189148	-9.34382e-05	
-3.06451e-05	-0.00257229	9.7585e-07	
-0.00022127	-0.00157533	-0.0002195	
-1.51462e-05	-0.00259973	1.35778e-06	
-0.000100712	-0.00207236	-7.79045e-05	
-2.81155e-05	-0.00256267	-1.51742e-05	
-0.0156649	0.00235583	0.00270693	
-0.000863489	-0.00232754	0.000434417	
-0.000232833	-0.00117464	-0.000232004	
-7.25123e-05	-0.00228615	-5.81809e-05	
0.0212354	0.00332536	-0.00361168	
0.00297013	-0.00147091	-0.00134749	
0.000565916	-0.00209307	-0.000266416	
-0.00010965	-0.00216684	9.54006e-05	
-6.06385e-05	-0.00234291	2.76725e-05	
3.67314e-05	-0.00213109	1.8134e-05	
0.00125577	-0.00231789	-0.000690232	
-0.00148662	-0.0023169	0.000827129	
2.39152e-05	-0.00195879	3.90649e-05	
-0.000102899	-0.00230337	6.1315e-05	
0.000708756	-0.00231656	-0.000395255	
0.000888581	-0.00220208	-0.000476222	
1.75064e-05	-0.00226711	3.14081e-06	
0.000173107	-0.00226009	-7.77927e-05	
1.74678e-05	-0.0022864	6.20406e-06	
0.00175647	-0.00141601	-0.00068556	
0.000424828	-0.00186895	-0.000144414	
0.00129423	-0.00166019	-0.0005554	
9.98456e-05	-0.00182942	6.22947e-05	
8.53443e-06	-0.00227664	-3.57288e-06	
0.00274501	-0.00118643	-0.00105529	
8.61594e-07	-0.00230894	1.01678e-06	
9.8146e-05	-0.00234188	-4.73372e-05	
0.00353924	-0.000266825	-0.000735655	
2.83798e-05	-0.00224915	1.33629e-05	
0.00341393	-0.000589148	-0.000946795	
0.000925821	-0.00198072	-0.00048021	
-6.29394e-07	-0.00231329	1.03602e-06	
4.08429e-05	-0.00206096	1.28481e-05	
0.000166991	-0.00119216	0.000195999	
-7.20438e-06	-0.00234698	3.55765e-05	
-0.00548315	-0.000631601	0.00202396	
-0.000201982	-0.00210139	5.5848e-05	
0.00017254	-0.00216424	-0.00012612	
-0.00866599	0.000673788	0.00212564	
0.000444542	-0.00234958	-0.000227039	
-3.83591e-05	-0.00212998	-2.23174e-05	
-0.000503701	-0.00234723	0.00028593	
0.000357778	-0.00234099	-0.000199814	
0.000436402	-0.00233841	-0.000247259	
-0.00119518	-0.00189438	0.00059466	
-0.000187775	-0.00230739	9.01667e-05	
-0.000932057	-0.00232979	0.000517616	
-0.000754897	-0.00219889	0.00040091	
-0.0005105	-0.00225534	0.00025912	
0.000269775	-0.00228868	-0.000168308	
-0.00346612	-0.00133827	0.00150639	
-0.00117486	-0.00182087	0.000553307	
-0.00134293	-0.00167988	0.000585989	
-3.05375e-05	-0.00224835	-1.38528e-05	
-0.000108814	-0.00163705	-8.27247e-05	
-2.40322e-05	-0.00229303	-2.87595e-06	
-0.000166336	-0.00135499	-0.000191	
-1.32268e-05	-0.00232793	-2.94498e-07	
-7.84479e-05	-0.0018032	-5.87751e-05	
-2.24585e-05	-0.00227052	-9.62123e-06	
-0.0163141	0.00244371	0.00268679	
-0.000912966	-0.00203953	0.000456584	
-0.000188413	-0.00100116	-0.00019858	
-7.08832e-05	-0.00200104	-1.68388e-05	
0.0220777	0.00321656	-0.00345433	
0.00323402	-0.0012153	-0.00121314	
0.000662201	-0.00179083	-0.000266779	
-2.76105e-05	-0.00187639	4.4388e-05	
-4.56152e-05	-0.00207997	2.05183e-05	
2.39029e-05	-0.00183305	2.92986e-05	
0.00130871	-0.00206285	-0.000623216	
-0.0015437	-0.00206194	0.000737122	
0.000120646	-0.00165811	-7.71922e-06	
-0.000109901	-0.0020509	5.85425e-05	
0.000754069	-0.00205772	-0.000358144	
0.000979292	-0.00193182	-0.00045561	
3.49521e-05	-0.00202786	-4.41953e-06	
0.000196376	-0.00202303	-8.07176e-05	
1.25925e-05	-0.00203909	5.41327e-06	
0.00191302	-0.00116922	-0.000616276	
0.000473898	-0.00157271	-0.000146278	
0.00140607	-0.00138581	-0.000488799	
7.58139e-05	-0.00153678	6.2898e-05	
9.18491e-06	-0.00202726	-3.92223e-06	
0.00294653	-0.000977016	-0.000891563	
-1.11238e-07	-0.00206044	6.17654e-07	
0.000100082	-0.00207622	-4.05235e-05	
0.00369703	-0.000175164	-0.000684087	
2.19598e-05	-0.00200491	1.46925e-05	
0.00360322	-0.000452331	-0.000882285	
0.00100669	-0.00168756	-0.000424299	
-1.01275e-06	-0.00205492	4.00492e-07	
2.94593e-05	-0.00175401	1.88269e-05	
0.00011456	-0.000994523	0.000189717	
-1.89849e-05	-0.00208107	3.57713e-05	
-0.00588159	-0.000486093	0.00181356	
-0.000275119	-0.00179341	6.84096e-05	
9.61341e-05	-0.00187079	-7.21589e-05	
-0.0091276	0.000711404	0.00197843	
0.000456568	-0.00208602	-0.000202685	
-2.43493e-05	-0.00182839	-3.67211e-05	
-0.000524728	-0.00208577	0.000259388	
0.000359698	-0.00208322	-0.000172044	
0.000444656	-0.00207593	-0.000212015	
-0.00134918	-0.00160911	0.00056162	
-0.000204961	-0.00204806	8.02907e-05	
-0.000982566	-0.00206465	0.000461187	
-0.000839599	-0.00192358	0.000391397	
-0.0005548	-0.00201325	0.000244578	
0.00027177	-0.00203335	-0.000143082	
-0.00378454	-0.00109525	0.00134401	
-0.00126184	-0.00153532	0.000516311	
-0.00152287	-0.00139719	0.00055282	
-2.43641e-05	-0.001997	-1.07741e-05	
-7.77718e-05	-0.00136899	-9.00132e-05	
-2.02666e-05	-0.00203513	-6.53414e-06	
-0.000115055	-0.00112953	-0.000179824	
-1.04446e-05	-0.00206201	-3.90722e-06	
-5.67511e-05	-0.00151659	-5.7733e-05	
-1.57096e-05	-0.00202394	-8.3607e-06	
-0.0169017	0.0023327	0.00260387	
-0.000979342	-0.00173432	0.000425117	
-0.000137732	-0.000837953	-0.000188523	
-4.5907e-05	-0.00169595	-4.35357e-05	
0.0228306	0.00292711	-0.00343057	
0.00343341	-0.00105634	-0.00120665	
0.000759008	-0.00158227	-0.00027582	
6.29814e-05	-0.00166362	3.32993e-06	
-4.47467e-05	-0.00188363	1.83432e-05	
2.04749e-05	-0.00162349	2.71647e-05	
0.0013551	-0.00187757	-0.000564006	
-0.00157791	-0.0018776	0.000666391	
0.00023088	-0.00146253	-4.98944e-05	
-9.86277e-05	-0.00183996	4.56287e-05	
0.000796262	-0.00185998	-0.000337556	
0.00106869	-0.00171752	-0.000432684	
6.02579e-05	-0.00182002	-1.75091e-05	
0.00022678	-0.00180883	-7.98224e-05	
1.04849e-05	-0.00182734	6.18664e-06	
0.00202768	-0.00101839	-0.000622326	
0.000516986	-0.0013841	-0.000149826	
0.00149063	-0.00121297	-0.000505779	
6.08082e-05	-0.00135147	6.14587e-05	
6.70239e-06	-0.00183006	-8.01679e-07	
0.00307987	-0.000856113	-0.000902923	
2.1527e-07	-0.00187543	1.73873e-06	
0.00010457	-0.00187664	-3.62373e-05	
0.00382779	-0.00012785	-0.000731802	
1.66665e-05	-0.0017862	1.84763e-05	
0.00375356	-0.000369696	-0.000933591	
0.00108145	-0.00148852	-0.000419055	
8.22963e-07	-0.00186198	4.23452e-07	
2.28358e-05	-0.00154998	2.3332e-05	
9.28943e-05	-0.000879444	0.000162274	
-2.56504e-05	-0.00188043	3.45765e-05	
-0.00616453	-0.000404593	0.00186532	
-0.000358047	-0.00158945	0.000100026	
1.0399e-05	-0.00166373	-3.059e-05	
-0.0095081	0.000678469	0.00201974	
0.000475638	-0.00188781	-0.000185427	
-2.22243e-05	-0.00162402	-2.80549e-05	
-0.000542263	-0.00189492	0.00023629	
0.000360984	-0.00189222	-0.000151336	
0.000438722	-0.00188739	-0.000190036	
-0.00150613	-0.00142052	0.000568807	
-0.000236899	-0.00183962	8.55994e-05	
-0.00102538	-0.00186556	0.000429206	
-0.000925871	-0.001715	0.000374586	
-0.000609971	-0.00180421	0.000240867	
0.00027402	-0.00182536	-0.000130137	
-0.00400538	-0.000948966	0.001364	
-0.0013542	-0.0013556	0.000483055	
-0.00166833	-0.0012235	0.000583023	
-1.77933e-05	-0.00178489	-1.7402e-05	
-6.27633e-05	-0.00120276	-8.12933e-05	
-1.52926e-05	-0.00183774	-9.87877e-06	
-9.27369e-05	-0.000999334	-0.000155907	
-8.84214e-06	-0.00186677	-5.24573e-06	
-4.5458e-05	-0.00133699	-5.54656e-05	
-1.15313e-05	-0.0018213	-1.06599e-05	
-0.0174307	0.00209187	0.00254264	
-0.0010441	-0.00153765	0.000394657	
-0.000111255	-0.000743656	-0.000162011	
-4.01969e-05	-0.00150654	-3.54217e-05	
0.0235352	0.00267497	-0.00365139	
0.0037975	-0.00124123	-0.00133558	
0.000820807	-0.00173231	-0.00029602	
0.000159286	-0.00181511	-3.55894e-05	
-2.66444e-05	-0.00194784	1.13438e-05	
2.11257e-05	-0.00176399	2.99355e-05	
0.00135804	-0.00193578	-0.000562043	
-0.00162923	-0.0019704	0.000686082	
0.000278053	-0.00168493	-6.3634e-05	
-0.000104715	-0.00195879	4.98927e-05	
0.00083925	-0.00197008	-0.000354266	
0.00111072	-0.00185577	-0.000448174	
0.0001204	-0.00193241	-4.37043e-05	
0.00023701	-0.00190104	-8.38332e-05	
1.08335e-05	-0.00195034	7.04511e-06	
0.00220088	-0.00113802	-0.000673621	
0.000550214	-0.00164548	-0.000153874	
0.00157477	-0.001503	-0.000524981	
6.85195e-05	-0.00163129	7.16696e-05	
7.28878e-06	-0.001932	1.54176e-06	
0.00324142	-0.000927787	-0.000963238	
5.34143e-07	-0.00194386	1.469e-06	
0.000100738	-0.00194624	-3.54008e-05	
0.00397627	-0.000166759	-0.000803442	
1.61608e-05	-0.00189669	1.97561e-05	
0.00391942	-0.000411086	-0.0010158	
0.00111755	-0.00167943	-0.000428945	
1.6697e-06	-0.00198096	3.33795e-07	
2.38435e-05	-0.00171774	2.75329e-05	
8.84617e-05	-0.00092062	0.000157562	
-3.72045e-05	-0.00194264	3.8838e-05	
-0.00647719	-0.000450012	0.00200685	
-0.000409252	-0.00175443	0.0001168	
-8.10748e-05	-0.00183433	5.72963e-06	
-0.00988289	0.000600462	0.00215387	
0.000477861	-0.00194227	-0.000187059	
-2.32369e-05	-0.00177981	-3.23043e-05	
-0.000539124	-0.00194163	0.000234329	
0.000394682	-0.00194539	-0.000165341	
0.000449698	-0.00197834	-0.000193906	
-0.00157324	-0.00167339	0.000589115	
-0.000244639	-0.00197095	8.73007e-05	
-0.00105713	-0.00198628	0.000440895	
-0.000960955	-0.00186806	0.000385812	
-0.000664217	-0.00190694	0.000262312	
0.000255607	-0.00195761	-0.000121732	
-0.0043109	-0.0010562	0.00147228	
-0.0014304	-0.00163743	0.000502493	
-0.00195994	-0.00141037	0.000691845	
-1.71125e-05	-0.00190259	-1.92487e-05	
-6.4378e-05	-0.00135151	-8.78126e-05	
-1.54772e-05	-0.00194782	-1.10258e-05	
-8.92684e-05	-0.00105422	-0.000152015	
-9.36082e-06	-0.00198419	-5.64464e-06	
-5.03049e-05	-0.00162353	-6.4657e-05	
-1.13056e-05	-0.00194518	-1.15484e-05	
-0.0179179	0.00189804	0.00268475	
-0.00107553	-0.00172647	0.000402474	
-0.000103536	-0.000760905	-0.000153022	
-4.34535e-05	-0.00171462	-4.08912e-05	
0.0241718	0.00239547	-0.00393565	
0.00403748	-0.00113995	-0.00144672	
0.000975209	-0.00184476	-0.000359865	
0.000221739	-0.00195012	-6.16308e-05	
2.65176e-05	-0.00220296	-1.20541e-05	
2.06319e-05	-0.0019129	3.23907e-05	
0.00135719	-0.00219919	-0.000559621	
-0.00154492	-0.00219122	0.000648312	
0.000486614	-0.00167009	-0.000153225	
-6.81529e-05	-0.00211596	3.44196e-05	
0.000841258	-0.00212097	-0.000354779	
0.00113197	-0.00197425	-0.000456921	
0.000166873	-0.00206705	-6.56605e-05	
0.000296574	-0.00205251	-0.000110005	
1.0637e-05	-0.00208862	5.50024e-06	
0.00234773	-0.00106094	-0.000738852	
0.000608996	-0.00152314	-0.000187771	
0.00165158	-0.00133003	-0.000578896	
5.62508e-05	-0.00147143	6.02001e-05	
8.00474e-06	-0.00210793	1.86003e-06	
0.00338387	-0.000864621	-0.00104245	
6.00241e-07	-0.00220238	1.9965e-06	
0.000106477	-0.00223992	-3.74886e-05	
0.00409991	-0.000148079	-0.000886792	
1.48135e-05	-0.00200087	1.9349e-05	
0.00407146	-0.000368822	-0.00111683	
0.00117059	-0.00171673	-0.000449068	
2.29351e-06	-0.0021244	8.95834e-07	
2.27075e-05	-0.00177652	2.83193e-05	
7.25937e-05	-0.000856958	0.000132569	
-8.55788e-05	-0.00224569	6.14829e-05	
-0.00677102	-0.000418545	0.00216554	
-0.000570639	-0.00185231	0.000186017	
-0.000191253	-0.00198309	5.26227e-05	
-0.0102207	0.00055611	0.00231541	
0.000472189	-0.00221112	-0.000183726	
-2.30331e-05	-0.00193606	-3.34471e-05	
-0.000510895	-0.00220482	0.000221395	
0.000381056	-0.00222748	-0.000158957	
0.000387605	-0.00221912	-0.00016566	
-0.0018078	-0.00163684	0.000689504	
-0.000287539	-0.00214337	0.000105666	
-0.00105998	-0.0021565	0.000441843	
-0.000951805	-0.00204395	0.000381076	
-0.000732462	-0.00208256	0.00029116	
0.000228016	-0.00211875	-0.000108925	
-0.00458557	-0.000991675	0.00160045	
-0.00153096	-0.0015017	0.000554456	
-0.00213866	-0.00131046	0.000779091	
-1.62934e-05	-0.00204214	-2.02882e-05	
-5.38586e-05	-0.00127049	-7.73961e-05	
-1.61096e-05	-0.00214136	-1.21648e-05	
-7.39015e-05	-0.000988813	-0.000130322	
-9.836e-06	-0.00215926	-5.70683e-06	
-3.93518e-05	-0.00144711	-5.38032e-05	
-1.07266e-05	-0.00210022	-1.07785e-05	
-0.0183556	0.00171544	0.00284919	
-0.00111834	-0.00177742	0.000421409	
-8.4361e-05	-0.000701818	-0.000127544	
-4.03652e-05	-0.00174724	-4.08773e-05	
0.0247194	0.00206836	-0.00425869	
0.0042184	-0.000871734	-0.00157579	
0.00100776	-0.00143593	-0.000391396	
0.000283823	-0.00144228	-9.98409e-05	
3.81225e-05	-0.00160362	-1.74701e-05	
1.27731e-05	-0.00143981	2.29406e-05	
0.0014071	-0.00155868	-0.000591305	
-0.00158885	-0.00152287	0.000675893	
0.000571087	-0.00124621	-0.000206654	
-4.56562e-05	-0.00148882	2.34168e-05	
0.000907456	-0.00155705	-0.000390183	
0.00112623	-0.0015039	-0.000468708	
0.000179441	-0.00145969	-7.53995e-05	
0.000254815	-0.00146127	-9.97703e-05	
6.42305e-06	-0.00146854	3.15456e-06	
0.00245875	-0.000828051	-0.000828859	
0.000640952	-0.00120534	-0.00022253	
0.00174778	-0.00102651	-0.000658473	
3.835e-05	-0.00117479	4.35089e-05	
5.38497e-06	-0.00148261	1.84968e-06	
0.00348611	-0.00067148	-0.0011463	
4.03441e-07	-0.00152266	8.9219e-07	
0.000120997	-0.0015666	-4.7721e-05	
0.00419803	-0.000101937	-0.00099061	
8.65612e-06	-0.0015028	1.36376e-05	
0.00418107	-0.000283802	-0.00123611	
0.00130189	-0.00128473	-0.000519373	
2.03454e-06	-0.00155078	6.4747e-07	
1.4984e-05	-0.00141696	2.19222e-05	
4.78498e-05	-0.000690767	9.49365e-05	
-4.22288e-05	-0.00158292	3.33145e-05	
-0.00701313	-0.00036097	0.0023567	
-0.000646863	-0.00154854	0.00023468	
-0.000265463	-0.0016117	9.33709e-05	
-0.0105265	0.000470195	0.00250167	
0.000475338	-0.00163522	-0.00019445	
-1.56009e-05	-0.00156184	-2.49608e-05	
-0.000544301	-0.00163751	0.000238381	
0.000379484	-0.00160805	-0.000161757	
0.000435094	-0.00160837	-0.00018897	
-0.00188901	-0.0013013	0.000747978	
-0.000295434	-0.00162645	0.000114821	
-0.00108735	-0.00167436	0.000463496	
-0.000985679	-0.00163777	0.000408204	
-0.000679877	-0.00163073	0.000278696	
0.000235739	-0.00161725	-0.000109107	
-0.00485591	-0.000848914	0.00176578	
-0.00155475	-0.00128508	0.000588955	
-0.00232954	-0.00126285	0.000880512	
-1.02121e-05	-0.00167797	-1.65527e-05	
-3.92474e-05	-0.00111825	-6.20818e-05	
-1.11139e-05	-0.00161394	-8.82638e-06	
-5.26978e-05	-0.000851208	-9.91078e-05	
-6.98212e-06	-0.00164821	-4.00257e-06	
-2.79894e-05	-0.00129901	-4.37902e-05	
-6.6233e-06	-0.00162461	-7.29853e-06	
-0.0187578	0.00146235	0.00307476	
-0.0012276	-0.00148021	0.000487988	
-6.14914e-05	-0.000618367	-0.000100125	
-2.72996e-05	-0.0013826	-3.04171e-05	
0.025296	0.00159905	-0.00453616	
0.00430144	-0.00106286	-0.00162439	
0.0012088	-0.0014092	-0.000484463	
0.00031664	-0.00156099	-0.000116494	
4.95456e-05	-0.00135873	-2.30116e-05	
9.67707e-06	-0.00151969	2.23539e-05	
0.00139145	-0.00135703	-0.000588309	
-0.00166012	-0.00140976	0.000708581	
0.000687538	-0.00126232	-0.00026347	
-7.36057e-05	-0.00151464	3.56772e-05	
0.000850262	-0.00148735	-0.00036679	
0.00113173	-0.00155307	-0.000476462	
0.000144524	-0.00153579	-6.20239e-05	
0.000256896	-0.00156141	-0.000102152	
5.57695e-06	-0.00152194	2.11567e-06	
0.00256994	-0.000966649	-0.000880941	
0.000677695	-0.0011919	-0.000248991	
0.0018023	-0.00106402	-0.00069997	
3.07144e-05	-0.00116166	3.62247e-05	
5.54427e-06	-0.00148701	2.21032e-06	
0.00360776	-0.000822955	-0.00121366	
-1.57212e-07	-0.0013844	1.48685e-07	
0.000126513	-0.00136329	-5.17465e-05	
0.00432296	-0.000233288	-0.00105434	
6.13135e-06	-0.00156243	1.25935e-05	
0.00432691	-0.000414165	-0.00131319	
0.00133939	-0.00129551	-0.000543122	
2.03405e-06	-0.00143908	5.45584e-07	
1.01491e-05	-0.00134012	1.84512e-05	
4.24318e-05	-0.000808648	9.2924e-05	
-4.96412e-05	-0.00136917	3.28103e-05	
-0.00723082	-0.000391813	0.00250017	
-0.000781072	-0.00120469	0.000308818	
-0.000336126	-0.00127247	0.000132799	
-0.0108107	0.000333687	0.00265337	
0.000484683	-0.00137114	-0.000202845	
-9.25533e-06	-0.00127125	-1.84383e-05	
-0.000534951	-0.00137683	0.000234671	
0.000412066	-0.00138933	-0.000177554	
0.000474211	-0.00142005	-0.000207939	
-0.00200285	-0.00104213	0.00081474	
-0.000350175	-0.00152717	0.000141276	
-0.000990271	-0.00150558	0.000424177	
-0.00103936	-0.0013407	0.000440552	
-0.000759652	-0.00144707	0.000319116	
0.000203288	-0.00149557	-9.28156e-05	
-0.0049778	-0.000785431	0.00186104	
-0.0016118	-0.000993198	0.000636417	
-0.0023516	-0.000882849	0.00093245	
-5.44856e-06	-0.00139817	-1.22399e-05	
-2.46073e-05	-0.000939726	-4.46553e-05	
-9.15217e-06	-0.0015339	-7.57231e-06	
-3.85888e-05	-0.000815004	-7.93389e-05	
-5.5009e-06	-0.00145225	-3.30002e-06	
-1.45788e-05	-0.000970563	-2.7269e-05	
-4.21942e-06	-0.00146919	-5.07974e-06	
-0.0191037	0.00114433	0.0032457	
-0.00125514	-0.00113856	0.000516898	
-4.55372e-05	-0.000600424	-8.15327e-05	
-1.7171e-05	-0.00111776	-2.08146e-05	
0.0257311	0.00122496	-0.00483614	
0.00445722	-0.000896002	-0.0017164	
0.00129607	-0.00138119	-0.000530516	
0.000378351	-0.00141542	-0.000149362	
0.000143907	-0.00186648	-6.67184e-05	
5.26282e-06	-0.00139296	1.66623e-05	
0.00139905	-0.0018037	-0.00059214	
-0.00160942	-0.00174493	0.000688734	
0.000835536	-0.00115929	-0.000334389	
8.85515e-05	-0.00162466	-3.43964e-05	
0.000880673	-0.0017381	-0.000380099	
0.00113845	-0.00145758	-0.000484111	
0.000190641	-0.0015394	-8.59917e-05	
0.000317201	-0.00153259	-0.000132972	
3.51923e-06	-0.00157116	6.10425e-07	
0.0026657	-0.000808305	-0.000951558	
0.000678405	-0.00109515	-0.000261503	
0.0018407	-0.0010062	-0.000731019	
2.1349e-05	-0.00109115	2.46715e-05	
5.87746e-06	-0.0017069	2.64505e-06	
0.0036764	-0.000663828	-0.00128482	
-5.7287e-09	-0.00178978	-6.62017e-07	
0.0001195	-0.00188146	-5.09576e-05	
0.00440085	-0.000206221	-0.00112688	
2.92898e-06	-0.00147653	1.06728e-05	
0.0044251	-0.000344554	-0.00138152	
0.00140087	-0.00123279	-0.000576586	
2.79765e-06	-0.00175147	9.82054e-07	
5.97459e-06	-0.00130696	1.40215e-05	
2.32788e-05	-0.000665289	5.70054e-05	
-9.8768e-05	-0.00187689	5.56672e-05	
-0.00743039	-0.000425385	0.00259875	
-0.000902705	-0.00147058	0.00036713	
-0.00029277	-0.00149766	0.000116553	
-0.0110475	0.000163946	0.0027868	
0.000407978	-0.00184061	-0.000168766	
-5.89711e-06	-0.00149607	-1.62603e-05	
-0.000549306	-0.001772	0.000240167	
0.000321002	-0.00175369	-0.000136873	
0.000456768	-0.00167544	-0.000200385	
-0.00214079	-0.00122176	0.000880276	
-0.000495608	-0.00147718	0.000206512	
-0.00107861	-0.00162934	0.000464094	
-0.00100395	-0.00146134	0.000428649	
-0.000759505	-0.00145463	0.000322909	
0.00019886	-0.00144093	-8.74752e-05	
-0.00529371	-0.000838519	0.00199298	
-0.00162519	-0.0011652	0.000648365	
-0.00239213	-0.00109452	0.00094862	
-2.17129e-06	-0.00144011	-1.01725e-05	
-1.98661e-05	-0.00112691	-4.13431e-05	
-8.41643e-06	-0.00156308	-6.54188e-06	
-2.58149e-05	-0.000799415	-5.81098e-05	
-5.41241e-06	-0.0016608	-2.73249e-06	
-1.00165e-05	-0.00117421	-2.4939e-05	
-1.18395e-06	-0.00144086	-2.53769e-06	
-0.0194246	0.000814792	0.00345405	
-0.00131779	-0.00137454	0.000548765	
-3.04345e-05	-0.00058563	-5.90876e-05	
-1.43605e-05	-0.00131546	-1.77679e-05	
0.0259953	0.000903824	-0.00508921	
0.00441061	-0.000535966	-0.00170482	
0.00130473	-0.000853557	-0.000542251	
0.000555364	-0.000918635	-0.000234113	
5.45492e-05	-0.0011955	-2.74398e-05	
9.90881e-07	-0.000873495	6.61342e-06	
0.00142497	-0.00125454	-0.000612676	
-0.00161335	-0.00128621	0.000686852	
0.000849493	-0.000799045	-0.000349885	
9.23602e-05	-0.00117166	-3.77311e-05	
0.000951098	-0.00119281	-0.000410398	
0.00123951	-0.0010408	-0.000527921	
0.000231411	-0.00115224	-0.000105855	
0.00030019	-0.00112816	-0.000130417	
1.59936e-06	-0.00116134	-1.07326e-06	
0.0027416	-0.00060677	-0.000998424	
0.000754217	-0.000775726	-0.000302379	
0.00190984	-0.000602947	-0.000762338	
8.81581e-06	-0.000698508	8.75483e-06	
3.0957e-06	-0.00115829	1.54583e-06	
0.00372439	-0.000488695	-0.00132502	
-1.71869e-07	-0.00122378	-8.08154e-07	
0.00012543	-0.00117088	-5.32506e-05	
0.00445364	-0.000159676	-0.00117536	
2.72945e-07	-0.0011444	4.85914e-06	
0.00449102	-0.000261009	-0.0014142	
0.00146913	-0.000790356	-0.000612253	
2.40691e-06	-0.00123236	1.53431e-06	
2.06947e-06	-0.000866504	5.55664e-06	
9.31534e-06	-0.000489471	2.6878e-05	
-7.29554e-05	-0.00117584	3.66695e-05	
-0.00754005	-0.000295016	0.00263034	
-0.00090166	-0.000870223	0.000373707	
-0.000456812	-0.000929919	0.000198126	
-0.0111926	0.000117605	0.00289387	
0.000488457	-0.00120834	-0.000210641	
-1.69163e-06	-0.000887427	-7.06816e-06	
-0.000578962	-0.00128274	0.000256162	
0.000370342	-0.00125167	-0.000159902	
0.000393905	-0.00130144	-0.000170383	
-0.0021893	-0.000782886	0.000896597	
-0.000511367	-0.00116364	0.000217289	
-0.00115877	-0.00119672	0.000500296	
-0.00110002	-0.00104239	0.000472711	
-0.000752582	-0.00112219	0.000325378	
0.000180363	-0.0011501	-7.71851e-05	
-0.00531108	-0.000510656	0.00200848	
-0.00171557	-0.000756571	0.000686104	
-0.00248252	-0.000593472	0.000994085	
2.09452e-07	-0.00114258	-5.15586e-06	
-5.66339e-06	-0.000590153	-1.32205e-05	
-4.43625e-06	-0.00115841	-3.49721e-06	
-9.86045e-06	-0.000543754	-2.38629e-05	
-4.70179e-06	-0.00124263	-2.27352e-06	
-1.91757e-06	-0.000686149	-8.53867e-06	
8.01942e-07	-0.00113653	1.20879e-06	
-0.0196173	0.000618688	0.00369954	
-0.00137804	-0.000881656	0.000581527	
-1.25042e-05	-0.000417026	-2.57899e-05	
-5.75773e-06	-0.000819542	-6.30949e-06	
0.0261538	0.00031943	-0.0056473	
0.00428257	-0.000853759	-0.00179149	
0.0012677	-0.00127616	-0.000594043	
0.000561406	-0.00130861	-0.0002725	
-3.47394e-05	-0.00149847	1.23233e-05	
-1.21753e-06	-0.00129289	5.66532e-06	
0.00130371	-0.00155163	-0.000637213	
-0.00140165	-0.00152462	0.000674318	
0.0010306	-0.00119236	-0.000469653	
5.1388e-05	-0.00148645	-2.35941e-05	
0.000911347	-0.00146206	-0.000452537	
0.00119471	-0.00133873	-0.000570873	
0.000212941	-0.0015	-0.000109181	
0.000388436	-0.00148442	-0.000188012	
2.53943e-06	-0.00147399	-2.68276e-07	
0.00263493	-0.000824964	-0.0010433	
0.000762933	-0.00104025	-0.000335187	
0.00187227	-0.000914493	-0.000818241	
8.30556e-06	-0.000994296	7.57367e-06	