<VTKFile type="UnstructuredGrid" version="0.1" byte_order="LittleEndian">
	<UnstructuredGrid>
		<Piece NumberOfPoints="1320" NumberOfCells="1320">
			<CellData Scalars="scalars">
				<DataArray type="Float64" Name="Strength" NumberOfComponents="3" Format="ascii">
0.017051	-0.0109966	0.00143422	
0.00159469	-0.023559	0.00416424	
0.000665668	-0.0252113	0.00129891	
-9.29686e-05	-0.0264542	0.00144125	
-0.000590481	-0.0260687	0.000488942	
0.000384428	-0.0257941	0.00123333	
0.000966951	-0.026462	-0.00045737	
-0.00132513	-0.0257212	0.00109933	
-7.9858e-05	-0.0250385	0.00277795	
0.000199027	-0.0254716	0.000319246	
0.00081938	-0.0264117	-0.000373363	
0.00103095	-0.0254472	0.000401464	
0.000160633	-0.0267947	0.000690222	
0.000445002	-0.0262941	0.00069119	
0.000266102	-0.0261023	0.000526135	
0.000236432	-0.021858	0.00610409	
0.000526725	-0.0253537	0.00301868	
0.0007843	-0.0240824	0.00408817	
0.000314272	-0.0251242	0.00391541	
0.000244799	-0.025919	0.000120006	
0.000891305	-0.0206308	0.00729354	
-4.82676e-05	-0.0252144	0.000203954	
-0.000281221	-0.0259902	0.00028061	
0.00269866	-0.0139401	0.00729617	
0.000411377	-0.0261595	0.000892216	
0.00150557	-0.0162243	0.00814583	
0.00102301	-0.0249429	0.00144803	
0.000154099	-0.0267205	-2.56974e-05	
0.000460317	-0.0256184	0.00172878	
-0.000940448	-0.0180979	0.00874007	
-3.80117e-05	-0.0260266	0.000421402	
-0.0028299	-0.0184814	-0.00750267	
-0.000330548	-0.0254503	-0.00181246	
2.11199e-05	-0.0264323	-0.00145187	
-0.00656632	-0.0143723	-0.00639407	
0.000336853	-0.0262256	-6.81454e-05	
-0.000375877	-0.0258844	-0.00134515	
-0.000631694	-0.0267042	0.000340565	
0.000330487	-0.0261582	-0.000297375	
0.000560064	-0.0265896	-0.000464372	
-0.000718003	-0.0247875	-0.00242161	
-3.50451e-05	-0.0255585	-0.000453845	
-0.000780543	-0.0265638	0.000244915	
-0.000963995	-0.0255401	-0.00055884	
-0.000862945	-0.0261693	-0.000506419	
0.000317079	-0.0260938	-0.000876244	
-0.001621	-0.0219816	-0.00539396	
-0.000976238	-0.0247852	-0.00280929	
-0.000566024	-0.0235228	-0.00385753	
-0.000516775	-0.0260845	-0.000939393	
0.000216878	-0.0233717	-0.00513061	
8.56075e-06	-0.0260153	-0.000442976	
0.000516951	-0.019943	-0.00834944	
5.83324e-05	-0.0270961	-0.000223185	
-0.000217693	-0.0240973	-0.00373166	
-0.000194026	-0.026598	-0.000773583	
-0.0136491	-0.0112057	-0.00204415	
-0.000854833	-0.0260267	-0.00165128	
0.000169044	-0.0157634	-0.00929987	
-0.000262673	-0.0252764	-0.00243711	
0.0184974	0.000382747	-0.00353716	
0.00218205	-0.00415994	-0.000797672	
0.000374397	-0.00486785	1.14532e-05	
-0.000198511	-0.00492493	0.000454145	
-0.000150117	-0.00520936	0.00019386	
9.75177e-05	-0.00489603	0.000204201	
0.000974812	-0.00512294	-0.000880981	
-0.00118535	-0.00512921	0.00117133	
-0.000200042	-0.00463877	0.000713374	
-6.60881e-05	-0.00511237	0.000113906	
0.000550542	-0.00506718	-0.000514976	
0.000683407	-0.00507214	-0.00042861	
-4.84987e-05	-0.00505017	0.000174873	
0.00013936	-0.00510367	3.50377e-05	
3.32848e-05	-0.00507313	8.8916e-05	
0.0013372	-0.00380541	0.000193872	
0.000323626	-0.00453778	0.00036173	
0.00101726	-0.00422366	6.59283e-05	
0.000229473	-0.00444479	0.000657838	
2.21615e-05	-0.0049621	-1.91466e-07	
0.00219099	-0.00353595	-0.000119758	
-1.20909e-05	-0.00503738	3.58208e-05	
4.21726e-05	-0.00523581	9.12408e-06	
0.00309998	-0.00186124	0.000188155	
7.99862e-05	-0.00513853	0.000151085	
0.00284814	-0.00245957	0.000136518	
0.000677525	-0.00474679	-0.000196509	
6.88039e-07	-0.00509917	-2.03872e-06	
0.000105292	-0.00481516	0.000286204	
0.00031603	-0.00288626	0.00120286	
2.37775e-05	-0.00526667	9.48465e-05	
-0.00436502	-0.00316176	0.000932643	
-7.94271e-05	-0.00489654	-0.000333302	
0.000253376	-0.00495236	-0.000495911	
-0.00733072	-0.00169986	0.00131613	
0.000367882	-0.00525058	-0.000297097	
-7.70674e-05	-0.00491055	-0.000237144	
-0.00040669	-0.00520908	0.000418788	
0.00031261	-0.0051679	-0.000309066	
0.000387771	-0.00518573	-0.000399895	
-0.000732348	-0.00460187	3.21526e-05	
-0.000118606	-0.00511963	1.34123e-05	
-0.000723129	-0.0051837	0.000640469	
-0.000563451	-0.00503628	0.000305341	
-0.000415741	-0.00508978	0.000188303	
0.000276157	-0.00503976	-0.000404194	
-0.00251962	-0.00397446	0.000729666	
-0.000894107	-0.00451828	7.61682e-05	
-0.000861863	-0.00429647	-0.000151584	
-8.45259e-05	-0.00513334	-0.000165316	
-0.000265279	-0.00397106	-0.000817996	
-3.50736e-05	-0.00505138	-6.49049e-05	
-0.000380667	-0.00327861	-0.00121371	
-1.64067e-05	-0.00516191	-4.02249e-05	
-0.000216737	-0.00431837	-0.000637834	
-3.55151e-05	-0.00505684	-0.000128179	
-0.014329	-0.000207792	0.00298215	
-0.000689873	-0.00487774	0.000183237	
-0.000353391	-0.00233048	-0.00116841	
-0.000135885	-0.00472789	-0.000416893	
0.0191676	0.00378941	-0.00317598	
0.0023298	-0.00145744	-0.00156986	
0.000384066	-0.0021081	-0.000197936	
-0.000147033	-0.00217188	0.000286117	
-8.07403e-05	-0.00235312	0.000106965	
7.47515e-05	-0.0021364	6.79026e-05	
0.00102138	-0.00231942	-0.00092813	
-0.00121418	-0.00231225	0.00115524	
-0.000128284	-0.00198213	0.000351918	
-7.39143e-05	-0.002305	0.000105501	
0.00055562	-0.00231173	-0.000523787	
0.00070055	-0.0022251	-0.000564553	
-2.44567e-05	-0.00226714	9.97593e-05	
0.000143229	-0.00227694	-4.39207e-05	
3.07666e-05	-0.00229296	4.38165e-05	
0.0014621	-0.00141931	-0.000667544	
0.000352661	-0.00191891	-3.3917e-05	
0.00108906	-0.00168726	-0.000558345	
0.000218475	-0.00187222	0.000186934	
1.31496e-05	-0.00226423	7.12729e-06	
0.00235229	-0.0011781	-0.00107018	
-1.88052e-08	-0.00230216	1.19124e-05	
9.02143e-05	-0.00236294	-4.56196e-05	
0.00319555	-0.000256622	-0.000351371	
6.50501e-05	-0.00227707	6.16146e-05	
0.00302958	-0.000599004	-0.000597587	
0.000693775	-0.00203743	-0.000473138	
-1.16949e-05	-0.00231297	5.86052e-06	
7.44188e-05	-0.00208777	9.36918e-05	
0.000296374	-0.00118897	0.000353397	
3.09571e-05	-0.00237285	4.02126e-05	
-0.00465996	-0.000565344	0.00189509	
-0.000102487	-0.00212739	-9.96649e-05	
0.000212896	-0.00217541	-0.000335357	
-0.00765966	0.000774153	0.00162264	
0.000384312	-0.00236745	-0.000324643	
-7.1542e-05	-0.00214521	-8.53486e-05	
-0.000395021	-0.00236371	0.000404543	
0.000308475	-0.00235708	-0.000298568	
0.000365645	-0.00235636	-0.000368788	
-0.000837643	-0.00195747	0.00048492	
-0.000150243	-0.00231825	8.0506e-05	
-0.000757726	-0.00233921	0.00069457	
-0.000583648	-0.00222457	0.000447719	
-0.000406752	-0.00227533	0.000280747	
0.000241662	-0.00229561	-0.000314594	
-0.00272877	-0.00130714	0.00169016	
-0.0009439	-0.00189195	0.000525558	
-0.000984629	-0.00172957	0.000489948	
-6.47031e-05	-0.00227656	-6.98289e-05	
-0.000264103	-0.00164496	-0.000196221	
-4.82644e-05	-0.00229587	-2.06249e-05	
-0.000346946	-0.0013314	-0.000342344	
-2.29643e-05	-0.00234108	-8.21164e-06	
-0.000188193	-0.00182823	-0.000182361	
-4.21608e-05	-0.00227345	-5.60254e-05	
-0.0148353	0.00271031	0.0026756	
-0.00072549	-0.00210478	0.000462171	
-0.000273496	-0.000969531	-0.00036306	
-0.000134126	-0.00204967	-0.000123477	
0.0201113	0.00529016	-0.00204056	
0.00266535	-0.00148382	-0.00171497	
0.000513878	-0.00236682	-0.000273741	
-7.33962e-05	-0.00245473	0.000193956	
-4.93133e-05	-0.00261282	4.97448e-05	
0.000110384	-0.00241285	4.04536e-05	
0.00110734	-0.00257541	-0.000897979	
-0.00129337	-0.00257524	0.00109377	
-1.70656e-08	-0.00223174	0.000235673	
-8.11101e-05	-0.00259477	9.76767e-05	
0.000602306	-0.00259205	-0.000494057	
0.000804715	-0.00248044	-0.000575887	
1.90601e-05	-0.00255935	5.27374e-05	
0.000179198	-0.00255245	-7.10518e-05	
4.70848e-05	-0.00258038	3.27116e-05	
0.00167451	-0.0014977	-0.00087342	
0.000447702	-0.0021351	-0.000122219	
0.00126405	-0.00184264	-0.000674881	
0.000271708	-0.00209095	0.000124672	
1.36842e-05	-0.00255325	4.36845e-07	
0.00260358	-0.00118883	-0.00122085	
7.24559e-06	-0.00257564	8.17739e-06	
0.000110491	-0.00260995	-6.84349e-05	
0.0034491	-0.000152475	-0.000357177	
8.65839e-05	-0.00254143	3.92966e-05	
0.00332133	-0.000557995	-0.00065746	
0.000779367	-0.00227438	-0.000520716	
-9.41169e-06	-0.00258085	1.15187e-05	
0.000127417	-0.00234107	4.66091e-05	
0.000375279	-0.00133746	0.000346943	
3.80208e-05	-0.00261496	3.39595e-05	
-0.0051347	-0.000399283	0.00202935	
-0.000219004	-0.00238326	-4.90347e-06	
0.000135714	-0.002453	-0.000244302	
-0.00821614	0.00127566	0.0015628	
0.000416444	-0.00261594	-0.000309196	
-0.000115486	-0.00241445	-5.62979e-05	
-0.000422217	-0.0026197	0.000367103	
0.000321646	-0.00261318	-0.000275955	
0.000377167	-0.00261162	-0.000336879	
-0.00101874	-0.0021626	0.000633648	
-0.000180437	-0.00259902	9.91365e-05	
-0.000824917	-0.00259504	0.000670835	
-0.000681342	-0.00248579	0.000469639	
-0.000470346	-0.00254547	0.000298223	
0.000212326	-0.00258516	-0.000259488	
-0.00309008	-0.00130384	0.00187331	
-0.00110261	-0.00205792	0.000647084	
-0.00121576	-0.00188122	0.0006574	
-8.77675e-05	-0.00254096	-4.50954e-05	
-0.000313229	-0.00186933	-0.000105238	
-6.08413e-05	-0.00257082	2.76384e-06	
-0.000434982	-0.00151398	-0.000306593	
-3.08519e-05	-0.00259847	4.09819e-06	
-0.00023435	-0.00205888	-0.000111835	
-6.36478e-05	-0.00256078	-3.53281e-05	
-0.0154982	0.00395695	0.00171521	
-0.000829112	-0.00231778	0.000532704	
-0.000352884	-0.0011055	-0.000372174	
-0.000160521	-0.002279	-9.80369e-05	
0.0210035	0.0055914	-0.00194199	
0.00290367	-0.00125647	-0.00166331	
0.00057268	-0.00207778	-0.000346264	
-4.14348e-05	-0.00216674	0.000117715	
-3.89242e-05	-0.00234205	2.65218e-05	
9.24216e-05	-0.00212805	1.70067e-05	
0.00113239	-0.00230787	-0.000895135	
-0.00132679	-0.00231051	0.00106883	
0.000104434	-0.00195478	4.21236e-05	
-7.82296e-05	-0.00230261	7.95121e-05	
0.000637128	-0.00231497	-0.000501175	
0.00084625	-0.00218417	-0.000607426	
4.42558e-05	-0.00226552	7.6615e-06	
0.000189512	-0.00225666	-0.000100385	
3.95282e-05	-0.00228491	1.3202e-05	
0.00178335	-0.00128156	-0.000853858	
0.000468678	-0.00185475	-0.000171042	
0.00133078	-0.00157755	-0.000686897	
0.000207068	-0.00181833	8.18437e-05	
1.50008e-05	-0.00227548	-5.67158e-06	
0.00274232	-0.00099608	-0.00123732	
5.05016e-06	-0.00230779	2.19933e-06	
0.000106432	-0.0023396	-6.85626e-05	
0.00360667	4.88983e-05	-0.000385055	
7.21555e-05	-0.00224688	1.36303e-05	
0.00349671	-0.000371504	-0.000734979	
0.000899422	-0.00195354	-0.000613225	
-9.47162e-07	-0.00231199	6.67826e-06	
0.000100604	-0.00205754	7.36427e-06	
0.000288954	-0.00113911	0.000321965	
1.73929e-05	-0.00234548	3.9256e-05	
-0.00550595	-0.000243635	0.00204277	
-0.00025435	-0.00209354	7.84507e-05	
9.85539e-05	-0.00216513	-0.000161312	
-0.00868536	0.0015906	0.0014934	
0.000414098	-0.00234623	-0.000293305	
-9.52477e-05	-0.00212678	-2.56991e-05	
-0.000437921	-0.00234781	0.000365	
0.000322262	-0.00233891	-0.000259626	
0.000385895	-0.00233716	-0.000318105	
-0.00118727	-0.00183399	0.000765952	
-0.00019204	-0.00230458	0.000118284	
-0.000850266	-0.00232023	0.000668573	
-0.000727374	-0.00218359	0.00050981	
-0.000497726	-0.00224705	0.000333021	
0.000211146	-0.00228925	-0.000218803	
-0.00338987	-0.00112475	0.00181412	
-0.00117511	-0.00176312	0.000709004	
-0.00134943	-0.00161413	0.000730481	
-7.76543e-05	-0.00224592	-1.5135e-05	
-0.000231501	-0.00162245	-9.60375e-05	
-4.63964e-05	-0.00229158	3.84008e-06	
-0.000327291	-0.0013041	-0.000298132	
-2.60241e-05	-0.00232652	3.64041e-06	
-0.000180782	-0.00179399	-7.38735e-05	
-5.57525e-05	-0.00226871	-1.28768e-05	
-0.0161157	0.00425705	0.00147501	
-0.000904939	-0.00200774	0.000585122	
-0.000291041	-0.000935213	-0.000340122	
-0.000160962	-0.00199447	-7.23077e-06	
0.021843	0.00565581	-0.00143638	
0.00326815	-0.00106296	-0.00125619	
0.000669401	-0.00177756	-0.000319007	
1.13644e-05	-0.00187459	6.13254e-05	
-3.22635e-05	-0.00207869	2.31515e-05	
6.3129e-05	-0.00183042	3.88019e-05	
0.001228	-0.00205543	-0.000779053	
-0.00144461	-0.00205644	0.000916806	
0.00016979	-0.00165238	4.30195e-06	
-9.33185e-05	-0.00205	6.97147e-05	
0.000714659	-0.00205468	-0.000435202	
0.000957676	-0.00191643	-0.00054599	
5.2864e-05	-0.0020261	1.28929e-06	
0.000210084	-0.00201959	-9.52325e-05	
2.85765e-05	-0.00203758	1.24645e-05	
0.00196798	-0.00107459	-0.000610398	
0.000513705	-0.00155919	-0.000139375	
0.00146781	-0.0013223	-0.000475856	
0.000152372	-0.00152656	0.000115411	
1.67825e-05	-0.0020259	-6.54704e-06	
0.0029992	-0.000827104	-0.000864946	
3.34658e-06	-0.00205916	9.76108e-07	
0.000103823	-0.00207427	-5.08043e-05	
0.00375357	0.00018316	-0.000270522	
5.66558e-05	-0.00200273	2.02438e-05	
0.00369008	-0.000227771	-0.000560167	
0.00100085	-0.0016649	-0.000508251	
-2.77343e-06	-0.00205353	3.80177e-06	
7.2587e-05	-0.00175114	2.69309e-05	
0.000201547	-0.000934153	0.000349796	
-2.68497e-06	-0.00207942	4.58139e-05	
-0.00597376	-0.000166291	0.00155611	
-0.000309964	-0.00178588	7.50275e-05	
5.09268e-05	-0.00187009	-9.38605e-05	
-0.00913141	0.00173204	0.00123714	
0.000439204	-0.00208357	-0.000243711	
-6.60798e-05	-0.0018255	-5.05827e-05	
-0.000484488	-0.00208544	0.000318407	
0.000340971	-0.002081	-0.000213625	
0.00041675	-0.00207418	-0.000262766	
-0.00135323	-0.00156275	0.000663388	
-0.00020746	-0.00204571	9.69498e-05	
-0.000937647	-0.00205741	0.000563247	
-0.000827266	-0.00190914	0.000468905	
-0.000549006	-0.00200643	0.00029449	
0.000239679	-0.00203233	-0.000187014	
-0.0038084	-0.000953996	0.00137763	
-0.00127962	-0.00148633	0.000599635	
-0.00156537	-0.00134182	0.000563658	
-6.267e-05	-0.00199468	-1.5538e-05	
-0.000159509	-0.00135434	-0.000158623	
-3.71597e-05	-0.00203359	-8.61358e-06	
-0.000216698	-0.00107635	-0.000335883	
-1.87681e-05	-0.00206055	-5.22758e-06	
-0.000131024	-0.00150852	-9.76948e-05	
-3.83571e-05	-0.00202219	-1.73238e-05	
-0.0167143	0.00422721	0.00122193	
-0.000981904	-0.00171088	0.000497026	
-0.000213417	-0.000771439	-0.000337504	
-0.000109222	-0.00169098	-6.02383e-05	
0.0226353	0.00546272	-0.00108387	
0.00346445	-0.000901786	-0.0012332	
0.000773853	-0.0015702	-0.000289399	
9.37235e-05	-0.00166039	2.14019e-05	
-3.67809e-05	-0.00188206	2.40062e-05	
5.31505e-05	-0.0016205	4.98591e-05	
0.00131716	-0.00187378	-0.00064493	
-0.0015272	-0.00187501	0.000767102	
0.000270033	-0.00145486	-2.18269e-05	
-8.81242e-05	-0.0018387	5.44075e-05	
0.000776741	-0.00185746	-0.000379838	
0.00106759	-0.0017035	-0.000475794	
7.51622e-05	-0.00181802	-6.40541e-06	
0.000241242	-0.00180531	-8.04135e-05	
2.36969e-05	-0.00182563	1.79046e-05	
0.00207758	-0.000920905	-0.000603749	
0.000559623	-0.00136807	-0.000125207	
0.00154522	-0.00114861	-0.000483566	
0.000129369	-0.00134079	0.000122696	
1.22274e-05	-0.00182854	-5.57084e-07	
0.00312885	-0.000701474	-0.000864842	
2.09447e-06	-0.00187392	6.65405e-06	
0.00010933	-0.00187463	-3.72268e-05	
0.00388939	0.000229999	-0.000246091	
4.44158e-05	-0.00178387	3.41218e-05	
0.00384216	-0.000104493	-0.000586072	
0.00109026	-0.00147003	-0.000448587	
1.60408e-06	-0.00186041	2.76261e-06	
5.73142e-05	-0.00154685	4.80064e-05	
0.000169076	-0.000822889	0.000316421	
-1.44726e-05	-0.00187851	4.8378e-05	
-0.00625149	-1.48809e-05	0.00160523	
-0.000387725	-0.0015816	8.42064e-05	
-2.32457e-05	-0.00166136	-5.34109e-05	
-0.009551	0.00167708	0.00106679	
0.000469918	-0.0018855	-0.00020238	
-5.71905e-05	-0.00162075	-5.52175e-05	
-0.000520464	-0.00189401	0.000272351	
0.000352162	-0.0018901	-0.000175009	
0.000422263	-0.00188588	-0.000220339	
-0.00152676	-0.0013809	0.000599331	
-0.000241699	-0.00183728	8.83955e-05	
-0.00100469	-0.0018606	0.000482013	
-0.000931449	-0.00170134	0.000408587	
-0.000616064	-0.00179704	0.000263006	
0.000250277	-0.00182436	-0.000163668	
-0.00402441	-0.000800095	0.00139456	
-0.00138745	-0.00131336	0.000495141	
-0.00170586	-0.00116474	0.000586062	
-4.8803e-05	-0.00178245	-3.36611e-05	
-0.000136669	-0.00118789	-0.00015466	
-2.73835e-05	-0.00183602	-1.9335e-05	
-0.000182176	-0.000949208	-0.000307092	
-1.53762e-05	-0.00186514	-1.07756e-05	
-0.000112519	-0.00132821	-0.000107819	
-3.06588e-05	-0.0018194	-2.694e-05	
-0.0172769	0.00405552	0.000883947	
-0.00106092	-0.00151892	0.000410112	
-0.000178066	-0.000681682	-0.000305208	
-9.0588e-05	-0.00150129	-7.33277e-05	
0.0233493	0.00546652	-0.00118073	
0.0038435	-0.00105171	-0.00134943	
0.000841492	-0.00171805	-0.000301986	
0.000193593	-0.00180987	-1.48793e-05	
-1.86782e-05	-0.00194578	1.70763e-05	
6.00663e-05	-0.00176004	6.05369e-05	
0.00132101	-0.00193152	-0.000638131	
-0.00157702	-0.00196656	0.00078754	
0.000327729	-0.00167469	-2.30955e-05	
-9.24416e-05	-0.00195709	5.9122e-05	
0.00081936	-0.00196676	-0.000396866	
0.00111415	-0.00184007	-0.000484688	
0.000136162	-0.00192957	-3.33749e-05	
0.000253854	-0.00189687	-8.14615e-05	
2.61061e-05	-0.00194809	2.07118e-05	
0.00226557	-0.00101968	-0.000638637	
0.000607323	-0.00162633	-0.000108983	
0.00165305	-0.0014277	-0.000479125	
0.000157885	-0.00161646	0.000158213	
1.35238e-05	-0.00193003	1.85514e-06	
0.003307	-0.000759807	-0.000877924	
2.7596e-06	-0.00194192	6.75425e-06	
0.000106225	-0.00194382	-3.34976e-05	
0.00404696	0.000255245	-0.000285918	
4.80924e-05	-0.0018937	3.95502e-05	
0.00402024	-8.39926e-05	-0.000640284	
0.00113464	-0.00165882	-0.000446662	
2.85747e-06	-0.00197892	3.30575e-06	
6.60561e-05	-0.00171351	5.99843e-05	
0.000178913	-0.000858746	0.000327674	
-2.45141e-05	-0.00194028	5.52821e-05	
-0.00657338	1.78554e-05	0.0017219	
-0.000446038	-0.00174453	9.14769e-05	
-0.00011944	-0.00182992	-1.96211e-05	
-0.00993004	0.0017445	0.00112992	
0.000472408	-0.00193959	-0.000201612	
-6.54358e-05	-0.00177538	-6.9833e-05	
-0.00051699	-0.00194031	0.000269631	
0.00038451	-0.00194288	-0.000189855	
0.000432902	-0.00197627	-0.000225076	
-0.00160758	-0.00162903	0.000603498	
-0.000251308	-0.001968	8.77095e-05	
-0.00103701	-0.00198058	0.000491264	
-0.000971851	-0.00185249	0.000414155	
-0.00067235	-0.0018986	0.000281661	
0.00023027	-0.00195605	-0.000156036	
-0.00434546	-0.000868266	0.00147842	
-0.00148203	-0.00158882	0.000493015	
-0.00200906	-0.00133576	0.000685117	
-5.28428e-05	-0.00189948	-4.01186e-05	
-0.000155595	-0.00133274	-0.000180392	
-2.92916e-05	-0.0019456	-2.16349e-05	
-0.000194052	-0.000998511	-0.000321935	
-1.72701e-05	-0.00198206	-1.19593e-05	
-0.000138262	-0.00161118	-0.000140462	
-3.35584e-05	-0.00194269	-3.11732e-05	
-0.0177803	0.0039986	0.000965902	
-0.00110162	-0.00170525	0.00040483	
-0.000183088	-0.000695595	-0.000305095	
-0.000106143	-0.00170742	-9.43875e-05	
0.0239873	0.00554995	-0.00129975	
0.00408001	-0.000909288	-0.00146311	
0.00100001	-0.00182647	-0.000360418	
0.000261714	-0.00194289	-3.68151e-05	
3.56454e-05	-0.00219997	-8.38413e-06	
6.75433e-05	-0.00190778	7.14705e-05	
0.00132275	-0.00219371	-0.000628101	
-0.00149628	-0.00218599	0.000740044	
0.000536646	-0.00165462	-0.000115885	
-5.50236e-05	-0.00211349	4.24622e-05	
0.000821901	-0.00211701	-0.000393857	
0.00114064	-0.00195637	-0.000485867	
0.000184202	-0.00206322	-5.39747e-05	
0.000315887	-0.00204691	-0.000106964	
2.85384e-05	-0.00208571	2.26658e-05	
0.00241423	-0.000917893	-0.00070149	
0.000665482	-0.00150102	-0.000143735	
0.00172546	-0.00124249	-0.000539486	
0.000144489	-0.00145689	0.00014292	
1.58073e-05	-0.00210527	2.38238e-06	
0.00345266	-0.000663353	-0.000948627	
3.4726e-06	-0.00219966	8.79446e-06	
0.000114725	-0.00223656	-3.47849e-05	
0.00417189	0.000357272	-0.000356449	
5.15982e-05	-0.00199716	4.16522e-05	
0.00417617	2.92708e-05	-0.000726507	
0.00119314	-0.00169226	-0.000459592	
3.13382e-06	-0.0021217	4.24677e-06	
7.19844e-05	-0.00177125	6.83799e-05	
0.000168039	-0.000799493	0.000293603	
-6.86918e-05	-0.00224247	8.43623e-05	
-0.00686873	0.00015703	0.00185839	
-0.000611588	-0.00183852	0.000157227	
-0.00023425	-0.00197609	2.45957e-05	
-0.0102596	0.00189745	0.0012389	
0.000469204	-0.00220741	-0.000194004	
-7.40831e-05	-0.00193033	-8.13079e-05	
-0.000488731	-0.00220271	0.000253782	
0.000371928	-0.00222408	-0.000181697	
0.000372402	-0.00221623	-0.000193491	
-0.00184264	-0.00158023	0.000704996	
-0.000295942	-0.00213945	0.000104366	
-0.00104231	-0.00214934	0.000487683	
-0.000971184	-0.00202678	0.000397235	
-0.00074342	-0.00207227	0.000308437	
0.000200218	-0.00211644	-0.000144912	
-0.00462501	-0.000755207	0.0015904	
-0.00158068	-0.00144444	0.000546818	
-0.00218501	-0.00121857	0.000779622	
-5.81553e-05	-0.00203817	-4.4636e-05	
-0.000147976	-0.00125151	-0.000169678	
-3.32556e-05	-0.00213837	-2.46886e-05	
-0.000183746	-0.000936197	-0.000292299	
-1.93105e-05	-0.00215641	-1.27217e-05	
-0.00012481	-0.00143493	-0.000127656	
-3.70273e-05	-0.00209694	-3.50847e-05	
-0.0182194	0.00407281	0.000915139	
-0.00115142	-0.00175201	0.000415538	
-0.000170969	-0.000640064	-0.000272586	
-0.000111755	-0.00173873	-0.000101164	
0.0244958	0.00569335	-0.00155065	
0.0042331	-0.000604362	-0.00157435	
0.00102238	-0.00141542	-0.000391655	
0.000312262	-0.00143476	-8.29783e-05	
4.57073e-05	-0.00160131	-1.61021e-05	
5.21691e-05	-0.00143566	5.52848e-05	
0.00136501	-0.00155352	-0.000647739	
-0.00153282	-0.00151931	0.000749843	
0.000606543	-0.0012291	-0.000179592	
-3.51895e-05	-0.00148706	2.82672e-05	
0.000880684	-0.00155426	-0.000423361	
0.00112454	-0.00148567	-0.000489279	
0.000190586	-0.00145644	-6.8286e-05	
0.000268333	-0.00145658	-9.70074e-05	
2.03359e-05	-0.00146642	1.64649e-05	
0.00250571	-0.000664214	-0.000789858	
0.000685884	-0.0011817	-0.000186191	
0.00180064	-0.000926871	-0.000621721	
0.000114977	-0.00116275	0.000112003	
1.17435e-05	-0.0014807	1.88399e-06	
0.00353508	-0.000441143	-0.00105025	
2.75007e-06	-0.00152077	5.9368e-06	
0.000126715	-0.00156393	-4.77642e-05	
0.00426034	0.000489601	-0.000457149	
3.8588e-05	-0.00149989	3.20788e-05	
0.00427463	0.000185035	-0.000834076	
0.00130982	-0.00125512	-0.00053078	
2.37784e-06	-0.00154877	4.10635e-06	
5.92536e-05	-0.00141236	5.63645e-05	
0.000135046	-0.000644883	0.000227146	
-3.01394e-05	-0.00158065	4.78661e-05	
-0.0070955	0.000328785	0.00199896	
-0.000680528	-0.00153254	0.000209739	
-0.000300472	-0.00160389	6.94815e-05	
-0.0105398	0.00206137	0.00136136	
0.000468292	-0.00163209	-0.000203506	
-6.15217e-05	-0.00155695	-6.51656e-05	
-0.000520308	-0.00163626	0.000264981	
0.000368327	-0.00160528	-0.000180457	
0.000416753	-0.00160643	-0.000212413	
-0.00190768	-0.00123642	0.000756981	
-0.000300593	-0.00162278	0.000115254	
-0.0010625	-0.00166714	0.000501487	
-0.000995292	-0.00161987	0.000417202	
-0.000685215	-0.0016209	0.000289696	
0.00020967	-0.0016159	-0.00013783	
-0.00487713	-0.000565395	0.00173062	
-0.00159404	-0.00122173	0.000575704	
-0.00237195	-0.00115164	0.000864665	
-4.69595e-05	-0.00167461	-3.78572e-05	
-0.000130204	-0.00110106	-0.000145333	
-2.58465e-05	-0.00161164	-1.84925e-05	
-0.000157719	-0.000806403	-0.000240915	
-1.48895e-05	-0.00164599	-1.04473e-05	
-0.00011129	-0.00128785	-0.000110794	
-2.90483e-05	-0.00162196	-2.7066e-05	
-0.0185961	0.00418042	0.00102177	
-0.00125021	-0.00144926	0.000482496	
-0.000151537	-0.000563314	-0.000231083	
-9.01622e-05	-0.00137536	-8.0711e-05	
0.0250943	0.00571867	-0.00177329	
0.0043433	-0.000760957	-0.0015843	
0.00122299	-0.00138206	-0.000480231	
0.000351402	-0.00155091	-9.05635e-05	
5.6857e-05	-0.00135542	-2.18893e-05	
5.55791e-05	-0.0015137	6.25955e-05	
0.00135245	-0.00134992	-0.000633681	
-0.00160446	-0.00140453	0.000772225	
0.000725443	-0.00123958	-0.000231737	
-6.10069e-05	-0.00151162	4.26268e-05	
0.000826455	-0.0014838	-0.000389503	
0.0011355	-0.00153252	-0.000484433	
0.000159667	-0.00153099	-4.98991e-05	
0.000273922	-0.00155506	-9.41366e-05	
2.16837e-05	-0.00151844	1.7315e-05	
0.0026411	-0.000774069	-0.000810687	
0.000726078	-0.00116426	-0.000206158	
0.00186506	-0.000950917	-0.000647403	
0.000111843	-0.0011488	0.000107856	
1.27431e-05	-0.00148384	3.99068e-06	
0.0036868	-0.000549945	-0.00106892	
2.61631e-06	-0.0013814	4.77016e-06	
0.000131662	-0.00135953	-5.36623e-05	
0.0044066	0.000457999	-0.000496185	
3.96742e-05	-0.00155804	3.5906e-05	
0.00444167	0.000142083	-0.000896434	
0.00135249	-0.00126079	-0.000543244	
2.29304e-06	-0.00143607	3.99477e-06	
5.66797e-05	-0.00133449	5.54282e-05	
0.000156039	-0.000756161	0.000250655	
-3.77694e-05	-0.00136612	4.29422e-05	
-0.00732134	0.000402182	0.00212078	
-0.000804731	-0.00118465	0.000290764	
-0.000362903	-0.00126299	0.000112336	
-0.0108308	0.00214833	0.00149577	
0.000476571	-0.00136693	-0.000211228	
-5.08328e-05	-0.00126594	-5.45283e-05	
-0.000512996	-0.00137482	0.000254573	
0.000399773	-0.00138544	-0.000194397	
0.000454866	-0.00141698	-0.000229629	
-0.00201207	-0.000967243	0.000820621	
-0.000354961	-0.00152178	0.000141013	
-0.000969629	-0.00149729	0.000450863	
-0.00104396	-0.00132064	0.000445507	
-0.000761634	-0.00143489	0.000328165	
0.000178084	-0.00149324	-0.000118652	
-0.00500233	-0.000465008	0.0018045	
-0.00163808	-0.000924878	0.000623837	
-0.00237398	-0.000763803	0.000920012	
-3.7691e-05	-0.00139405	-3.24147e-05	
-0.000107847	-0.000924487	-0.000116245	
-2.49735e-05	-0.00153046	-1.79861e-05	
-0.000148405	-0.000772891	-0.000217706	
-1.33062e-05	-0.00144916	-9.92391e-06	
-8.09318e-05	-0.000961296	-8.0058e-05	
-2.61947e-05	-0.00146534	-2.47554e-05	
-0.0189531	0.00422077	0.0011608	
-0.00127002	-0.00110364	0.000511702	
-0.000145853	-0.000547445	-0.000211877	
-7.27169e-05	-0.00111079	-6.43425e-05	
0.0256	0.00569023	-0.00209037	
0.0045062	-0.000569417	-0.00168268	
0.00131886	-0.00134877	-0.000520319	
0.000412022	-0.00140252	-0.000123886	
0.000153211	-0.00185917	-6.63079e-05	
5.06275e-05	-0.00138533	5.70352e-05	
0.00137308	-0.00179235	-0.000630392	
-0.0015677	-0.00173742	0.000744515	
0.000873767	-0.00113147	-0.000306838	
9.8852e-05	-0.00161895	-2.86559e-05	
0.000863366	-0.00173148	-0.000399309	
0.00114943	-0.00143472	-0.000485786	
0.00020845	-0.00153249	-7.05096e-05	
0.00033633	-0.00152354	-0.000123178	
2.2934e-05	-0.00156525	1.89228e-05	
0.00273502	-0.000601208	-0.000883101	
0.000729788	-0.00106524	-0.000218872	
0.0019115	-0.000883711	-0.000680862	
0.000101908	-0.00107752	9.79737e-05	
1.4541e-05	-0.00170069	7.79277e-06	
0.00375288	-0.000374653	-0.00115702	
3.69002e-06	-0.0017838	5.97732e-06	
0.000131296	-0.00187408	-4.91228e-05	
0.0044873	0.000548308	-0.000597579	
3.65152e-05	-0.00146965	3.68591e-05	
0.0045361	0.000263967	-0.00101016	
0.00142319	-0.00119377	-0.000571621	
3.46487e-06	-0.00174491	5.84672e-06	
5.50915e-05	-0.00129989	5.45111e-05	
0.000124586	-0.000623589	0.000193679	
-8.15813e-05	-0.00187016	7.26668e-05	
-0.00754072	0.000462714	0.00224008	
-0.000943136	-0.0014432	0.000335593	
-0.000331753	-0.00148573	8.63726e-05	
-0.011104	0.00215061	0.00163787	
0.000408182	-0.00183341	-0.00017029	
-5.86993e-05	-0.00148807	-6.29274e-05	
-0.000530064	-0.0017676	0.000259125	
0.00031438	-0.00174758	-0.000150458	
0.000440647	-0.00166999	-0.000221524	
-0.00217539	-0.00113501	0.000872541	
-0.000500823	-0.00146884	0.000207132	
-0.00106499	-0.00161726	0.00048823	
-0.00102161	-0.00143864	0.000424163	
-0.000769015	-0.00144047	0.000326931	
0.00017284	-0.00143642	-0.000114732	
-0.0053432	-0.000476845	0.00193626	
-0.00167643	-0.00109013	0.000618389	
-0.00244663	-0.000965017	0.000921032	
-3.7094e-05	-0.0014338	-3.55271e-05	
-0.000124958	-0.00110786	-0.000132689	
-2.64902e-05	-0.00155704	-1.91194e-05	
-0.000140486	-0.000759183	-0.000201344	
-1.56478e-05	-0.00165452	-1.22851e-05	
-9.41513e-05	-0.00116186	-9.36831e-05	
-2.54369e-05	-0.00143535	-2.42476e-05	
-0.0193393	0.00416133	0.00135986	
-0.0013533	-0.00133266	0.000528869	
-0.000139731	-0.000534702	-0.000194873	
-8.42235e-05	-0.00130585	-7.39451e-05	
0.0259969	0.0056039	-0.00242732	
0.00445704	-0.000206449	-0.00171984	
0.00132374	-0.000819986	-0.000547185	
0.000577292	-0.000903719	-0.000223708	
6.28944e-05	-0.00118932	-2.57986e-05	
3.05702e-05	-0.000867457	3.4594e-05	
0.00141376	-0.00124232	-0.000645961	
-0.00158866	-0.00127771	0.000743135	
0.000881535	-0.000770222	-0.0003349	
0.000101376	-0.00116482	-3.45774e-05	
0.000941289	-0.00118542	-0.000435066	
0.00125108	-0.00101688	-0.000540497	
0.000245641	-0.00114467	-9.55558e-05	
0.000316729	-0.00111803	-0.000122674	
1.69679e-05	-0.00115492	1.41986e-05	
0.00281129	-0.000390735	-0.000955581	
0.000794851	-0.000744212	-0.000279954	
0.0019579	-0.000480016	-0.000754588	
6.17836e-05	-0.000689263	5.94312e-05	
1.03551e-05	-0.00115215	6.43326e-06	
0.00380494	-0.000185812	-0.00124028	
2.72557e-06	-0.00121807	4.0598e-06	
0.000131854	-0.00116407	-5.36237e-05	
0.00453928	0.000634796	-0.00070999	
2.70473e-05	-0.0011372	2.81375e-05	
0.00459193	0.000383258	-0.00112478	
0.00148991	-0.000747699	-0.000618897	
2.94976e-06	-0.00122598	5.97562e-06	
3.51288e-05	-0.000859329	3.4546e-05	
8.72991e-05	-0.000460426	0.000132722	
-6.21862e-05	-0.00117076	4.97032e-05	
-0.00764857	0.000637088	0.00239124	
-0.000927351	-0.000843099	0.000368187	
-0.000480912	-0.000916697	0.000183485	
-0.0112779	0.00219855	0.00186527	
0.000488035	-0.00120105	-0.000214364	
-3.34075e-05	-0.000880913	-3.61167e-05	
-0.000567778	-0.00127781	0.000273363	
0.000365645	-0.00124511	-0.000173679	
0.000383604	-0.00129541	-0.000190022	
-0.00221822	-0.000694078	0.000918082	
-0.000521288	-0.00115363	0.000219386	
-0.00115399	-0.00118295	0.000528469	
-0.0011155	-0.00101916	0.000479876	
-0.000765047	-0.00110655	0.000329382	
0.00016037	-0.00114484	-0.000100215	
-0.00535901	-0.000135571	0.00202508	
-0.0017562	-0.000679093	0.00068937	
-0.00251562	-0.000460923	0.00101462	
-2.7688e-05	-0.00113567	-2.79938e-05	
-6.20885e-05	-0.000580045	-6.60441e-05	
-1.98526e-05	-0.00115199	-1.43348e-05	
-9.05329e-05	-0.000517879	-0.000127831	
-1.215e-05	-0.00123625	-9.17149e-06	
-5.19791e-05	-0.000678532	-5.16336e-05	
-1.96941e-05	-0.00113068	-1.91882e-05	
-0.0196251	0.00410544	0.00166081	
-0.00140496	-0.000836124	0.000583981	
-9.62995e-05	-0.000383667	-0.000126135	
-5.0558e-05	-0.000812217	-4.48587e-05	
0.0265964	0.00526753	-0.00282148	
0.00459169	-0.000509292	-0.00172167	
0.00140092	-0.00123603	-0.000551704	
0.000639474	-0.00128885	-0.000234758	
-2.55435e-05	-0.00148848	1.58142e-05	
4.26572e-05	-0.00128243	4.81132e-05	
0.00140446	-0.00153415	-0.000629685	
-0.00149526	-0.00151253	0.000688227	
0.00115087	-0.00115201	-0.000427852	
6.92129e-05	-0.00147588	-1.59135e-05	
0.00098411	-0.00145162	-0.000445014	
0.0013065	-0.00131052	-0.000548222	
0.000247999	-0.00148959	-9.07778e-05	
0.000439013	-0.00147137	-0.000169549	
2.0728e-05	-0.0014654	1.65657e-05	
0.00285923	-0.000597111	-0.00093693	
0.00086712	-0.00100156	-0.000288432	
0.00205824	-0.000782294	-0.000759848	
8.19639e-05	-0.000980534	7.87593e-05	