<VTKFile type="UnstructuredGrid" version="0.1" byte_order="LittleEndian">
	<UnstructuredGrid>
		<Piece NumberOfPoints="2220" NumberOfCells="2220">
			<CellData Scalars="scalars">
				<DataArray type="Float64" Name="Strength" NumberOfComponents="3" Format="ascii">
0.0157061	-0.0123661	0.00382097	
-0.0024659	-0.0231523	0.0057479	
-9.37124e-05	-0.0250995	0.00282407	
-0.00050329	-0.0263368	0.00289182	
-0.000981847	-0.026065	0.000406004	
-0.000212692	-0.0256934	0.00265957	
0.000297386	-0.0264744	-0.000873455	
-0.00101597	-0.0257042	0.00177491	
-0.00126749	-0.0246727	0.00495339	
2.91738e-05	-0.0254673	0.000869316	
0.000627096	-0.0264282	-0.000182272	
0.000386704	-0.0254367	0.00139572	
-3.16199e-05	-0.0267677	0.00155763	
0.000157317	-0.0262657	0.00163272	
9.90227e-05	-0.0260908	0.00118039	
-0.00440856	-0.0206508	0.00832477	
-0.00122512	-0.0250043	0.00506471	
-0.00192081	-0.0236249	0.00596711	
-0.00177141	-0.0246531	0.00598546	
0.000145256	-0.0259221	0.000567019	
-0.0049124	-0.0188156	0.0100746	
-0.000267761	-0.0252193	0.00031888	
-0.000735014	-0.0259887	4.60322e-05	
-0.000850213	-0.0116606	0.010865	
9.94669e-05	-0.0261093	0.00199222	
-0.00400267	-0.0137432	0.0112646	
-0.000163991	-0.0247995	0.00323184	
7.37047e-05	-0.0267263	0.00031779	
-0.000369424	-0.0254382	0.00353347	
-0.006925	-0.0148923	0.0116198	
-0.000239678	-0.0260353	0.000119533	
0.00300558	-0.0166079	-0.0109973	
0.000420843	-0.02531	-0.0032504	
0.000454059	-0.026305	-0.00299077	
-0.003068	-0.013154	-0.0103964	
3.84252e-05	-0.0262304	-0.00047262	
0.000283232	-0.0257797	-0.00275263	
-0.000650123	-0.0267119	0.0002726	
0.000276098	-0.0261616	-0.000575154	
0.000596037	-0.02659	-0.000745882	
0.00103925	-0.0245504	-0.00414878	
0.000472177	-0.0255581	-0.000646877	
-0.000246878	-0.0265807	0.000475993	
-0.000337079	-0.0255107	-0.00172419	
-0.000331641	-0.0261601	-0.00137988	
0.000719282	-0.0260696	-0.00142709	
0.00326231	-0.0210024	-0.00795887	
0.00115162	-0.0245049	-0.00463623	
0.00224815	-0.0229952	-0.00590078	
-6.70337e-05	-0.0260271	-0.00213083	
0.0040053	-0.0224147	-0.00737516	
0.00037603	-0.0260197	-0.000503994	
0.0055431	-0.0173775	-0.0116172	
0.000337168	-0.0271006	-0.000275119	
0.00196915	-0.0235906	-0.00586157	
0.000245091	-0.0265739	-0.00152476	
-0.0126162	-0.0118003	-0.00423065	
0.0005037	-0.025914	-0.00304715	
0.00492568	-0.0120435	-0.0128656	
0.00110418	-0.0250389	-0.00411189	
0.0183409	-0.00304975	-0.00313737	
0.000960927	-0.00461032	-0.000738896	
0.000170172	-0.00487588	0.000202958	
-0.000170922	-0.00489124	0.000746147	
-0.000175482	-0.00520845	0.000227389	
-6.57747e-06	-0.00488261	0.000436611	
0.000517193	-0.00513639	-0.00115421	
-0.000716988	-0.00512577	0.00151916	
-0.000291506	-0.00455371	0.00111877	
-6.54823e-05	-0.00511167	0.000188607	
0.000343937	-0.00507136	-0.000651453	
0.000367064	-0.00510818	-0.000402947	
-5.2925e-05	-0.00504628	0.000294372	
5.4142e-05	-0.00510507	0.000149044	
9.83025e-06	-0.00507333	0.000155215	
0.000463331	-0.00396149	0.000640963	
-3.03351e-05	-0.00451788	0.000648571	
0.00031272	-0.00432437	0.000298872	
-9.37769e-05	-0.0043747	0.00104789	
1.20221e-06	-0.00496357	2.82024e-05	
0.00120638	-0.00396598	0.000386098	
-6.02036e-05	-0.00503816	5.80191e-05	
-9.97466e-05	-0.00523614	-5.46261e-07	
0.00270613	-0.00226161	0.000828126	
2.19581e-05	-0.00513282	0.000319052	
0.00222367	-0.00293708	0.000789128	
0.00030078	-0.00479018	-3.90051e-05	
4.57204e-06	-0.00510073	4.547e-06	
-2.82494e-05	-0.00479056	0.000578942	
-0.000354357	-0.00261091	0.00171355	
-3.05624e-05	-0.00526752	0.000107347	
-0.00345227	-0.0042389	0.000272638	
4.95906e-05	-0.00487553	-0.000572427	
0.00020199	-0.00491607	-0.000798523	
-0.00691915	-0.00322164	0.000450706	
0.0001792	-0.00525605	-0.000384436	
2.30682e-05	-0.00489657	-0.00045566	
-0.00026947	-0.00520717	0.000548048	
0.00018456	-0.00517167	-0.000365966	
0.000234481	-0.00518874	-0.000487583	
-0.000246168	-0.00465158	-0.000161155	
2.67943e-07	-0.00512254	2.21007e-05	
-0.000381354	-0.00519611	0.000822208	
-0.000307152	-0.0050631	0.000242909	
-0.000211397	-0.00510572	0.000141852	
0.000245843	-0.00503062	-0.000535895	
-0.00129352	-0.00456099	0.000472621	
-0.000325445	-0.00459404	-0.000131154	
-0.000209423	-0.00435725	-0.000452357	
-2.80568e-05	-0.00512655	-0.000344127	
0.000293659	-0.00384028	-0.00129679	
5.53934e-05	-0.00505231	-8.64979e-05	
0.000230711	-0.0029937	-0.00183107	
1.07398e-05	-0.00516346	-2.81963e-05	
0.000108728	-0.00423618	-0.00107155	
3.69324e-05	-0.00505514	-0.000223164	
-0.0139571	-0.00313911	0.00316413	
-0.000262956	-0.00492289	8.08767e-05	
0.000190388	-0.00203207	-0.00165962	
9.22177e-05	-0.00469203	-0.000726052	
0.0195584	0.00213599	-0.00237753	
0.00178389	-0.00173174	-0.00195963	
0.000245729	-0.00213001	-0.000187753	
-8.9494e-05	-0.00215463	0.000414277	
-4.00868e-05	-0.00235162	0.000161909	
4.44746e-05	-0.00213361	0.000147954	
0.000639284	-0.00233591	-0.00119171	
-0.000761194	-0.00230423	0.00150543	
-8.81555e-05	-0.00193952	0.000548241	
-5.12139e-05	-0.00230309	0.000161682	
0.000314452	-0.00231881	-0.000674345	
0.000438677	-0.00226052	-0.000678749	
-6.78764e-06	-0.00226452	0.000160748	
8.86509e-05	-0.00228074	-3.53221e-05	
3.06275e-05	-0.00229273	8.39856e-05	
0.00136069	-0.00149971	-0.000706811	
0.000248345	-0.0019347	6.69613e-05	
0.000883828	-0.00178606	-0.000613115	
0.000276965	-0.00183558	0.000377542	
-4.55617e-07	-0.00226487	2.59382e-05	
0.00225684	-0.00128372	-0.00115317	
-1.53363e-05	-0.00230265	2.32693e-05	
6.63756e-05	-0.00236433	-4.13723e-05	
0.0031863	-0.000511159	7.8012e-05	
5.63411e-05	-0.00227619	0.000109102	
0.00300956	-0.000915184	-0.000125781	
0.000408719	-0.00210126	-0.000525086	
-3.12587e-05	-0.00231351	1.30591e-05	
2.66124e-05	-0.00208217	0.000196033	
0.000290276	-0.00111917	0.000538092	
5.67821e-05	-0.0023725	5.85563e-05	
-0.0047683	-0.000687525	0.00156435	
-7.11378e-05	-0.00212313	-0.000187536	
0.000142374	-0.00215639	-0.000470823	
-0.0078362	0.000178173	0.00076765	
0.000249342	-0.00237076	-0.000421684	
-3.73227e-05	-0.00214241	-0.000157805	
-0.000200453	-0.00236272	0.000535345	
0.000188814	-0.00235709	-0.000389709	
0.000211174	-0.00235386	-0.000489532	
-0.000582017	-0.0020448	0.000500626	
-9.53354e-05	-0.00232219	7.1839e-05	
-0.000446825	-0.00235683	0.000881769	
-0.000350089	-0.00225381	0.000538735	
-0.000247588	-0.00229066	0.00034224	
0.000133903	-0.00228314	-0.000447322	
-0.00225147	-0.00162515	0.00207499	
-0.000667296	-0.00200112	0.00054673	
-0.00075345	-0.00183645	0.000512937	
-3.9444e-05	-0.00227616	-0.000111219	
-0.000344002	-0.00160025	-0.000368653	
-5.15028e-05	-0.00229595	-5.48121e-05	
-0.000481472	-0.00121689	-0.000545385	
-2.30015e-05	-0.00234164	-2.88513e-05	
-0.000215069	-0.00179346	-0.000385998	
-3.56129e-05	-0.00227265	-0.000103959	
-0.0151501	0.0012886	0.00198598	
-0.000467127	-0.00216506	0.000516079	
-0.000176252	-0.000897933	-0.000556038	
-0.000113689	-0.00203729	-0.000268568	
0.0202729	0.00517066	-6.71998e-05	
0.00236812	-0.000985662	-0.00238081	
0.000469758	-0.00237351	-0.000297148	
8.25789e-05	-0.00244066	0.00032754	
2.8058e-05	-0.00261292	8.30582e-05	
0.000195471	-0.00240512	0.000120875	
0.00080323	-0.00257477	-0.00117988	
-0.000901488	-0.00256331	0.0014555	
0.00013333	-0.00221145	0.000359861	
-4.04812e-05	-0.00259344	0.000159831	
0.000398665	-0.0026009	-0.000637409	
0.000649764	-0.00249539	-0.000696685	
6.41912e-05	-0.00255729	0.000119098	
0.000187057	-0.0025535	-3.94552e-05	
7.94687e-05	-0.00257949	8.03077e-05	
0.00173901	-0.00115005	-0.00120998	
0.00051484	-0.00211957	-0.000133127	
0.00134133	-0.00165478	-0.000955314	
0.000571055	-0.00202814	0.000151453	
7.0524e-06	-0.00255397	2.57753e-05	
0.00260792	-0.000831361	-0.00148114	
1.29939e-05	-0.00257642	1.92334e-05	
0.00014714	-0.00260842	-7.95498e-05	
0.00346028	-0.00024729	0.000189223	
0.000160533	-0.00253637	0.00011307	
0.0033407	-0.000783459	-0.000143097	
0.000547854	-0.00231465	-0.00062859	
-2.95774e-05	-0.00258131	2.89813e-05	
0.000143613	-0.00233814	0.000114471	
0.000458423	-0.00123779	0.000554515	
0.000112682	-0.00261328	4.22957e-05	
-0.00525921	-0.000156366	0.00173024	
-0.000252297	-0.00238002	-3.90473e-05	
-1.35817e-05	-0.00243886	-0.000386431	
-0.00836656	0.00121461	0.000501682	
0.000342594	-0.00261281	-0.000413812	
-0.000204583	-0.00240604	-0.000130725	
-0.000236915	-0.002623	0.000492701	
0.00022967	-0.00261214	-0.000370042	
0.000240081	-0.00261107	-0.000452032	
-0.000873817	-0.00217406	0.000792121	
-0.000189332	-0.0025992	0.000100205	
-0.000612722	-0.00259478	0.000871847	
-0.000543857	-0.0025016	0.000559888	
-0.000396047	-0.00255403	0.000338574	
6.38387e-05	-0.00257839	-0.000384664	
-0.00279371	-0.000886193	0.00248357	
-0.000986024	-0.00205174	0.000829719	
-0.00120651	-0.00177023	0.000927855	
-0.000156126	-0.00253583	-0.000123664	
-0.00065263	-0.00178266	-3.50005e-05	
-0.000118167	-0.00256953	-2.14691e-05	
-0.000734969	-0.00136507	-0.000414357	
-6.18326e-05	-0.00259866	-6.56152e-06	
-0.000478639	-0.00201304	-0.000160831	
-0.000119396	-0.00255804	-9.82059e-05	
-0.0156109	0.00393512	0.00051752	
-0.00066605	-0.00233747	0.000661295	
-0.000306185	-0.000990506	-0.000640438	
-0.000288424	-0.00226166	-0.000179182	
0.0210674	0.00573637	0.000870582	
0.00269944	-0.000811277	-0.00219827	
0.000553711	-0.00205925	-0.00046742	
8.82394e-05	-0.00216314	0.0001579	
1.63509e-05	-0.00234287	2.2323e-05	
0.00019345	-0.00212147	2.38511e-05	
0.000814461	-0.00229036	-0.00122505	
-0.000921859	-0.00230396	0.001443	
0.000204321	-0.00194703	4.85366e-05	
-4.37512e-05	-0.00230253	0.000117552	
0.000461943	-0.00231687	-0.000661468	
0.000706048	-0.00217054	-0.00080442	
8.28009e-05	-0.00226503	2.21241e-05	
0.000206287	-0.00225453	-0.000127637	
6.41937e-05	-0.00228497	2.67613e-05	
0.00177451	-0.00102363	-0.00116435	
0.000542036	-0.00182353	-0.000265717	
0.00137377	-0.00139362	-0.000950206	
0.000425795	-0.00178141	3.87799e-05	
1.53775e-05	-0.00227614	-5.20424e-06	
0.00269407	-0.000808828	-0.00146119	
1.16664e-05	-0.00230847	1.51709e-06	
0.000127436	-0.00233761	-0.000106601	
0.00362225	-4.09955e-05	0.000255729	
0.000148665	-0.00224363	1.86365e-05	
0.00354342	-0.000585498	-0.000172124	
0.000803973	-0.00191537	-0.000828165	
-3.66387e-06	-0.00231243	2.01021e-05	
0.000214424	-0.00204904	3.63135e-06	
0.000372989	-0.00100007	0.000587675	
7.31711e-05	-0.00234503	3.17896e-05	
-0.00563062	-0.000225727	0.0016845	
-0.000351411	-0.00207759	0.000121664	
-3.79044e-05	-0.00216199	-0.000222424	
-0.00880974	0.0016512	0.000212153	
0.00033348	-0.00234163	-0.000412321	
-0.000199086	-0.0021198	-3.00903e-05	
-0.00027593	-0.00235074	0.000487069	
0.000232202	-0.00233839	-0.000350446	
0.000261317	-0.00233842	-0.00042193	
-0.00112201	-0.0017183	0.0010715	
-0.000181033	-0.0023034	0.000162576	
-0.000643539	-0.00230702	0.000904899	
-0.000611723	-0.00217696	0.000667355	
-0.000432259	-0.00224243	0.00044236	
8.94591e-05	-0.00228962	-0.00029313	
-0.00316906	-0.000828947	0.00230639	
-0.00108186	-0.00168594	0.000989473	
-0.00131126	-0.00145988	0.00105365	
-0.000145588	-0.00224302	-2.78337e-05	
-0.000428642	-0.00158463	-3.43486e-05	
-9.20675e-05	-0.00229073	2.07638e-05	
-0.000536334	-0.00117832	-0.000469546	
-5.4838e-05	-0.00232653	1.0408e-05	
-0.000379965	-0.00176402	-2.85266e-05	
-0.000110024	-0.00226734	-2.20447e-05	
-0.0160844	0.00466797	-0.000538818	
-0.000859109	-0.0019535	0.000798546	
-0.000252074	-0.00079085	-0.000621085	
-0.000345154	-0.00197089	2.98805e-05	
0.0217808	0.00566459	0.00250657	
0.00332948	-0.000801427	-0.0012937	
0.000666257	-0.00175835	-0.000416777	
0.000104498	-0.00187141	7.41597e-05	
-6.0611e-06	-0.00207926	2.27597e-05	
0.000149717	-0.00182544	4.3034e-05	
0.00101173	-0.00204587	-0.00106283	
-0.00118798	-0.00205309	0.00123631	
0.000261236	-0.00164053	-2.59531e-06	
-5.1822e-05	-0.00205101	9.29567e-05	
0.000613228	-0.00205289	-0.000576716	
0.000899475	-0.00188435	-0.000726994	
9.79585e-05	-0.00202488	9.01621e-07	
0.000244898	-0.0020144	-0.000127149	
6.42697e-05	-0.00203724	1.84387e-05	
0.00205863	-0.000909586	-0.000582553	
0.000591396	-0.00153028	-0.000151493	
0.00157591	-0.00120609	-0.00043987	
0.000278888	-0.0014999	0.000197704	
3.50331e-05	-0.00202612	-6.83473e-06	
0.00304553	-0.00068015	-0.000838341	
8.83061e-06	-0.00205964	3.2833e-07	
0.00010937	-0.00207344	-7.78766e-05	
0.00373872	9.10341e-05	0.000497369	
0.00013429	-0.00199943	1.76426e-05	
0.00371009	-0.000481646	0.000128364	
0.000970797	-0.00162667	-0.000665402	
1.23671e-06	-0.00205382	7.59255e-06	
0.000152042	-0.00174593	3.34536e-05	
0.000225	-0.000763512	0.000633668	
2.79438e-05	-0.00207953	4.57919e-05	
-0.00610673	-0.000100611	0.000951062	
-0.000369229	-0.00177328	0.000101084	
-4.67775e-05	-0.00186862	-0.000124264	
-0.00922488	0.00171752	-0.000325523	
0.000388717	-0.00208185	-0.00033117	
-0.00014108	-0.00182074	-6.90779e-05	
-0.000387263	-0.00208765	0.000421824	
0.000288511	-0.00208128	-0.000282002	
0.000345944	-0.00207447	-0.000351052	
-0.00133241	-0.00147979	0.000864939	
-0.000211368	-0.00204342	0.000137483	
-0.000813584	-0.00204703	0.000760081	
-0.000791907	-0.0018802	0.000622457	
-0.000541058	-0.00199082	0.000399717	
0.000150778	-0.00203495	-0.000247112	
-0.00384469	-0.000784994	0.00138992	
-0.0012836	-0.00139602	0.000780629	
-0.00162736	-0.00125059	0.000598546	
-0.000147584	-0.00199068	-8.20868e-06	
-0.000284631	-0.00131925	-0.000252004	
-7.20252e-05	-0.00203312	-7.32728e-07	
-0.000332146	-0.000915844	-0.000607232	
-3.38389e-05	-0.00206068	1.26762e-06	
-0.00026929	-0.0014872	-0.000133622	
-9.28852e-05	-0.00202088	-1.93643e-05	
-0.0166204	0.00459588	-0.00151524	
-0.000968173	-0.00167086	0.000638964	
-0.000133371	-0.000626279	-0.000586607	
-0.000227272	-0.00167901	-6.52116e-05	
0.0224129	0.00528527	0.00387692	
0.00351179	-0.000653762	-0.00126156	
0.000807419	-0.00154668	-0.000321796	
0.000157206	-0.00165499	4.97944e-05	
-2.62344e-05	-0.00188231	3.21715e-05	
0.000120226	-0.00161555	8.22466e-05	
0.00124107	-0.0018708	-0.000788626	
-0.00142988	-0.00187213	0.000941835	
0.00034346	-0.00143929	1.59421e-05	
-6.52167e-05	-0.00183942	7.06332e-05	
0.000743302	-0.00185462	-0.000454346	
0.00107217	-0.00167811	-0.000550125	
0.000107931	-0.00181678	1.0797e-05	
0.000274432	-0.00180095	-7.90683e-05	
5.24688e-05	-0.00182519	3.47791e-05	
0.00215096	-0.000765973	-0.000566861	
0.000631708	-0.00133897	-9.09954e-05	
0.00163523	-0.00103755	-0.000439177	
0.00024118	-0.00131293	0.000216508	
2.47195e-05	-0.0018287	1.28479e-06	
0.00317768	-0.000526691	-0.000818936	
6.08121e-06	-0.00187421	1.31402e-05	
0.000112312	-0.0018745	-4.11286e-05	
0.00385412	7.06546e-05	0.000653611	
0.000102558	-0.00178095	5.99901e-05	
0.00386551	-0.000416632	0.000197417	
0.00110993	-0.00143569	-0.000507146	
7.21902e-06	-0.00186055	7.67218e-06	
0.000128621	-0.00154106	8.05997e-05	
0.00019191	-0.000656753	0.000580684	
2.75489e-06	-0.00187811	6.65991e-05	
-0.00639388	7.94961e-05	0.000925693	
-0.000447883	-0.00156618	6.98415e-05	
-9.47892e-05	-0.00165736	-8.79569e-05	
-0.00960561	0.00154408	-0.000904349	
0.000455328	-0.00188532	-0.000236857	
-0.000128398	-0.00161473	-9.50661e-05	
-0.000481839	-0.0018945	0.000333852	
0.000333957	-0.00188966	-0.000214539	
0.000393832	-0.00188559	-0.000271053	
-0.00156068	-0.00131181	0.000664078	
-0.000249711	-0.0018362	9.50819e-05	
-0.000961937	-0.00185651	0.000576344	
-0.000950949	-0.00167454	0.00046993	
-0.000633275	-0.00178581	0.000298731	
0.000204397	-0.00182484	-0.000217658	
-0.00404291	-0.000639965	0.00143098	
-0.00143592	-0.00124245	0.000538533	
-0.00175213	-0.00107485	0.000622061	
-0.000113776	-0.00177906	-5.77014e-05	
-0.000246234	-0.00115097	-0.000260842	
-4.78411e-05	-0.00183572	-3.1779e-05	
-0.000292593	-0.000784346	-0.00057203	
-2.62711e-05	-0.00186512	-1.75837e-05	
-0.000227654	-0.00130422	-0.000187219	
-6.88768e-05	-0.00181823	-5.28376e-05	
-0.0170651	0.00429244	-0.00268136	
-0.00109372	-0.00148418	0.000448531	
-8.00136e-05	-0.000529177	-0.000550208	
-0.000183139	-0.00148907	-0.000127629	
0.0231435	0.00498829	0.00426497	
0.00391528	-0.000766811	-0.00134148	
0.000886143	-0.00169055	-0.000326165	
0.000264414	-0.0018007	1.44935e-05	
-1.04811e-05	-0.00194573	2.39724e-05	
0.000139172	-0.00175321	0.000104907	
0.00124144	-0.00193097	-0.000782248	
-0.00146948	-0.00196561	0.000974742	
0.000421753	-0.00165297	3.70948e-05	
-6.53615e-05	-0.00195773	7.76708e-05	
0.000785115	-0.00196365	-0.000473766	
0.00112653	-0.00181279	-0.00055334	
0.000171097	-0.00192735	-1.43167e-05	
0.000292812	-0.00189174	-7.57543e-05	
5.98423e-05	-0.00194725	4.39451e-05	
0.00236023	-0.000836538	-0.000563023	
0.000706172	-0.00158872	-4.47186e-05	
0.00178094	-0.0012953	-0.000391254	
0.000305899	-0.00157593	0.000290321	
2.9853e-05	-0.00193007	4.26215e-06	
0.00336814	-0.00051752	-0.000831144	
7.01607e-06	-0.00194209	1.55029e-05	
0.000107269	-0.00194365	-3.6082e-05	
0.00400621	3.36053e-05	0.000726726	
0.00011635	-0.00188968	7.53437e-05	
0.00405216	-0.000375749	0.000252497	
0.00117012	-0.0016204	-0.000492046	
1.06569e-05	-0.00197889	1.32941e-05	
0.000155337	-0.00170478	0.000111669	
0.000207434	-0.000674273	0.000615048	
-7.62062e-06	-0.00193949	8.04001e-05	
-0.00673488	0.000171403	0.000942437	
-0.00051818	-0.00172547	6.02516e-05	
-0.000200509	-0.00182176	-5.93208e-05	
-0.00999394	0.00146764	-0.00111838	
0.00045685	-0.00193982	-0.000232718	
-0.000151044	-0.00176687	-0.000124417	
-0.000477378	-0.00194072	0.000331883	
0.000362785	-0.00194203	-0.000237526	
0.000399913	-0.00197606	-0.000281576	
-0.00166385	-0.00155379	0.000647268	
-0.000261517	-0.00196675	9.00677e-05	
-0.000993254	-0.00197729	0.000585395	
-0.00100364	-0.00182292	0.000465775	
-0.000693134	-0.00188569	0.000317585	
0.000180987	-0.00195557	-0.000217948	
-0.00437508	-0.000690644	0.00149321	
-0.00156046	-0.0015072	0.000506813	
-0.0020722	-0.00122303	0.000708919	
-0.000130926	-0.00189462	-7.65522e-05	
-0.000288437	-0.00128176	-0.000325551	
-5.21733e-05	-0.00194505	-3.98846e-05	
-0.000318452	-0.000809288	-0.000617387	
-2.90841e-05	-0.00198183	-2.45795e-05	
-0.000290974	-0.00157548	-0.000258137	
-7.83979e-05	-0.00194079	-6.70706e-05	
-0.0175801	0.00399736	-0.00305069	
-0.00114921	-0.00166778	0.000426113	
-7.68261e-05	-0.000534028	-0.000564697	
-0.000221234	-0.00168947	-0.000176006	
0.023687	0.00508421	0.00484794	
0.00414786	-0.000578417	-0.00144674	
0.00105333	-0.00179096	-0.000382803	
0.000344873	-0.00192981	3.6569e-07	
4.43543e-05	-0.00219959	-2.14925e-06	
0.00016532	-0.00189794	0.000133476	
0.00124508	-0.00219419	-0.00076777	
-0.00139301	-0.00218482	0.000920955	
0.000632089	-0.00162303	-6.29729e-05	
-2.48305e-05	-0.00211378	5.83606e-05	
0.000790526	-0.00211332	-0.000469252	
0.00116407	-0.00192573	-0.00054698	
0.0002252	-0.00205979	-3.34669e-05	
0.000361632	-0.00203975	-0.000100236	
6.96316e-05	-0.00208437	5.09983e-05	
0.00250738	-0.000701232	-0.000626567	
0.000764784	-0.00145731	-8.20137e-05	
0.00184533	-0.0010959	-0.000455922	
0.000290241	-0.00141421	0.000279077	
3.67035e-05	-0.00210503	6.54543e-06	
0.00350776	-0.000367476	-0.00091781	
1.00197e-05	-0.00219961	2.29581e-05	
0.00011959	-0.00223603	-3.37858e-05	
0.00414102	0.000158763	0.000741308	
0.000130273	-0.00199203	8.66449e-05	
0.00423204	-0.000220235	0.000253653	
0.00124183	-0.00164659	-0.000492712	
1.24637e-05	-0.0021215	1.56146e-05	
0.000176084	-0.00175943	0.000137576	
0.000197628	-0.000620324	0.0005734	
-4.44985e-05	-0.00224094	0.000123317	
-0.00704739	0.000386185	0.0009788	
-0.000691941	-0.0018119	0.000122966	
-0.000328074	-0.00196233	-1.90087e-05	
-0.0103191	0.00161697	-0.00130981	
0.000456343	-0.00220729	-0.000221509	
-0.000180732	-0.00191816	-0.000155233	
-0.000448416	-0.00220324	0.00031486	
0.000351005	-0.00222306	-0.000229583	
0.000340811	-0.00221589	-0.000247594	
-0.00190026	-0.00148798	0.000750332	
-0.000310134	-0.00213743	0.000105212	
-0.00100319	-0.00214499	0.000578568	
-0.00102257	-0.00199318	0.000434584	
-0.000771131	-0.0020566	0.000344053	
0.000143913	-0.00211537	-0.000212942	
-0.00464646	-0.000518921	0.00163031	
-0.00165616	-0.00135177	0.000559795	
-0.00224685	-0.00108519	0.000801906	
-0.000149337	-0.00203185	-9.18251e-05	
-0.000287105	-0.00119588	-0.000321372	
-6.26409e-05	-0.00213728	-4.92861e-05	
-0.000308756	-0.000748043	-0.000582903	
-3.5315e-05	-0.00215592	-2.98547e-05	
-0.000274733	-0.00139752	-0.00024659	
-9.26406e-05	-0.00209413	-8.09251e-05	
-0.0179436	0.00399408	-0.00359794	
-0.00121137	-0.00170881	0.000422601	
-7.03119e-05	-0.000489181	-0.000518086	
-0.000244558	-0.00171514	-0.000206214	
0.024103	0.0054886	0.00516798	
0.00426565	-0.000204932	-0.00159424	
0.00105982	-0.00137748	-0.000423199	
0.000372632	-0.00142091	-6.24773e-05	
5.43709e-05	-0.0016008	-1.15094e-05	
0.000133849	-0.00142663	0.000110383	
0.00128082	-0.00155173	-0.000802293	
-0.00142414	-0.00151666	0.000941415	
0.000675908	-0.00119528	-0.000155079	
-1.23878e-05	-0.00148702	4.27491e-05	
0.000839364	-0.00154952	-0.000512802	
0.00113087	-0.00145473	-0.000560179	
0.000218983	-0.00145286	-5.84598e-05	
0.000301424	-0.00145022	-9.34954e-05	
5.21312e-05	-0.00146517	4.12377e-05	
0.00256765	-0.000419662	-0.000763331	
0.000765377	-0.00113727	-0.000145819	
0.00189155	-0.000760903	-0.000577173	
0.000243638	-0.00112531	0.000225039	
2.7696e-05	-0.00148038	5.33148e-06	
0.00356201	-0.000117859	-0.00105513	
8.34909e-06	-0.00152061	1.61655e-05	
0.000129251	-0.00156332	-5.04562e-05	
0.00424583	0.000328801	0.000732523	
0.000102727	-0.00149531	7.06159e-05	
0.00436114	-2.61063e-06	0.000208895	
0.00133311	-0.00120177	-0.000590485	
9.56948e-06	-0.00154858	1.12642e-05	
0.000152711	-0.0014009	0.000118772	
0.00016123	-0.000495975	0.00046143	
-1.16471e-05	-0.00157954	7.3962e-05	
-0.00728296	0.000654389	0.0010518	
-0.000750575	-0.001502	0.000185662	
-0.000377444	-0.00158806	4.08918e-05	
-0.0105726	0.00193431	-0.0014652	
0.000452285	-0.00163129	-0.00023983	
-0.000156352	-0.00154527	-0.00013391	
-0.000478211	-0.00163677	0.000330653	
0.000345412	-0.00160409	-0.000228587	
0.00038321	-0.00160558	-0.000271748	
-0.00194194	-0.00113042	0.000830404	
-0.000310415	-0.00162031	0.000122257	
-0.00101655	-0.00166147	0.000602525	
-0.00102783	-0.00158512	0.000466531	
-0.000704703	-0.00160535	0.000326612	
0.000158326	-0.00161509	-0.00020079	
-0.00487186	-0.0002438	0.0018253	
-0.00165768	-0.00111777	0.000605447	
-0.00243115	-0.000985269	0.000905566	
-0.000127728	-0.00166866	-8.06143e-05	
-0.000267212	-0.00104667	-0.000286907	
-5.18577e-05	-0.00161054	-3.85945e-05	
-0.000275911	-0.000636459	-0.000501063	
-2.9043e-05	-0.00164553	-2.29801e-05	
-0.000258684	-0.00125103	-0.000222786	
-7.7223e-05	-0.00161928	-6.56863e-05	
-0.0182408	0.0042101	-0.00394578	
-0.00129614	-0.00139799	0.00050921	
-6.43014e-05	-0.000426189	-0.000455388	
-0.000208059	-0.00135379	-0.000169308	
0.0245639	0.00579764	0.00564837	
0.00440807	-0.000279089	-0.00156864	
0.00125636	-0.00133317	-0.00052655	
0.000423744	-0.00153337	-6.51953e-05	
6.68151e-05	-0.00135467	-1.93181e-05	
0.000151348	-0.00150218	0.000128772	
0.0012716	-0.00134616	-0.000786178	
-0.00149335	-0.00140107	0.000970396	
0.000798679	-0.00119649	-0.00021257	
-3.32888e-05	-0.00151154	6.44014e-05	
0.000788333	-0.00147986	-0.00047117	
0.00114887	-0.00149786	-0.000553151	
0.000196033	-0.00152705	-3.06667e-05	
0.000314178	-0.00154761	-8.61848e-05	
5.83742e-05	-0.00151666	4.79845e-05	
0.00273162	-0.000463755	-0.000750778	
0.00081041	-0.00111292	-0.000168392	
0.00196837	-0.000755949	-0.000597866	
0.00024973	-0.00110908	0.000223411	
3.09434e-05	-0.00148329	9.24462e-06	
0.00374182	-0.000121797	-0.00102191	
8.55225e-06	-0.00138106	1.56657e-05	
0.000135714	-0.00135841	-5.97563e-05	
0.00436684	0.000393598	0.000856999	
0.000111404	-0.00155261	7.823e-05	
0.00453099	6.8952e-05	0.000298474	
0.00138318	-0.00119808	-0.000601287	
7.62125e-06	-0.00143578	1.09863e-05	
0.000154654	-0.00132182	0.000119474	
0.000194077	-0.000574758	0.000538224	
-1.94501e-05	-0.00136536	6.08494e-05	
-0.00751249	0.000909889	0.00106466	
-0.000852097	-0.00114948	0.000293951	
-0.000422139	-0.00124506	9.82969e-05	
-0.0108191	0.00221843	-0.00165227	
0.000457994	-0.00136561	-0.000253222	
-0.000136698	-0.00125458	-0.000117882	
-0.000472641	-0.00137573	0.000316895	
0.000374778	-0.00138361	-0.000247201	
0.000419039	-0.00141594	-0.000292326	
-0.00202411	-0.00084383	0.000918793	
-0.000364118	-0.00151818	0.000153129	
-0.000930024	-0.00149036	0.000543574	
-0.00106063	-0.00128284	0.000509171	
-0.000772499	-0.0014163	0.000377781	
0.000126646	-0.00149233	-0.000178398	
-0.00498545	-6.4959e-05	0.00191317	
-0.00167512	-0.000809343	0.00068177	
-0.0023935	-0.000581806	0.000999318	
-0.000108727	-0.00138871	-6.80189e-05	
-0.000233925	-0.000875415	-0.000240228	
-5.44347e-05	-0.00152908	-3.71035e-05	
-0.000271268	-0.000604167	-0.000476591	
-2.6858e-05	-0.00144865	-2.10281e-05	
-0.000199238	-0.000931843	-0.0001673	
-7.41542e-05	-0.00146233	-6.26448e-05	
-0.0184911	0.0044724	-0.00428404	
-0.00129803	-0.001045	0.000559366	
-6.6016e-05	-0.000412171	-0.000437036	
-0.000178533	-0.00109112	-0.000139592	
0.0249285	0.00621383	0.00598301	
0.004546	-2.23024e-05	-0.00167499	
0.00135506	-0.00129091	-0.000567289	
0.000478708	-0.00138211	-0.000102962	
0.00016641	-0.00185721	-7.01529e-05	
0.000144899	-0.00137335	0.000124501	
0.00130386	-0.00178705	-0.000769965	
-0.00146382	-0.00173479	0.000930875	
0.000937266	-0.00107963	-0.00030223	
0.000123543	-0.00161692	-2.38903e-05	
0.000827796	-0.00172778	-0.000477475	
0.00116415	-0.00139866	-0.000547584	
0.000246344	-0.00152728	-4.94769e-05	
0.000375663	-0.00151431	-0.000116898	
6.40789e-05	-0.00156296	5.34715e-05	
0.00279787	-0.000255872	-0.000858128	
0.000811328	-0.00101076	-0.000183447	
0.00201441	-0.000667733	-0.000628673	
0.00024021	-0.00103747	0.000212767	
3.67501e-05	-0.00169974	2.1208e-05	
0.00378028	8.32381e-05	-0.00113426	
1.2748e-05	-0.00178315	2.08404e-05	
0.000143805	-0.00187224	-5.38035e-05	
0.00445242	0.000576229	0.000856484	
0.000107903	-0.00146364	8.42798e-05	
0.00464637	0.00029609	0.000263036	
0.00145566	-0.00112025	-0.000630952	
9.47382e-06	-0.00174438	1.54184e-05	
0.000157823	-0.00128596	0.000122107	
0.000165984	-0.000473336	0.000435042	
-5.25063e-05	-0.00186914	9.99809e-05	
-0.00772798	0.001172	0.00107065	
-0.00101323	-0.00139595	0.000326042	
-0.000412958	-0.00146605	5.1204e-05	
-0.0110293	0.0024891	-0.00183914	
0.000399851	-0.00183154	-0.000199383	
-0.000167342	-0.00147304	-0.000145851	
-0.000489572	-0.00176903	0.000316478	
0.000297034	-0.00174572	-0.000194024	
0.000404953	-0.00166902	-0.000282611	
-0.00221318	-0.000983343	0.000953534	
-0.000505688	-0.00146277	0.000232737	
-0.00102808	-0.00160714	0.000585324	
-0.00105248	-0.00139953	0.000472754	
-0.00078459	-0.00142064	0.000370228	
0.00011937	-0.00143548	-0.000173818	
-0.0053264	3.52571e-05	0.00204316	
-0.0017423	-0.00095662	0.000653466	
-0.00249868	-0.000753703	0.000975918	
-0.000113263	-0.00142759	-7.86176e-05	
-0.00028765	-0.00104495	-0.000289809	
-6.11819e-05	-0.00155511	-4.30526e-05	
-0.000273946	-0.000589496	-0.000461355	
-3.27459e-05	-0.00165367	-2.69362e-05	
-0.000245792	-0.001124	-0.000204678	
-7.5873e-05	-0.00143195	-6.3985e-05	
-0.0187595	0.00472201	-0.00459373	
-0.00140952	-0.00125892	0.000557295	
-6.92974e-05	-0.000401344	-0.000420394	
-0.000217745	-0.0012807	-0.000166712	
0.0251783	0.006679	0.00622753	
0.00444232	0.000364253	-0.00173183	
0.00132845	-0.000761409	-0.000611456	
0.000608726	-0.000879914	-0.000231182	
7.50848e-05	-0.00118807	-2.36026e-05	
9.22287e-05	-0.00085923	8.17784e-05	
0.00134537	-0.00123385	-0.0007846	
-0.00149232	-0.00127385	0.000918663	
0.000917241	-0.000719309	-0.000348445	
0.000118683	-0.00116287	-2.90591e-05	
0.000900113	-0.00118095	-0.000519717	
0.00124617	-0.000977834	-0.000613379	
0.000270789	-0.00113924	-8.58457e-05	
0.000343777	-0.00110952	-0.000121743	
4.9397e-05	-0.00115287	4.22956e-05	
0.00283487	-2.22064e-05	-0.00096855	
0.000844252	-0.000689539	-0.000272334	
0.00200338	-0.000256878	-0.000743001	
0.000153723	-0.00066249	0.000137932	
2.71565e-05	-0.00115137	1.69451e-05	
0.00379563	0.000294113	-0.00125425	
9.65716e-06	-0.00121743	1.56632e-05	
0.000138822	-0.00116227	-6.13533e-05	
0.00450035	0.000795748	0.000855973	
8.44665e-05	-0.00113202	6.9285e-05	
0.00471827	0.000526595	0.000212	
0.00149171	-0.000669392	-0.000694295	
7.72145e-06	-0.00122542	1.57769e-05	
0.000106254	-0.000849397	8.29883e-05	
0.000127127	-0.000349117	0.000313835	
-4.30009e-05	-0.0011699	7.08611e-05	
-0.00780854	0.00154594	0.00118583	
-0.000956071	-0.000798951	0.000388503	
-0.00051999	-0.000894616	0.000181636	
-0.0111514	0.0028512	-0.00192965	
0.000471595	-0.00119899	-0.000253515	
-0.0001009	-0.000871349	-8.82935e-05	
-0.000529067	-0.00127911	0.000332475	
0.000345542	-0.00124291	-0.000218889	
0.000354202	-0.00129451	-0.000240088	
-0.0022161	-0.000534546	0.00101838	
-0.00052306	-0.00114632	0.000247264	
-0.00111171	-0.00117048	0.000629875	
-0.00112198	-0.000977691	0.000541864	
-0.000771429	-0.00108681	0.000372931	
0.000114616	-0.00114407	-0.000151969	
-0.00527579	0.000404105	0.00220131	
-0.00177721	-0.000539523	0.000752167	
-0.00250297	-0.000244057	0.00111352	
-8.96053e-05	-0.00113026	-6.70228e-05	
-0.00015274	-0.000545245	-0.000152856	
-4.8465e-05	-0.00115032	-3.41324e-05	
-0.000190798	-0.000401334	-0.000307502	
-2.67579e-05	-0.00123538	-2.16768e-05	
-0.000144522	-0.000655118	-0.000121994	
-6.13223e-05	-0.0011276	-5.32321e-05	
-0.0189758	0.00495543	-0.00474595	
-0.00142408	-0.000759233	0.00063516	
-5.4616e-05	-0.000289933	-0.000291309	
-0.000138099	-0.000795224	-0.000107776	
0.0255769	0.00712234	0.00655441	
0.00464346	0.000141887	-0.00164846	
0.0014462	-0.00116461	-0.000581238	
0.000699112	-0.00125915	-0.000217702	
-3.47885e-06	-0.00148766	2.7076e-05	
0.000137554	-0.0012694	0.000124399	
0.00135193	-0.00152507	-0.000744042	
-0.00141398	-0.00150723	0.000841046	
0.00122062	-0.0010787	-0.000418764	
9.67638e-05	-0.00147366	-2.10586e-06	
0.000950824	-0.00144652	-0.000518735	
0.00132623	-0.00126478	-0.000597527	
0.000287731	-0.00148274	-6.78735e-05	
0.000477607	-0.00145881	-0.000164489	
6.38252e-05	-0.00146247	5.38594e-05	
0.00293388	-0.000162159	-0.000883186	
0.000948743	-0.000934371	-0.000249721	
0.00216342	-0.00051781	-0.00068798	
0.000218473	-0.000940795	0.000198401	
3.56763e-05	-0.0014208	2.32984e-05	