<VTKFile type="UnstructuredGrid" version="0.1" byte_order="LittleEndian">
	<UnstructuredGrid>
		<Piece NumberOfPoints="60" NumberOfCells="60">
			<CellData Scalars="scalars">
				<DataArray type="Float64" Name="Strength" NumberOfComponents="3" Format="ascii">
0.016067	-0.0122451	-0.00247668	
0.00198678	-0.0241522	-0.00028143	
0.000217704	-0.0254955	5.38409e-05	
-0.000577509	-0.0267192	5.67581e-05	
-0.00035584	-0.0263234	-3.73358e-05	
-3.82916e-05	-0.0260751	4.35691e-05	
0.00126647	-0.0267006	-0.000224936	
-0.00155571	-0.0259629	0.000303113	
-0.00054808	-0.0254344	0.000132328	
-1.27325e-06	-0.0257087	4.15795e-06	
0.000632609	-0.0266551	-0.000124151	
0.000741027	-0.0256753	-0.00021184	
-9.62404e-05	-0.0270369	-4.69218e-05	
0.000138268	-0.0265234	3.0124e-05	
2.04178e-05	-0.0263462	-5.9961e-05	
0.000897306	-0.0229247	3.37236e-05	
0.000262869	-0.0258005	4.7021e-05	
0.000765973	-0.0246786	-0.000196458	
6.34654e-05	-0.0256845	4.527e-05	
7.94063e-06	-0.0261534	-1.74684e-05	
0.00180141	-0.0220727	-0.000133267	
-4.82975e-06	-0.0254565	1.29189e-05	
4.332e-05	-0.0262262	-1.32921e-05	
0.00232798	-0.0159441	-0.000216461	
-3.24034e-05	-0.0263837	5.0437e-06	
0.00204877	-0.0182885	-7.27872e-05	
0.000703442	-0.0252459	-0.000177307	
2.27196e-05	-0.0269599	-2.27578e-05	
-2.24039e-05	-0.025935	1.21213e-05	
-5.92556e-05	-0.020323	0.000357595	
6.62951e-05	-0.0262605	7.69052e-05	
-0.00348505	-0.0200466	0.000461664	
9.86834e-05	-0.0257626	-0.000158794	
0.000565335	-0.0266969	-5.66973e-05	
-0.00595378	-0.0161308	0.000913528	
0.000533117	-0.0264716	-6.31911e-05	
9.85083e-06	-0.0261642	-6.87445e-05	
-0.000547032	-0.0269619	2.05408e-05	
0.000397816	-0.0264094	-8.06272e-05	
0.000524044	-0.0268349	-5.90201e-05	
-0.000477234	-0.025151	0.000106653	
-0.000116672	-0.0257998	9.2418e-06	
-0.000910672	-0.0267971	0.000188882	
-0.00053836	-0.0257785	0.000211509	
-0.000522628	-0.0263973	5.19773e-05	
0.00039328	-0.0263402	-5.36341e-06	
-0.00223545	-0.0228016	0.000189055	
-0.000686075	-0.0251874	0.000149391	
-0.000454967	-0.0240478	0.000141719	
3.84614e-05	-0.0263118	1.15314e-05	
2.2135e-05	-0.0241443	-0.000120137	
-3.55864e-06	-0.0262528	-3.74246e-07	
1.27698e-05	-0.0218378	-0.000244534	
-1.2446e-05	-0.0273386	2.93946e-05	
7.87381e-05	-0.0246027	-4.87862e-05	
7.75029e-06	-0.0268397	2.89111e-05	
-0.0126619	-0.0124333	0.00188654	
-0.000679917	-0.026324	0.000144586	
5.15422e-05	-0.0184665	-0.000298653	
-6.64111e-06	-0.0256494	-3.90509e-06	
				</DataArray>
				<DataArray type="Float64" Name="Time Step Shed" NumberOfComponents="1" Format="ascii">
3	
3	
3	
3	
3	
3	
3	
3	
3	
3	
3	
3	
3	
3	
3	
3	
3	
3	
3	
3	
3	
3	
3	
3	
3	
3	
3	
3	
3	
3	
3	
3	
3	
3	
3	
3	
3	
3	
3	
3	
3	
3	
3	
3	
3	
3	
3	
3	
3	
3	
3	
3	
3	
3	
3	
3	
3	
3	
3	
3	
				</DataArray>
			</CellData>
			<Points>
				<DataArray type="Float64" Name="Position" NumberOfComponents="3" Format="ascii">
1.27141	2.94899	-0.0132709	
1.26872	2.35014	-0.00850583	
1.2655	1.64989	-0.0057442	
1.26797	1.4505	-0.00724799	
1.26558	0.149837	-0.00566603	
1.2678	1.54997	-0.00657657	
1.26732	0.249768	-0.0066092	
1.26641	0.450104	-0.00528083	
1.26737	1.95015	-0.00711927	
1.26537	0.850005	-0.00502705	
1.26711	0.650324	-0.0063513	
1.26678	1.35014	-0.0054355	
1.26799	1.04985	-0.00721715	
1.26819	1.15003	-0.00652501	
1.26817	0.949931	-0.00675737	
1.26891	2.45033	-0.00930541	
1.26936	2.05035	-0.00826197	
1.26992	2.25053	-0.00880248	
1.27095	2.15064	-0.00914915	
1.26882	0.750203	-0.00665405	
1.27019	2.55037	-0.0110546	
1.26697	0.349945	-0.00512987	
1.2671	0.0498255	-0.00629363	
1.27062	2.85013	-0.0132578	
1.26956	1.25002	-0.00698964	
1.27034	2.75019	-0.012463	
1.26855	1.85029	-0.00730092	
1.27019	0.550491	-0.00728569	
1.26998	1.75028	-0.00820254	
1.27093	2.65031	-0.0121561	
1.26726	-0.0499249	-0.00620621	
1.26828	-2.65014	-0.00984489	
1.26568	-1.64998	-0.0059163	
1.26791	-1.45042	-0.0070003	
1.27008	-2.84983	-0.0124803	
1.26719	-0.149898	-0.00595173	
1.2679	-1.54994	-0.00648806	
1.26801	-0.249699	-0.00686404	
1.2672	-0.349954	-0.00591432	
1.26796	-0.449833	-0.00624754	
1.26695	-1.95009	-0.00707853	
1.26548	-0.849944	-0.00514661	
1.26753	-0.650284	-0.00622016	
1.26678	-1.35065	-0.00562367	
1.26749	-1.15011	-0.00617441	
1.26772	-0.949955	-0.00642682	
1.26862	-2.45034	-0.00932433	
1.26864	-2.05035	-0.00808934	
1.26868	-2.25023	-0.00839112	
1.26876	-1.25028	-0.00684431	
1.27049	-2.34994	-0.00963711	
1.26887	-0.750326	-0.00653941	
1.27021	-2.55038	-0.0110757	
1.27041	-0.550356	-0.00730031	
1.26958	-2.15039	-0.00833203	
1.27	-1.04994	-0.00721076	
1.27173	-2.94895	-0.0136308	
1.26996	-1.75027	-0.00842008	
1.27081	-2.75027	-0.0130598	
1.26996	-1.85038	-0.00810674	
				</DataArray>
			</Points>
			<Cells>
				<DataArray type="Int32" Name="connectivity" Format="ascii">
0	
1	
2	
3	
4	
5	
6	
7	
8	
9	
10	
11	
12	
13	
14	
15	
16	
17	
18	
19	
20	
21	
22	
23	
24	
25	
26	
27	
28	
29	
30	
31	
32	
33	
34	
35	
36	
37	
38	
39	
40	
41	
42	
43	
44	
45	
46	
47	
48	
49	
50	
51	
52	
53	
54	
55	
56	
57	
58	
59	
				</DataArray>
				<DataArray type="Int32" Name="offsets" Format="ascii">
1	
2	
3	
4	
5	
6	
7	
8	
9	
10	
11	
12	
13	
14	
15	
16	
17	
18	
19	
20	
21	
22	
23	
24	
25	
26	
27	
28	
29	
30	
31	
32	
33	
34	
35	
36	
37	
38	
39	
40	
41	
42	
43	
44	
45	
46	
47	
48	
49	
50	
51	
52	
53	
54	
55	
56	
57	
58	
59	
60	
				</DataArray>
				<DataArray type="Int32" Name="types" Format="ascii">
1	
1	
1	
1	
1	
1	
1	
1	
1	
1	
1	
1	
1	
1	
1	
1	
1	
1	
1	
1	
1	
1	
1	
1	
1	
1	
1	
1	
1	
1	
1	
1	
1	
1	
1	
1	
1	
1	
1	
1	
1	
1	
1	
1	
1	
1	
1	
1	
1	
1	
1	
1	
1	
1	
1	
1	
1	
1	
1	
1	
				</DataArray>
			</Cells>
		</Piece>
	</UnstructuredGrid>
</VTKFile>
