<VTKFile type="UnstructuredGrid" version="0.1" byte_order="LittleEndian">
	<UnstructuredGrid>
		<Piece NumberOfPoints="180" NumberOfCells="180">
			<CellData Scalars="scalars">
				<DataArray type="Float64" Name="Strength" NumberOfComponents="3" Format="ascii">
0.0162097	-0.0121145	-0.00223866	
0.00207545	-0.0240118	-8.27795e-05	
0.000233875	-0.0253897	3.55737e-05	
-0.000592102	-0.0266242	0.000158127	
-0.000372641	-0.0262039	2.85788e-05	
-2.31872e-05	-0.0259615	6.21399e-05	
0.00130706	-0.0265751	-0.00029806	
-0.00161706	-0.0258496	0.000393702	
-0.000553986	-0.0253182	0.000179713	
2.25218e-05	-0.0255946	-6.82499e-07	
0.000691256	-0.0265551	-0.000180181	
0.000757361	-0.0255928	-0.00024487	
-0.000126913	-0.0269327	-6.46e-05	
0.000134194	-0.0264323	2.85328e-06	
2.7291e-05	-0.0262322	-7.7592e-05	
0.000947794	-0.0227843	0.000372188	
0.000298608	-0.025673	6.06888e-05	
0.000831926	-0.0245601	2.22002e-05	
0.000101418	-0.0255702	0.000177315	
5.50627e-05	-0.0260502	1.33064e-05	
0.00183464	-0.0219269	0.000238689	
-4.62665e-06	-0.0253326	3.47269e-06	
2.93735e-05	-0.0261238	1.28864e-06	
0.00235948	-0.0158692	0.000450323	
-2.26381e-05	-0.0263124	3.35821e-05	
0.0020838	-0.0181869	0.000503313	
0.000736092	-0.0251221	-0.000213136	
3.99882e-05	-0.0268521	-3.40643e-05	
-8.69085e-06	-0.025813	5.40276e-05	
-8.09733e-05	-0.0201983	0.000917834	
5.0766e-05	-0.0261607	0.000101612	
-0.00354028	-0.0199357	5.54972e-05	
8.91302e-05	-0.0256538	-0.00019796	
0.00059743	-0.0266029	-0.000116589	
-0.0060277	-0.0160267	0.000372667	
0.00053429	-0.02635	-8.1043e-05	
1.34545e-05	-0.0260581	-4.00959e-05	
-0.000566464	-0.0268331	0.000114433	
0.000403997	-0.0262766	-7.84411e-05	
0.000553996	-0.0267212	-9.60618e-05	
-0.00049285	-0.0250454	9.85244e-05	
-0.000137139	-0.0256832	1.47197e-05	
-0.000975352	-0.0266961	0.00022447	
-0.000554159	-0.0256886	0.000215805	
-0.000545196	-0.0263109	0.000104967	
0.000408291	-0.0262299	-1.87441e-05	
-0.00229582	-0.0226884	-1.22009e-05	
-0.0007299	-0.0250886	0.000120971	
-0.000466024	-0.0239692	-2.63091e-05	
2.40716e-05	-0.026238	-1.93038e-05	
2.01527e-05	-0.0240516	-0.000391612	
-4.63597e-05	-0.0261497	-5.60071e-05	
1.13681e-05	-0.0217255	-0.000749182	
-2.64885e-05	-0.0272298	-6.40506e-07	
7.8432e-05	-0.0245171	-0.000179432	
2.72606e-05	-0.0267388	4.37584e-05	
-0.0127758	-0.0123131	0.00160027	
-0.000724987	-0.0262168	0.000129507	
3.41371e-05	-0.0183704	-0.00107417	
-2.18794e-05	-0.0255256	-6.33335e-05	
0.0183253	-0.00112913	-0.00364523	
0.00236512	-0.00409341	-0.000717834	
0.000338077	-0.00490151	-9.93187e-05	
-0.000385678	-0.00496197	0.00013066	
-0.000195843	-0.00523923	5.16094e-05	
-3.44335e-06	-0.00493158	5.6954e-06	
0.00128691	-0.00514002	-0.000426608	
-0.00156871	-0.00516572	0.000517081	
-0.000384137	-0.00470919	0.00013493	
-9.58575e-05	-0.0051405	3.63522e-05	
0.000703997	-0.00509726	-0.000235636	
0.000789131	-0.00509605	-0.000281967	
-0.000101639	-0.00508134	2.1621e-05	
0.000123671	-0.00513473	-3.88259e-05	
1.88815e-06	-0.00510142	-6.85057e-06	
0.00124364	-0.00384933	-0.000329833	
0.000257843	-0.00458465	-7.10792e-05	
0.000955996	-0.00425323	-0.000290108	
2.56633e-05	-0.00452598	1.94803e-05	
8.57705e-06	-0.00499004	-1.70097e-06	
0.00217274	-0.00351484	-0.000605535	
-3.06066e-06	-0.00506324	-4.14203e-06	
6.80831e-05	-0.00526396	-2.0384e-05	
0.00283751	-0.00216172	-0.000627493	
-2.66617e-06	-0.00517221	5.80174e-06	
0.00264599	-0.00260656	-0.000654678	
0.000756531	-0.00476174	-0.000260528	
5.18757e-06	-0.00512789	5.27257e-07	
1.22704e-06	-0.00485602	4.67484e-06	
1.51165e-05	-0.00316071	9.85348e-05	
4.33759e-06	-0.00529678	1.32315e-05	
-0.00433818	-0.00308427	0.00124047	
2.64825e-05	-0.0049376	-3.73853e-05	
0.000432717	-0.00499128	-0.000137619	
-0.00711723	-0.00207651	0.00171539	
0.000481923	-0.0052762	-0.000155002	
2.64613e-06	-0.00494736	-4.11228e-06	
-0.00055225	-0.00523759	0.000179911	
0.000402286	-0.00519625	-0.000127209	
0.000507871	-0.00521848	-0.000156965	
-0.000736693	-0.00462055	0.000247532	
-0.000143055	-0.00514659	4.41282e-05	
-0.000939193	-0.00520941	0.000313303	
-0.000637306	-0.00505858	0.000234145	
-0.000462322	-0.00511731	0.000148026	
0.000399657	-0.00507405	-0.000121381	
-0.00270435	-0.00385373	0.000798655	
-0.000902923	-0.004535	0.000294354	
-0.000798163	-0.00432955	0.000249928	
3.34699e-06	-0.00516653	-5.03826e-06	
-1.18601e-05	-0.00408571	-4.35627e-05	
-1.0947e-05	-0.00508157	-3.31566e-06	
-2.00693e-05	-0.00353729	-8.41638e-05	
-7.46861e-06	-0.00518998	-5.74909e-06	
2.49028e-06	-0.0043967	-2.28824e-05	
3.28979e-06	-0.00508748	4.78087e-06	
-0.014229	-0.0012077	0.00280632	
-0.000753622	-0.00489327	0.000248667	
-2.16451e-05	-0.00264549	-0.000109331	
-8.44861e-06	-0.00477631	-6.87174e-06	
0.0190886	-0.00035481	-0.00392153	
0.00246972	-0.00170394	-0.000837697	
0.000380407	-0.00212723	-0.000132671	
-0.000290745	-0.00218636	0.000104023	
-0.000137941	-0.002368	4.17761e-05	
-1.817e-06	-0.0021535	2.95548e-06	
0.00125923	-0.00233817	-0.000461542	
-0.00152319	-0.00234008	0.000551001	
-0.000274942	-0.00200927	0.000100033	
-0.00011193	-0.00231992	4.31707e-05	
0.000699626	-0.00232502	-0.000261564	
0.000809976	-0.00224443	-0.000302731	
-6.93777e-05	-0.0022816	2.14189e-05	
0.00012604	-0.00229061	-4.17416e-05	
8.11286e-07	-0.00230714	-3.7735e-06	
0.00134351	-0.00159715	-0.000436234	
0.00027731	-0.00194197	-9.10512e-05	
0.00101591	-0.00177875	-0.000360378	
9.69134e-06	-0.00190756	4.21933e-06	
1.04352e-06	-0.00227812	-9.44621e-07	
0.00228374	-0.00144572	-0.000729125	
-1.79682e-06	-0.00231667	-1.76926e-06	
7.62321e-05	-0.00237764	-2.70908e-05	
0.00296768	-0.000873154	-0.000748013	
-1.61791e-06	-0.0022904	1.70534e-06	
0.00280384	-0.00105048	-0.000793588	
0.000780987	-0.00204584	-0.000288842	
2.0971e-06	-0.00232665	-1.34692e-06	
-8.02986e-07	-0.00210627	1.33761e-06	
4.45446e-06	-0.00128558	2.2529e-05	
-8.3614e-06	-0.00238808	1.10576e-05	
-0.00459668	-0.00122373	0.0014215	
-7.98808e-06	-0.00214721	-7.57797e-06	
0.000345558	-0.00219269	-0.000123146	
-0.0074493	-0.000829969	0.00191022	
0.000453674	-0.0023856	-0.000165023	
1.48784e-07	-0.00216205	-4.41839e-06	
-0.000531595	-0.00237532	0.000190802	
0.000380638	-0.00237439	-0.000139959	
0.000469129	-0.00237269	-0.00017082	
-0.000859709	-0.00198551	0.000311418	
-0.000145875	-0.00233343	5.25504e-05	
-0.000919923	-0.00236213	0.000345936	
-0.000668058	-0.00223882	0.000255269	
-0.000449942	-0.00228894	0.000160084	
0.000355883	-0.00231166	-0.000124831	
-0.00286911	-0.00156801	0.000949039	
-0.000958139	-0.00192533	0.000341956	
-0.000939566	-0.00178968	0.000332419	
2.55809e-06	-0.00228952	-7.86317e-07	
-3.61603e-06	-0.00168826	-9.75563e-06	
-1.47174e-06	-0.00231038	4.81713e-07	
-6.30033e-06	-0.00142896	-1.74414e-05	
-3.06946e-06	-0.00235489	4.36546e-08	
2.50134e-06	-0.00185778	-5.41437e-06	
3.48102e-07	-0.00228821	1.36462e-06	
-0.0147609	-0.000434764	0.00302684	
-0.000766957	-0.00212727	0.00028379	
-6.47261e-06	-0.00107889	-2.2643e-05	
-3.91321e-06	-0.00207205	-1.86383e-06	
				</DataArray>
				<DataArray type="Float64" Name="Time Step Shed" NumberOfComponents="1" Format="ascii">
3	
3	
3	
3	
3	
3	
3	
3	
3	
3	
3	
3	
3	
3	
3	
3	
3	
3	
3	
3	
3	
3	
3	
3	
3	
3	
3	
3	
3	
3	
3	
3	
3	
3	
3	
3	
3	
3	
3	
3	
3	
3	
3	
3	
3	
3	
3	
3	
3	
3	
3	
3	
3	
3	
3	
3	
3	
3	
3	
3	
4	
4	
4	
4	
4	
4	
4	
4	
4	
4	
4	
4	
4	
4	
4	
4	
4	
4	
4	
4	
4	
4	
4	
4	
4	
4	
4	
4	
4	
4	
4	
4	
4	
4	
4	
4	
4	
4	
4	
4	
4	
4	
4	
4	
4	
4	
4	
4	
4	
4	
4	
4	
4	
4	
4	
4	
4	
4	
4	
4	
5	
5	
5	
5	
5	
5	
5	
5	
5	
5	
5	
5	
5	
5	
5	
5	
5	
5	
5	
5	
5	
5	
5	
5	
5	
5	
5	
5	
5	
5	
5	
5	
5	
5	
5	
5	
5	
5	
5	
5	
5	
5	
5	
5	
5	
5	
5	
5	
5	
5	
5	
5	
5	
5	
5	
5	
5	
5	
5	
5	
				</DataArray>
			</CellData>
			<Points>
				<DataArray type="Float64" Name="Position" NumberOfComponents="3" Format="ascii">
1.46717	2.94456	0.021629	
1.46044	2.34937	0.0197748	
1.45575	1.65014	0.0272199	
1.45926	1.4498	0.026362	
1.45631	0.149822	0.0294952	
1.45872	1.54971	0.0269235	
1.4583	0.249853	0.0290437	
1.45692	0.450218	0.030195	
1.45764	1.95025	0.0242676	
1.4542	0.849934	0.0299307	
1.45786	0.650511	0.028203	
1.45719	1.34953	0.0288909	
1.4588	1.05037	0.0269816	
1.45881	1.15035	0.0278082	
1.45817	0.950138	0.0282123	
1.46058	2.44908	0.0187199	
1.46058	2.05053	0.0221479	
1.46182	2.24998	0.0200712	
1.46319	2.15053	0.0204845	
1.45926	0.750394	0.0288094	
1.46181	2.54865	0.0162824	
1.45759	0.349879	0.0312045	
1.45793	0.0497754	0.0291981	
1.46467	2.84707	0.0156181	
1.46066	1.2496	0.0278327	
1.4633	2.7476	0.0141607	
1.4586	1.8502	0.0254577	
1.46136	0.550582	0.0279814	
1.46113	1.75063	0.0252163	
1.46295	2.6481	0.0145609	
1.45753	-0.0500311	0.0292565	
1.45952	-2.64782	0.0163258	
1.45619	-1.64992	0.026539	
1.45838	-1.45072	0.0265436	
1.46416	-2.84649	0.0168693	
1.45726	-0.149901	0.0292883	
1.45868	-1.5498	0.0268163	
1.45854	-0.250047	0.0282043	
1.45761	-0.350042	0.0290295	
1.45858	-0.449785	0.0284027	
1.45719	-1.9496	0.0245171	
1.45473	-0.849857	0.0299388	
1.45847	-0.650236	0.0283386	
1.45714	-1.35074	0.0286999	
1.45816	-1.15074	0.0281475	
1.45789	-0.949892	0.0285288	
1.46021	-2.449	0.0181214	
1.45968	-2.04997	0.023224	
1.45992	-2.24925	0.0211953	
1.45984	-1.25021	0.0279467	
1.46224	-2.34904	0.0190599	
1.45953	-0.750223	0.0289832	
1.46213	-2.54901	0.0158762	
1.46192	-0.550129	0.0274782	
1.46084	-2.14978	0.0226386	
1.46098	-1.05051	0.0276848	
1.46777	-2.94467	0.021864	
1.4611	-1.75048	0.0242633	
1.46353	-2.74751	0.0139521	
1.46027	-1.85015	0.0244252	
1.3742	2.94881	-0.00804124	
1.3794	2.35126	-0.0222627	
1.38029	1.65052	-0.0170108	
1.38216	1.45026	-0.020152	
1.38127	0.149845	-0.0164544	
1.38095	1.55003	-0.0185	
1.38203	0.249934	-0.0174939	
1.38246	0.449718	-0.015577	
1.38023	1.95049	-0.0197432	
1.38139	0.85011	-0.0151574	
1.38113	0.650593	-0.0176818	
1.38171	1.34994	-0.0159933	
1.38151	1.04994	-0.0195027	
1.38185	1.15022	-0.0181979	
1.38113	0.949797	-0.0175592	
1.37787	2.45149	-0.0213429	
1.38098	2.05064	-0.0223711	
1.37969	2.25168	-0.0227945	
1.38067	2.1513	-0.0236264	
1.38192	0.750755	-0.0171064	
1.37675	2.55118	-0.0219929	
1.38147	0.350127	-0.0133173	
1.38187	0.0497679	-0.016902	
1.37394	2.85125	-0.0165809	
1.38222	1.25005	-0.0183006	
1.37422	2.7508	-0.0189113	
1.37988	1.8506	-0.0181468	
1.38212	0.550366	-0.0190939	
1.38062	1.75088	-0.0196879	
1.37545	2.65069	-0.020757	
1.38161	-0.0499023	-0.0169119	
1.37529	-2.6511	-0.0202076	
1.38044	-1.65067	-0.0180388	
1.38194	-1.45062	-0.020025	
1.37373	-2.85096	-0.0162921	
1.38129	-0.149886	-0.0166851	
1.38115	-1.55002	-0.0187741	
1.38182	-0.249524	-0.0183849	
1.38158	-0.350053	-0.0166259	
1.38263	-0.449483	-0.0181164	
1.38002	-1.95073	-0.0190977	
1.38146	-0.850081	-0.0151456	
1.3816	-0.650689	-0.0178325	
1.38119	-1.35097	-0.0161054	
1.38157	-1.15049	-0.0176455	
1.38113	-0.949847	-0.0171873	
1.37756	-2.45123	-0.0217457	
1.3802	-2.05077	-0.0206381	
1.3792	-2.25077	-0.0211261	
1.38194	-1.25073	-0.0179792	
1.37898	-2.35055	-0.0226357	
1.38206	-0.750961	-0.0171993	
1.37656	-2.55154	-0.0222135	
1.38223	-0.55018	-0.019836	
1.37957	-2.15061	-0.0196684	
1.38133	-1.05004	-0.018647	
1.37429	-2.9485	-0.00778507	
1.38101	-1.75094	-0.0212091	
1.37403	-2.75099	-0.0191857	
1.38025	-1.85066	-0.0198733	
1.27591	2.95059	-0.0199454	
1.27738	2.35075	-0.0291302	
1.27762	1.64999	-0.0272991	
1.27808	1.45055	-0.0298859	
1.27807	0.149845	-0.0280275	
1.27784	1.55003	-0.0284785	
1.27834	0.249861	-0.0288802	
1.27883	0.449891	-0.0273666	
1.27771	1.95022	-0.0287418	
1.27854	0.850025	-0.026908	
1.27807	0.650389	-0.0285092	
1.27851	1.3502	-0.0270316	
1.27784	1.04988	-0.02965	
1.27822	1.15005	-0.0287037	
1.27799	0.949941	-0.0285252	
1.27685	2.45094	-0.0281719	
1.27784	2.05044	-0.030167	
1.27727	2.251	-0.0297046	
1.27769	2.15093	-0.030762	
1.27847	0.750281	-0.0282901	
1.2763	2.55093	-0.0281962	
1.27869	0.349955	-0.0257378	
1.27829	0.0499244	-0.028527	
1.27544	2.85161	-0.0244914	
1.27847	1.25003	-0.0290285	
1.27552	2.751	-0.0255154	
1.27771	1.85039	-0.0279363	
1.2783	0.550412	-0.0297343	
1.27764	1.75034	-0.0294025	
1.27589	2.65075	-0.0269028	
1.27824	-0.0498943	-0.0285269	
1.27589	-2.65104	-0.0265168	
1.27755	-1.65009	-0.0279663	
1.27817	-1.45047	-0.0298585	
1.27536	-2.8515	-0.0242627	
1.27809	-0.149817	-0.0281361	
1.27785	-1.55006	-0.028643	
1.2781	-0.249618	-0.0293772	
1.2785	-0.34989	-0.0280297	
1.2786	-0.449742	-0.0289364	
1.2775	-1.95033	-0.0282728	
1.27844	-0.850009	-0.0269013	
1.27825	-0.650396	-0.0286481	
1.27826	-1.35079	-0.0271102	
1.2782	-1.1502	-0.028342	
1.278	-0.950008	-0.028239	
1.27657	-2.45089	-0.0283544	
1.27767	-2.05061	-0.0292699	
1.27714	-2.25048	-0.0288072	
1.27825	-1.25041	-0.0287887	
1.27701	-2.35028	-0.0293916	
1.27853	-0.750464	-0.0284427	
1.27614	-2.55101	-0.0283796	
1.27827	-0.550333	-0.0301112	
1.27756	-2.15064	-0.0281288	
1.27785	-1.04998	-0.0290415	
1.27587	-2.95021	-0.0197049	
1.27771	-1.75043	-0.0303638	
1.27543	-2.75118	-0.0257823	
1.2777	-1.85053	-0.0291788	
				</DataArray>
			</Points>
			<Cells>
				<DataArray type="Int32" Name="connectivity" Format="ascii">
0	
1	
2	
3	
4	
5	
6	
7	
8	
9	
10	
11	
12	
13	
14	
15	
16	
17	
18	
19	
20	
21	
22	
23	
24	
25	
26	
27	
28	
29	
30	
31	
32	
33	
34	
35	
36	
37	
38	
39	
40	
41	
42	
43	
44	
45	
46	
47	
48	
49	
50	
51	
52	
53	
54	
55	
56	
57	
58	
59	
60	
61	
62	
63	
64	
65	
66	
67	
68	
69	
70	
71	
72	
73	
74	
75	
76	
77	
78	
79	
80	
81	
82	
83	
84	
85	
86	
87	
88	
89	
90	
91	
92	
93	
94	
95	
96	
97	
98	
99	
100	
101	
102	
103	
104	
105	
106	
107	
108	
109	
110	
111	
112	
113	
114	
115	
116	
117	
118	
119	
120	
121	
122	
123	
124	
125	
126	
127	
128	
129	
130	
131	
132	
133	
134	
135	
136	
137	
138	
139	
140	
141	
142	
143	
144	
145	
146	
147	
148	
149	
150	
151	
152	
153	
154	
155	
156	
157	
158	
159	
160	
161	
162	
163	
164	
165	
166	
167	
168	
169	
170	
171	
172	
173	
174	
175	
176	
177	
178	
179	
				</DataArray>
				<DataArray type="Int32" Name="offsets" Format="ascii">
1	
2	
3	
4	
5	
6	
7	
8	
9	
10	
11	
12	
13	
14	
15	
16	
17	
18	
19	
20	
21	
22	
23	
24	
25	
26	
27	
28	
29	
30	
31	
32	
33	
34	
35	
36	
37	
38	
39	
40	
41	
42	
43	
44	
45	
46	
47	
48	
49	
50	
51	
52	
53	
54	
55	
56	
57	
58	
59	
60	
61	
62	
63	
64	
65	
66	
67	
68	
69	
70	
71	
72	
73	
74	
75	
76	
77	
78	
79	
80	
81	
82	
83	
84	
85	
86	
87	
88	
89	
90	
91	
92	
93	
94	
95	
96	
97	
98	
99	
100	
101	
102	
103	
104	
105	
106	
107	
108	
109	
110	
111	
112	
113	
114	
115	
116	
117	
118	
119	
120	
121	
122	
123	
124	
125	
126	
127	
128	
129	
130	
131	
132	
133	
134	
135	
136	
137	
138	
139	
140	
141	
142	
143	
144	
145	
146	
147	
148	
149	
150	
151	
152	
153	
154	
155	
156	
157	
158	
159	
160	
161	
162	
163	
164	
165	
166	
167	
168	
169	
170	
171	
172	
173	
174	
175	
176	
177	
178	
179	
180	
				</DataArray>
				<DataArray type="Int32" Name="types" Format="ascii">
1	
1	
1	
1	
1	
1	
1	
1	
1	
1	
1	
1	
1	
1	
1	
1	
1	
1	
1	
1	
1	
1	
1	
1	
1	
1	
1	
1	
1	
1	
1	
1	
1	
1	
1	
1	
1	
1	
1	
1	
1	
1	
1	
1	
1	
1	
1	
1	
1	
1	
1	
1	
1	
1	
1	
1	
1	
1	
1	
1	
1	
1	
1	
1	
1	
1	
1	
1	
1	
1	
1	
1	
1	
1	
1	
1	
1	
1	
1	
1	
1	
1	
1	
1	
1	
1	
1	
1	
1	
1	
1	
1	
1	
1	
1	
1	
1	
1	
1	
1	
1	
1	
1	
1	
1	
1	
1	
1	
1	
1	
1	
1	
1	
1	
1	
1	
1	
1	
1	
1	
1	
1	
1	
1	
1	
1	
1	
1	
1	
1	
1	
1	
1	
1	
1	
1	
1	
1	
1	
1	
1	
1	
1	
1	
1	
1	
1	
1	
1	
1	
1	
1	
1	
1	
1	
1	
1	
1	
1	
1	
1	
1	
1	
1	
1	
1	
1	
1	
1	
1	
1	
1	
1	
1	
1	
1	
1	
1	
1	
1	
				</DataArray>
			</Cells>
		</Piece>
	</UnstructuredGrid>
</VTKFile>
