<VTKFile type="UnstructuredGrid" version="0.1" byte_order="LittleEndian">
	<UnstructuredGrid>
		<Piece NumberOfPoints="600" NumberOfCells="600">
			<CellData Scalars="scalars">
				<DataArray type="Float64" Name="Strength" NumberOfComponents="3" Format="ascii">
0.0168928	-0.0112793	-0.00103601	
0.00257053	-0.0238358	0.00108374	
0.000478019	-0.0252727	0.000280784	
-0.000355735	-0.0265123	0.000436554	
-0.000365993	-0.0260994	0.000190851	
0.000193475	-0.0258489	0.000291623	
0.00128675	-0.0264716	-0.000369403	
-0.00155669	-0.0257453	0.000606572	
-0.000178377	-0.0252023	0.000818262	
0.000107967	-0.0254936	5.00293e-05	
0.00073438	-0.0264366	-0.000296571	
0.000908936	-0.0254771	-0.000177957	
1.71444e-05	-0.0268247	0.000112489	
0.000285337	-0.0263253	0.000130502	
0.000150877	-0.0261289	7.36759e-05	
0.00142007	-0.0225877	0.00196281	
0.000684129	-0.0255413	0.000804928	
0.00132613	-0.0244025	0.00112787	
0.000569431	-0.0254214	0.00117423	
0.000124261	-0.0259404	9.25873e-08	
0.00234908	-0.0216651	0.00238866	
-6.7875e-06	-0.0252348	5.16998e-05	
1.78731e-05	-0.0260156	0.00010893	
0.00318663	-0.0154066	0.00281253	
0.000166405	-0.0261986	0.000194046	
0.00275307	-0.0177702	0.00303661	
0.000999657	-0.0250105	0.000101716	
5.74498e-05	-0.026743	-7.44997e-05	
0.000275919	-0.0257021	0.000409525	
0.000494859	-0.0198403	0.00343786	
9.42424e-05	-0.0260515	0.000237509	
-0.00419239	-0.0195905	-0.00230501	
-0.000213147	-0.0255355	-0.000568633	
0.000332453	-0.0264921	-0.000373841	
-0.00694174	-0.0154751	-0.00184407	
0.000523636	-0.026245	-4.30519e-05	
-0.00023881	-0.0259441	-0.000312503	
-0.000572553	-0.0267289	0.000219892	
0.000392852	-0.026179	-0.00013211	
0.000544928	-0.0266143	-0.000210438	
-0.000877232	-0.0249195	-0.000498475	
-0.000193752	-0.0255811	-0.00010699	
-0.000992725	-0.0265787	0.000251431	
-0.000752938	-0.0255754	0.00015099	
-0.000722428	-0.0261986	4.263e-05	
0.000294103	-0.0261281	-0.000266527	
-0.00273826	-0.022496	-0.00152374	
-0.00115413	-0.0249539	-0.000587666	
-0.000929242	-0.0238268	-0.0010342	
-0.000212971	-0.026127	-0.000160917	
-0.000452954	-0.0238846	-0.00171496	
-0.000108306	-0.0260381	-0.000159711	
-0.000592798	-0.0214171	-0.00311465	
-4.28554e-05	-0.0271197	-5.61776e-05	
-0.000384886	-0.0243825	-0.00108635	
-0.000120265	-0.0266302	-0.00015378	
-0.0134595	-0.011613	0.000406737	
-0.00101294	-0.0260985	-0.000268196	
-0.000800232	-0.0178897	-0.00389357	
-0.000364197	-0.0254104	-0.000642693	
0.018362	3.0371e-05	-0.00412705	
0.00240679	-0.00403731	-0.000807631	
0.000374701	-0.00487155	-0.00010101	
-0.000311018	-0.00493984	0.000219807	
-0.000173027	-0.00521582	9.61076e-05	
5.12059e-05	-0.00490543	4.17718e-05	
0.00121762	-0.00511717	-0.000598335	
-0.00146968	-0.00513996	0.000755342	
-0.000298722	-0.00468336	0.00029628	
-7.44512e-05	-0.00511712	5.68488e-05	
0.000666288	-0.00507219	-0.00034259	
0.00077873	-0.00506749	-0.00037402	
-7.1999e-05	-0.00505635	7.10297e-05	
0.000146802	-0.00510738	-2.98021e-05	
2.40546e-05	-0.00507778	2.44746e-05	
0.00135267	-0.00380288	-0.000210118	
0.00032626	-0.00455623	3.11145e-05	
0.00104602	-0.00421562	-0.000220282	
0.000138117	-0.00449746	0.000189573	
2.26154e-05	-0.00496589	-4.65826e-06	
0.00226315	-0.00345961	-0.000505122	
6.20544e-07	-0.0050414	6.85742e-06	
7.49939e-05	-0.0052399	-1.50679e-05	
0.00300552	-0.00197476	-0.000418674	
3.81966e-05	-0.00514534	3.57128e-05	
0.00279326	-0.00248384	-0.00046543	
0.000763953	-0.00473375	-0.000289018	
2.92116e-06	-0.00510335	-7.53495e-06	
5.65087e-05	-0.00482886	6.22048e-05	
0.000198029	-0.00310347	0.000481012	
1.81175e-05	-0.00527183	4.64072e-05	
-0.00442409	-0.0029728	0.0012398	
-3.7038e-05	-0.00491215	-0.000104936	
0.000362161	-0.0049694	-0.000239132	
-0.00722558	-0.00166775	0.00182574	
0.000459066	-0.00525251	-0.000201174	
-4.82415e-05	-0.00492098	-5.38611e-05	
-0.000516041	-0.00521387	0.000266755	
0.000379346	-0.00517314	-0.000193226	
0.000474178	-0.00519259	-0.000242979	
-0.000782874	-0.0045924	0.000229661	
-0.00015401	-0.0051224	4.43787e-05	
-0.00089516	-0.00518238	0.000441468	
-0.000635805	-0.00503263	0.000298036	
-0.000472903	-0.00508869	0.000188942	
0.000351335	-0.00505077	-0.000216247	
-0.00274572	-0.00380128	0.000853478	
-0.00095387	-0.00450242	0.000281721	
-0.000880468	-0.00429613	0.000172859	
-4.28906e-05	-0.00514066	-3.48734e-05	
-0.000146396	-0.00405611	-0.00025663	
-3.45363e-05	-0.00505553	-1.95832e-05	
-0.000204969	-0.00348444	-0.00046213	
-1.49635e-05	-0.00516628	-1.06061e-05	
-0.000108417	-0.00436983	-0.000182238	
-2.77953e-05	-0.00506238	-3.2521e-05	
-0.0142659	-0.000309484	0.00321238	
-0.000778924	-0.0048649	0.000276284	
-0.000237916	-0.0025755	-0.000501279	
-8.54526e-05	-0.00475112	-0.000100342	
0.0192862	0.00160429	-0.00404399	
0.00250835	-0.00160336	-0.00109055	
0.000400473	-0.00211016	-0.000167771	
-0.000260265	-0.00217683	0.000157287	
-0.00012721	-0.0023549	6.25592e-05	
2.2405e-05	-0.00214089	1.332e-05	
0.001238	-0.00232255	-0.000618662	
-0.00148802	-0.00232529	0.000753204	
-0.000232283	-0.00199907	0.000168158	
-0.000102785	-0.00230753	5.85921e-05	
0.000688179	-0.00231186	-0.000350227	
0.000806316	-0.00222785	-0.000402478	
-5.83008e-05	-0.00227029	4.27713e-05	
0.000135415	-0.00227923	-5.07094e-05	
1.08456e-05	-0.00229548	9.10469e-06	
0.0014124	-0.00153149	-0.000519645	
0.000315425	-0.00192568	-9.18572e-05	
0.00107195	-0.00173766	-0.000434111	
7.51528e-05	-0.00189408	5.31836e-05	
8.62069e-06	-0.00226618	-9.53979e-07	
0.00235154	-0.0013436	-0.000866872	
9.09979e-07	-0.00230413	1.39732e-06	
8.22743e-05	-0.00236565	-3.47908e-05	
0.00308546	-0.00058044	-0.000727843	
1.71463e-05	-0.00228082	1.4541e-05	
0.00291329	-0.000839175	-0.000837625	
0.000791004	-0.00202568	-0.000375137	
-4.93159e-07	-0.00231507	-1.35694e-06	
2.88266e-05	-0.00209321	1.81922e-05	
0.000110481	-0.001263	0.000153834	
1.35105e-07	-0.00237549	2.432e-05	
-0.00467125	-0.00096182	0.00170714	
-4.11609e-05	-0.00213396	-2.81691e-05	
0.000317693	-0.00218301	-0.000186546	
-0.00757854	-7.03767e-05	0.00209517	
0.000450047	-0.00237099	-0.000214705	
-2.3677e-05	-0.00215017	-1.8489e-05	
-0.000514596	-0.00236323	0.000264278	
0.000373358	-0.00236108	-0.000191866	
0.000457824	-0.00235982	-0.000236276	
-0.000885472	-0.00195953	0.000397182	
-0.000154799	-0.00232036	6.65478e-05	
-0.000910546	-0.0023459	0.000462782	
-0.000668928	-0.00222401	0.000330198	
-0.000455322	-0.00227607	0.0002088	
0.000334699	-0.00230033	-0.000184968	
-0.00290563	-0.00145854	0.00121675	
-0.000990313	-0.00189598	0.000429698	
-0.000986008	-0.00175565	0.000397547	
-1.77381e-05	-0.00228053	-1.67214e-05	
-7.78538e-05	-0.00167615	-6.64588e-05	
-1.80869e-05	-0.0022983	-4.9338e-06	
-0.000111337	-0.0014075	-0.000149088	
-8.71066e-06	-0.00234327	-1.25513e-06	
-5.60871e-05	-0.00184753	-4.68585e-05	
-1.31881e-05	-0.00227644	-1.2203e-05	
-0.0149271	0.00110125	0.00316661	
-0.000788631	-0.00210558	0.000358485	
-0.000125807	-0.00105295	-0.000160959	
-4.67093e-05	-0.00205941	-2.51839e-05	
0.0204102	0.00183737	-0.00389345	
0.00277179	-0.0018107	-0.00115707	
0.000487166	-0.00238357	-0.00019736	
-0.000194586	-0.00245631	0.000114263	
-9.66565e-05	-0.00261465	3.80826e-05	
2.1817e-05	-0.0024187	1.16645e-05	
0.00127922	-0.00258997	-0.000595899	
-0.00152632	-0.00258808	0.000719037	
-0.000124795	-0.00224087	0.000115698	
-0.000115151	-0.00259739	5.96627e-05	
0.000711349	-0.00259314	-0.000339996	
0.000863615	-0.00249924	-0.000402178	
-2.38099e-05	-0.00256259	1.73088e-05	
0.000152686	-0.00255722	-5.97777e-05	
1.25009e-05	-0.0025837	5.29474e-06	
0.00159467	-0.00171711	-0.000581951	
0.000367774	-0.00215374	-0.000116267	
0.00118465	-0.00196173	-0.000464847	
7.0639e-05	-0.00211321	5.92689e-05	
8.03103e-06	-0.00255593	-3.78631e-06	
0.00256732	-0.00150159	-0.000931424	
7.72879e-07	-0.00257831	3.29026e-06	
8.90099e-05	-0.00261442	-3.82032e-05	
0.00331945	-0.00063746	-0.000778055	
1.6957e-05	-0.00254604	1.32704e-05	
0.0031716	-0.000936924	-0.000917146	
0.000860733	-0.00227706	-0.000382112	
-4.64349e-07	-0.00258373	-6.4133e-07	
2.80879e-05	-0.00234795	1.40816e-05	
0.000121334	-0.00142052	0.000157418	
-7.0516e-06	-0.00261832	2.81636e-05	
-0.00511293	-0.00107715	0.00184363	
-0.000115929	-0.0023937	9.75412e-06	
0.000258199	-0.00245463	-0.000139796	
-0.00816909	-5.59963e-05	0.00217613	
0.000457443	-0.00262276	-0.000205023	
-2.35251e-05	-0.00242082	-1.78492e-05	
-0.000524016	-0.00261892	0.000246711	
0.000374506	-0.00261766	-0.000178604	
0.000457585	-0.0026144	-0.000222303	
-0.00104663	-0.00220006	0.000449395	
-0.000166093	-0.00260372	6.82947e-05	
-0.000938096	-0.00260988	0.000445475	
-0.000723187	-0.00249932	0.000337719	
-0.00048729	-0.00255384	0.000214012	
0.000310043	-0.00258648	-0.000158514	
-0.00321796	-0.00166113	0.00130509	
-0.00109386	-0.00211848	0.000453787	
-0.00117172	-0.00197052	0.000461286	
-1.7226e-05	-0.00254572	-1.27239e-05	
-7.5952e-05	-0.00189801	-6.87114e-05	
-1.92789e-05	-0.00257413	-7.11577e-07	
-0.000122016	-0.00159521	-0.000156467	
-9.44294e-06	-0.00260148	-1.20042e-07	
-4.94891e-05	-0.00207687	-5.17078e-05	
-1.36865e-05	-0.00256457	-6.3276e-06	
-0.0157329	0.00125858	0.00297016	
-0.000861997	-0.00234049	0.000378811	
-0.000142156	-0.00120187	-0.000162835	
-3.9137e-05	-0.00228938	-3.46309e-05	
0.0213284	0.00175377	-0.00405065	
0.00299806	-0.00155586	-0.00120086	
0.000564768	-0.00210011	-0.000231776	
-0.000136145	-0.0021681	8.0361e-05	
-6.96917e-05	-0.00234473	2.54614e-05	
1.53189e-05	-0.00213349	1.43066e-05	
0.00130689	-0.00232261	-0.000591641	
-0.00155266	-0.00232054	0.000707759	
-7.78265e-06	-0.00196115	2.89209e-05	
-0.000112958	-0.00230507	5.37297e-05	
0.000739803	-0.00231851	-0.000341896	
0.000908267	-0.0022103	-0.000413563	
7.48819e-06	-0.00226911	-1.22313e-06	
0.000167249	-0.00226281	-6.77518e-05	
8.90871e-06	-0.00228841	1.31616e-06	
0.00174203	-0.00147105	-0.000615087	
0.000407771	-0.0018751	-0.000142466	
0.00127958	-0.00169219	-0.000503775	
5.51105e-05	-0.00183406	3.82993e-05	
6.26331e-06	-0.00227857	-1.24271e-06	
0.00274459	-0.00127578	-0.000961302	
-3.47962e-07	-0.00231085	-2.17913e-07	
9.40839e-05	-0.00234425	-3.88201e-05	
0.00349132	-0.000503211	-0.000834104	
1.13887e-05	-0.00225134	1.08898e-05	
0.0033669	-0.000767729	-0.000993807	
0.000938846	-0.00199235	-0.000418384	
4.67895e-07	-0.00231525	-7.30152e-07	
1.79345e-05	-0.00206342	1.07658e-05	
9.06818e-05	-0.00121099	0.000129996	
-1.77862e-05	-0.00234905	2.98524e-05	
-0.00548121	-0.000886662	0.00195115	
-0.000181596	-0.00210553	5.10277e-05	
0.000201522	-0.0021651	-0.000104801	
-0.00866212	5.21287e-05	0.00224216	
0.000457006	-0.00235236	-0.000197032	
-1.64442e-05	-0.00213243	-1.63095e-05	
-0.000531113	-0.00234834	0.000246123	
0.000372041	-0.00234338	-0.000170162	
0.000457673	-0.00234031	-0.000211433	
-0.00119967	-0.00191833	0.000518966	
-0.000186242	-0.00230995	7.74351e-05	
-0.000966473	-0.00233482	0.000444836	
-0.000768012	-0.00220626	0.000349391	
-0.000516706	-0.00226005	0.000224215	
0.00029352	-0.00228984	-0.000140572	
-0.00349863	-0.00143191	0.00135659	
-0.00117057	-0.00184695	0.000486297	
-0.00133911	-0.00170557	0.000531471	
-1.20245e-05	-0.00225057	-1.09294e-05	
-5.50872e-05	-0.00164262	-5.82191e-05	
-1.50528e-05	-0.00229501	-4.4466e-06	
-8.6561e-05	-0.00137185	-0.000125191	
-8.19963e-06	-0.00232992	-1.09734e-06	
-3.623e-05	-0.00180716	-3.65865e-05	
-9.76106e-06	-0.00227259	-5.1066e-06	
-0.0163821	0.0012183	0.00301203	
-0.000917492	-0.00205315	0.000399086	
-0.000107444	-0.00102555	-0.000130671	
-3.4392e-05	-0.00200413	-1.34849e-05	
0.0221607	0.00147496	-0.00405676	
0.00322976	-0.00130534	-0.00118538	
0.000662098	-0.00179723	-0.000249372	
-4.56466e-05	-0.0018782	3.4093e-05	
-5.25953e-05	-0.00208164	1.78619e-05	
7.15244e-06	-0.00183525	2.11039e-05	
0.00134699	-0.00206652	-0.000564118	
-0.00159108	-0.00206633	0.000662675	
0.000100276	-0.00166125	-2.03007e-05	
-0.000117635	-0.00205242	5.44294e-05	
0.000775915	-0.00206002	-0.000324827	
0.000994002	-0.00193946	-0.000419034	
2.75087e-05	-0.00202977	-8.41779e-06	
0.000191538	-0.00202562	-7.56618e-05	
5.97555e-06	-0.00204089	2.3343e-07	
0.00188877	-0.00122518	-0.000614168	
0.000455214	-0.00157996	-0.000155714	
0.00138069	-0.00141847	-0.000497201	
3.71833e-05	-0.00154102	3.7226e-05	
6.32088e-06	-0.00202899	-1.33916e-06	
0.00291741	-0.00106588	-0.00092684	
-9.59747e-07	-0.00206214	4.36756e-08	
9.72823e-05	-0.00207827	-3.75373e-05	
0.0036473	-0.000431533	-0.000842048	
6.99431e-06	-0.00200691	1.05857e-05	
0.00355116	-0.000644642	-0.00100267	
0.00101514	-0.00169467	-0.000403178	
3.56724e-07	-0.0020567	4.3863e-08	
1.13812e-05	-0.00175625	1.1864e-05	
5.60376e-05	-0.00101278	0.000113434	
-2.74447e-05	-0.00208292	2.89688e-05	
-0.00584519	-0.000751137	0.00190953	
-0.000261373	-0.00179739	7.35394e-05	
0.000115821	-0.00187219	-5.85666e-05	
-0.00911148	2.25626e-05	0.00221878	
0.000465599	-0.00208832	-0.000187677	
-7.70073e-06	-0.00183071	-2.41153e-05	
-0.000545196	-0.00208693	0.000234338	
0.000369411	-0.00208531	-0.000155514	
0.000458918	-0.0020779	-0.000189377	
-0.0013518	-0.00162803	0.000531555	
-0.000204125	-0.00205023	7.46167e-05	
-0.00100663	-0.00206929	0.000417672	
-0.000849258	-0.00193082	0.000361105	
-0.000558735	-0.00201772	0.000224204	
0.000288342	-0.00203469	-0.000122328	
-0.00378064	-0.00119008	0.00133298	
-0.00125715	-0.00155835	0.000487092	
-0.00150753	-0.00142803	0.000547034	
-7.98909e-06	-0.00199901	-7.40958e-06	
-3.45957e-05	-0.0013744	-5.6129e-05	
-1.22878e-05	-0.00203692	-5.51687e-06	
-5.59016e-05	-0.0011452	-0.000105492	
-6.39024e-06	-0.00206382	-2.83489e-06	
-2.11175e-05	-0.00152014	-3.45265e-05	
-5.795e-06	-0.00202581	-2.65279e-06	
-0.0169626	0.00100228	0.0030264	
-0.000982291	-0.00174563	0.00039908	
-7.00003e-05	-0.000860851	-0.000116159	
-1.98286e-05	-0.00169883	-2.47678e-05	
0.022856	0.00106204	-0.00417865	
0.00342134	-0.00114932	-0.00121765	
0.000754199	-0.0015897	-0.000277874	
4.84839e-05	-0.00166696	-6.9268e-06	
-5.03824e-05	-0.00188651	1.63478e-05	
4.94089e-06	-0.00162658	1.56213e-05	
0.00137607	-0.00188257	-0.000542001	
-0.00160654	-0.00188236	0.000635662	
0.00021272	-0.00146759	-6.60107e-05	
-0.000103741	-0.00184258	4.33913e-05	
0.000809658	-0.00186319	-0.000325439	
0.00107288	-0.00172609	-0.000425282	
5.4036e-05	-0.00182305	-2.31221e-05	
0.000221238	-0.00181246	-8.1828e-05	
4.57182e-06	-0.00183015	-1.61204e-07	
0.00199979	-0.00107752	-0.00064498	
0.00049764	-0.00139299	-0.00016833	
0.00146558	-0.00124806	-0.000528103	
2.61013e-05	-0.00135628	3.1408e-05	
4.64439e-06	-0.0018328	4.94969e-08	
0.00304388	-0.000946363	-0.000972392	
-8.31246e-07	-0.00187833	-1.6611e-07	
0.000101223	-0.00187978	-3.77821e-05	
0.00377462	-0.000400202	-0.000900584	
3.51529e-06	-0.00178922	1.09867e-05	
0.0036962	-0.000580458	-0.00107058	
0.00108074	-0.00149923	-0.00041623	
1.66236e-06	-0.00186472	-3.64205e-07	
6.34035e-06	-0.00155297	1.25588e-05	
3.66988e-05	-0.000896338	8.89212e-05	
-3.26108e-05	-0.0018834	2.74234e-05	
-0.00611542	-0.000685015	0.00200464	
-0.000344028	-0.0015949	0.000112575	
2.62878e-05	-0.00166668	-1.91847e-05	
-0.0094688	-4.16053e-05	0.00231944	
0.000479556	-0.00189121	-0.000183811	
-5.84053e-06	-0.00162722	-1.48175e-05	
-0.000555061	-0.0018975	0.000225394	
0.000366352	-0.00189553	-0.000144849	
0.000447938	-0.00189051	-0.000179926	
-0.00149924	-0.0014424	0.000570517	
-0.000235224	-0.00184279	8.67988e-05	
-0.00103928	-0.00187056	0.000414225	
-0.000926788	-0.00172329	0.000369819	
-0.000609631	-0.00180971	0.000237018	
0.000286458	-0.00182761	-0.000116762	
-0.00399039	-0.00105268	0.00139337	
-0.00134003	-0.0013783	0.000492838	
-0.00165038	-0.00125631	0.000600183	
-3.3685e-06	-0.00178801	-1.02252e-05	
-2.23852e-05	-0.00120879	-4.60771e-05	
-8.85508e-06	-0.00184049	-6.11909e-06	
-3.69863e-05	-0.00101419	-8.33323e-05	
-5.23596e-06	-0.00186958	-3.09114e-06	
-1.18955e-05	-0.00134149	-2.87347e-05	
-2.74119e-06	-0.00182428	-2.96131e-06	
-0.0174455	0.000688003	0.0030537	
-0.00103797	-0.00154921	0.000398873	
-4.64685e-05	-0.000764619	-9.12604e-05	
-1.42976e-05	-0.00151013	-1.70028e-05	
0.0234895	0.000752865	-0.00439135	
0.003762	-0.00134335	-0.00135551	
0.000809478	-0.00174223	-0.000303198	
0.000142945	-0.00182149	-4.77464e-05	
-3.20921e-05	-0.00195282	7.56947e-06	
2.79727e-06	-0.00176936	1.4727e-05	
0.0013716	-0.00194234	-0.000541652	
-0.00164913	-0.00197684	0.000656512	
0.000253213	-0.00169235	-8.65381e-05	
-0.00010987	-0.00196351	4.59679e-05	
0.000848788	-0.00197574	-0.000341931	
0.0011075	-0.00186751	-0.000442622	
0.000112284	-0.00193808	-5.06395e-05	
0.000228038	-0.00190717	-8.80373e-05	
3.15614e-06	-0.00195576	-1.3786e-06	
0.00215736	-0.00120358	-0.000711455	
0.000520541	-0.00165729	-0.000181467	
0.00153119	-0.00154279	-0.000557417	
2.38178e-05	-0.00163924	2.84586e-05	
4.93176e-06	-0.00193737	1.61822e-06	
0.00318797	-0.00102403	-0.00104582	
-1.75968e-07	-0.0019488	-5.14096e-07	
9.5361e-05	-0.00195162	-3.80908e-05	
0.00390798	-0.000462288	-0.000961428	
8.94861e-07	-0.00190254	9.79455e-06	
0.00384844	-0.000640217	-0.0011411	
0.00110739	-0.00169303	-0.000430405	
2.46792e-06	-0.00198675	9.1896e-08	
4.0992e-06	-0.00172285	1.14739e-05	
2.53112e-05	-0.000938327	7.15711e-05	
-4.44396e-05	-0.00194828	3.04549e-05	
-0.00640759	-0.000749551	0.00213078	
-0.000389793	-0.00176244	0.000134987	
-6.31375e-05	-0.00184022	2.00863e-05	
-0.00981445	-0.000163492	0.00243083	
0.000478736	-0.00194757	-0.000185664	
-2.94791e-06	-0.00178494	-1.26379e-05	
-0.000549238	-0.00194596	0.00022228	
0.000398487	-0.00195028	-0.000158151	
0.000456465	-0.00198335	-0.000183507	
-0.00155127	-0.00169943	0.000598089	
-0.00024044	-0.00197643	9.05928e-05	
-0.00106495	-0.00199412	0.000427061	
-0.000954516	-0.00187933	0.000384406	
-0.000658855	-0.00191488	0.000260049	
0.000268384	-0.00196302	-0.000106143	
-0.00427458	-0.00116531	0.00150956	
-0.00140056	-0.00166405	0.000522336	
-0.00192821	-0.00145084	0.000712709	
-5.66055e-07	-0.00190821	-9.27471e-06	
-1.63025e-05	-0.00135961	-4.18825e-05	
-8.45469e-06	-0.00195335	-5.36059e-06	
-2.65164e-05	-0.00107012	-6.77748e-05	
-5.02132e-06	-0.00198997	-2.266e-06	
-7.34656e-06	-0.00163049	-2.78029e-05	
1.79535e-07	-0.00195079	-1.01398e-06	
-0.0178776	0.00047323	0.00321734	
-0.00106004	-0.00174062	0.000412223	
-3.24116e-05	-0.000782206	-7.09678e-05	
-1.17808e-05	-0.00172038	-1.4379e-05	
0.0240026	0.000514695	-0.00463863	
0.00397731	-0.00124592	-0.00144781	
0.000954588	-0.00186	-0.000366999	
0.000202568	-0.00195957	-7.49087e-05	
2.02259e-05	-0.00221145	-1.49978e-05	
6.07316e-07	-0.00192175	1.12857e-05	
0.00135398	-0.00220895	-0.000545549	
-0.00154894	-0.00220044	0.0006147	
0.000459884	-0.00168186	-0.000174121	
-7.29894e-05	-0.00212487	3.2586e-05	
0.000842408	-0.00212996	-0.000339965	
0.00111771	-0.00198766	-0.000448612	
0.000156978	-0.00207567	-7.337e-05	
0.000284088	-0.0020635	-0.00011557	
2.30588e-06	-0.00209742	-3.41464e-06	
0.00228805	-0.00112836	-0.000779938	
0.00057624	-0.00153688	-0.000211855	
0.0016022	-0.00136958	-0.000598778	
1.47687e-05	-0.00147988	1.48382e-05	
5.48813e-06	-0.00211646	2.02489e-06	
0.00331137	-0.000964299	-0.001111	
-8.8989e-07	-0.00221042	-1.49949e-06	
0.000101214	-0.00224917	-3.90519e-05	
0.00402468	-0.000446265	-0.00102052	
-4.55261e-07	-0.00201015	6.20877e-06	
0.00399548	-0.000605531	-0.00119785	
0.00114985	-0.00173373	-0.000451476	
3.66233e-06	-0.00213311	1.21269e-06	
2.14497e-06	-0.00178573	7.53793e-06	
1.30186e-05	-0.000873086	4.3565e-05	
-9.39992e-05	-0.00225322	4.81004e-05	
-0.00667764	-0.000728647	0.00222165	
-0.000547705	-0.00186449	0.000202221	
-0.000170716	-0.00199178	6.92379e-05	
-0.0101164	-0.00022444	0.00254364	
0.0004678	-0.00222025	-0.000185746	
-1.59047e-06	-0.00194562	-1.12538e-05	
-0.000513565	-0.00221229	0.00021292	
0.000380268	-0.00223607	-0.000151645	
0.00039072	-0.00222734	-0.000155625	
-0.00177476	-0.00166637	0.00068619	
-0.000278968	-0.00215327	0.000108076	
-0.00105594	-0.00216773	0.000426328	
-0.000934718	-0.00205678	0.000379363	
-0.000718681	-0.0020954	0.000290389	
0.000238607	-0.0021274	-9.28526e-05	
-0.00452197	-0.00110693	0.00160919	
-0.00149243	-0.00152998	0.00056245	
-0.0020953	-0.00135442	0.000787867	
1.23279e-06	-0.00205124	-6.04714e-06	
-8.35108e-06	-0.00127868	-2.52923e-05	
-7.37351e-06	-0.00215038	-5.29092e-06	
-1.42589e-05	-0.00100353	-3.93594e-05	
-6.72698e-06	-0.00216793	-3.1125e-06	
-1.2982e-06	-0.00145428	-1.49987e-05	
2.38509e-06	-0.00210877	3.3163e-06	
-0.0182258	0.000293718	0.00340369	
-0.0010933	-0.00179565	0.000429025	
-1.74114e-05	-0.000720154	-4.1413e-05	
-8.42485e-06	-0.00175517	-9.42076e-06	
0.0241973	0.000215583	-0.00512213	
0.00397689	-0.000974842	-0.0015737	
0.000929452	-0.00145086	-0.00040434	
0.000252915	-0.00145111	-0.000115419	
3.13262e-05	-0.00161285	-2.06899e-05	
-1.78007e-06	-0.00144839	5.05651e-06	
0.00131206	-0.00156935	-0.00059206	
-0.00148748	-0.00153166	0.000659842	
0.000520486	-0.00125796	-0.00022156	
-4.62315e-05	-0.00149756	2.27722e-05	
0.000843369	-0.0015654	-0.000387916	
0.0010471	-0.00151592	-0.000466891	
0.000163619	-0.00146672	-7.91628e-05	
0.000232454	-0.00146904	-0.000102993	
1.9625e-06	-0.00147533	-1.01833e-06	
0.0023077	-0.000894628	-0.000865935	
0.000584812	-0.0012199	-0.000240137	
0.00162663	-0.00106481	-0.000672077	
8.38274e-06	-0.00118257	7.19676e-06	
1.28622e-06	-0.00149079	-5.90438e-07	
0.00330112	-0.000771147	-0.00119178	
-5.5887e-07	-0.0015318	-1.06167e-06	
0.000110024	-0.00157501	-5.02939e-05	
0.00405893	-0.00040498	-0.00110986	
-1.46629e-06	-0.00150833	2.45363e-06	
0.00402655	-0.000520534	-0.00126841	
0.00120838	-0.00130222	-0.000524185	
2.53345e-06	-0.00155867	-3.11953e-07	
-9.55289e-07	-0.00142587	3.47623e-06	
4.1558e-06	-0.000703059	2.01738e-05	
-4.24915e-05	-0.001591	2.63272e-05	
-0.00674158	-0.000669027	0.00232971	
-0.000590087	-0.00156128	0.000251972	
-0.000235853	-0.00162088	0.000109759	
-0.0102116	-0.00032036	0.00279177	
0.000440662	-0.00164511	-0.000199159	
-2.51785e-07	-0.00157096	-7.1442e-06	
-0.000511107	-0.00164574	0.00023151	
0.00035281	-0.00161769	-0.000160175	
0.0004068	-0.00161644	-0.000183717	
-0.00175742	-0.00133149	0.000749799	
-0.000268922	-0.00163663	0.000118553	
-0.00100672	-0.00168486	0.000465463	
-0.000910231	-0.00165069	0.000414718	
-0.000627419	-0.00164128	0.000280833	
0.000225902	-0.00162472	-0.000100688	
-0.00460776	-0.000966257	0.00176135	
-0.00144119	-0.00131184	0.000604086	
-0.00217766	-0.0013085	0.000896461	
2.75099e-06	-0.00168416	-1.93236e-06	
-3.80995e-06	-0.00112609	-1.23407e-05	
-1.86354e-06	-0.00162272	9.78419e-08	
-5.6739e-06	-0.000863583	-1.77234e-05	
-3.70008e-06	-0.00165647	-4.729e-07	
1.34688e-06	-0.00130553	-7.47275e-06	
-1.56999e-07	-0.00163277	3.63242e-07	
-0.0183283	6.11001e-05	0.0038257	
-0.00113253	-0.00149814	0.000499858	
-6.5404e-06	-0.00063252	-1.97679e-05	
-4.59898e-06	-0.00139119	-5.4766e-06	
				</DataArray>
				<DataArray type="Float64" Name="Time Step Shed" NumberOfComponents="1" Format="ascii">
3	
3	
3	
3	
3	
3	
3	
3	
3	
3	
3	
3	
3	
3	
3	
3	
3	
3	
3	
3	
3	
3	
3	
3	
3	
3	
3	
3	
3	
3	
3	
3	
3	
3	
3	
3	
3	
3	
3	
3	
3	
3	
3	
3	
3	
3	
3	
3	
3	
3	
3	
3	
3	
3	
3	
3	
3	
3	
3	
3	
4	
4	
4	
4	
4	
4	
4	
4	
4	
4	
4	
4	
4	
4	
4	
4	
4	
4	
4	
4	
4	
4	
4	
4	
4	
4	
4	
4	
4	
4	
4	
4	
4	
4	
4	
4	
4	
4	
4	
4	
4	
4	
4	
4	
4	
4	
4	
4	
4	
4	
4	
4	
4	
4	
4	
4	
4	
4	
4	
4	
5	
5	
5	
5	
5	
5	
5	
5	
5	
5	
5	
5	
5	
5	
5	
5	
5	
5	
5	
5	
5	
5	
5	
5	
5	
5	
5	
5	
5	
5	
5	
5	
5	
5	
5	
5	
5	
5	
5	
5	
5	
5	
5	
5	
5	
5	
5	
5	
5	
5	
5	
5	
5	
5	
5	
5	
5	
5	
5	
5	
6	
6	
6	
6	
6	
6	
6	
6	
6	
6	
6	
6	
6	
6	
6	
6	
6	
6	
6	
6	
6	
6	
6	
6	
6	
6	
6	
6	
6	
6	
6	
6	
6	
6	
6	
6	
6	
6	
6	
6	
6	
6	
6	
6	
6	
6	
6	
6	
6	
6	
6	
6	
6	
6	
6	
6	
6	
6	
6	
6	
7	
7	
7	
7	
7	
7	
7	
7	
7	
7	
7	
7	
7	
7	
7	
7	
7	
7	
7	
7	
7	
7	
7	
7	
7	
7	
7	
7	
7	
7	
7	
7	
7	
7	
7	
7	
7	
7	
7	
7	
7	
7	
7	
7	
7	
7	
7	
7	
7	
7	
7	
7	
7	
7	
7	
7	
7	
7	
7	
7	
8	
8	
8	
8	
8	
8	
8	
8	
8	
8	
8	
8	
8	
8	
8	
8	
8	
8	
8	
8	
8	
8	
8	
8	
8	
8	
8	
8	
8	
8	
8	
8	
8	
8	
8	
8	
8	
8	
8	
8	
8	
8	
8	
8	
8	
8	
8	
8	
8	
8	
8	
8	
8	
8	
8	
8	
8	
8	
8	
8	
9	
9	
9	
9	
9	
9	
9	
9	
9	
9	
9	
9	
9	
9	
9	
9	
9	
9	
9	
9	
9	
9	
9	
9	
9	
9	
9	
9	
9	
9	
9	
9	
9	
9	
9	
9	
9	
9	
9	
9	
9	
9	
9	
9	
9	
9	
9	
9	
9	
9	
9	
9	
9	
9	
9	
9	
9	
9	
9	
9	
10	
10	
10	
10	
10	
10	
10	
10	
10	
10	
10	
10	
10	
10	
10	
10	
10	
10	
10	
10	
10	
10	
10	
10	
10	
10	
10	
10	
10	
10	
10	
10	
10	
10	
10	
10	
10	
10	
10	
10	
10	
10	
10	
10	
10	
10	
10	
10	
10	
10	
10	
10	
10	
10	
10	
10	
10	
10	
10	
10	
11	
11	
11	
11	
11	
11	
11	
11	
11	
11	
11	
11	
11	
11	
11	
11	
11	
11	
11	
11	
11	
11	
11	
11	
11	
11	
11	
11	
11	
11	
11	
11	
11	
11	
11	
11	
11	
11	
11	
11	
11	
11	
11	
11	
11	
11	
11	
11	
11	
11	
11	
11	
11	
11	
11	
11	
11	
11	
11	
11	
12	
12	
12	
12	
12	
12	
12	
12	
12	
12	
12	
12	
12	
12	
12	
12	
12	
12	
12	
12	
12	
12	
12	
12	
12	
12	
12	
12	
12	
12	
12	
12	
12	
12	
12	
12	
12	
12	
12	
12	
12	
12	
12	
12	
12	
12	
12	
12	
12	
12	
12	
12	
12	
12	
12	
12	
12	
12	
12	
12	
				</DataArray>
			</CellData>
			<Points>
				<DataArray type="Float64" Name="Position" NumberOfComponents="3" Format="ascii">
2.15026	2.91557	0.152058	
2.1411	2.33569	0.113697	
2.1331	1.64629	0.135196	
2.13682	1.44689	0.139335	
2.13318	0.148637	0.147412	
2.13606	1.5463	0.138355	
2.13502	0.248979	0.149818	
2.13386	0.450321	0.1475	
2.1364	1.94495	0.126819	
2.1316	0.849381	0.144025	
2.13546	0.650128	0.144252	
2.13373	1.34711	0.140257	
2.13646	1.04943	0.143231	
2.13589	1.14894	0.14277	
2.13595	0.949558	0.144564	
2.14216	2.433	0.110204	
2.13987	2.04388	0.123205	
2.14147	2.23893	0.116342	
2.14242	2.14198	0.120442	
2.13612	0.74976	0.145638	
2.14489	2.53172	0.107017	
2.13356	0.349666	0.150302	
2.13405	0.048601	0.146914	
2.14739	2.82364	0.120299	
2.13668	1.24776	0.142711	
2.14678	2.72834	0.10412	
2.13656	1.84564	0.131796	
2.13892	0.550615	0.146829	
2.13855	1.74631	0.135867	
2.1471	2.6307	0.102556	
2.13382	-0.0509756	0.146218	
2.14269	-2.6284	0.101007	
2.13273	-1.64582	0.133275	
2.13573	-1.44784	0.139058	
2.14711	-2.82075	0.126776	
2.13393	-0.150708	0.145793	
2.13504	-1.54668	0.137052	
2.13553	-0.25061	0.145644	
2.13448	-0.350463	0.143958	
2.13562	-0.449702	0.143104	
2.13499	-1.9428	0.128872	
2.13194	-0.848494	0.144771	
2.13533	-0.648937	0.143843	
2.13375	-1.34842	0.140939	
2.1352	-1.14888	0.142879	
2.13572	-0.948739	0.145021	
2.14202	-2.43362	0.106111	
2.1382	-2.04226	0.128192	
2.13981	-2.23893	0.119213	
2.13616	-1.24823	0.143164	
2.14318	-2.33627	0.113318	
2.13599	-0.74879	0.146124	
2.14504	-2.53159	0.103172	
2.13885	-0.54955	0.144445	
2.13926	-2.14072	0.125683	
2.13794	-1.04896	0.145651	
2.15194	-2.9149	0.157651	
2.13786	-1.74531	0.133654	
2.14719	-2.7262	0.107138	
2.13738	-1.84415	0.131738	
2.06888	2.92914	0.106698	
2.1006	2.34522	0.0283921	
2.10721	1.64853	0.0528524	
2.11192	1.44858	0.0543877	
2.11069	0.149154	0.0645081	
2.10987	1.54832	0.0537398	
2.11166	0.249529	0.0660823	
2.11065	0.449593	0.065029	
2.10612	1.94835	0.0428048	
2.1093	0.850057	0.0623882	
2.11151	0.650338	0.0599942	
2.10916	1.34887	0.0576252	
2.11198	1.0501	0.0580067	
2.11048	1.1501	0.0578945	
2.11071	0.949896	0.0597352	
2.0961	2.44431	0.0280948	
2.10714	2.04829	0.0370113	
2.10371	2.24688	0.0296114	
2.10616	2.14785	0.0319307	
2.11102	0.75042	0.0610883	
2.09214	2.54458	0.0264195	
2.1088	0.349806	0.0681885	
2.11157	0.0493587	0.0632643	
2.07262	2.84226	0.0601078	
2.11086	1.24913	0.0570234	
2.07879	2.74615	0.0333319	
2.10599	1.84861	0.0475853	
2.11289	0.550162	0.0600514	
2.10804	1.74882	0.0494483	
2.08592	2.64557	0.0258365	
2.1116	-0.0502339	0.0624312	
2.08466	-2.64499	0.0249088	
2.10693	-1.64849	0.050054	
2.11122	-1.44958	0.0540707	
2.07349	-2.83964	0.0672518	
2.11072	-0.150139	0.0616139	
2.10903	-1.54881	0.0520032	
2.11239	-0.25004	0.0604673	
2.11134	-0.35023	0.060012	
2.11311	-0.449622	0.0584729	
2.1045	-1.94749	0.0455453	
2.10981	-0.849487	0.0631502	
2.11228	-0.650058	0.0591303	
2.10851	-1.34997	0.0577105	
2.11018	-1.15024	0.0589957	
2.11098	-0.949503	0.0609856	
2.09513	-2.44465	0.0233564	
2.10481	-2.04727	0.0437584	
2.10164	-2.24555	0.0343142	
2.11025	-1.24987	0.0580763	
2.09986	-2.34456	0.0267371	
2.11179	-0.749958	0.0614807	
2.09113	-2.54519	0.021687	
2.11397	-0.549811	0.0567372	
2.10198	-2.1464	0.0408921	
2.11167	-1.0499	0.0592034	
2.07035	-2.92742	0.113037	
2.10852	-1.74836	0.0470244	
2.07857	-2.74453	0.0373018	
2.10574	-1.8482	0.0458997	
1.97374	2.93683	0.0804451	
2.00115	2.34974	-0.0253674	
2.01324	1.64956	-0.00762007	
2.0179	1.44944	-0.00807372	
2.01864	0.149579	0.0012787	
2.0158	1.54935	-0.00757418	
2.01974	0.249722	0.00282664	
2.01874	0.449448	0.00265976	
2.0102	1.95	-0.01532	
2.01721	0.850274	0.000333377	
2.01822	0.650314	-0.00245041	
2.01633	1.34956	-0.00466488	
2.0182	1.05044	-0.00476009	
2.0169	1.15048	-0.00421389	
2.0174	0.950167	-0.0029296	
1.99692	2.44982	-0.0216534	
2.00987	2.0504	-0.0206688	
2.00481	2.25064	-0.0258291	
2.00792	2.15077	-0.0247957	
2.01833	0.750553	-0.00119326	
1.99209	2.55097	-0.0197849	
2.01765	0.349734	0.00626897	
2.01948	0.0498058	-0.000281986	
1.97478	2.85162	0.0286017	
2.01772	1.24976	-0.00556762	
1.97913	2.75485	-0.0032074	
2.0113	1.84991	-0.0115105	
2.01929	0.550112	-0.00288076	
2.01333	1.75007	-0.0109159	
1.98566	2.65302	-0.0161483	
2.01961	-0.0498777	-0.00114439	
1.98436	-2.65301	-0.016372	
2.01247	-1.6497	-0.0107471	
2.01713	-1.45047	-0.00850277	
1.97599	-2.84884	0.0362583	
2.0185	-0.149826	-0.00208958	
2.01472	-1.54981	-0.0095098	
2.01971	-0.249667	-0.00343213	
2.01883	-0.349916	-0.00302885	
2.02002	-0.449529	-0.00506564	
2.00899	-1.94957	-0.0121837	
2.01781	-0.850025	0.000801128	
2.0191	-0.650378	-0.00398968	
2.01551	-1.35079	-0.00431302	
2.01683	-1.15076	-0.00272086	
2.0179	-0.949963	-0.00169534	
1.99506	-2.45018	-0.0262998	
2.00851	-2.0497	-0.0131432	
2.00326	-2.24854	-0.0225113	
2.01714	-1.2506	-0.00395403	
2.00055	-2.34891	-0.0257741	
2.01933	-0.750458	-0.00138075	
1.99058	-2.55199	-0.0244912	
2.02023	-0.550072	-0.00692971	
2.00518	-2.14925	-0.0154773	
2.01817	-1.05048	-0.00321957	
1.97551	-2.93476	0.0869277	
2.01338	-1.74994	-0.0137933	
1.97905	-2.75362	0.00126774	
2.01048	-1.8501	-0.0131512	
1.87472	2.94186	0.066205	
1.88674	2.35178	-0.0404799	
1.8977	1.6499	-0.0278129	
1.90129	1.44975	-0.0295817	
1.90232	0.149853	-0.0214535	
1.89974	1.54962	-0.0286243	
1.90383	0.249818	-0.0202839	
1.90299	0.449502	-0.0197927	