<VTKFile type="UnstructuredGrid" version="0.1" byte_order="LittleEndian">
	<UnstructuredGrid>
		<Piece NumberOfPoints="1500" NumberOfCells="1500">
			<CellData Scalars="scalars">
				<DataArray type="Float64" Name="Strength" NumberOfComponents="3" Format="ascii">
0.0168832	-0.0111697	0.0019994	
0.000906401	-0.0234758	0.00479196	
0.000592763	-0.0251931	0.00162241	
-0.000116546	-0.0264351	0.00174104	
-0.000682773	-0.0260657	0.000518617	
0.000335491	-0.0257776	0.00153079	
0.000836792	-0.026465	-0.000508838	
-0.00125481	-0.0257176	0.0012439	
-0.000231337	-0.0249741	0.00329631	
0.000191614	-0.0254699	0.00042547	
0.000811226	-0.0264122	-0.000353664	
0.000973315	-0.0254452	0.000596768	
0.000149548	-0.0267895	0.000870579	
0.000425815	-0.0262891	0.000869739	
0.00025874	-0.0260993	0.000662094	
-0.000550263	-0.021595	0.00695697	
0.000259106	-0.0252868	0.00355945	
0.000314523	-0.0239766	0.00472057	
-2.92377e-05	-0.0250215	0.00452989	
0.000250418	-0.0259185	0.000188276	
-4.28407e-05	-0.0202495	0.00833859	
-7.89477e-05	-0.0252137	0.000248153	
-0.000390075	-0.0259884	0.000280635	
0.0021455	-0.0134619	0.00830524	
0.000401068	-0.0261511	0.00110586	
0.00061547	-0.0157062	0.00920596	
0.00088155	-0.0249215	0.00184523	
0.000164836	-0.0267201	3.00632e-05	
0.000379383	-0.02559	0.00211589	
-0.00188607	-0.0174468	0.00983893	
-0.00010357	-0.0260261	0.000417121	
-0.00191974	-0.0180893	-0.00865525	
-0.000225668	-0.0254237	-0.00215234	
4.75685e-05	-0.026412	-0.00177057	
-0.00602607	-0.0140805	-0.00748128	
0.000263734	-0.0262261	-0.000110079	
-0.000298043	-0.0258668	-0.00164967	
-0.000652237	-0.0267033	0.000345248	
0.000316748	-0.0261576	-0.0003551	
0.000571674	-0.0265875	-0.000534703	
-0.000442735	-0.0247427	-0.00289459	
6.06745e-05	-0.0255568	-0.000525718	
-0.000674211	-0.0265669	0.000272205	
-0.00091033	-0.0255354	-0.000790954	
-0.000811041	-0.0261668	-0.000692122	
0.000384018	-0.026087	-0.00103139	
-0.000864971	-0.0217782	-0.00631378	
-0.000643956	-0.0247305	-0.00333139	
-0.000112242	-0.023414	-0.00450112	
-0.000492734	-0.0260746	-0.00118612	
0.000782146	-0.023182	-0.00587981	
8.40019e-05	-0.0260144	-0.000483254	
0.00129212	-0.0193978	-0.00947111	
0.000117071	-0.027095	-0.000256629	
0.000116649	-0.023992	-0.00435606	
-0.000139329	-0.0265924	-0.000956292	
-0.0135051	-0.0112656	-0.00260429	
-0.000633457	-0.0260075	-0.00200077	
0.000958038	-0.015013	-0.010423	
-4.16617e-05	-0.0252308	-0.00287462	
0.0185385	-9.95225e-06	-0.00335944	
0.00202108	-0.00424627	-0.000767562	
0.000349647	-0.00486926	5.3651e-05	
-0.000182595	-0.00491891	0.000519551	
-0.000155419	-0.00520847	0.000213631	
8.9687e-05	-0.00489353	0.000256293	
0.000894058	-0.00512714	-0.00093959	
-0.00109828	-0.00512733	0.00125987	
-0.000206207	-0.00462107	0.000818112	
-6.52987e-05	-0.00511209	0.00012608	
0.000512734	-0.00506718	-0.000552759	
0.000636762	-0.00507822	-0.000427364	
-4.81618e-05	-0.00504928	0.000198669	
0.000129302	-0.00510373	5.55637e-05	
3.02862e-05	-0.00507295	0.000100318	
0.00124003	-0.00382967	0.000321964	
0.000276425	-0.00453326	0.000446445	
0.000933976	-0.00424069	0.000150076	
0.000198681	-0.0044267	0.000777676	
1.84532e-05	-0.00496211	7.22633e-07	
0.00207921	-0.003605	2.05887e-05	
-1.80778e-05	-0.00503723	4.30356e-05	
2.14891e-05	-0.00523586	1.27427e-05	
0.00306257	-0.00189847	0.000359213	
7.7383e-05	-0.00513732	0.000186165	
0.00279032	-0.00250855	0.000322232	
0.000621461	-0.00475582	-0.000158084	
1.0046e-06	-0.00509913	2.78634e-06	
9.36359e-05	-0.00481079	0.000353445	
0.000254155	-0.00281688	0.00136991	
1.76535e-05	-0.00526636	0.000107587	
-0.00428342	-0.0033132	0.000775486	
-6.34834e-05	-0.00489198	-0.00039517	
0.000237209	-0.00494588	-0.000562808	
-0.00732073	-0.00189506	0.00109427	
0.000337545	-0.00525198	-0.000308366	
-6.59277e-05	-0.00490774	-0.000288851	
-0.000376346	-0.00520872	0.000449661	
0.00029405	-0.00516808	-0.00032263	
0.000361129	-0.00518474	-0.000434371	
-0.000664725	-0.00461212	-2.85898e-05	
-9.67659e-05	-0.00512013	9.69116e-06	
-0.000658814	-0.00518701	0.000682022	
-0.00052628	-0.00504082	0.000295121	
-0.000386426	-0.00509241	0.00017956	
0.000268228	-0.00503736	-0.000438204	
-0.00236059	-0.0040843	0.000652658	
-0.000818928	-0.0045331	9.58759e-06	
-0.000784703	-0.00430686	-0.000245836	
-8.26459e-05	-0.00513188	-0.000204309	
-0.000224848	-0.00394042	-0.000964753	
-2.12773e-05	-0.00505135	-7.09866e-05	
-0.000339216	-0.00320787	-0.00140009	
-9.24161e-06	-0.00516174	-4.90984e-05	
-0.000188906	-0.00429952	-0.000760974	
-2.58917e-05	-0.00505624	-0.000151292	
-0.0143342	-0.000548623	0.00292757	
-0.000622693	-0.00488789	0.000148206	
-0.00029426	-0.00225864	-0.00131608	
-0.000107904	-0.00471995	-0.000504381	
0.0192081	0.00384287	-0.00288346	
0.00225574	-0.00146092	-0.00167115	
0.000365845	-0.00211146	-0.000195988	
-0.000132258	-0.00216855	0.000316089	
-6.88025e-05	-0.00235293	0.000119413	
7.54598e-05	-0.00213563	8.66126e-05	
0.000953743	-0.00232147	-0.000992236	
-0.00113173	-0.00230904	0.00124135	
-0.000109905	-0.00197406	0.000399862	
-6.70944e-05	-0.0023046	0.00011802	
0.000512855	-0.00231304	-0.000560242	
0.000660354	-0.0022304	-0.00059111	
-1.75686e-05	-0.00226648	0.000115005	
0.000140426	-0.00227721	-3.78223e-05	
3.35732e-05	-0.00229274	5.32921e-05	
0.00146528	-0.00140771	-0.000684745	
0.000348431	-0.00191991	-1.10942e-05	
0.00107744	-0.0016885	-0.000576528	
0.000247532	-0.00186391	0.00022848	
1.27789e-05	-0.00226423	1.08132e-05	
0.00234303	-0.00116947	-0.00109956	
-1.80759e-06	-0.00230212	1.54353e-05	
9.03045e-05	-0.00236292	-4.52923e-05	
0.00320669	-0.000252194	-0.000241103	
7.3702e-05	-0.00227629	7.75173e-05	
0.00304888	-0.000601014	-0.000490688	
0.000651495	-0.00204853	-0.000484914	
-1.57843e-05	-0.00231292	7.76022e-06	
7.37893e-05	-0.00208651	0.000118054	
0.000320558	-0.00116714	0.000401425	
3.83759e-05	-0.00237263	4.51834e-05	
-0.00467691	-0.000523909	0.00186603	
-0.000104607	-0.00212603	-0.00012235	
0.000196512	-0.00217132	-0.000369578	
-0.00770313	0.000808112	0.00139209	
0.000361951	-0.00236768	-0.000347822	
-7.00587e-05	-0.00214433	-0.000104699	
-0.0003579	-0.00236391	0.000436437	
0.000288043	-0.00235663	-0.000321513	
0.000337856	-0.00235559	-0.000398535	
-0.000808473	-0.00196798	0.000491625	
-0.000145106	-0.00231862	7.95369e-05	
-0.000706968	-0.00234082	0.000740933	
-0.000543429	-0.00223062	0.000467583	
-0.000384468	-0.00227797	0.000290569	
0.00021704	-0.00229354	-0.000346042	
-0.00264624	-0.00133031	0.00179968	
-0.000913467	-0.0019042	0.000534721	
-0.000965028	-0.00173734	0.000501109	
-6.70604e-05	-0.00227595	-8.45024e-05	
-0.000305888	-0.00163242	-0.000236029	
-5.43013e-05	-0.00229565	-2.80619e-05	
-0.000395075	-0.00130484	-0.000388936	
-2.59554e-05	-0.00234099	-1.21702e-05	
-0.000212567	-0.00182068	-0.00022539	
-4.61513e-05	-0.002273	-6.95029e-05	
-0.0148921	0.00269724	0.00237862	
-0.00068998	-0.00211388	0.000474545	
-0.000278046	-0.000948292	-0.000412096	
-0.000144175	-0.00204668	-0.000156546	
0.0200651	0.00567248	-0.00144465	
0.0026286	-0.00137747	-0.00185425	
0.000520647	-0.00236367	-0.000286401	
-3.6606e-05	-0.0024535	0.000217101	
-3.34828e-05	-0.00261293	5.35646e-05	
0.000137232	-0.00241114	5.19523e-05	
0.00105443	-0.00257294	-0.000965422	
-0.00122267	-0.00257227	0.00117805	
3.8228e-05	-0.00222844	0.000261851	
-7.11179e-05	-0.00259459	0.000108934	
0.000567641	-0.0025931	-0.000528156	
0.000785043	-0.00247801	-0.000611703	
3.10173e-05	-0.00255897	6.3708e-05	
0.000185766	-0.00255201	-6.99179e-05	
5.63055e-05	-0.00258006	4.07156e-05	
0.0016981	-0.00142485	-0.000946354	
0.00047231	-0.00212937	-0.000128132	
0.00128922	-0.00180192	-0.000734264	
0.000335529	-0.0020811	0.000132566	
1.47579e-05	-0.00255324	3.51727e-06	
0.00261769	-0.00109926	-0.00127324	
9.01154e-06	-0.00257564	1.05738e-05	
0.000118596	-0.00260941	-7.4595e-05	
0.00346365	-0.000112501	-0.000207975	
0.000106336	-0.00254047	4.90806e-05	
0.00334605	-0.000534984	-0.000544711	
0.000752108	-0.00227585	-0.000552726	
-1.24903e-05	-0.00258075	1.51766e-05	
0.000156871	-0.00233887	5.88247e-05	
0.00041746	-0.00131233	0.000391272	
5.27912e-05	-0.00261467	3.47722e-05	
-0.00515427	-0.000278185	0.00200085	
-0.000242371	-0.00238082	-1.16274e-05	
9.89441e-05	-0.00245167	-0.000272672	
-0.00824168	0.00142153	0.0012896	
0.000403745	-0.00261485	-0.000333645	
-0.00014327	-0.00241253	-6.86017e-05	
-0.000389149	-0.00262071	0.000394808	
0.000305234	-0.00261269	-0.000298332	
0.000352211	-0.00261151	-0.000363139	
-0.00100853	-0.00215356	0.000678687	
-0.000185428	-0.00259846	0.000103863	
-0.00079065	-0.0025923	0.000720336	
-0.000665562	-0.00248478	0.00049637	
-0.000463209	-0.00254488	0.000313716	
0.00018209	-0.00258484	-0.000284223	
-0.00305299	-0.00118869	0.0020055	
-0.0010955	-0.00204674	0.000692435	
-0.0012252	-0.00185346	0.000715751	
-0.000107068	-0.00253996	-5.64595e-05	
-0.000387602	-0.00185564	-9.93416e-05	
-7.4563e-05	-0.00257046	1.44054e-06	
-0.000506741	-0.00148498	-0.000336075	
-3.82253e-05	-0.00259831	3.73847e-06	
-0.000286314	-0.0020516	-0.000122169	
-7.82379e-05	-0.00256021	-4.48422e-05	
-0.0154655	0.00424833	0.00130912	
-0.000813418	-0.00231507	0.000566672	
-0.000368971	-0.00107906	-0.000429391	
-0.000199017	-0.00227523	-0.000111928	
0.0209399	0.00604701	-0.00120853	
0.00287489	-0.00115668	-0.00178089	
0.000575696	-0.00207183	-0.000374541	
-1.01227e-05	-0.00216664	0.000124076	
-2.93614e-05	-0.0023421	2.63377e-05	
0.00011737	-0.00212668	1.63711e-05	
0.00107761	-0.00230445	-0.000967631	
-0.00125641	-0.00230928	0.00115219	
0.000129729	-0.00195308	4.58411e-05	
-6.64837e-05	-0.00230268	8.6322e-05	
0.000607203	-0.00231461	-0.000538072	
0.000828228	-0.00217721	-0.00065452	
5.66977e-05	-0.00226519	8.58873e-06	
0.000197983	-0.00225544	-0.000109264	
4.96856e-05	-0.00228466	1.45442e-05	
0.00179232	-0.00122079	-0.00092105	
0.000487728	-0.00184822	-0.000186613	
0.00134642	-0.00153959	-0.000739979	
0.000252908	-0.0018125	7.98591e-05	
1.82281e-05	-0.00227541	-6.8286e-06	
0.00273639	-0.000941784	-0.00129126	
7.21011e-06	-0.00230773	2.97612e-06	
0.000110476	-0.00233908	-7.65511e-05	
0.00361994	9.42297e-05	-0.000230469	
9.22529e-05	-0.00224607	1.18672e-05	
0.00352128	-0.00035189	-0.000622031	
0.000888561	-0.00194234	-0.00066179	
-1.83179e-07	-0.00231188	9.51593e-06	
0.00012712	-0.00205593	5.99562e-06	
0.000324476	-0.00111418	0.000371177	
2.7563e-05	-0.0023453	3.91658e-05	
-0.00552344	-0.000157142	0.00200505	
-0.00027724	-0.00209013	8.73739e-05	
6.58937e-05	-0.00216534	-0.000173104	
-0.00870008	0.00177011	0.00118943	
0.000400525	-0.00234513	-0.000318844	
-0.000119686	-0.00212539	-2.60262e-05	
-0.000409106	-0.00234847	0.000392297	
0.000306864	-0.00233851	-0.000280363	
0.000363765	-0.00233731	-0.000341352	
-0.00118238	-0.0018086	0.000830463	
-0.000195327	-0.00230371	0.000128412	
-0.000815582	-0.00231654	0.000721674	
-0.00071532	-0.00217773	0.000549587	
-0.000493672	-0.00224365	0.000360116	
0.000184586	-0.00228986	-0.000235141	
-0.00335374	-0.00106146	0.0019158	
-0.00116265	-0.00174787	0.000764389	
-0.00135089	-0.0015827	0.000793341	
-9.91589e-05	-0.00224501	-1.40354e-05	
-0.00028177	-0.00161486	-8.7983e-05	
-5.7027e-05	-0.00229128	7.30916e-06	
-0.000380507	-0.00128079	-0.000333249	
-3.19887e-05	-0.00232634	4.60145e-06	
-0.000223855	-0.00178913	-7.13865e-05	
-7.10712e-05	-0.00226825	-1.32625e-05	
-0.0160535	0.00464782	0.000940172	
-0.000902391	-0.0019945	0.000631464	
-0.000305025	-0.00090733	-0.000397994	
-0.000200198	-0.00199078	-1.55913e-06	
0.0217678	0.0061214	-0.000519618	
0.0032816	-0.00100762	-0.00126702	
0.000668093	-0.00177456	-0.000336624	
2.33322e-05	-0.00187398	7.09544e-05	
-2.68668e-05	-0.00207864	2.38848e-05	
7.51305e-05	-0.00182967	4.47497e-05	
0.00119071	-0.00205286	-0.00084009	
-0.00139934	-0.00205442	0.000987481	
0.000190269	-0.00165	6.19735e-06	
-9.01099e-05	-0.00204971	7.95466e-05	
0.000692933	-0.00205614	-0.000461932	
0.000943155	-0.00191412	-0.000577429	
5.54801e-05	-0.00202592	6.53862e-06	
0.000210822	-0.00201938	-9.59764e-05	
2.71534e-05	-0.00203742	2.18272e-05	
0.00198714	-0.00104245	-0.000604143	
0.000529127	-0.00155392	-0.000138787	
0.00149097	-0.00129841	-0.000469314	
0.000180054	-0.00152183	0.00013433	
1.60172e-05	-0.00202586	-3.11974e-06	
0.00301517	-0.000785398	-0.000849254	
4.19238e-06	-0.00205907	1.45169e-06	
0.000107108	-0.00207378	-5.78865e-05	
0.00376036	0.000239319	-9.10444e-05	
6.55349e-05	-0.00200224	2.66634e-05	
0.00371121	-0.00020917	-0.000416106	
0.000999748	-0.00165542	-0.000539411	
-2.17119e-06	-0.00205339	4.7743e-06	
8.81026e-05	-0.0017502	3.01897e-05	
0.000221066	-0.000904999	0.000409119	
3.44986e-06	-0.00207926	4.7023e-05	
-0.006004	-8.28053e-05	0.00144741	
-0.00032506	-0.00178277	8.04845e-05	
3.80894e-05	-0.00186953	-0.000107121	
-0.0091371	0.0019207	0.00089193	
0.000430543	-0.00208303	-0.000261875	
-8.0781e-05	-0.00182459	-5.59673e-05	
-0.000466808	-0.00208565	0.000341428	
0.000329655	-0.00208142	-0.000225965	
0.00040498	-0.00207388	-0.000281691	
-0.00135504	-0.00154427	0.000700982	
-0.000206196	-0.00204552	0.000101721	
-0.000914094	-0.00205622	0.000603983	
-0.000814656	-0.00190821	0.000493108	
-0.000541763	-0.00200613	0.000308702	
0.000227143	-0.00203195	-0.00020482	
-0.00381876	-0.000909938	0.00137941	
-0.00128535	-0.00146731	0.000632579	
-0.00157974	-0.00132234	0.000569188	
-7.09259e-05	-0.00199422	-2.34334e-05	
-0.000187922	-0.00134778	-0.00018066	
-4.21364e-05	-0.00203343	-9.48164e-06	
-0.000249014	-0.00104954	-0.000392848	
-2.26047e-05	-0.00206037	-4.30803e-06	
-0.00015882	-0.00150491	-0.000109107	
-4.06061e-05	-0.00202193	-2.6877e-05	
-0.0166478	0.00463309	0.00058886	
-0.000983433	-0.00170143	0.000524572	
-0.000214694	-0.000744725	-0.000391874	
-0.000134932	-0.00168883	-6.29758e-05	
0.0225503	0.00594581	-3.28962e-06	
0.00347457	-0.00084938	-0.00124259	
0.000780017	-0.00156555	-0.000296749	
0.000106209	-0.00165938	2.7498e-05	
-3.40898e-05	-0.00188194	2.63485e-05	
6.60359e-05	-0.00161961	5.71818e-05	
0.00130175	-0.00187332	-0.000675709	
-0.00150744	-0.00187457	0.000805157	
0.000285303	-0.00145187	-1.24881e-05	
-8.36279e-05	-0.00183872	5.73002e-05	
0.000770211	-0.00185664	-0.000396042	
0.00106785	-0.00169833	-0.000492422	
8.15367e-05	-0.00181765	-2.7407e-06	
0.000247542	-0.00180434	-8.05211e-05	
2.9465e-05	-0.0018254	2.14195e-05	
0.00209368	-0.000889038	-0.000596365	
0.000575254	-0.00136213	-0.000116844	
0.00156453	-0.00112525	-0.000476167	
0.000154269	-0.00133584	0.0001441	
1.4997e-05	-0.00182841	-8.7338e-07	
0.00314239	-0.000652189	-0.00085581	
2.84983e-06	-0.00187383	8.25595e-06	
0.000110376	-0.00187438	-3.8145e-05	
0.00389503	0.000283879	-3.87239e-05	
5.58716e-05	-0.00178328	3.9464e-05	
0.00386603	-8.20247e-05	-0.000415649	
0.00109403	-0.00146323	-0.000460413	
2.53141e-06	-0.00186027	3.83225e-06	
7.13423e-05	-0.00154583	5.54169e-05	
0.000189319	-0.000795121	0.000370747	
-1.07022e-05	-0.00187823	5.31129e-05	
-0.00628353	5.78405e-05	0.00148001	
-0.000399195	-0.00157876	8.04661e-05	
-3.69241e-05	-0.00166067	-6.13703e-05	
-0.00955851	0.00186012	0.000648421	
0.000467271	-0.00188518	-0.000209927	
-7.11578e-05	-0.00161971	-6.37807e-05	
-0.000512356	-0.00189404	0.000285833	
0.0003486	-0.00188979	-0.000183988	
0.000415927	-0.00188576	-0.000231664	
-0.00153431	-0.00136652	0.000612134	
-0.000243678	-0.00183683	9.00735e-05	
-0.000996912	-0.00185912	0.000502514	
-0.00093463	-0.00169598	0.000422384	
-0.000619278	-0.00179458	0.000271245	
0.000240677	-0.00182441	-0.000175833	
-0.0040319	-0.000761873	0.00139537	
-0.00139941	-0.00129752	0.000502577	
-0.00171754	-0.00114461	0.000591285	
-6.17188e-05	-0.00178182	-3.87396e-05	
-0.000161804	-0.00118101	-0.000179932	
-3.21331e-05	-0.00183582	-2.20158e-05	
-0.000210708	-0.000923062	-0.000362896	
-1.80254e-05	-0.00186496	-1.24898e-05	
-0.00013719	-0.00132411	-0.000126078	
-3.84742e-05	-0.00181905	-3.25057e-05	
-0.0172031	0.00447744	0.000115066	
-0.00106775	-0.00151164	0.000418104	
-0.000178057	-0.000653947	-0.000360506	
-0.000109875	-0.00149912	-8.62629e-05	
0.0232646	0.00598324	-1.20529e-05	
0.00385971	-0.000992149	-0.00134852	
0.000850058	-0.00171282	-0.000305706	
0.000207276	-0.00180815	-7.87685e-06	
-1.62265e-05	-0.00194557	1.91753e-05	
7.53975e-05	-0.00175882	7.05681e-05	
0.00130589	-0.00193116	-0.000668115	
-0.00155609	-0.00196648	0.000826831	
0.000346899	-0.00167069	-8.90829e-06	
-8.70148e-05	-0.00195704	6.28125e-05	
0.000812533	-0.00196586	-0.000413551	
0.00111617	-0.0018347	-0.00049884	
0.00014295	-0.00192898	-2.92124e-05	
0.000261389	-0.00189572	-8.04393e-05	
3.26581e-05	-0.00194776	2.56811e-05	
0.00228644	-0.000982145	-0.000623328	
0.000628431	-0.00161898	-9.37294e-05	
0.00168088	-0.00140087	-0.000460532	
0.000189877	-0.00160944	0.000188838	
1.69061e-05	-0.00192982	2.20593e-06	
0.00332313	-0.000694322	-0.000873038	
3.63173e-06	-0.00194175	8.69321e-06	
0.000107453	-0.0019435	-3.37423e-05	
0.00405432	0.000313086	-5.78792e-05	
6.1159e-05	-0.00189294	4.69394e-05	
0.00404785	-4.40458e-05	-0.000450502	
0.0011419	-0.00165129	-0.000454421	
4.10057e-06	-0.00197871	4.99752e-06	
8.31686e-05	-0.00171202	7.22396e-05	
0.000197961	-0.000826963	0.000391556	
-2.05786e-05	-0.0019399	6.09732e-05	
-0.00660738	0.0001239	0.00158808	
-0.000460292	-0.00174096	8.32017e-05	
-0.000135023	-0.00182847	-2.85515e-05	
-0.00994241	0.00193022	0.000658657	
0.000469809	-0.00193934	-0.000207726	
-8.20446e-05	-0.00177389	-8.22727e-05	
-0.000508796	-0.00194027	0.000283338	
0.000380425	-0.00194251	-0.000199813	
0.000425996	-0.00197616	-0.000237017	
-0.0016202	-0.00161344	0.000610306	
-0.000254102	-0.00196742	8.83937e-05	
-0.00102927	-0.00197918	0.000511298	
-0.000977525	-0.00184693	0.000424024	
-0.00067641	-0.00189578	0.000289517	
0.000220241	-0.00195587	-0.000169721	
-0.0043535	-0.000827123	0.00147927	
-0.00150085	-0.00157126	0.00049114	
-0.0020253	-0.00131095	0.000684658	
-6.77635e-05	-0.00189861	-4.82497e-05	
-0.000185899	-0.00132355	-0.000214354	
-3.46888e-05	-0.00194528	-2.58887e-05	
-0.000225025	-0.000968856	-0.000385325	
-2.02748e-05	-0.0019818	-1.48864e-05	
-0.000170575	-0.00160527	-0.000166947	
-4.26738e-05	-0.0019422	-3.90356e-05	
-0.017715	0.00442186	0.000126127	
-0.00111156	-0.00169793	0.000406794	
-0.000185442	-0.000666511	-0.000362746	
-0.000129616	-0.00170434	-0.000113559	
0.0238888	0.00615319	3.24133e-06	
0.00409544	-0.000835257	-0.00146392	
0.00101037	-0.00181972	-0.000363111	
0.000277221	-0.00194052	-2.86938e-05	
3.79921e-05	-0.00219961	-6.67183e-06	
8.59576e-05	-0.00190612	8.50633e-05	
0.001309	-0.00219316	-0.000655985	
-0.00147723	-0.00218583	0.000775653	
0.000555672	-0.00164885	-0.000102647	
-4.91203e-05	-0.00211329	4.52962e-05	
0.000815899	-0.0021159	-0.000409844	
0.00114518	-0.00195019	-0.000497779	
0.000192006	-0.00206237	-5.00183e-05	
0.000324505	-0.0020454	-0.000105476	
3.64077e-05	-0.00208526	2.86407e-05	
0.00243612	-0.000872072	-0.00068438	
0.000686139	-0.00149278	-0.000128211	
0.00175188	-0.00121163	-0.000523579	
0.000176007	-0.00144975	0.000173573	
1.96919e-05	-0.00210496	2.78e-06	
0.00346995	-0.000602825	-0.000927464	
4.84039e-06	-0.0021994	1.11742e-05	
0.000116594	-0.00223611	-3.39679e-05	
0.00418001	0.000437297	-0.000110853	
6.6323e-05	-0.00199622	5.11146e-05	
0.00420685	9.21845e-05	-0.000525068	
0.00120282	-0.00168359	-0.000464181	
4.87796e-06	-0.00212141	5.43728e-06	
9.11337e-05	-0.00176938	8.32357e-05	
0.000189327	-0.000769132	0.000354651	
-6.30828e-05	-0.00224192	9.28056e-05	
-0.00690066	0.000299955	0.00172351	
-0.000627415	-0.00183358	0.000147507	
-0.000251589	-0.0019737	1.51895e-05	
-0.0102665	0.00214309	0.000710377	
0.00046737	-0.002207	-0.000198796	
-9.41224e-05	-0.00192833	-9.73719e-05	
-0.000480811	-0.00220258	0.000266887	
0.000367997	-0.0022237	-0.000190838	
0.000366238	-0.002216	-0.000204275	
-0.00185544	-0.00156143	0.000711716	
-0.000299583	-0.00213863	0.000104556	
-0.00103592	-0.00214773	0.000505774	
-0.000980566	-0.00202047	0.000404021	
-0.000749147	-0.00206893	0.000315016	
0.000188929	-0.00211623	-0.000158369	
-0.00463091	-0.00068292	0.00160638	
-0.0015983	-0.00142493	0.000545468	
-0.00220124	-0.00118864	0.000779327	
-7.52464e-05	-0.00203705	-5.49285e-05	
-0.000180071	-0.00124199	-0.000203052	
-3.97469e-05	-0.00213792	-2.97579e-05	
-0.000217223	-0.00090698	-0.000353953	
-2.31094e-05	-0.00215607	-1.57343e-05	
-0.000156096	-0.00142899	-0.000153545	
-4.78934e-05	-0.00209629	-4.42897e-05	
-0.01814	0.00455142	-5.05519e-05	
-0.00116376	-0.00174362	0.000414323	
-0.000175656	-0.00061254	-0.000326846	
-0.000137931	-0.00173499	-0.000124382	
0.0243811	0.0064197	-0.000159698	
0.00424152	-0.00051382	-0.0015831	
0.0010295	-0.00140821	-0.000396831	
0.000323911	-0.00143212	-7.83417e-05	
4.81114e-05	-0.00160095	-1.54492e-05	
6.75681e-05	-0.00143416	6.74453e-05	
0.00134962	-0.00155215	-0.000680087	
-0.00151269	-0.00151808	0.00078955	
0.00062053	-0.00122273	-0.000172615	
-3.0718e-05	-0.00148685	3.09743e-05	
0.000872626	-0.001553	-0.000442234	
0.00112587	-0.00147901	-0.000504144	
0.000195887	-0.0014556	-6.63212e-05	
0.000274518	-0.00145521	-9.65548e-05	
2.63142e-05	-0.00146603	2.1647e-05	
0.00252164	-0.000612171	-0.000781247	
0.000702733	-0.00117296	-0.000176026	
0.00182057	-0.000892663	-0.000612873	
0.000142743	-0.00115662	0.000137256	
1.48588e-05	-0.00148043	2.12293e-06	
0.00354801	-0.000370356	-0.00103529	
3.84585e-06	-0.00152054	7.88296e-06	
0.000127887	-0.00156352	-4.82283e-05	
0.00426895	0.000594521	-0.000201932	
5.07289e-05	-0.00149908	3.94154e-05	
0.0043066	0.000273552	-0.000627967	
0.00131469	-0.00124492	-0.000540864	
3.36475e-06	-0.00154851	5.41775e-06	
7.66938e-05	-0.00141058	6.99113e-05	
0.000155452	-0.000619792	0.000277534	
-2.60066e-05	-0.00158024	5.34034e-05	
-0.00712525	0.000510031	0.00185553	
-0.000694082	-0.00152687	0.000203535	
-0.000314694	-0.00160108	6.34113e-05	
-0.0105364	0.0023833	0.000784334	
0.000465598	-0.00163157	-0.000210739	
-7.95622e-05	-0.00155505	-8.02639e-05	
-0.000512012	-0.00163626	0.000278567	
0.00036407	-0.00160485	-0.000190074	
0.000410269	-0.00160606	-0.000225044	
-0.00191581	-0.00121465	0.000769731	
-0.000302836	-0.00162196	0.000116874	
-0.00105457	-0.00166497	0.000522708	
-0.00100094	-0.00161299	0.000428059	
-0.000689018	-0.00161754	0.000297373	
0.000199558	-0.00161571	-0.000150889	
-0.00488271	-0.000481447	0.00174021	
-0.00160947	-0.0011996	0.000577779	
-0.00238753	-0.00111492	0.000868629	
-6.22865e-05	-0.00167359	-4.6426e-05	
-0.000161384	-0.00109198	-0.000176726	
-3.16522e-05	-0.00161123	-2.20999e-05	
-0.000190279	-0.000781033	-0.000294037	
-1.80649e-05	-0.0016457	-1.25242e-05	
-0.000141934	-0.00128206	-0.000136004	
-3.83196e-05	-0.00162138	-3.48888e-05	
-0.0185058	0.00472659	8.1668e-06	
-0.00125981	-0.00143897	0.00048625	
-0.000159017	-0.000537855	-0.000280739	
-0.000113575	-0.00137205	-9.94537e-05	
0.0249701	0.00654371	-0.000349882	
0.00435924	-0.000655908	-0.00158625	
0.00122957	-0.00137274	-0.000487689	
0.000365417	-0.00154764	-8.37221e-05	
5.93014e-05	-0.00135502	-2.17417e-05	
7.35593e-05	-0.00151182	7.71804e-05	
0.00133789	-0.00134842	-0.000664006	
-0.001584	-0.00140403	0.00081086	
0.000740336	-0.00123146	-0.000225205	
-5.57281e-05	-0.00151141	4.64075e-05	
0.000819006	-0.00148296	-0.000405626	
0.00113829	-0.0015256	-0.000496986	
0.000166407	-0.00153008	-4.62121e-05	
0.000281407	-0.00155343	-9.31316e-05	
2.84682e-05	-0.00151796	2.31513e-05	
0.00266369	-0.000710066	-0.000795149	
0.000744189	-0.00115407	-0.000196007	
0.00188785	-0.000910758	-0.000637833	
0.000141373	-0.00114236	0.000134341	
1.61897e-05	-0.0014835	4.69334e-06	
0.00370661	-0.000459895	-0.00104385	
3.7954e-06	-0.00138112	6.60412e-06	
0.000133075	-0.00135899	-5.55147e-05	
0.00441484	0.000598608	-0.000216567	
5.31317e-05	-0.00155708	4.43015e-05	
0.00447798	0.000265226	-0.00066781	
0.00135883	-0.0012485	-0.00055334	
3.06448e-06	-0.00143578	5.21829e-06	
7.49231e-05	-0.00133256	6.94233e-05	
0.000183924	-0.000726019	0.000312153	
-3.38121e-05	-0.00136577	4.6935e-05	
-0.0073497	0.000625578	0.00196824	
-0.00081401	-0.00117799	0.000289917	
-0.000374049	-0.0012598	0.000107453	
-0.0108178	0.00254909	0.000878756	
0.000473422	-0.00136633	-0.000219291	
-6.69667e-05	-0.00126419	-6.77195e-05	
-0.000505239	-0.00137487	0.000267071	
0.000395169	-0.00138489	-0.00020475	
0.000447764	-0.00141672	-0.000242114	
-0.00201662	-0.000941527	0.000836868	
-0.000357265	-0.00152064	0.00014381	
-0.000962943	-0.00149512	0.000469299	
-0.00104706	-0.00131331	0.00045752	
-0.00076385	-0.0014309	0.000337997	
0.000168144	-0.0014931	-0.000130274	
-0.00500648	-0.000363792	0.00181553	
-0.00164821	-0.000900252	0.000631346	
-0.00238084	-0.000722886	0.00093365	
-5.08827e-05	-0.00139314	-3.97381e-05	
-0.000136452	-0.000916487	-0.000143796	
-3.11957e-05	-0.00152998	-2.18007e-05	
-0.000182843	-0.000747697	-0.000271556	
-1.62727e-05	-0.00144885	-1.22905e-05	
-0.000105393	-0.000956737	-9.99892e-05	
-3.5338e-05	-0.00146471	-3.21995e-05	
-0.0188479	0.00486199	0.000101508	
-0.00127603	-0.001092	0.000519643	
-0.000157166	-0.000522083	-0.000261249	
-9.34304e-05	-0.00110782	-8.07484e-05	
0.0254557	0.00669127	-0.000575222	
0.0045171	-0.000451236	-0.00168665	
0.00132629	-0.00133754	-0.000527284	
0.000424881	-0.0013987	-0.000118101	
0.000156501	-0.00185837	-6.73782e-05	
6.83881e-05	-0.0013834	7.19816e-05	
0.00136085	-0.00179027	-0.000657563	
-0.0015488	-0.00173663	0.000780108	
0.000887157	-0.00112133	-0.00030306	
0.000103364	-0.00161829	-2.74362e-05	
0.000856515	-0.00173057	-0.000414178	
0.00115264	-0.00142743	-0.000496354	
0.000215492	-0.0015313	-6.63002e-05	
0.000343645	-0.00152155	-0.000122129	
3.04911e-05	-0.00156464	2.54788e-05	
0.00275263	-0.000530235	-0.000873167	
0.000747412	-0.00105447	-0.000208685	
0.00193502	-0.000838569	-0.000669634	
0.000131351	-0.00107116	0.000124263	
1.86922e-05	-0.00170021	1.00222e-05	
0.00376669	-0.000275101	-0.00114027	
5.45079e-06	-0.00178337	8.70606e-06	
0.000134623	-0.00187332	-5.03007e-05	
0.00449444	0.000722034	-0.000310908	
4.99177e-05	-0.00146858	4.65281e-05	
0.00457214	0.000419502	-0.000776892	
0.00143026	-0.00117928	-0.000580949	
4.5261e-06	-0.00174446	7.74326e-06	
7.42615e-05	-0.00129776	6.9447e-05	
0.000150942	-0.000599079	0.000244412	
-7.54948e-05	-0.00186966	7.88544e-05	
-0.00756783	0.000732758	0.00207486	
-0.000957151	-0.00143416	0.000331393	
-0.00034709	-0.00148223	7.75503e-05	
-0.0110818	0.00264195	0.000985455	
0.000407154	-0.00183265	-0.000175093	
-7.91979e-05	-0.00148577	-8.06766e-05	
-0.000522256	-0.00176751	0.000270849	
0.000311188	-0.00174693	-0.000158798	
0.000433667	-0.00166961	-0.000233632	
-0.00218517	-0.00110332	0.000885227	
-0.000502367	-0.00146714	0.000211997	
-0.00105874	-0.00161457	0.000506718	
-0.00102768	-0.0014312	0.000431625	
-0.000772144	-0.00143621	0.000335246	
0.000162572	-0.00143625	-0.000126232	
-0.00534851	-0.000354849	0.00194573	
-0.00169254	-0.0010621	0.000620734	
-0.00246097	-0.000917636	0.000928683	
-5.13125e-05	-0.00143271	-4.46564e-05	
-0.000161713	-0.00109784	-0.000167789	
-3.36964e-05	-0.00155645	-2.36564e-05	
-0.00017738	-0.000734523	-0.000255041	
-1.93702e-05	-0.00165407	-1.5466e-05	
-0.000125486	-0.00115612	-0.000118867	
-3.50124e-05	-0.00143462	-3.21888e-05	
-0.0192195	0.00493097	0.000227438	
-0.00136502	-0.00131788	0.000532719	
-0.000154956	-0.000509565	-0.000243475	
-0.00011046	-0.00130208	-9.44355e-05	
0.0258322	0.00679852	-0.000850702	
0.00445589	-8.12272e-05	-0.00172897	
0.00132536	-0.000808157	-0.000557414	
0.000583622	-0.000899003	-0.00022373	
6.5747e-05	-0.00118879	-2.57421e-05	
4.2331e-05	-0.000866156	4.46701e-05	
0.00140163	-0.00123965	-0.000671665	
-0.00157094	-0.00127685	0.000775608	
0.000889604	-0.000759905	-0.000334783	
0.000104698	-0.0011642	-3.36863e-05	
0.000933602	-0.0011841	-0.00045114	
0.00125094	-0.00100858	-0.000552445	
0.000250385	-0.00114342	-9.32981e-05	
0.000321939	-0.00111616	-0.000122366	
2.3097e-05	-0.00115437	1.96651e-05	
0.00282205	-0.000313533	-0.000950746	
0.000806155	-0.000732914	-0.000275288	
0.00196972	-0.000430648	-0.000751081	
8.15689e-05	-0.000685084	7.72601e-05	
1.3439e-05	-0.00115177	8.43373e-06	
0.00381096	-7.78732e-05	-0.00123229	
4.10822e-06	-0.00121771	6.14215e-06	
0.00013373	-0.00116341	-5.50502e-05	
0.00454362	0.000847614	-0.000418691	
3.7988e-05	-0.00113625	3.66466e-05	
0.00462361	0.000566955	-0.000903142	
0.0014913	-0.000732076	-0.000630651	
3.75093e-06	-0.00122562	7.73575e-06	
4.86336e-05	-0.000857805	4.51955e-05	
0.000109286	-0.00044249	0.000170821	
-5.81249e-05	-0.00117039	5.41978e-05	
-0.00766563	0.000945256	0.00223188	
-0.000933593	-0.000834165	0.000370115	
-0.00048853	-0.000912452	0.000181831	
-0.0112485	0.00278715	0.00117543	
0.000485339	-0.00120033	-0.000220781	
-4.62837e-05	-0.000879455	-4.71085e-05	
-0.000560401	-0.00127776	0.000284674	
0.000361856	-0.00124449	-0.000182104	
0.000377803	-0.00129506	-0.000199647	
-0.00221989	-0.000660364	0.000934277	
-0.000522172	-0.00115162	0.000224624	
-0.00114659	-0.00117941	0.000547764	
-0.00111727	-0.00101077	0.000489894	
-0.000766503	-0.00110223	0.000337346	
0.000151597	-0.00114473	-0.000109866	
-0.00535137	-5.91369e-06	0.00204562	
-0.00176297	-0.000649306	0.000697517	
-0.00251542	-0.000411912	0.00103253	
-3.92924e-05	-0.00113473	-3.57866e-05	
-8.25598e-05	-0.000574714	-8.49554e-05	
-2.56654e-05	-0.00115149	-1.83134e-05	
-0.000117633	-0.000501471	-0.000164519	
-1.53635e-05	-0.00123584	-1.16905e-05	
-7.12987e-05	-0.000675089	-6.70308e-05	
-2.76423e-05	-0.00113001	-2.58585e-05	
-0.019497	0.00500369	0.000483539	
-0.00140983	-0.000820196	0.00059127	
-0.000111136	-0.000365669	-0.000161379	
-6.79586e-05	-0.000809708	-5.85074e-05	
0.0264195	0.00670719	-0.00116933	
0.00460511	-0.000370697	-0.0017145	
0.0014107	-0.00122191	-0.000552997	
0.000651478	-0.001283	-0.000229083	
-2.08362e-05	-0.00148799	1.75179e-05	
6.11991e-05	-0.00128037	6.43328e-05	
0.00139546	-0.0015308	-0.000650089	
-0.00148031	-0.00151091	0.00071561	
0.00116613	-0.00113735	-0.00042135	
7.43917e-05	-0.00147512	-1.28659e-05	
0.00097765	-0.00145011	-0.000458442	
0.00131119	-0.00130085	-0.000554361	
0.000255821	-0.00148794	-8.60919e-05	
0.000446631	-0.00146858	-0.000167751	
2.90324e-05	-0.0014646	2.38504e-05	
0.00288293	-0.000505748	-0.000915184	
0.000885524	-0.000987687	-0.000276648	
0.00208312	-0.000726668	-0.00074325	