<VTKFile type="UnstructuredGrid" version="0.1" byte_order="LittleEndian">
	<UnstructuredGrid>
		<Piece NumberOfPoints="360" NumberOfCells="360">
			<CellData Scalars="scalars">
				<DataArray type="Float64" Name="Strength" NumberOfComponents="3" Format="ascii">
0.0165198	-0.0117608	-0.00169125	
0.00230232	-0.0239142	0.000331769	
0.000325707	-0.0253053	9.98125e-05	
-0.000509465	-0.0265409	0.000245405	
-0.000369024	-0.0261256	9.45254e-05	
5.8109e-05	-0.0258796	0.000122283	
0.00130557	-0.0264972	-0.000319665	
-0.00160427	-0.0257704	0.000464356	
-0.000400386	-0.0252396	0.000391202	
5.66536e-05	-0.0255184	8.53976e-06	
0.000703069	-0.0264643	-0.000226237	
0.000809924	-0.0255065	-0.000240455	
-6.71829e-05	-0.0268511	1.63921e-06	
0.000193214	-0.0263524	4.15352e-05	
7.91452e-05	-0.0261544	-2.47624e-05	
0.00117834	-0.022694	0.000957385	
0.000468527	-0.0255875	0.000298151	
0.00105387	-0.0244679	0.000397748	
0.000305897	-0.0254786	0.000513548	
7.42996e-05	-0.0259662	7.6729e-07	
0.00210167	-0.0218226	0.0010663	
-9.39783e-06	-0.0252592	1.98292e-05	
3.60547e-05	-0.0260415	4.33528e-05	
0.00274809	-0.0156964	0.00147491	
4.50965e-05	-0.0262265	8.17034e-05	
0.00243447	-0.0180314	0.00153971	
0.000838706	-0.0250454	-0.00013558	
4.30797e-05	-0.0267687	-6.21572e-05	
0.000102635	-0.0257355	0.000153176	
0.000229212	-0.020075	0.0019121	
7.67275e-05	-0.026078	0.000156645	
-0.00387698	-0.0197959	-0.000894763	
-3.26814e-05	-0.0255702	-0.000313783	
0.0005029	-0.0265199	-0.000185659	
-0.00644787	-0.0158069	-0.000586059	
0.000540546	-0.0262704	-6.21745e-05	
-8.78156e-05	-0.0259755	-0.000123535	
-0.000566377	-0.0267555	0.000157949	
0.000407409	-0.0262039	-9.57316e-05	
0.000553371	-0.02664	-0.000135097	
-0.00064965	-0.0249607	-9.43131e-05	
-0.000167216	-0.0256062	-2.18636e-05	
-0.000985427	-0.0266053	0.000235798	
-0.00062486	-0.0256049	0.000216949	
-0.000616211	-0.0262267	9.20893e-05	
0.000357309	-0.0261535	-0.00010952	
-0.00251829	-0.0225936	-0.000563569	
-0.000900001	-0.0250008	-0.000110712	
-0.000661885	-0.0238837	-0.000365648	
-5.97416e-05	-0.0261548	-5.62493e-05	
-0.000198915	-0.0239625	-0.000845865	
-7.09558e-05	-0.0260639	-9.21435e-05	
-0.000301923	-0.0216122	-0.00165024	
-3.38256e-05	-0.0271457	-1.79961e-05	
-0.000115253	-0.0244344	-0.000474278	
-3.73732e-05	-0.0266566	-2.07292e-05	
-0.0130846	-0.0120126	0.00106669	
-0.000849488	-0.0261357	1.80674e-05	
-0.000388268	-0.0182109	-0.00221845	
-0.000166388	-0.0254491	-0.000247305	
0.0184115	-0.000674171	-0.00390503	
0.0023941	-0.00406462	-0.000760136	
0.000354712	-0.00487819	-0.000104807	
-0.000362216	-0.00494371	0.000162622	
-0.000188821	-0.00522025	6.98372e-05	
1.60393e-05	-0.00491082	1.81467e-05	
0.00127268	-0.00512158	-0.000494408	
-0.00154485	-0.00514485	0.000613391	
-0.000351814	-0.00469065	0.000190366	
-8.92981e-05	-0.00512136	4.22427e-05	
0.000694772	-0.00507728	-0.000280705	
0.000789534	-0.00507484	-0.000323338	
-9.04588e-05	-0.00506079	4.09053e-05	
0.000132753	-0.00511218	-3.48003e-05	
1.03287e-05	-0.0050822	3.57348e-06	
0.00129032	-0.00382586	-0.000281523	
0.000288925	-0.00456392	-4.07285e-05	
0.000994796	-0.00423119	-0.00026645	
6.81282e-05	-0.00450761	8.5381e-05	
1.4173e-05	-0.00497023	-2.62857e-06	
0.00222125	-0.00348716	-0.000562123	
-2.98788e-07	-0.00504563	5.84421e-07	
7.16853e-05	-0.00524448	-1.7496e-05	
0.00291257	-0.00208808	-0.000549711	
1.0341e-05	-0.00515029	1.70102e-05	
0.00271333	-0.00255586	-0.000587358	
0.000764257	-0.00473943	-0.000289654	
3.83823e-06	-0.00510769	-6.55916e-06	
2.28326e-05	-0.00483469	2.12909e-05	
8.61665e-05	-0.00313864	0.000266091	
1.03561e-05	-0.00527653	3.00142e-05	
-0.00439369	-0.00303356	0.00126248	
2.96541e-06	-0.00491829	-5.83081e-05	
0.000408534	-0.0049737	-0.00017492	
-0.00718219	-0.00191269	0.00181241	
0.000477181	-0.0052568	-0.000170571	
-1.78344e-05	-0.00492645	-2.04454e-05	
-0.000544896	-0.00521824	0.000214746	
0.000395888	-0.0051778	-0.000154384	
0.000498825	-0.00519714	-0.000192481	
-0.000758795	-0.00460079	0.000254858	
-0.000148628	-0.00512685	4.60673e-05	
-0.000929096	-0.005188	0.000365572	
-0.000642016	-0.00503887	0.00026533	
-0.000469992	-0.00509442	0.000165264	
0.000384227	-0.00505512	-0.000158118	
-0.00273976	-0.00382192	0.000839758	
-0.000927842	-0.00451237	0.000304753	
-0.00083137	-0.00430915	0.000225045	
-1.13553e-05	-0.00514562	-1.57165e-05	
-6.00869e-05	-0.00406928	-0.000125971	
-2.04743e-05	-0.00505994	-1.00389e-05	
-8.85074e-05	-0.00351557	-0.000250686	
-8.92665e-06	-0.00517068	-5.66747e-06	
-3.57375e-05	-0.00437928	-8.17168e-05	
-9.56916e-06	-0.0050669	-9.2776e-06	
-0.014294	-0.000844365	0.00303884	
-0.000767315	-0.00487298	0.000268815	
-0.000107206	-0.00261954	-0.000297957	
-3.75997e-05	-0.0047579	-3.62898e-05	
0.0193589	0.00036788	-0.00399789	
0.00254525	-0.00166962	-0.000941374	
0.000398183	-0.00211577	-0.000146419	
-0.000291268	-0.00217868	0.000125528	
-0.000139625	-0.00235759	5.10962e-05	
4.73825e-06	-0.00214414	6.21267e-06	
0.00129405	-0.00232759	-0.000517203	
-0.00156095	-0.00232998	0.000626031	
-0.000270991	-0.00200112	0.000123878	
-0.000112294	-0.00231023	4.77e-05	
0.000721383	-0.00231498	-0.000294374	
0.000832211	-0.00223439	-0.000342663	
-6.86777e-05	-0.0022732	2.83339e-05	
0.000131841	-0.0022825	-4.63169e-05	
3.88197e-06	-0.00229843	9.06794e-08	
0.00139815	-0.00157218	-0.000462176	
0.000295274	-0.0019321	-9.52325e-05	
0.00106137	-0.00176259	-0.000387728	
3.03732e-05	-0.00189906	2.4522e-05	
5.93296e-06	-0.00226904	-5.13424e-08	
0.00235423	-0.00140653	-0.000782025	
-1.42671e-07	-0.00230707	-3.94662e-07	
7.98962e-05	-0.00236888	-2.92866e-05	
0.00304034	-0.000762778	-0.0007629	
3.4324e-06	-0.00228399	7.69373e-06	
0.00287529	-0.000971514	-0.000846727	
0.000807685	-0.00203356	-0.00032578	
1.33484e-06	-0.00231803	-2.1555e-06	
8.32505e-06	-0.00209663	7.31812e-06	
3.9499e-05	-0.00127626	8.44894e-05	
-7.8889e-06	-0.00237861	1.76443e-05	
-0.00469065	-0.00113211	0.00158627	
-1.8058e-05	-0.00213756	-1.54833e-05	
0.000350133	-0.00218493	-0.000147326	
-0.00758497	-0.000544469	0.00203372	
0.000467368	-0.00237444	-0.000182012	
-5.72194e-06	-0.00215354	-7.52332e-06	
-0.000543604	-0.00236574	0.000220105	
0.000390793	-0.00236462	-0.000158322	
0.000482298	-0.0023629	-0.000194706	
-0.000890363	-0.00197283	0.000349114	
-0.000154433	-0.00232347	5.8147e-05	
-0.000949654	-0.0023514	0.00038694	
-0.000688154	-0.00222955	0.000284232	
-0.000465391	-0.00228041	0.00017957	
0.00036068	-0.00230267	-0.000146722	
-0.0029449	-0.00152912	0.00106157	
-0.000992944	-0.00191189	0.000381206	
-0.000977059	-0.00177578	0.000358522	
-3.24777e-06	-0.0022838	-8.32417e-06	
-2.53984e-05	-0.00168172	-3.74317e-05	
-9.62266e-06	-0.00230117	-3.74906e-06	
-3.97434e-05	-0.00141966	-8.04345e-05	
-4.57396e-06	-0.00234628	-9.63177e-07	
-1.35136e-05	-0.00185214	-2.18069e-05	
-3.68159e-06	-0.00227944	-2.84257e-06	
-0.0149888	0.000137646	0.00306289	
-0.000797488	-0.00211524	0.000312906	
-4.74502e-05	-0.00106981	-9.50972e-05	
-1.45965e-05	-0.00206323	-8.69721e-06	
0.0204121	0.000273053	-0.00403533	
0.00279158	-0.00188002	-0.00100969	
0.000481396	-0.00239294	-0.000175669	
-0.00022197	-0.00246145	9.14951e-05	
-0.000107075	-0.00262041	3.20384e-05	
2.58454e-06	-0.00242502	3.95527e-06	
0.0013219	-0.00259895	-0.000507941	
-0.00158305	-0.00259565	0.000611454	
-0.000151755	-0.00224711	6.63607e-05	
-0.000123531	-0.00260336	5.08795e-05	
0.000738411	-0.00259972	-0.000294454	
0.000880459	-0.00251029	-0.000350033	
-3.45848e-05	-0.00256881	5.12384e-06	
0.000146056	-0.00256394	-5.75825e-05	
3.22633e-06	-0.00259019	-3.12187e-06	
0.00157424	-0.00176131	-0.000518844	
0.000344512	-0.00216306	-0.000121938	
0.00116912	-0.00198717	-0.000428156	
2.67581e-05	-0.00212095	1.58903e-05	
6.61677e-06	-0.002562	-3.8293e-06	
0.00255447	-0.00157748	-0.000850578	
-2.31191e-07	-0.00258425	4.10894e-06	
8.45764e-05	-0.00262089	-3.29593e-05	
0.00325401	-0.000866554	-0.000816016	
7.64657e-07	-0.00255247	7.01989e-06	
0.00311477	-0.00110693	-0.000918651	
0.000879806	-0.00228364	-0.000348289	
1.56329e-06	-0.00258982	-1.3656e-06	
5.29946e-06	-0.00235389	5.39968e-06	
3.24182e-05	-0.00143613	7.49601e-05	
-1.80762e-05	-0.00262442	2.16601e-05	
-0.00510359	-0.00130271	0.00172717	
-9.12856e-05	-0.00240106	1.6149e-05	
0.000286597	-0.00245967	-0.000108746	
-0.00814457	-0.000652032	0.00211939	
0.000468211	-0.00262933	-0.000180597	
-2.34724e-06	-0.00242684	-7.21976e-06	
-0.00054813	-0.00262409	0.000207655	
0.000387199	-0.00262377	-0.000151747	
0.000477301	-0.00262014	-0.000189724	
-0.00105033	-0.00221525	0.00040803	
-0.000163313	-0.00261041	6.0351e-05	
-0.00096701	-0.00261904	0.000379786	
-0.000734791	-0.00250974	0.000300354	
-0.000491031	-0.00256175	0.000190797	
0.000334435	-0.00259237	-0.000127775	
-0.00324359	-0.00173832	0.00115092	
-0.00108283	-0.00214219	0.00041031	
-0.00116145	-0.00199174	0.000426442	
-3.34386e-07	-0.0025523	-3.18494e-06	
-2.04878e-05	-0.0019059	-3.28366e-05	
-1.07214e-05	-0.00258034	9.52636e-07	
-3.37386e-05	-0.00161044	-7.38333e-05	
-4.48453e-06	-0.00260769	-8.77787e-08	
-7.89084e-06	-0.00208399	-1.80365e-05	
-1.16005e-06	-0.00257096	4.26075e-06	
-0.0157294	4.77823e-05	0.00304176	
-0.000862107	-0.00235516	0.000338218	
-4.13616e-05	-0.00122171	-8.075e-05	
-1.07719e-05	-0.00229568	-5.04538e-06	
0.0212365	0.000170075	-0.00419325	
0.00299741	-0.0016262	-0.00106366	
0.000560506	-0.0021131	-0.000206204	
-0.000155197	-0.00217506	6.4154e-05	
-7.69537e-05	-0.00235241	2.12221e-05	
-5.51798e-07	-0.00214232	5.68162e-06	
0.00133762	-0.00233209	-0.000514175	
-0.00159445	-0.00232957	0.000606356	
-3.16502e-05	-0.00196934	1.50216e-05	
-0.000119942	-0.00231381	4.82128e-05	
0.000760777	-0.00232695	-0.000294232	
0.000918559	-0.00222136	-0.000359947	
-1.4009e-06	-0.00227707	-8.219e-06	
0.000161128	-0.00227291	-6.18715e-05	
2.1268e-06	-0.00229608	-4.29131e-06	
0.00171578	-0.0015149	-0.000571005	
0.000387667	-0.0018857	-0.000139595	
0.00125848	-0.00172036	-0.000459175	
1.52201e-05	-0.00184249	8.17879e-06	
4.43481e-06	-0.0022869	-1.93072e-07	
0.00271559	-0.00134956	-0.000905615	
-1.48027e-06	-0.00231843	-1.72836e-06	
8.99975e-05	-0.00235257	-3.41456e-05	
0.00342525	-0.00073795	-0.000864193	
-1.13802e-06	-0.00226051	4.00205e-06	
0.00331265	-0.000942693	-0.000977915	
0.000943459	-0.00200692	-0.000364513	
2.95839e-06	-0.0023237	2.48105e-07	
1.53673e-06	-0.00207269	2.86681e-06	
1.69916e-05	-0.00122538	4.13348e-05	
-2.75356e-05	-0.00235652	2.00693e-05	
-0.00546019	-0.001117	0.00180136	
-0.00016526	-0.00211509	4.98839e-05	
0.000222651	-0.00217223	-8.27921e-05	
-0.00860556	-0.00057144	0.00218932	
0.000464324	-0.00236097	-0.000176167	
-5.2627e-07	-0.00214167	-6.55834e-06	
-0.000548765	-0.00235532	0.000213361	
0.000381036	-0.00235169	-0.000145539	
0.000471509	-0.00234795	-0.000180248	
-0.00119542	-0.00193952	0.00045403	
-0.000182724	-0.00231963	6.85849e-05	
-0.000988248	-0.00234563	0.000383148	
-0.000773654	-0.00221693	0.000307219	
-0.000517771	-0.00227105	0.00019841	
0.000310363	-0.00229698	-0.000114585	
-0.0035024	-0.00150291	0.00121432	
-0.00115868	-0.00187012	0.000429323	
-0.00132353	-0.00173263	0.000483863	
1.64877e-06	-0.00225917	-3.72591e-06	
-9.32206e-06	-0.0016499	-1.85693e-05	
-6.6679e-06	-0.00230379	-1.84736e-06	
-1.81185e-05	-0.00138515	-3.62365e-05	
-5.4304e-06	-0.00233797	-1.61242e-06	
-6.25887e-07	-0.00181433	-8.96234e-06	
1.5953e-06	-0.00228073	2.43985e-06	
-0.0163045	-1.12653e-05	0.00313495	
-0.000916765	-0.00206939	0.000351369	
-2.18316e-05	-0.00104246	-4.19874e-05	
-6.57803e-06	-0.00201175	-2.98437e-06	
0.021757	-5.84129e-05	-0.00449531	
0.00308702	-0.00136945	-0.00113088	
0.000624939	-0.00180944	-0.0002448	
-5.45592e-05	-0.00188656	1.94035e-05	
-5.53165e-05	-0.00209227	1.44258e-05	
-2.34321e-06	-0.00184532	4.3219e-06	
0.00129242	-0.00207921	-0.000526088	
-0.00153035	-0.00207624	0.000614216	
8.17453e-05	-0.00167089	-3.14902e-05	
-0.000115543	-0.0020637	4.8909e-05	
0.000740668	-0.00207003	-0.000307434	
0.000949731	-0.00195018	-0.000387019	
2.38273e-05	-0.00203842	-1.4941e-05	
0.000179051	-0.00203454	-6.97446e-05	
1.79638e-06	-0.00204961	-2.53297e-06	
0.00178836	-0.00127061	-0.000624213	
0.000419137	-0.00159339	-0.000156232	
0.00129962	-0.00144609	-0.000493617	
8.90049e-06	-0.00154941	6.23681e-06	
1.47053e-06	-0.00203893	-1.19787e-06	
0.00278401	-0.00113789	-0.000948823	
-1.31699e-06	-0.00207339	-1.28245e-06	
9.01889e-05	-0.00208843	-3.71693e-05	
0.00352709	-0.00065721	-0.000918315	
-1.87876e-06	-0.00201334	2.08798e-06	
0.0034256	-0.000815674	-0.00102034	
0.000965935	-0.00170698	-0.000387022	
2.34901e-06	-0.00206618	-7.53987e-07	
-1.35594e-06	-0.00176614	1.84567e-06	
5.11656e-06	-0.00102649	2.32048e-05	
-3.03176e-05	-0.00209303	2.1227e-05	
-0.00565437	-0.000971102	0.00184931	
-0.000240214	-0.00180705	8.71544e-05	
0.000120113	-0.00187994	-4.47788e-05	
-0.00887003	-0.000580685	0.00232864	
0.000444166	-0.00209987	-0.00017996	
3.59267e-07	-0.00184011	-5.94358e-06	
-0.000527402	-0.00209675	0.000212796	
0.000353517	-0.00209662	-0.000143743	
0.000441417	-0.00208673	-0.000178965	
-0.00128365	-0.00164738	0.000505434	
-0.000190626	-0.00206147	7.56968e-05	
-0.000956863	-0.00208041	0.000398791	
-0.000808466	-0.00194206	0.000337995	
-0.000530893	-0.0020269	0.000212863	
0.000283001	-0.00204382	-0.000111805	
-0.003629	-0.00126848	0.0012849	
-0.00119012	-0.00157925	0.00046178	
-0.00142708	-0.00145449	0.000543906	
2.95916e-06	-0.00200542	-7.99449e-07	
-3.11591e-06	-0.00138222	-1.10897e-05	
-2.06954e-06	-0.00204654	3.21875e-07	
-6.30366e-06	-0.00115798	-1.79414e-05	
-3.5539e-06	-0.00207307	-3.76888e-07	
2.45153e-06	-0.00152637	-5.77494e-06	
3.72594e-07	-0.00203497	1.4109e-06	
-0.016626	-0.000175798	0.00341011	
-0.000929243	-0.0017606	0.000376282	
-7.34569e-06	-0.000875579	-2.22735e-05	
-3.84351e-06	-0.00170783	-2.89141e-06	
				</DataArray>
				<DataArray type="Float64" Name="Time Step Shed" NumberOfComponents="1" Format="ascii">
3	
3	
3	
3	
3	
3	
3	
3	
3	
3	
3	
3	
3	
3	
3	
3	
3	
3	
3	
3	
3	
3	
3	
3	
3	
3	
3	
3	
3	
3	
3	
3	
3	
3	
3	
3	
3	
3	
3	
3	
3	
3	
3	
3	
3	
3	
3	
3	
3	
3	
3	
3	
3	
3	
3	
3	
3	
3	
3	
3	
4	
4	
4	
4	
4	
4	
4	
4	
4	
4	
4	
4	
4	
4	
4	
4	
4	
4	
4	
4	
4	
4	
4	
4	
4	
4	
4	
4	
4	
4	
4	
4	
4	
4	
4	
4	
4	
4	
4	
4	
4	
4	
4	
4	
4	
4	
4	
4	
4	
4	
4	
4	
4	
4	
4	
4	
4	
4	
4	
4	
5	
5	
5	
5	
5	
5	
5	
5	
5	
5	
5	
5	
5	
5	
5	
5	
5	
5	
5	
5	
5	
5	
5	
5	
5	
5	
5	
5	
5	
5	
5	
5	
5	
5	
5	
5	
5	
5	
5	
5	
5	
5	
5	
5	
5	
5	
5	
5	
5	
5	
5	
5	
5	
5	
5	
5	
5	
5	
5	
5	
6	
6	
6	
6	
6	
6	
6	
6	
6	
6	
6	
6	
6	
6	
6	
6	
6	
6	
6	
6	
6	
6	
6	
6	
6	
6	
6	
6	
6	
6	
6	
6	
6	
6	
6	
6	
6	
6	
6	
6	
6	
6	
6	
6	
6	
6	
6	
6	
6	
6	
6	
6	
6	
6	
6	
6	
6	
6	
6	
6	
7	
7	
7	
7	
7	
7	
7	
7	
7	
7	
7	
7	
7	
7	
7	
7	
7	
7	
7	
7	
7	
7	
7	
7	
7	
7	
7	
7	
7	
7	
7	
7	
7	
7	
7	
7	
7	
7	
7	
7	
7	
7	
7	
7	
7	
7	
7	
7	
7	
7	
7	
7	
7	
7	
7	
7	
7	
7	
7	
7	
8	
8	
8	
8	
8	
8	
8	
8	
8	
8	
8	
8	
8	
8	
8	
8	
8	
8	
8	
8	
8	
8	
8	
8	
8	
8	
8	
8	
8	
8	
8	
8	
8	
8	
8	
8	
8	
8	
8	
8	
8	
8	
8	
8	
8	
8	
8	
8	
8	
8	
8	
8	
8	
8	
8	
8	
8	
8	
8	
8	
				</DataArray>
			</CellData>
			<Points>
				<DataArray type="Float64" Name="Position" NumberOfComponents="3" Format="ascii">
1.76174	2.93527	0.0778678	
1.75342	2.34493	0.0587933	
1.74852	1.64894	0.0717746	
1.75235	1.44895	0.0735075	
1.74912	0.149382	0.0786493	
1.75185	1.5486	0.0733534	
1.7513	0.249533	0.0793417	
1.74964	0.450232	0.0792177	
1.7508	1.9491	0.0666171	
1.74749	0.849869	0.0774961	
1.75093	0.650342	0.0766234	
1.74905	1.34881	0.0752398	
1.75209	1.05019	0.07551	
1.75171	1.14999	0.0758301	
1.75164	0.950085	0.0769644	
1.75394	2.44407	0.0577295	
1.75361	2.04881	0.0637408	
1.75442	2.24642	0.0595744	
1.75584	2.14803	0.0613112	
1.75221	0.750102	0.0778485	
1.7558	2.54343	0.054858	
1.75012	0.349841	0.0811209	
1.75051	0.0494128	0.0784708	
1.75876	2.83926	0.060877	
1.75282	1.24923	0.0759469	
1.75733	2.74127	0.0527667	
1.75187	1.84913	0.0695261	
1.75442	0.550566	0.0778347	
1.7545	1.74943	0.0710021	
1.75737	2.64267	0.052188	
1.75031	-0.0502708	0.0782178	
1.75334	-2.64153	0.0526578	
1.74799	-1.64886	0.0705091	
1.75132	-1.44989	0.0733421	
1.75856	-2.83809	0.0644863	
1.75034	-0.150064	0.0780664	
1.7507	-1.54904	0.0726041	
1.75192	-0.250122	0.0772441	
1.75051	-0.350203	0.0771641	
1.75134	-0.449748	0.0762898	
1.74929	-1.94774	0.0672148	
1.748	-0.849492	0.0776859	
1.75126	-0.649737	0.0765021	
1.74898	-1.35005	0.0752381	
1.75089	-1.15021	0.075944	
1.7513	-0.949734	0.0770954	
1.75332	-2.4443	0.0556095	
1.75195	-2.04765	0.0660857	
1.75254	-2.24599	0.0615435	
1.75211	-1.2498	0.0760109	
1.75531	-2.34505	0.0585459	
1.75239	-0.749738	0.0780484	
1.75589	-2.54356	0.0530276	
1.75468	-0.549989	0.0764506	
1.7532	-2.14694	0.0647824	
1.75411	-1.05009	0.0768067	
1.76298	-2.93527	0.080301	
1.75332	-1.749	0.0692965	
1.75787	-2.74055	0.0540679	
1.75249	-1.84842	0.0686782	
1.67325	2.94388	0.0410766	
1.68596	2.34985	-0.00548232	
1.6907	1.65	0.00565708	
1.6937	1.44969	0.004821	
1.69281	0.149597	0.0108513	
1.69249	1.54956	0.00532582	
1.69381	0.249869	0.0109712	
1.69309	0.449605	0.01179	
1.68943	1.95065	0.000282849	
1.69211	0.85022	0.0108983	
1.69305	0.650397	0.00832599	
1.69166	1.34977	0.00832892	
1.69339	1.05041	0.0065186	
1.69241	1.15061	0.0071572	
1.69252	0.950089	0.00854698	
1.68359	2.44975	-0.00413724	
1.6899	2.0509	-0.00362372	
1.68761	2.25061	-0.00651993	
1.68909	2.15093	-0.00642504	
1.6931	0.750537	0.00920644	
1.68138	2.54968	-0.00467305	
1.69217	0.349962	0.0144032	
1.69365	0.0498271	0.0100743	
1.67361	2.84903	0.0151373	
1.69289	1.24986	0.00699837	
1.67528	2.74973	0.00132653	
1.68971	1.85056	0.00305001	
1.69392	0.550153	0.00774456	
1.69121	1.75051	0.00287784	
1.67818	2.64972	-0.00376869	
1.69361	-0.049802	0.00973261	
1.67745	-2.64959	-0.00366519	
1.68972	-1.6502	0.00381818	
1.69287	-1.45064	0.00460197	
1.67423	-2.84839	0.018387	
1.69269	-0.149767	0.00949883	
1.6912	-1.55013	0.00437463	
1.69389	-0.249765	0.00802711	
1.69315	-0.350083	0.00882764	
1.6943	-0.449649	0.00727579	
1.688	-1.95019	0.00153775	
1.69265	-0.850008	0.0110213	
1.69367	-0.650411	0.00766078	
1.69087	-1.35083	0.00821772	
1.69245	-1.1509	0.00776822	
1.693	-0.950009	0.00894009	
1.68254	-2.44964	-0.00615305	
1.68815	-2.0502	-4.42766e-05	
1.68611	-2.24935	-0.00313082	
1.6924	-1.25065	0.0074241	
1.68542	-2.34922	-0.00570072	
1.69384	-0.750424	0.00910634	
1.68062	-2.55007	-0.00670811	
1.6944	-0.550014	0.00559474	
1.68617	-2.14978	-0.000395165	
1.69338	-1.05046	0.00725414	
1.6741	-2.94338	0.0437775	
1.6909	-1.75035	0.000763225	
1.67516	-2.74943	0.00284651	
1.68868	-1.85053	0.00119452	
1.57448	2.9477	0.0207872	
1.58166	2.3514	-0.0311026	
1.58609	1.65033	-0.0244146	
1.58914	1.44989	-0.0265607	
1.5889	0.149768	-0.0215246	
1.58791	1.54998	-0.02546	
1.58979	0.249893	-0.0215525	
1.58945	0.449488	-0.0203926	
1.58509	1.95124	-0.0284973	
1.58874	0.850304	-0.0209275	
1.58862	0.650272	-0.0233489	
1.5881	1.34992	-0.0229477	
1.5889	1.05062	-0.0251809	
1.58809	1.15079	-0.0243212	
1.5884	0.950224	-0.0232465	
1.57965	2.4514	-0.0284997	
1.58527	2.05158	-0.0318603	
1.58296	2.25196	-0.0330574	
1.58444	2.15197	-0.0339779	
1.58879	0.750515	-0.022648	
1.57794	2.55169	-0.0276271	
1.58899	0.349853	-0.0177248	
1.58965	0.0500514	-0.0226691	
1.57344	2.8526	-0.00455365	
1.58868	1.24998	-0.0246349	
1.57405	2.75263	-0.0185666	
1.58553	1.85107	-0.0262794	
1.58905	0.550162	-0.024245	
1.58632	1.75091	-0.0271485	
1.57589	2.65207	-0.0250374	
1.58974	-0.0496662	-0.0230037	
1.57511	-2.65202	-0.0247676	
1.58512	-1.65054	-0.0262451	
1.58836	-1.45106	-0.0267872	
1.57404	-2.8521	-0.00159964	
1.5887	-0.149639	-0.0228321	
1.58669	-1.5506	-0.0263336	
1.58955	-0.249569	-0.0244062	
1.58908	-0.349864	-0.0232831	
1.58992	-0.449508	-0.0249296	
1.58364	-1.95094	-0.0271416	
1.58919	-0.850257	-0.0209133	
1.58905	-0.650439	-0.0242391	
1.58711	-1.35115	-0.0229412	
1.5882	-1.1511	-0.023675	
1.58887	-0.95022	-0.0228629	
1.57884	-2.45145	-0.030232	
1.58374	-2.05108	-0.0283741	
1.58226	-2.25032	-0.0297897	
1.58799	-1.25084	-0.0241109	
1.58176	-2.35054	-0.031298	
1.58951	-0.750569	-0.0230215	
1.57741	-2.55219	-0.0294372	
1.58945	-0.550124	-0.0264108	
1.58266	-2.15077	-0.0278259	
1.58909	-1.05079	-0.0243923	
1.57536	-2.94717	0.0232243	
1.58604	-1.75076	-0.0293591	
1.57375	-2.75257	-0.0171821	
1.58427	-1.85127	-0.028183	
1.47446	2.94981	0.00694532	
1.47541	2.35215	-0.033398	
1.47789	1.65045	-0.0284439	
1.47986	1.4499	-0.031209	
1.47948	0.149982	-0.0270086	
1.47876	1.55035	-0.0297542	
1.48025	0.249993	-0.0273544	
1.48038	0.449724	-0.0259216	
1.47693	1.95097	-0.0316137	
1.47864	0.850175	-0.025827	
1.4794	0.650441	-0.0283003	
1.47988	1.34985	-0.0276165	
1.47899	1.0504	-0.0300212	
1.47886	1.15063	-0.0290124	
1.47858	0.949927	-0.0281872	
1.47433	2.4523	-0.0311064	
1.47768	2.05156	-0.0345828	
1.47622	2.25234	-0.0351078	
1.47741	2.152	-0.0364169	
1.4794	0.750661	-0.0276292	
1.47272	2.55227	-0.0302461	
1.47995	0.349927	-0.023309	
1.47999	0.0500675	-0.0280298	
1.47245	2.85378	-0.0128059	
1.47988	1.24998	-0.0295049	
1.47148	2.75294	-0.0226481	
1.47684	1.85068	-0.0297772	
1.47987	0.550164	-0.0294994	
1.47752	1.75102	-0.0311228	
1.47154	2.6521	-0.0277135	
1.48	-0.0497921	-0.0282714	
1.47121	-2.65253	-0.0272777	
1.47776	-1.65051	-0.0301571	
1.47878	-1.45119	-0.0312983	
1.47276	-2.85329	-0.0106685	
1.4789	-0.149763	-0.0278718	
1.47821	-1.5506	-0.0304885	
1.47956	-0.249549	-0.0294503	
1.47933	-0.349879	-0.0280145	
1.48002	-0.449557	-0.0296428	
1.47682	-1.9509	-0.0306982	
1.47903	-0.850205	-0.0258629	
1.47997	-0.65049	-0.0290591	
1.47895	-1.35125	-0.0276247	
1.47912	-1.15112	-0.0284577	
1.47894	-0.949972	-0.0278242	
1.47373	-2.45202	-0.0323641	
1.47728	-2.05128	-0.031931	
1.47534	-2.25084	-0.0324264	
1.47954	-1.25084	-0.0290785	
1.47535	-2.35116	-0.0336759	
1.47992	-0.750725	-0.0280364	
1.47239	-2.55284	-0.0315141	
1.48004	-0.549932	-0.0311613	
1.476	-2.15104	-0.0309033	
1.47919	-1.05067	-0.0292533	
1.47529	-2.94938	0.00870327	
1.47808	-1.75099	-0.0333425	
1.47108	-2.75296	-0.0217334	
1.47685	-1.85114	-0.0319107	
1.374	2.95	-0.00700938	
1.37288	2.35193	-0.0291702	
1.37326	1.65053	-0.0247958	
1.37457	1.45052	-0.0282106	
1.37431	0.149863	-0.0244605	
1.37364	1.55019	-0.0263873	
1.37502	0.249961	-0.0253461	
1.37581	0.449782	-0.0234739	
1.37327	1.95063	-0.0275298	
1.3746	0.850204	-0.0229042	
1.37402	0.65059	-0.0253861	
1.3751	1.34987	-0.0241274	
1.37379	1.04993	-0.0270484	
1.3747	1.15008	-0.0258502	
1.37384	0.94977	-0.0253462	
1.37238	2.45234	-0.0276526	
1.37378	2.05091	-0.0300413	
1.37248	2.25221	-0.0301323	
1.37343	2.15174	-0.0316059	
1.37478	0.750704	-0.0248381	
1.37163	2.5522	-0.027576	
1.37511	0.35008	-0.0208311	
1.37454	0.0499286	-0.0252444	
1.37187	2.85321	-0.018754	
1.37528	1.2499	-0.0263883	
1.37088	2.75235	-0.0226735	
1.37318	1.85072	-0.025969	
1.37493	0.550448	-0.0270387	
1.3735	1.75103	-0.0278536	
1.37111	2.65183	-0.0256942	
1.37427	-0.0499455	-0.0253348	
1.37099	-2.65236	-0.0250244	
1.37328	-1.65078	-0.0261145	
1.37438	-1.4509	-0.0281994	
1.37178	-2.85278	-0.0176084	
1.37421	-0.149851	-0.0248737	
1.37378	-1.55016	-0.0268479	
1.37414	-0.249278	-0.026526	
1.37455	-0.34998	-0.024701	
1.37518	-0.44939	-0.026285	
1.37315	-1.95069	-0.0267811	
1.37465	-0.850182	-0.0229663	
1.37439	-0.650641	-0.0258365	
1.37428	-1.35136	-0.0241721	
1.37453	-1.15043	-0.0253578	
1.37398	-0.949829	-0.0250178	
1.37183	-2.45206	-0.0284081	
1.37349	-2.05118	-0.0282452	
1.37235	-2.25131	-0.0284374	
1.37484	-1.25081	-0.0260682	
1.37256	-2.35112	-0.0296278	
1.37484	-0.751041	-0.0251925	
1.37134	-2.5527	-0.0282097	
1.37474	-0.550179	-0.02798	
1.3732	-2.15102	-0.0269429	
1.37372	-1.05019	-0.0263	
1.37429	-2.94943	-0.00605918	
1.37365	-1.75112	-0.0296805	
1.37068	-2.75267	-0.0225038	
1.37329	-1.85096	-0.0281316	
1.27558	2.95131	-0.0176744	
1.27484	2.35127	-0.0261288	
1.2747	1.65008	-0.0240454	
1.27505	1.45069	-0.0266419	
1.27508	0.149875	-0.0246265	
1.27487	1.55012	-0.0252288	
1.27539	0.249857	-0.0254365	
1.27594	0.44988	-0.0239937	
1.27487	1.95041	-0.0255506	
1.27557	0.850127	-0.0234802	
1.27508	0.650383	-0.0251034	
1.27561	1.35021	-0.0237892	
1.27475	1.04982	-0.0261602	
1.27527	1.15004	-0.0252054	
1.2749	0.950005	-0.0251424	
1.27462	2.45153	-0.0252349	
1.27505	2.05069	-0.0268984	
1.27457	2.25139	-0.0266915	
1.27491	2.15124	-0.027832	
1.27549	0.750301	-0.0248431	
1.27429	2.55159	-0.0252958	
1.27591	0.34993	-0.0221728	
1.27526	0.0499937	-0.025213	
1.27446	2.85263	-0.0224023	
1.27552	1.25001	-0.0257415	
1.27411	2.75186	-0.0229657	
1.27489	1.85054	-0.0247219	
1.2753	0.550452	-0.026385	
1.27467	1.75047	-0.0263085	
1.27415	2.65147	-0.024202	
1.27517	-0.0499117	-0.0252096	
1.27416	-2.65183	-0.023719	
1.27462	-1.65026	-0.0247409	
1.27511	-1.45063	-0.0265722	
1.27442	-2.85248	-0.0218864	
1.27506	-0.14983	-0.0247211	
1.27487	-1.55018	-0.0253703	
1.27499	-0.249553	-0.0259521	
1.27552	-0.349854	-0.0245514	
1.27558	-0.449696	-0.0255416	
1.27467	-1.95046	-0.0250742	
1.27553	-0.850062	-0.023513	
1.27525	-0.650378	-0.0252825	
1.27529	-1.35095	-0.0238456	
1.27526	-1.15024	-0.0248913	
1.275	-0.950043	-0.0248917	
1.27428	-2.45146	-0.0255798	
1.27492	-2.05091	-0.0260776	
1.27439	-2.2509	-0.0258678	
1.27527	-1.25047	-0.0255084	
1.27447	-2.35071	-0.0264782	
1.2755	-0.750597	-0.0250664	
1.27403	-2.55171	-0.0256265	
1.27518	-0.550329	-0.0267243	
1.27494	-2.15092	-0.0249555	
1.27478	-1.05002	-0.0256261	
1.27559	-2.95081	-0.0171999	
1.27474	-1.75062	-0.0273056	
1.27403	-2.7521	-0.0231135	
1.27484	-1.85072	-0.0261363	
				</DataArray>
			</Points>
			<Cells>
				<DataArray type="Int32" Name="connectivity" Format="ascii">
0	
1	
2	
3	
4	
5	
6	
7	
8	
9	
10	
11	
12	
13	
14	
15	
16	
17	
18	
19	
20	
21	
22	
23	
24	
25	
26	
27	
28	
29	
30	
31	
32	
33	
34	
35	
36	
37	
38	
39	
40	
41	
42	
43	
44	
45	
46	
47	
48	
49	
50	
51	
52	
53	
54	
55	
56	
57	
58	
59	
60	
61	
62	
63	
64	
65	
66	
67	
68	
69	
70	
71	
72	
73	
74	
75	
76	
77	
78	
79	
80	
81	
82	
83	
84	
85	
86	
87	
88	
89	
90	
91	
92	
93	
94	
95	
96	
97	
98	
99	
100	
101	
102	
103	
104	
105	
106	
107	
108	
109	
110	
111	
112	
113	
114	
115	
116	
117	
118	
119	
120	
121	
122	
123	
124	
125	
126	
127	
128	
129	
130	
131	
132	
133	
134	
135	
136	
137	
138	
139	
140	
141	
142	
143	
144	
145	
146	
147	
148	
149	
150	
151	
152	
153	
154	
155	
156	
157	
158	
159	
160	
161	
162	
163	
164	
165	
166	
167	
168	
169	
170	
171	
172	
173	
174	
175	
176	
177	
178	
179	
180	
181	
182	
183	
184	
185	
186	
187	
188	
189	
190	
191	
192	
193	
194	
195	
196	
197	
198	
199	
200	
201	
202	
203	
204	
205	
206	
207	
208	
209	
210	
211	
212	
213	
214	
215	
216	
217	
218	
219	
220	
221	
222	
223	
224	
225	
226	
227	
228	
229	
230	
231	
232	
233	
234	
235	
236	
237	
238	
239	
240	
241	
242	
243	
244	
245	
246	
247	
248	
249	
250	
251	
252	
253	
254	
255	
256	
257	
258	
259	
260	
261	
262	
263	
264	
265	
266	
267	
268	
269	
270	
271	
272	
273	
274	
275	
276	
277	
278	
279	
280	
281	
282	
283	
284	
285	
286	
287	
288	
289	
290	
291	
292	
293	
294	
295	
296	
297	
298	
299	
300	
301	
302	
303	
304	
305	
306	
307	
308	
309	
310	
311	
312	
313	
314	
315	
316	
317	
318	
319	
320	
321	
322	
323	
324	
325	
326	
327	
328	
329	
330	
331	
332	
333	
334	
335	
336	
337	
338	
339	
340	
341	
342	
343	
344	
345	
346	
347	
348	
349	
350	
351	
352	
353	
354	
355	
356	
357	
358	
359	
				</DataArray>
				<DataArray type="Int32" Name="offsets" Format="ascii">
1	
2	
3	
4	
5	
6	
7	
8	
9	
10	
11	
12	
13	
14	
15	
16	
17	
18	
19	
20	
21	
22	
23	
24	
25	
26	
27	
28	
29	
30	
31	
32	
33	
34	
35	
36	
37	
38	
39	
40	
41	
42	
43	
44	
45	
46	
47	
48	
49	
50	
51	
52	
53	
54	
55	
56	
57	
58	
59	
60	
61	
62	
63	
64	
65	
66	
67	
68	
69	
70	
71	
72	
73	
74	
75	
76	
77	
78	
79	
80	
81	
82	
83	
84	
85	
86	
87	
88	
89	
90	
91	
92	
93	
94	
95	
96	
97	
98	
99	
100	
101	
102	
103	
104	
105	
106	
107	
108	
109	
110	
111	
112	
113	
114	
115	
116	
117	
118	
119	
120	
121	
122	
123	
124	
125	
126	
127	
128	
129	
130	
131	
132	
133	
134	
135	
136	
137	
138	
139	
140	
141	
142	
143	
144	
145	
146	
147	
148	
149	
150	
151	
152	
153	
154	
155	
156	
157	
158	
159	
160	
161	
162	
163	
164	
165	
166	
167	
168	
169	
170	
171	
172	
173	
174	
175	
176	
177	
178	
179	
180	
181	
182	
183	
184	
185	
186	
187	
188	
189	
190	
191	
192	
193	
194	
195	
196	
197	
198	
199	
200	
201	
202	
203	
204	
205	
206	
207	
208	
209	
210	
211	
212	
213	
214	
215	
216	
217	
218	
219	
220	
221	
222	
223	
224	
225	
226	
227	
228	
229	
230	
231	
232	
233	
234	
235	
236	
237	
238	
239	
240	
241	
242	
243	
244	
245	
246	
247	
248	
249	
250	
251	
252	
253	
254	
255	
256	
257	
258	
259	
260	
261	
262	
263	
264	
265	
266	
267	
268	
269	
270	
271	
272	
273	
274	
275	
276	
277	
278	
279	
280	
281	
282	
283	
284	
285	
286	
287	
288	
289	
290	
291	
292	
293	
294	
295	
296	
297	
298	
299	
300	
301	
302	
303	
304	
305	
306	
307	
308	
309	
310	
311	
312	
313	
314	
315	
316	
317	
318	
319	
320	
321	
322	
323	
324	
325	
326	
327	
328	
329	
330	
331	
332	
333	
334	
335	
336	
337	
338	
339	
340	
341	
342	
343	
344	
345	
346	
347	
348	
349	
350	
351	
352	
353	
354	
355	
356	
357	
358	
359	
360	
				</DataArray>
				<DataArray type="Int32" Name="types" Format="ascii">
1	
1	
1	
1	
1	
1	
1	
1	
1	
1	
1	
1	
1	
1	
1	
1	
1	
1	
1	
1	
1	
1	
1	
1	
1	
1	
1	
1	
1	
1	
1	
1	
1	
1	
1	
1	
1	
1	
1	
1	
1	
1	
1	
1	
1	
1	
1	
1	
1	
1	
1	
1	
1	
1	
1	
1	
1	
1	
1	
1	
1	
1	
1	
1	
1	
1	
1	
1	
1	
1	
1	
1	
1	
1	
1	
1	
1	
1	
1	
1	
1	
1	
1	
1	
1	
1	
1	
1	
1	
1	
1	
1	
1	
1	
1	
1	
1	
1	
1	
1	
1	
1	
1	
1	
1	
1	
1	
1	
1	
1	
1	
1	
1	
1	
1	
1	
1	
1	
1	
1	
1	
1	
1	
1	
1	
1	
1	
1	
1	
1	
1	
1	
1	
1	
1	
1	
1	
1	
1	
1	
1	
1	
1	
1	
1	
1	
1	
1	
1	
1	
1	
1	
1	
1	
1	
1	
1	
1	
1	
1	
1	
1	
1	
1	
1	
1	
1	
1	
1	
1	
1	
1	
1	
1	
1	
1	
1	
1	
1	
1	
1	
1	
1	
1	
1	
1	
1	
1	
1	
1	
1	
1	
1	
1	
1	
1	
1	
1	
1	
1	
1	
1	
1	
1	
1	
1	
1	
1	
1	
1	
1	
1	
1	
1	
1	
1	
1	
1	
1	
1	
1	
1	
1	
1	
1	
1	
1	
1	
1	
1	
1	
1	
1	
1	
1	
1	
1	
1	
1	
1	
1	
1	
1	
1	
1	
1	
1	
1	
1	
1	
1	
1	
1	
1	
1	
1	
1	
1	
1	
1	
1	
1	
1	
1	
1	
1	
1	
1	
1	
1	
1	
1	
1	
1	
1	
1	
1	
1	
1	
1	
1	
1	
1	
1	
1	
1	
1	
1	
1	
1	
1	
1	
1	
1	
1	
1	
1	
1	
1	
1	
1	
1	
1	
1	
1	
1	
1	
1	
1	
1	
1	
1	
1	
1	
1	
1	
1	
1	
1	
1	
1	
1	
1	
1	
1	
1	
1	
1	
1	
1	
1	
1	
1	
1	
1	
1	
1	
1	
1	
1	
1	
1	
1	
1	
1	
1	
1	
1	
1	
1	
1	
1	
1	
1	
1	
1	
1	
1	
1	
1	
				</DataArray>
			</Cells>
		</Piece>
	</UnstructuredGrid>
</VTKFile>
