<VTKFile type="UnstructuredGrid" version="0.1" byte_order="LittleEndian">
	<UnstructuredGrid>
		<Piece NumberOfPoints="660" NumberOfCells="660">
			<CellData Scalars="scalars">
				<DataArray type="Float64" Name="Strength" NumberOfComponents="3" Format="ascii">
0.0169609	-0.0111912	-0.000845597	
0.00260717	-0.0238162	0.00131226	
0.000512644	-0.0252667	0.000344392	
-0.000317676	-0.0265074	0.000499025	
-0.000370379	-0.0260951	0.000216974	
0.00022709	-0.0258434	0.000348873	
0.00127595	-0.0264679	-0.000377973	
-0.00154008	-0.0257416	0.000641089	
-0.000134297	-0.0251933	0.000956388	
0.000121155	-0.0254898	6.11649e-05	
0.000742531	-0.0264322	-0.000310556	
0.000932801	-0.0254724	-0.000150333	
3.5592e-05	-0.0268206	0.0001528	
0.000308801	-0.0263211	0.000159751	
0.000167688	-0.0261249	0.000102828	
0.00144405	-0.0225544	0.00225816	
0.000727422	-0.0255301	0.000962392	
0.00137369	-0.0243845	0.00134695	
0.000618733	-0.0254053	0.00137764	
0.00013522	-0.0259363	3.86463e-06	
0.00237266	-0.0216136	0.00276485	
-2.59482e-06	-0.0252312	6.04742e-05	
8.04436e-06	-0.0260114	0.000124995	
0.00325745	-0.0153196	0.00316655	
0.000197192	-0.026194	0.000232849	
0.00278144	-0.0176849	0.00346021	
0.00103198	-0.0250042	0.000188219	
6.52002e-05	-0.0267391	-7.86383e-05	
0.000313768	-0.0256955	0.000497014	
0.00051794	-0.0197572	0.00386483	
9.19421e-05	-0.0260471	0.000262157	
-0.00421327	-0.0195292	-0.00272038	
-0.000254885	-0.0255286	-0.000650237	
0.000288065	-0.0264873	-0.000435937	
-0.00702435	-0.0153895	-0.00218884	
0.000515523	-0.0262411	-3.87264e-05	
-0.000277158	-0.0259384	-0.000373713	
-0.000575931	-0.0267245	0.000234003	
0.000387409	-0.0261752	-0.000143938	
0.000541089	-0.0266104	-0.000226537	
-0.000914753	-0.0249108	-0.000629407	
-0.000196756	-0.0255773	-0.000130331	
-0.000988008	-0.0265748	0.000251615	
-0.000787772	-0.0255704	0.00011624	
-0.000749046	-0.026194	2.17534e-05	
0.000281858	-0.0261239	-0.000311893	
-0.00276619	-0.0224669	-0.00181331	
-0.00120366	-0.024943	-0.000739928	
-0.000978425	-0.0238111	-0.0012367	
-0.000252971	-0.0261222	-0.000199556	
-0.000493778	-0.02386	-0.0019704	
-0.000110249	-0.0260341	-0.000184469	
-0.000626673	-0.0213477	-0.00352821	
-4.25164e-05	-0.0271157	-6.85567e-05	
-0.000435958	-0.0243681	-0.0012727	
-0.000139578	-0.0266259	-0.000195749	
-0.0135271	-0.011537	0.000215384	
-0.00103824	-0.0260917	-0.000363895	
-0.000853025	-0.017778	-0.00434988	
-0.000396353	-0.0254016	-0.000773159	
0.0183724	0.00019089	-0.00408284	
0.00240738	-0.00403382	-0.000817249	
0.000378329	-0.00487048	-9.64904e-05	
-0.000297306	-0.00493905	0.000236479	
-0.000169092	-0.00521498	0.000102558	
5.53865e-05	-0.0049044	5.24868e-05	
0.00120291	-0.00511652	-0.000624316	
-0.00144962	-0.005139	0.000792008	
-0.000285321	-0.00468126	0.000326977	
-7.08472e-05	-0.00511634	6.14393e-05	
0.000658415	-0.00507134	-0.000357388	
0.000775657	-0.00506631	-0.000384275	
-6.72613e-05	-0.00505551	7.97815e-05	
0.000150608	-0.00510652	-2.66363e-05	
2.7054e-05	-0.00507699	2.97699e-05	
0.00136676	-0.00379823	-0.00018703	
0.00033493	-0.00455456	5.25203e-05	
0.00105785	-0.00421259	-0.000205028	
0.000154541	-0.00449453	0.000223217	
2.45636e-05	-0.00496506	-4.61287e-06	
0.00227103	-0.00345628	-0.000485765	
6.98036e-07	-0.00504065	8.92855e-06	
7.51697e-05	-0.00523904	-1.39294e-05	
0.0030253	-0.00195192	-0.000379381	
4.59308e-05	-0.00514442	4.12892e-05	
0.00281006	-0.00247056	-0.000429885	
0.000763322	-0.00473307	-0.000286446	
2.96386e-06	-0.00510259	-8.5973e-06	
6.36661e-05	-0.00482768	7.76114e-05	
0.000222951	-0.00309162	0.000538375	
1.9623e-05	-0.00527092	5.06146e-05	
-0.00442974	-0.00296592	0.00123255	
-4.48554e-05	-0.00491084	-0.000119583	
0.000352404	-0.00496829	-0.000257538	
-0.00723676	-0.00162706	0.00181714	
0.000453459	-0.00525185	-0.00020818	
-5.37999e-05	-0.00491989	-6.5785e-05	
-0.000508279	-0.0052131	0.000279553	
0.000374872	-0.00517229	-0.000203517	
0.000467641	-0.00519172	-0.000256474	
-0.000788173	-0.00459105	0.00022046	
-0.00015462	-0.00512162	4.31125e-05	
-0.000885078	-0.00518164	0.000459378	
-0.000632511	-0.00503196	0.000301945	
-0.000473399	-0.00508769	0.000193524	
0.000343214	-0.00504983	-0.000232529	
-0.00274376	-0.00380107	0.000855289	
-0.000959989	-0.00450074	0.000273269	
-0.000891705	-0.00429364	0.000155324	
-4.59668e-05	-0.00513974	-4.27559e-05	
-0.000167704	-0.00405193	-0.000294853	
-3.76146e-05	-0.00505471	-2.28709e-05	
-0.000232565	-0.00347386	-0.000519329	
-1.65198e-05	-0.00516551	-1.10286e-05	
-0.000126413	-0.0043671	-0.000213286	
-3.23256e-05	-0.00506151	-3.9749e-05	
-0.0142683	-0.000195032	0.00321531	
-0.000778544	-0.00486428	0.000271926	
-0.000265095	-0.00256093	-0.000555914	
-9.64344e-05	-0.00474953	-0.000120627	
0.0192663	0.00187782	-0.00403256	
0.00249916	-0.00158587	-0.00113302	
0.000401255	-0.00210913	-0.000172642	
-0.000251697	-0.00217667	0.000166567	
-0.000123838	-0.00235454	6.57781e-05	
2.7373e-05	-0.00214037	1.58436e-05	
0.00122329	-0.0023214	-0.000647607	
-0.00146886	-0.00232434	0.000788658	
-0.000221632	-0.00199868	0.000181044	
-0.000100369	-0.00230714	6.18833e-05	
0.000679418	-0.00231133	-0.000366436	
0.000799789	-0.00222653	-0.00041879	
-5.541e-05	-0.00226989	4.61407e-05	
0.000136513	-0.00227875	-5.16363e-05	
1.27079e-05	-0.00229505	1.16129e-05	
0.00141678	-0.00152062	-0.000536829	
0.000321141	-0.00192433	-9.09256e-05	
0.00107578	-0.00173115	-0.000447545	
8.79151e-05	-0.00189285	6.10567e-05	
9.23288e-06	-0.00226575	-9.9224e-07	
0.00235092	-0.00132758	-0.000890367	
1.11844e-06	-0.00230372	2.01162e-06	
8.29672e-05	-0.00236516	-3.64594e-05	
0.00309643	-0.000539364	-0.000712569	
2.09834e-05	-0.00228034	1.74333e-05	
0.00292333	-0.000808558	-0.000831462	
0.000786657	-0.00202422	-0.000388347	
-1.04793e-06	-0.00231466	-9.22114e-07	
3.44204e-05	-0.00209264	2.19286e-05	
0.000128462	-0.00125875	0.000170994	
2.30832e-06	-0.00237503	2.58104e-05	
-0.0046668	-0.000920513	0.0017387	
-4.74618e-05	-0.00213331	-3.20642e-05	
0.000308914	-0.0021828	-0.000197659	
-0.00757868	3.60236e-05	0.00209525	
0.000445527	-0.00237038	-0.000224953	
-2.86482e-05	-0.00214963	-2.2022e-05	
-0.000506798	-0.00236287	0.000277402	
0.000368839	-0.00236052	-0.000201273	
0.000451342	-0.00235937	-0.000247862	
-0.000884459	-0.00195655	0.000410573	
-0.000154766	-0.00231991	6.79996e-05	
-0.000900351	-0.00234462	0.000484888	
-0.000664056	-0.00222299	0.000342745	
-0.000452841	-0.00227537	0.000216673	
0.000327719	-0.00229998	-0.000195609	
-0.0028946	-0.00144044	0.00126047	
-0.000989936	-0.00189222	0.000443688	
-0.000989072	-0.00175066	0.000408842	
-2.17662e-05	-0.00228004	-2.00694e-05	
-9.2317e-05	-0.00167468	-7.53271e-05	
-2.0455e-05	-0.00229787	-5.42685e-06	
-0.000130532	-0.00140361	-0.000165701	
-9.7879e-06	-0.00234286	-1.40074e-06	
-6.79876e-05	-0.00184651	-5.39308e-05	
-1.58892e-05	-0.002276	-1.41774e-05	
-0.0149112	0.00131205	0.00316948	
-0.000786468	-0.00210355	0.00037107	
-0.000143972	-0.00104761	-0.000177582	
-5.55868e-05	-0.00205867	-3.01094e-05	
0.02039	0.00221568	-0.00382065	
0.00276449	-0.00179034	-0.00120017	
0.000488859	-0.00238193	-0.000204349	
-0.000186538	-0.002456	0.000120335	
-9.36696e-05	-0.00261414	3.92677e-05	
2.75944e-05	-0.00241801	1.32756e-05	
0.00126714	-0.00258858	-0.00062121	
-0.00151006	-0.00258697	0.000750378	
-0.000116812	-0.00224004	0.00012697	
-0.000112685	-0.00259686	6.22711e-05	
0.000703837	-0.00259258	-0.000353328	
0.000859041	-0.00249734	-0.000417925	
-2.08864e-05	-0.00256202	1.99829e-05	
0.000154438	-0.00255651	-6.13388e-05	
1.49609e-05	-0.00258311	7.33602e-06	
0.0015999	-0.00170374	-0.000602694	
0.000372672	-0.00215233	-0.000114949	
0.00118944	-0.00195447	-0.000478663	
8.36027e-05	-0.00211187	6.73571e-05	
8.49676e-06	-0.00255536	-4.14171e-06	
0.00256931	-0.00147958	-0.000956811	
1.1769e-06	-0.00257774	3.61802e-06	
9.01973e-05	-0.00261374	-4.04414e-05	
0.00333365	-0.000581732	-0.000760256	
2.15436e-05	-0.00254541	1.46484e-05	
0.00318513	-0.000894438	-0.000910425	
0.000854955	-0.00227643	-0.000393291	
-1.02754e-06	-0.00258317	-4.17013e-08	
3.47307e-05	-0.00234722	1.61633e-05	
0.000144213	-0.00141573	0.000175645	
-4.1551e-06	-0.00261771	2.94252e-05	
-0.00511005	-0.00101854	0.00187959	
-0.000122735	-0.00239272	8.70652e-06	
0.00024999	-0.00245433	-0.000147971	
-0.00817057	9.04194e-05	0.00216867	
0.000454396	-0.00262194	-0.000213083	
-2.95242e-05	-0.00242011	-2.02791e-05	
-0.00051727	-0.00261854	0.000257086	
0.000370883	-0.00261696	-0.00018667	
0.000451995	-0.00261385	-0.000232029	
-0.00104423	-0.00219728	0.000463428	
-0.00016691	-0.00260301	7.10542e-05	
-0.000929868	-0.00260845	0.000464801	
-0.000720167	-0.00249773	0.000349682	
-0.000486147	-0.00255274	0.000221615	
0.00030337	-0.00258611	-0.000166903	
-0.00320902	-0.00163802	0.0013502	
-0.00109699	-0.00211243	0.000469328	
-0.00117404	-0.00196488	0.000474907	
-2.2016e-05	-0.00254507	-1.46277e-05	
-9.14789e-05	-0.00189651	-7.5926e-05	
-2.1877e-05	-0.00257353	-3.54083e-07	
-0.00014598	-0.00159086	-0.000173732	
-1.07479e-05	-0.00260091	1.83425e-07	
-6.12797e-05	-0.00207575	-5.91834e-05	
-1.70542e-05	-0.00256396	-8.39606e-06	
-0.015719	0.0015505	0.00291979	
-0.000862206	-0.0023373	0.000392144	
-0.000166215	-0.00119581	-0.000180349	
-4.68398e-05	-0.0022885	-4.1083e-05	
0.0213082	0.00217569	-0.0039703	
0.00299126	-0.00153586	-0.0012354	
0.000564914	-0.00209831	-0.000239738	
-0.00012997	-0.00216761	8.43838e-05	
-6.74939e-05	-0.0023441	2.61423e-05	
2.02729e-05	-0.00213274	1.55258e-05	
0.00129474	-0.00232133	-0.000615125	
-0.00153703	-0.00231946	0.000736365	
-3.80739e-07	-0.00196043	3.20442e-05	
-0.000110589	-0.00230448	5.54582e-05	
0.000732284	-0.00231788	-0.000354757	
0.000903259	-0.00220823	-0.000428726	
9.77364e-06	-0.00226846	-6.94766e-08	
0.000168558	-0.00226199	-7.00496e-05	
1.0884e-05	-0.00228775	2.58498e-06	
0.00174567	-0.00145791	-0.000630979	
0.000411711	-0.00187355	-0.00014182	
0.00128286	-0.00168468	-0.000515229	
6.56709e-05	-0.00183285	4.54205e-05	
6.73933e-06	-0.00227792	-1.88238e-06	
0.00274426	-0.00125395	-0.000985393	
-9.38825e-08	-0.00231021	9.40279e-08	
9.51227e-05	-0.00234349	-4.06852e-05	
0.0035042	-0.000439485	-0.000814702	
1.52874e-05	-0.00225064	1.16193e-05	
0.00337884	-0.000719394	-0.000985944	
0.000935554	-0.00198951	-0.000432929	
1.20196e-07	-0.00231459	-3.9862e-07	
2.32912e-05	-0.00206266	1.17681e-05	
0.000110276	-0.00120685	0.000147093	
-1.52101e-05	-0.00234836	3.1512e-05	
-0.00548145	-0.000817846	0.00197257	
-0.000186341	-0.00210438	5.17467e-05	
0.00019479	-0.0021647	-0.000110233	
-0.00866345	0.000217907	0.00222487	
0.000454059	-0.00235151	-0.000203979	
-2.14955e-05	-0.00213167	-1.80083e-05	
-0.000524556	-0.00234789	0.000255734	
0.000368672	-0.00234262	-0.00017724	
0.000452631	-0.00233966	-0.000220072	
-0.00119846	-0.00191264	0.000536528	
-0.000186613	-0.00230915	8.03716e-05	
-0.000958096	-0.00233346	0.000462503	
-0.000764687	-0.00220437	0.00036161	
-0.000515146	-0.00225876	0.00023237	
0.000287915	-0.00228937	-0.000147415	
-0.00349089	-0.00140967	0.00139159	
-0.00117146	-0.00184079	0.000501582	
-0.00134011	-0.0016995	0.000543008	
-1.62874e-05	-0.00224986	-1.1774e-05	
-6.79321e-05	-0.00164124	-6.55122e-05	
-1.71912e-05	-0.00229436	-4.18577e-06	
-0.000105401	-0.00136819	-0.000142926	
-9.39212e-06	-0.00232925	-9.51358e-07	
-4.61719e-05	-0.00180611	-4.31492e-05	
-1.27159e-05	-0.00227191	-6.41157e-06	
-0.016369	0.0015443	0.00294953	
-0.000916287	-0.00204983	0.000412347	
-0.000129125	-0.00102023	-0.000147742	
-4.29746e-05	-0.00200325	-1.49157e-05	
0.0221334	0.0019642	-0.00391461	
0.00322703	-0.00128121	-0.0011793	
0.000660936	-0.00179568	-0.000251137	
-4.10699e-05	-0.00187785	3.61736e-05	
-5.05729e-05	-0.00208138	1.79084e-05	
1.13979e-05	-0.0018348	2.2926e-05	
0.00133492	-0.00206559	-0.000572895	
-0.00157605	-0.00206544	0.00067391	
0.000105399	-0.00166055	-1.74448e-05	
-0.000115425	-0.00205219	5.47884e-05	
0.000768703	-0.00205965	-0.000329582	
0.000988242	-0.00193773	-0.000423559	
2.92224e-05	-0.00202941	-7.28623e-06	
0.000192315	-0.00202511	-7.62467e-05	
7.56537e-06	-0.00204058	1.5914e-06	
0.00189317	-0.00121009	-0.000608298	
0.00045949	-0.00157813	-0.000151859	
0.00138469	-0.0014098	-0.000492106	
4.69293e-05	-0.00154009	4.32602e-05	
6.99976e-06	-0.00202868	-2.14023e-06	
0.00292204	-0.00104263	-0.000907613	
-8.48359e-07	-0.00206189	4.76e-07	
9.80081e-05	-0.00207788	-3.79445e-05	
0.00365895	-0.000361547	-0.000801333	
1.05858e-05	-0.00200653	1.14681e-05	
0.00356281	-0.000590901	-0.000964874	
0.00101128	-0.00169288	-0.000404233	
-1.77189e-07	-0.00205639	4.27725e-07	
1.59518e-05	-0.00175576	1.32026e-05	
7.22111e-05	-0.00100914	0.00013065	
-2.52191e-05	-0.00208259	3.06733e-05	
-0.0058503	-0.000677691	0.00186575	
-0.000264036	-0.00179657	7.01638e-05	
0.000110743	-0.00187194	-6.11436e-05	
-0.00911215	0.000211321	0.00214966	
0.000462446	-0.00208788	-0.000189211	
-1.1569e-05	-0.00183022	-2.78572e-05	
-0.000538914	-0.00208679	0.000238002	
0.000366329	-0.00208489	-0.000158158	
0.000454376	-0.00207755	-0.000192841	
-0.00134883	-0.00162353	0.000532474	
-0.000204041	-0.00204983	7.51783e-05	
-0.00099855	-0.00206825	0.000424123	
-0.000845016	-0.00192918	0.000364766	
-0.000556655	-0.0020167	0.000226945	
0.000283588	-0.00203453	-0.000125978	
-0.00377567	-0.00116347	0.00132728	
-0.00125617	-0.00155261	0.000489381	
-0.00150925	-0.00142004	0.000542885	
-1.19165e-05	-0.00199864	-8.10186e-06	
-4.59183e-05	-0.00137325	-6.34356e-05	
-1.43103e-05	-0.00203662	-5.72757e-06	
-7.19327e-05	-0.00114209	-0.000122085	
-7.37356e-06	-0.0020635	-3.106e-06	
-3.02646e-05	-0.00151938	-3.96785e-05	
-8.21359e-06	-0.00202546	-4.09426e-06	
-0.016943	0.00137189	0.00292609	
-0.000979793	-0.00174273	0.000401678	
-8.90472e-05	-0.000856212	-0.000132579	
-2.65534e-05	-0.00169821	-2.90764e-05	
0.0228727	0.00154252	-0.00402719	
0.00342827	-0.00112712	-0.00121378	
0.000756251	-0.00158727	-0.00027756	
5.20713e-05	-0.00166531	-4.24989e-06	
-4.90098e-05	-0.00188478	1.71258e-05	
8.88157e-06	-0.00162506	1.84715e-05	
0.00137281	-0.00188046	-0.000547407	
-0.00160148	-0.00188027	0.000643495	
0.000217201	-0.00146562	-6.1818e-05	
-0.000102646	-0.00184104	4.39087e-05	
0.000806836	-0.00186158	-0.000329036	
0.00107335	-0.00172324	-0.000426701	
5.54379e-05	-0.00182136	-2.18256e-05	
0.000222718	-0.00181068	-8.15047e-05	
5.85773e-06	-0.00182857	1.35296e-06	
0.00200947	-0.00106298	-0.000638518	
0.000502705	-0.0013901	-0.000163473	
0.00147299	-0.00123938	-0.000522038	
3.44762e-05	-0.00135465	3.88957e-05	
5.01279e-06	-0.00183123	-7.18578e-08	
0.00305767	-0.000924358	-0.000952628	
-4.38101e-07	-0.00187659	2.58895e-07	
0.000102353	-0.00187804	-3.744e-05	
0.00379197	-0.000331997	-0.000866907	
6.57743e-06	-0.00178759	1.294e-05	
0.00371439	-0.000529002	-0.00104516	
0.00108217	-0.00149604	-0.000416682	
1.41696e-06	-0.00186319	-3.73327e-07	
1.04e-05	-0.0015516	1.54234e-05	
5.14771e-05	-0.000892404	0.000108096	
-3.08923e-05	-0.00188171	2.93322e-05	
-0.00613354	-0.000618975	0.0019793	
-0.000347965	-0.00159285	0.000109287	
2.24502e-05	-0.00166508	-2.20822e-05	
-0.00948879	0.000135975	0.00226417	
0.000479287	-0.00188936	-0.000184406	
-9.90306e-06	-0.00162564	-1.80533e-05	
-0.000552594	-0.00189582	0.000228338	
0.000365462	-0.00189366	-0.000146524	
0.000446068	-0.00188873	-0.000182493	
-0.00150296	-0.00143672	0.000569384	
-0.000235854	-0.00184111	8.66683e-05	
-0.00103685	-0.00186846	0.00041829	
-0.000927806	-0.00172048	0.000370625	
-0.000610245	-0.00180742	0.000238244	
0.000283897	-0.00182626	-0.000120026	
-0.00399997	-0.00102732	0.00138336	
-0.00134513	-0.00137251	0.000489637	
-0.00165697	-0.00124827	0.000594432	
-6.77634e-06	-0.00178627	-1.2138e-05	
-3.24829e-05	-0.00120678	-5.51236e-05	
-1.03022e-05	-0.00183897	-7.23376e-06	
-5.12433e-05	-0.00101064	-0.000102111	
-6.09299e-06	-0.00186801	-3.63442e-06	
-2.02824e-05	-0.00133967	-3.5377e-05	
-4.68354e-06	-0.00182259	-4.77343e-06	
-0.0174607	0.00105381	0.00296241	
-0.00104084	-0.00154585	0.000397715	
-6.39494e-05	-0.000759819	-0.000109842	
-2.0814e-05	-0.00150857	-2.20433e-05	
0.0235466	0.00116311	-0.00423967	
0.00378338	-0.00132327	-0.00136281	
0.000815399	-0.00173888	-0.000303595	
0.000147106	-0.00181864	-4.44522e-05	
-3.10388e-05	-0.00195044	9.34688e-06	
6.64417e-06	-0.00176688	1.91724e-05	
0.0013747	-0.00193944	-0.000552447	
-0.00165304	-0.00197417	0.000668795	
0.000260478	-0.00169004	-8.06539e-05	
-0.000109365	-0.00196124	4.78515e-05	
0.00085076	-0.00197276	-0.000348422	
0.00111292	-0.0018633	-0.000448207	
0.000115737	-0.00193531	-4.85769e-05	
0.000231896	-0.0019043	-8.70359e-05	
5.6352e-06	-0.00195292	9.9588e-07	
0.00217355	-0.00119024	-0.000704846	
0.000530157	-0.00165374	-0.000175058	
0.0015466	-0.00153394	-0.000554972	
3.40827e-05	-0.00163614	4.1794e-05	
5.39789e-06	-0.00193446	1.55251e-06	
0.00320859	-0.00100539	-0.00103343	
-5.06068e-07	-0.00194645	2.27848e-07	
9.75572e-05	-0.00194903	-3.6621e-05	
0.00393239	-0.00039539	-0.000940405	
4.56776e-06	-0.00189945	1.27988e-05	
0.00387127	-0.000590273	-0.00113166	
0.00111436	-0.00168912	-0.000432835	
2.16075e-06	-0.00198343	7.61761e-08	
8.29789e-06	-0.00172057	1.64772e-05	
4.05841e-05	-0.000934438	9.72499e-05	
-4.29706e-05	-0.00194526	3.28472e-05	
-0.00643585	-0.000688795	0.0021349	
-0.000396006	-0.00175954	0.000131029	
-6.74991e-05	-0.00183756	1.60612e-05	
-0.0098492	3.00427e-06	0.00239598	
0.000480913	-0.00194523	-0.000188245	
-7.69938e-06	-0.00178284	-1.86452e-05	
-0.000549259	-0.00194396	0.000228207	
0.000399491	-0.00194832	-0.000161586	
0.000457488	-0.00198106	-0.000188007	
-0.00156326	-0.00169268	0.000600063	
-0.00024273	-0.00197382	9.01858e-05	
-0.00106831	-0.00199052	0.000434285	
-0.000960038	-0.00187522	0.000388696	
-0.000663777	-0.00191186	0.000262655	
0.000265844	-0.00195973	-0.000111731	
-0.00429376	-0.00114485	0.00152033	
-0.00141329	-0.00165738	0.000521074	
-0.00194175	-0.00144222	0.000717174	
-4.36717e-06	-0.00190547	-1.2232e-05	
-2.69779e-05	-0.00135716	-5.61592e-05	
-1.00002e-05	-0.00195029	-6.97442e-06	
-4.13628e-05	-0.00106645	-9.27363e-05	
-6.18791e-06	-0.00198672	-3.64e-06	
-1.66804e-05	-0.00162816	-3.87625e-05	
-3.52067e-06	-0.00194791	-4.0787e-06	
-0.0179242	0.000782117	0.00309354	
-0.00106744	-0.00173669	0.000413333	
-4.98811e-05	-0.000777456	-9.67107e-05	
-1.88459e-05	-0.00171813	-2.29336e-05	
0.0241176	0.000881456	-0.00451751	
0.00400773	-0.00122436	-0.00147264	
0.000964032	-0.00185452	-0.000369732	
0.000207253	-0.00195626	-7.30062e-05	
2.20151e-05	-0.00220815	-1.46736e-05	
3.97727e-06	-0.00191807	1.75559e-05	
0.00136503	-0.00220571	-0.000548914	
-0.00155731	-0.00219705	0.000632702	
0.00046719	-0.00167756	-0.000171777	
-7.22545e-05	-0.00212055	3.22367e-05	
0.000847475	-0.00212648	-0.000347858	
0.00112637	-0.00198476	-0.000457843	
0.000159396	-0.00207263	-7.15345e-05	
0.000288298	-0.00205853	-0.000114246	
3.76314e-06	-0.00209383	-9.67488e-07	
0.0023119	-0.00111425	-0.000779881	
0.000585778	-0.0015333	-0.000210242	
0.00161998	-0.00136207	-0.00060583	
2.34288e-05	-0.00147756	2.81708e-05	
5.78343e-06	-0.00211322	2.25975e-06	
0.00334048	-0.000942899	-0.00111353	
-7.48943e-08	-0.00220742	-2.65046e-07	
0.000101001	-0.00224541	-4.07608e-05	
0.00404806	-0.00038785	-0.00100818	
1.80016e-06	-0.00200668	1.07707e-05	
0.00401723	-0.000555202	-0.00120999	
0.00115935	-0.00172826	-0.00045671	
2.89576e-06	-0.00213006	4.65366e-07	
5.27245e-06	-0.00178113	1.37543e-05	
2.5175e-05	-0.000869683	6.90332e-05	
-9.2473e-05	-0.00225156	5.33924e-05	
-0.00671473	-0.00066285	0.00226581	
-0.000553245	-0.00186064	0.000202717	
-0.000175677	-0.00198921	6.50316e-05	
-0.0101629	-7.0142e-05	0.00253101	
0.000471414	-0.00221656	-0.00018487	
-4.32961e-06	-0.00194093	-1.56962e-05	
-0.000517936	-0.00220917	0.000213801	
0.000383155	-0.00223236	-0.000154948	
0.000391786	-0.0022241	-0.000159895	
-0.00178888	-0.00166005	0.000702765	
-0.000283252	-0.00214873	0.000109099	
-0.00106406	-0.00216384	0.000435004	
-0.000942914	-0.00205416	0.000385466	
-0.00072617	-0.00209008	0.000292481	
0.000238517	-0.00212399	-9.75208e-05	
-0.00455463	-0.00108184	0.00163791	
-0.00150751	-0.00152387	0.000574787	
-0.00211332	-0.00134462	0.000799717	
-1.77925e-06	-0.00204757	-1.06982e-05	
-1.72861e-05	-0.00127689	-4.19785e-05	
-9.71379e-06	-0.00214687	-7.43804e-06	
-2.66199e-05	-0.0010006	-6.64384e-05	
-5.91345e-06	-0.002165	-2.60679e-06	
-8.1699e-06	-0.00145245	-2.68363e-05	
-2.53701e-07	-0.00210568	-1.50351e-06	
-0.0183085	0.000576525	0.00328951	
-0.00110295	-0.00178968	0.000434732	
-3.16189e-05	-0.000716928	-6.7401e-05	
-1.36423e-05	-0.00175235	-1.69275e-05	
0.0245257	0.000644648	-0.00476088	
0.00416126	-0.000952911	-0.00154358	
0.000988652	-0.00144775	-0.000389618	
0.000270954	-0.00144918	-0.000105914	
3.42298e-05	-0.00160973	-1.9042e-05	
9.63272e-07	-0.00144598	9.24615e-06	
0.00139568	-0.00156574	-0.00057388	
-0.00158014	-0.00152916	0.000643804	
0.000551563	-0.00125531	-0.000215347	
-4.80489e-05	-0.00149514	2.23214e-05	
0.000902416	-0.00156359	-0.000373168	
0.00111135	-0.00151376	-0.000454571	
0.000172824	-0.00146549	-7.8639e-05	
0.000245972	-0.00146898	-0.000102194	
1.50372e-06	-0.0014747	-2.18518e-06	
0.00240971	-0.000879332	-0.000840742	
0.000616791	-0.00121576	-0.000233626	
0.00170944	-0.00105647	-0.000653973	
1.25831e-05	-0.00118074	1.27946e-05	
3.98237e-06	-0.00148856	1.57353e-06	
0.00342385	-0.000746542	-0.00117145	
-5.19779e-07	-0.00152829	-1.02699e-06	
0.00011777	-0.00157304	-4.74692e-05	
0.00413842	-0.000330112	-0.00106343	
-2.00034e-07	-0.00150966	4.83503e-06	
0.00412264	-0.000463995	-0.00125417	
0.00128025	-0.00129839	-0.000512808	
2.8333e-06	-0.00155708	1.10846e-06	
1.79011e-06	-0.0014241	6.8375e-06	
1.10881e-05	-0.000700838	3.60774e-05	
-4.64111e-05	-0.00158812	2.60418e-05	
-0.00692721	-0.000596516	0.00233793	
-0.000628099	-0.00155865	0.000241012	
-0.000250749	-0.00161873	0.000103439	
-0.01042	-0.000125978	0.00264144	
0.0004699	-0.00164195	-0.000192407	
-1.8512e-06	-0.00156927	-9.74414e-06	
-0.000541973	-0.00164289	0.000229658	
0.000376545	-0.00161415	-0.000154639	
0.0004339	-0.00161428	-0.00017887	
-0.00185671	-0.00132388	0.000731978	
-0.000287904	-0.00163393	0.000114714	
-0.0010778	-0.00168281	0.000445787	
-0.00096869	-0.00164773	0.000400451	
-0.000666363	-0.00164039	0.00027545	
0.000240637	-0.00162378	-9.72531e-05	
-0.00479047	-0.000939688	0.00173677	
-0.0015197	-0.00130674	0.000584036	
-0.00228318	-0.00129909	0.000875166	
7.12249e-07	-0.00168523	-5.76384e-06	
-8.40196e-06	-0.00112447	-2.33067e-05	
-5.82735e-06	-0.00162068	-4.18098e-06	
-1.31379e-05	-0.000861069	-3.50695e-05	
-5.39471e-06	-0.00165472	-2.4245e-06	
-1.87518e-06	-0.00130476	-1.39083e-05	
1.73762e-06	-0.00163107	2.48078e-06	
-0.0186095	0.000384088	0.00348462	
-0.0012043	-0.0014952	0.000483795	
-1.6192e-05	-0.000630648	-3.71511e-05	
-7.42632e-06	-0.00138869	-8.50939e-06	
0.0247685	0.00021003	-0.00526793	
0.00404827	-0.00114145	-0.00162509	
0.00111611	-0.00142243	-0.000496747	
0.000284662	-0.00156864	-0.00013218	
4.29918e-05	-0.00136538	-2.50986e-05	
-1.73803e-06	-0.00152732	5.82876e-06	
0.00128924	-0.0013649	-0.000594774	
-0.00154396	-0.00141625	0.000701121	
0.000631187	-0.00127209	-0.000274299	
-7.1224e-05	-0.00152191	3.52178e-05	
0.000784825	-0.00149402	-0.000368972	
0.00104941	-0.00156228	-0.000477591	
0.000131488	-0.00154137	-6.565e-05	
0.000234619	-0.00156794	-0.000105892	
2.16084e-06	-0.00152771	-8.90132e-07	
0.00241472	-0.00101954	-0.000917883	
0.00062244	-0.00120364	-0.00026061	
0.00168097	-0.00109337	-0.000707206	
8.72908e-06	-0.00116772	7.37584e-06	
1.33483e-06	-0.0014942	-1.02084e-07	
0.0034209	-0.000902752	-0.00124927	
-4.77409e-07	-0.00139145	-1.12617e-06	
0.000115671	-0.0013695	-5.39165e-05	
0.00418876	-0.000466787	-0.00115362	
-1.46184e-06	-0.00156673	2.5592e-06	
0.00417658	-0.000602116	-0.0013277	
0.001241	-0.00130981	-0.000548916	
2.49261e-06	-0.00144532	-3.96631e-07	
-7.72509e-07	-0.00134747	3.74825e-06	
5.24921e-06	-0.000818824	2.42424e-05	
-4.73457e-05	-0.00137504	2.83147e-05	
-0.00696557	-0.000637804	0.0024384	
-0.000720051	-0.00121419	0.000318601	
-0.000305913	-0.00127889	0.000143787	
-0.0105019	-0.000283418	0.0028973	
0.000447869	-0.0013783	-0.000207981	
-3.01568e-07	-0.00127743	-6.21012e-06	
-0.000497703	-0.0013828	0.00023116	
0.000381096	-0.00139638	-0.000177695	
0.000440403	-0.00142575	-0.000204574	
-0.00186561	-0.00106473	0.000811962	
-0.000319663	-0.0015352	0.000144617	
-0.000911205	-0.00151319	0.000430404	
-0.000960597	-0.0013497	0.000445649	
-0.000700398	-0.00145478	0.000321842	
0.000192589	-0.00150142	-8.76885e-05	
-0.00473046	-0.000876175	0.00183863	
-0.00150076	-0.00101266	0.000641424	
-0.00220976	-0.000915852	0.000928257	
2.26492e-06	-0.00140185	-1.58202e-06	
-3.42118e-06	-0.00094458	-1.09022e-05	
-1.84056e-06	-0.00154118	-1.96084e-07	
-5.73714e-06	-0.000823474	-1.76115e-05	
-3.35923e-06	-0.00145837	-6.94799e-07	
8.26034e-07	-0.00097399	-6.05986e-06	
-2.1586e-07	-0.00147478	2.66475e-07	
-0.0186769	0.000108013	0.00391943	
-0.00116146	-0.00115123	0.000523877	
-6.63778e-06	-0.000609689	-1.96405e-05	
-3.86215e-06	-0.00112352	-4.5624e-06	
				</DataArray>
				<DataArray type="Float64" Name="Time Step Shed" NumberOfComponents="1" Format="ascii">
3	
3	
3	
3	
3	
3	
3	
3	
3	
3	
3	
3	
3	
3	
3	
3	
3	
3	
3	
3	
3	
3	
3	
3	
3	
3	
3	
3	
3	
3	
3	
3	
3	
3	
3	
3	
3	
3	
3	
3	
3	
3	
3	
3	
3	
3	
3	
3	
3	
3	
3	
3	
3	
3	
3	
3	
3	
3	
3	
3	
4	
4	
4	
4	
4	
4	
4	
4	
4	
4	
4	
4	
4	
4	
4	
4	
4	
4	
4	
4	
4	
4	
4	
4	
4	
4	
4	
4	
4	
4	
4	
4	
4	
4	
4	
4	
4	
4	
4	
4	
4	
4	
4	
4	
4	
4	
4	
4	
4	
4	
4	
4	
4	
4	
4	
4	
4	
4	
4	
4	
5	
5	
5	
5	
5	
5	
5	
5	
5	
5	
5	
5	
5	
5	
5	
5	
5	
5	
5	
5	
5	
5	
5	
5	
5	
5	
5	
5	
5	
5	
5	
5	
5	
5	
5	
5	
5	
5	
5	
5	
5	
5	
5	
5	
5	
5	
5	
5	
5	
5	
5	
5	
5	
5	
5	
5	
5	
5	
5	
5	
6	
6	
6	
6	
6	
6	
6	
6	
6	
6	
6	
6	
6	
6	
6	
6	
6	
6	
6	
6	
6	
6	
6	
6	
6	
6	
6	
6	
6	
6	
6	
6	
6	
6	
6	
6	
6	
6	
6	
6	
6	
6	
6	
6	
6	
6	
6	
6	
6	
6	
6	
6	
6	
6	
6	
6	
6	
6	
6	
6	
7	
7	
7	
7	
7	
7	
7	
7	
7	
7	
7	
7	
7	
7	
7	
7	
7	
7	
7	
7	
7	
7	
7	
7	
7	
7	
7	
7	
7	
7	
7	
7	
7	
7	
7	
7	
7	
7	
7	
7	
7	
7	
7	
7	
7	
7	
7	
7	
7	
7	
7	
7	
7	
7	
7	
7	
7	
7	
7	
7	
8	
8	
8	
8	
8	
8	
8	
8	
8	
8	
8	
8	
8	
8	
8	
8	
8	
8	
8	
8	
8	
8	
8	
8	
8	
8	
8	
8	
8	
8	
8	
8	
8	
8	
8	
8	
8	
8	
8	
8	
8	
8	
8	
8	
8	
8	
8	
8	
8	
8	
8	
8	
8	
8	
8	
8	
8	
8	
8	
8	
9	
9	
9	
9	
9	
9	
9	
9	
9	
9	
9	
9	
9	
9	
9	
9	
9	
9	
9	
9	
9	
9	
9	
9	
9	
9	
9	
9	
9	
9	
9	
9	
9	
9	
9	
9	
9	
9	
9	
9	
9	
9	
9	
9	
9	
9	
9	
9	
9	
9	
9	
9	
9	
9	
9	
9	
9	
9	
9	
9	
10	
10	
10	
10	
10	
10	
10	
10	
10	
10	
10	
10	
10	
10	
10	
10	
10	
10	
10	
10	
10	
10	
10	
10	
10	
10	
10	
10	
10	
10	
10	
10	
10	
10	
10	
10	
10	
10	
10	
10	
10	
10	
10	
10	
10	
10	
10	
10	
10	
10	
10	
10	
10	
10	
10	
10	
10	
10	
10	
10	
11	
11	
11	
11	
11	
11	
11	
11	
11	
11	
11	
11	
11	
11	
11	
11	
11	
11	
11	
11	
11	
11	
11	
11	
11	
11	
11	
11	
11	
11	
11	
11	
11	
11	
11	
11	
11	
11	
11	
11	
11	
11	
11	
11	
11	
11	
11	
11	
11	
11	
11	
11	
11	
11	
11	
11	
11	
11	
11	
11	
12	
12	
12	
12	
12	
12	
12	
12	
12	
12	
12	
12	
12	
12	
12	
12	
12	
12	
12	
12	
12	
12	
12	
12	
12	
12	
12	
12	
12	
12	
12	
12	
12	
12	
12	
12	
12	
12	
12	
12	
12	
12	
12	
12	
12	
12	
12	
12	
12	
12	
12	
12	
12	
12	
12	
12	
12	
12	
12	
12	
13	
13	
13	
13	
13	
13	
13	
13	
13	
13	
13	
13	
13	
13	
13	
13	
13	
13	
13	
13	
13	
13	
13	
13	
13	
13	
13	
13	
13	
13	
13	
13	
13	
13	
13	
13	
13	
13	
13	
13	
13	
13	
13	
13	
13	
13	
13	
13	
13	
13	
13	
13	
13	
13	
13	
13	
13	
13	
13	
13	
				</DataArray>
			</CellData>
			<Points>
				<DataArray type="Float64" Name="Position" NumberOfComponents="3" Format="ascii">
2.24649	2.91002	0.169763	
2.23764	2.33298	0.127657	
2.22866	1.64547	0.150708	
2.23229	1.4463	0.155913	
2.22839	0.148354	0.164213	
2.23138	1.54554	0.154396	
2.23013	0.248815	0.166927	
2.22913	0.450316	0.16446	
2.23239	1.94384	0.142168	
2.22699	0.849253	0.160432	
2.23085	0.650099	0.16081	
2.2291	1.34653	0.156629	
2.23181	1.04916	0.159948	
2.23118	1.14859	0.159567	
2.23117	0.949362	0.161602	
2.23921	2.4303	0.124478	
2.23606	2.04263	0.138389	
2.23776	2.23658	0.130289	
2.23856	2.14017	0.134943	
2.23131	0.749652	0.162522	
2.24191	2.52836	0.119484	
2.22861	0.349598	0.167397	
2.22909	0.0483504	0.163931	
2.24395	2.81923	0.134875	
2.23191	1.24731	0.159095	
2.2438	2.72475	0.116732	
2.23222	1.84465	0.14743	
2.23424	0.550607	0.163877	
2.23395	1.74542	0.151643	
2.24429	2.62731	0.114924	
2.22888	-0.0511868	0.16313	
2.23983	-2.62474	0.112786	
2.22844	-1.64498	0.148728	
2.23123	-1.44724	0.155554	
2.24355	-2.81578	0.142065	
2.2291	-0.150906	0.162343	
2.23046	-1.54591	0.152976	
2.23071	-0.250694	0.162285	
2.22975	-0.350517	0.160494	
2.23094	-0.449671	0.159662	
2.2309	-1.94135	0.14432	
2.22726	-0.848223	0.161265	
2.23065	-0.648668	0.160319	
2.22912	-1.34786	0.157482	
2.23053	-1.14845	0.159658	
2.23091	-0.948398	0.162183	
2.23933	-2.43127	0.120028	
2.23421	-2.0407	0.143808	
2.23618	-2.23675	0.13362	
2.23143	-1.24774	0.159658	
2.23986	-2.33388	0.127595	
2.23109	-0.74849	0.163056	
2.2421	-2.52826	0.115025	
2.23415	-0.549413	0.161172	
2.23522	-2.13875	0.140272	
2.23305	-1.0486	0.162503	
2.24831	-2.90895	0.176347	
2.23337	-1.7442	0.149182	
2.24408	-2.72217	0.120183	
2.23302	-1.84285	0.147416	
2.1671	2.92456	0.123039	
2.20492	2.34384	0.0392214	
2.21151	1.648	0.0668496	
2.21656	1.44817	0.0689138	
2.21511	0.149013	0.0804599	
2.2144	1.54787	0.0679722	
2.21603	0.249413	0.0822865	
2.21506	0.449575	0.0805655	
2.21078	1.94776	0.0559063	
2.21365	0.849977	0.0778285	
2.21618	0.650295	0.075568	
2.21363	1.34853	0.0723217	
2.21663	1.04996	0.0735723	
2.21508	1.14992	0.0729899	
2.21531	0.949808	0.0751908	
2.19987	2.44261	0.0375529	
2.21184	2.04737	0.049473	
2.20829	2.24566	0.0404876	
2.21085	2.14676	0.0435148	
2.21563	0.750391	0.076299	
2.19539	2.54305	0.0354319	
2.21304	0.34975	0.083719	
2.21607	0.0491889	0.0788878	
2.17209	2.84042	0.0717432	
2.21538	1.24885	0.0719977	
2.1798	2.74536	0.0421302	
2.21053	1.84806	0.0609453	
2.21766	0.550145	0.0757863	
2.21256	1.74828	0.0635905	
2.18822	2.64454	0.0338924	
2.21615	-0.0503737	0.077973	
2.18681	-2.64386	0.0328384	
2.21147	-1.64788	0.0638489	
2.21595	-1.44918	0.0685631	
2.17293	-2.83709	0.0798511	
2.21527	-0.15026	0.0771469	
2.21374	-1.54837	0.0661114	
2.21704	-0.250123	0.0760814	
2.21607	-0.350254	0.0750703	
2.2179	-0.449601	0.0736117	