<VTKFile type="UnstructuredGrid" version="0.1" byte_order="LittleEndian">
	<UnstructuredGrid>
		<Piece NumberOfPoints="1200" NumberOfCells="1200">
			<CellData Scalars="scalars">
				<DataArray type="Float64" Name="Strength" NumberOfComponents="3" Format="ascii">
0.0171221	-0.0109293	0.00102832	
0.00197226	-0.0236117	0.00367987	
0.000677354	-0.0252221	0.00109856	
-0.000100734	-0.0264653	0.00125002	
-0.000535696	-0.0260716	0.000457828	
0.000393209	-0.0258036	0.00104742	
0.00104553	-0.0264601	-0.000436959	
-0.00136857	-0.0257236	0.00100311	
-2.37979e-05	-0.025076	0.00242587	
0.000195303	-0.0254731	0.000261424	
0.000817314	-0.0264127	-0.000379025	
0.0010474	-0.0254492	0.000279433	
0.00015618	-0.026798	0.000581434	
0.000442956	-0.0262973	0.000579591	
0.000261871	-0.0261046	0.000443476	
0.000671505	-0.0220222	0.0054513	
0.000658222	-0.0253941	0.00263795	
0.00104076	-0.0241498	0.00361354	
0.00048987	-0.0251891	0.0034625	
0.00023117	-0.0259199	8.52739e-05	
0.00140259	-0.0208634	0.00651321	
-3.1796e-05	-0.0252151	0.000175386	
-0.000217982	-0.0259917	0.000273027	
0.0029805	-0.0142403	0.00657335	
0.000402716	-0.0261645	0.000757999	
0.00197879	-0.0165468	0.00736032	
0.00108121	-0.0249552	0.00119127	
0.000142876	-0.0267214	-5.35391e-05	
0.000481303	-0.0256351	0.00147917	
-0.000430136	-0.0184947	0.00791365	
-2.92936e-06	-0.0260277	0.000415925	
-0.00331726	-0.018722	-0.00666276	
-0.000370011	-0.0254665	-0.00158565	
2.7568e-05	-0.0264444	-0.00124148	
-0.0068382	-0.0145646	-0.0056303	
0.000381014	-0.0262262	-4.77816e-05	
-0.0004034	-0.0258951	-0.00114332	
-0.00061955	-0.0267054	0.000331358	
0.000340879	-0.0261588	-0.000263853	
0.000551072	-0.0265913	-0.000420516	
-0.000852235	-0.0248144	-0.00208718	
-9.15999e-05	-0.02556	-0.000402802	
-0.000841043	-0.0265629	0.000241542	
-0.000979561	-0.0255431	-0.000409007	
-0.000879699	-0.0261712	-0.000389805	
0.000285851	-0.0260982	-0.000774266	
-0.0020328	-0.0220928	-0.00476861	
-0.00113222	-0.02482	-0.00242609	
-0.000784157	-0.0235898	-0.00338775	
-0.000506804	-0.0260907	-0.000779617	
-9.16958e-05	-0.0234874	-0.00458056	
-3.69023e-05	-0.0260165	-0.00040436	
0.000101375	-0.0202773	-0.00752228	
2.44992e-05	-0.0270973	-0.00019757	
-0.000382327	-0.0241619	-0.00328218	
-0.000214369	-0.0266016	-0.000659938	
-0.0137108	-0.0111959	-0.00164084	
-0.000964595	-0.0260386	-0.00140773	
-0.000250396	-0.0162257	-0.00846843	
-0.000365804	-0.0253044	-0.00212847	
0.0184666	0.000542848	-0.00366042	
0.0022627	-0.004113	-0.000816202	
0.000385025	-0.00486726	-1.54676e-05	
-0.00021211	-0.00492841	0.000410677	
-0.00015017	-0.00521008	0.000179002	
9.6773e-05	-0.00489752	0.00017123	
0.00102422	-0.00512055	-0.000839196	
-0.00123928	-0.0051309	0.00110778	
-0.000202644	-0.00464941	0.000640793	
-6.55503e-05	-0.0051127	0.000105676	
0.000574213	-0.00506734	-0.000488343	
0.000708028	-0.00506911	-0.000426859	
-4.87123e-05	-0.00505081	0.000159273	
0.000144469	-0.00510369	2.24693e-05	
3.62055e-05	-0.00507332	8.14182e-05	
0.00137959	-0.00379368	0.000108722	
0.000344538	-0.00454081	0.000301561	
0.00105428	-0.00421519	8.14875e-06	
0.000236473	-0.00445624	0.000574141	
2.52635e-05	-0.00496218	-3.82207e-07	
0.00223796	-0.00350239	-0.00020617	
-7.98284e-06	-0.00503751	3.08754e-05	
5.34935e-05	-0.00523581	5.07231e-06	
0.00310989	-0.00185219	7.34702e-05	
7.86475e-05	-0.0051393	0.000128929	
0.00286739	-0.00244058	1.52018e-05	
0.000707218	-0.00474161	-0.000220293	
8.03044e-08	-0.00509932	-3.71925e-06	
0.000107624	-0.00481775	0.000242196	
0.000333842	-0.00293132	0.0010837	
2.62978e-05	-0.00526691	8.80142e-05	
-0.00440084	-0.00308275	0.00102281	
-8.37825e-05	-0.00489942	-0.000291104	
0.000265698	-0.00495637	-0.00044955	
-0.0073235	-0.0016124	0.00145402	
0.000387276	-0.00525024	-0.000281396	
-8.07209e-05	-0.00491225	-0.000202256	
-0.000426345	-0.00520945	0.000396144	
0.000325958	-0.0051682	-0.000291382	
0.000404128	-0.00518648	-0.000375673	
-0.00076495	-0.00459624	7.2477e-05	
-0.000131996	-0.00511943	1.70417e-05	
-0.000762078	-0.0051816	0.000612763	
-0.000583677	-0.00503382	0.000310712	
-0.000430921	-0.0050885	0.000191629	
0.000281016	-0.00504147	-0.000380321	
-0.00259908	-0.00391441	0.000774071	
-0.00093006	-0.00451019	0.000121093	
-0.000893348	-0.00429195	-8.67238e-05	
-8.19944e-05	-0.00513427	-0.000140936	
-0.000273928	-0.00399012	-0.000716948	
-4.33317e-05	-0.00505148	-5.92376e-05	
-0.000386604	-0.00332306	-0.00108471	
-1.96519e-05	-0.0051621	-3.3979e-05	
-0.000221862	-0.00432997	-0.000553309	
-4.02496e-05	-0.00505729	-0.000113184	
-0.0143175	-6.10192e-05	0.00303451	
-0.000724265	-0.00487206	0.000205978	
-0.000371991	-0.00237822	-0.00106213	
-0.000145448	-0.00473273	-0.000356829	
0.0191582	0.00363736	-0.00338252	
0.00237134	-0.00146808	-0.00149653	
0.000393738	-0.00210636	-0.000198734	
-0.000165829	-0.00217361	0.00026256	
-8.90638e-05	-0.00235328	9.84397e-05	
7.39513e-05	-0.00213689	5.61579e-05	
0.00106402	-0.00231853	-0.000881912	
-0.00126693	-0.00231397	0.0010943	
-0.000142217	-0.00198683	0.000318935	
-7.8578e-05	-0.00230528	9.68399e-05	
0.0005825	-0.0023109	-0.000498041	
0.000723742	-0.00222319	-0.000542952	
-2.95636e-05	-0.00226753	8.99878e-05	
0.000143384	-0.00227691	-4.67988e-05	
2.83722e-05	-0.00229314	3.79418e-05	
0.00145662	-0.00143194	-0.000652783	
0.000351706	-0.00191886	-4.7888e-05	
0.00109189	-0.00169074	-0.000542464	
0.000196541	-0.00187716	0.000160799	
1.28815e-05	-0.00226427	5.24505e-06	
0.00235084	-0.00119763	-0.00105183	
7.41223e-07	-0.0023022	9.94574e-06	
8.89264e-05	-0.00236306	-4.51453e-05	
0.00318232	-0.000280816	-0.000437709	
5.80322e-05	-0.00227757	5.15777e-05	
0.00301294	-0.000614019	-0.00066116	
0.000717898	-0.00203145	-0.00046328	
-9.05966e-06	-0.00231304	4.60408e-06	
7.26055e-05	-0.0020886	7.73676e-05	
0.00027402	-0.00120366	0.000320532	
2.5575e-05	-0.00237302	3.76023e-05	
-0.00465423	-0.000609229	0.00189518	
-9.94595e-05	-0.00212831	-8.43592e-05	
0.000222479	-0.00217809	-0.00031182	
-0.00763372	0.000708458	0.00176308	
0.000397385	-0.00236772	-0.000307237	
-7.22792e-05	-0.00214579	-7.19626e-05	
-0.000418626	-0.00236347	0.000382141	
0.000320982	-0.00235748	-0.000282	
0.00038355	-0.00235677	-0.000348054	
-0.000852479	-0.00195294	0.000477698	
-0.000152289	-0.0023182	8e-05	
-0.000788789	-0.00233902	0.000660305	
-0.000603463	-0.00222232	0.000432867	
-0.000418522	-0.00227434	0.000271688	
0.000258291	-0.00229667	-0.000293545	
-0.00276516	-0.00131537	0.00162391	
-0.000959075	-0.00188685	0.000516811	
-0.00099216	-0.00172841	0.000479148	
-5.87368e-05	-0.00227709	-5.87456e-05	
-0.000233821	-0.00165241	-0.000171	
-4.33842e-05	-0.00229603	-1.66427e-05	
-0.000311179	-0.00134805	-0.000310499	
-2.06971e-05	-0.00234117	-5.80309e-06	
-0.00016838	-0.00183271	-0.000155572	
-3.84712e-05	-0.00227375	-4.79355e-05	
-0.0148259	0.00261682	0.00280308	
-0.00074474	-0.00210035	0.000452286	
-0.000262562	-0.000984551	-0.000329472	
-0.000124257	-0.00205153	-0.000102947	
0.0201569	0.00491225	-0.00244588	
0.00268744	-0.00154931	-0.00162062	
0.000508931	-0.00236918	-0.00026382	
-9.69821e-05	-0.00245513	0.000179572	
-5.91053e-05	-0.00261277	4.72315e-05	
9.30666e-05	-0.00241382	3.35746e-05	
0.00114087	-0.00257716	-0.000850486	
-0.00133796	-0.00257712	0.00103495	
-2.47225e-05	-0.00223347	0.000218175	
-8.75062e-05	-0.00259489	9.06986e-05	
0.000623788	-0.00259135	-0.000471154	
0.00081633	-0.0024827	-0.000550044	
1.12705e-05	-0.00255959	4.59457e-05	
0.000174342	-0.00255287	-7.04171e-05	
4.10254e-05	-0.00258062	2.72453e-05	
0.00165932	-0.00154246	-0.000823601	
0.000432202	-0.00213859	-0.000118691	
0.00124822	-0.00186712	-0.00063653	
0.000231977	-0.00209622	0.000118167	
1.29618e-05	-0.00255332	-1.38654e-06	
0.00259541	-0.00124764	-0.00117921	
6.07502e-06	-0.00257571	7.08456e-06	
0.000105311	-0.00261038	-6.3679e-05	
0.00343466	-0.000199782	-0.000454238	
7.34241e-05	-0.00254201	3.3597e-05	
0.00330296	-0.000587905	-0.00071955	
0.000795175	-0.0022742	-0.000498012	
-7.45618e-06	-0.00258097	9.26115e-06	
0.000108293	-0.00234231	3.88177e-05	
0.000340712	-0.00135416	0.000317139	
2.90654e-05	-0.00261517	3.3622e-05	
-0.00512778	-0.000483885	0.00202832	
-0.00019926	-0.00238515	-1.1529e-06	
0.000159223	-0.00245348	-0.000225907	
-0.00820202	0.00113058	0.00173192	
0.000423819	-0.00261694	-0.000291273	
-9.76974e-05	-0.00241554	-4.84737e-05	
-0.000442942	-0.00261897	0.000348244	
0.000331804	-0.00261363	-0.000260121	
0.000392822	-0.00261164	-0.000319083	
-0.00102403	-0.00216922	0.000602325	
-0.00017728	-0.00259947	9.46963e-05	
-0.000846452	-0.00259708	0.0006359	
-0.00069032	-0.00248706	0.00045019	
-0.000474247	-0.00254618	0.000286428	
0.000231119	-0.00258532	-0.00024216	
-0.00311411	-0.00137731	0.00177927	
-0.00110369	-0.00206744	0.000614655	
-0.00120792	-0.00189876	0.000621095	
-7.48157e-05	-0.00254156	-3.83241e-05	
-0.000266933	-0.00187656	-0.000105535	
-5.23082e-05	-0.00257107	2.82746e-06	
-0.000381261	-0.00153177	-0.000289944	
-2.63517e-05	-0.00259863	4.08897e-06	
-0.000197284	-0.00206319	-0.000105637	
-5.429e-05	-0.00256114	-2.94477e-05	
-0.0155348	0.0036611	0.00198657	
-0.000838957	-0.00231968	0.000509536	
-0.000332353	-0.00112323	-0.000336797	
-0.00013595	-0.00228112	-8.91142e-05	
0.0210571	0.00516215	-0.00242741	
0.0029217	-0.00131634	-0.00158432	
0.000570434	-0.00208197	-0.000325508	
-6.02547e-05	-0.00216671	0.000112573	
-4.51555e-05	-0.00234206	2.68234e-05	
7.69688e-05	-0.00212881	1.76621e-05	
0.00116614	-0.00231067	-0.00084421	
-0.00137008	-0.00231228	0.00100996	
8.29646e-05	-0.00195593	4.30409e-05	
-8.51223e-05	-0.00230266	7.3841e-05	
0.000656252	-0.00231547	-0.000474313	
0.000857669	-0.00218875	-0.000575044	
3.67689e-05	-0.00226576	7.6077e-06	
0.000184543	-0.00225742	-9.48242e-05	
3.35405e-05	-0.00228514	1.14822e-05	
0.00177738	-0.00131908	-0.000808459	
0.000456707	-0.00185868	-0.000162027	
0.0013207	-0.00160095	-0.000651908	
0.000178345	-0.00182155	8.09991e-05	
1.32123e-05	-0.00227558	-5.59573e-06	
0.00274319	-0.00104492	-0.00119486	
3.81496e-06	-0.0023079	1.73269e-06	
0.000104087	-0.00234001	-6.32164e-05	
0.00359418	-3.71122e-06	-0.00048498	
6.02648e-05	-0.00224738	1.32014e-05	
0.00347787	-0.000403982	-0.000801994	
0.000907038	-0.00196032	-0.000580527	
-1.14773e-06	-0.00231214	5.34896e-06	
8.45545e-05	-0.00205841	1.01963e-05	
0.000263921	-0.00115385	0.000289971	
1.0836e-05	-0.00234569	3.87831e-05	
-0.00549637	-0.000319213	0.00205718	
-0.00024047	-0.00209559	7.19129e-05	
0.000118927	-0.00216482	-0.000153468	
-0.00867836	0.00141891	0.00168433	
0.000422605	-0.00234701	-0.000275591	
-7.93932e-05	-0.00212758	-2.57226e-05	
-0.000456055	-0.00234755	0.000345091	
0.000331918	-0.00233926	-0.000245048	
0.000399664	-0.00233727	-0.000301064	
-0.00118971	-0.00185035	0.000722479	
-0.000190772	-0.0023051	0.000111999	
-0.000872374	-0.00232289	0.00063069	
-0.000734625	-0.00218755	0.000482743	
-0.000500796	-0.00224918	0.000314414	
0.000227199	-0.00228896	-0.000206693	
-0.00340978	-0.00118143	0.00174002	
-0.00118314	-0.00177251	0.000672174	
-0.00134828	-0.00163248	0.000691434	
-6.49232e-05	-0.00224646	-1.50071e-05	
-0.000199198	-0.00162674	-9.76706e-05	
-4.02298e-05	-0.00229178	2.56973e-06	
-0.000289503	-0.00131857	-0.000273356	
-2.22719e-05	-0.0023267	2.69782e-06	
-0.000153412	-0.00179669	-7.35581e-05	
-4.64792e-05	-0.00226903	-1.32715e-05	
-0.0161649	0.00390252	0.00182666	
-0.000907852	-0.00201598	0.000552382	
-0.000274226	-0.000953217	-0.000302308	
-0.000137099	-0.0019964	-1.08284e-05	
0.0219028	0.00519962	-0.00202125	
0.00325949	-0.00109953	-0.00124722	
0.000667256	-0.00178104	-0.000305012	
2.8631e-06	-0.00187497	5.51896e-05	
-3.51802e-05	-0.00207882	2.2505e-05	
5.25546e-05	-0.00183094	3.75167e-05	
0.00125281	-0.00205702	-0.000735187	
-0.00147333	-0.0020566	0.000870754	
0.000156711	-0.00165383	2.38129e-06	
-9.81942e-05	-0.00204998	6.70688e-05	
0.000725243	-0.00205505	-0.000416581	
0.000962911	-0.00192033	-0.000523752	
4.80107e-05	-0.00202635	7.43361e-08	
0.000205962	-0.00202033	-9.1535e-05	
2.43253e-05	-0.00203776	1.09274e-05	
0.00195419	-0.00109695	-0.000615045	
0.000503631	-0.00156255	-0.000140562	
0.00145231	-0.00133805	-0.000479929	
0.000133611	-0.00152943	0.000102112	
1.47088e-05	-0.00202602	-6.18619e-06	
0.00298701	-0.00086143	-0.000873006	
8.41925e-07	-0.00205924	3.39007e-06	
0.000102752	-0.00207455	-4.79452e-05	
0.00374508	0.000121941	-0.000385213	
4.7483e-05	-0.00200313	1.91847e-05	
0.00367263	-0.000264195	-0.000647567	
0.00100174	-0.00167078	-0.000487905	
-2.78496e-06	-0.00205367	3.04214e-06	
6.11587e-05	-0.00175177	2.55728e-05	
0.00018392	-0.000951935	0.000309741	
-6.46007e-06	-0.00207961	4.35068e-05	
-0.00595074	-0.000225997	0.00163169	
-0.00030094	-0.00178768	7.28598e-05	
6.29e-05	-0.00187013	-8.88913e-05	
-0.0091308	0.00154986	0.00144772	
0.000443686	-0.00208402	-0.000233059	
-5.48388e-05	-0.00182609	-4.82879e-05	
-0.000495077	-0.00208534	0.000303727	
0.000345935	-0.00208131	-0.000203407	
0.00042424	-0.00207441	-0.00025006	
-0.00135199	-0.00157472	0.000638089	
-0.000206255	-0.00204617	9.22227e-05	
-0.000949431	-0.00205902	0.000538111	
-0.000830069	-0.00191274	0.000450039	
-0.000552502	-0.00200707	0.000284733	
0.000245949	-0.00203289	-0.000173751	
-0.00380096	-0.000984569	0.00137651	
-0.00127464	-0.0014992	0.00057878	
-0.00155537	-0.0013553	0.000559667	
-5.26599e-05	-0.00199512	-1.43802e-05	
-0.000140059	-0.00135842	-0.000142291	
-3.27285e-05	-0.00203378	-8.09544e-06	
-0.000192376	-0.00109246	-0.00029703	
-1.65733e-05	-0.00206071	-4.98284e-06	
-0.000112042	-0.00151074	-8.89325e-05	
-3.22417e-05	-0.00202244	-1.56457e-05	
-0.0167641	0.00385668	0.00162503	
-0.000980919	-0.00171681	0.00047935	
-0.000202898	-0.000790592	-0.000297651	
-9.26129e-05	-0.00169226	-5.74728e-05	
0.0226944	0.00498192	-0.00177126	
0.00345672	-0.000938362	-0.00122787	
0.00076985	-0.0015733	-0.000284806	
8.57631e-05	-0.00166107	1.76203e-05	
-3.8738e-05	-0.00188224	2.28842e-05	
4.49084e-05	-0.0016211	4.53276e-05	
0.00132686	-0.00187441	-0.000624197	
-0.00153985	-0.00187533	0.000742122	
0.000260043	-0.00145677	-2.82119e-05	
-9.09361e-05	-0.00183878	5.24218e-05	
0.000781496	-0.00185785	-0.000369189	
0.00106765	-0.00170684	-0.000464782	
7.11817e-05	-0.00181833	-8.90961e-06	
0.00023728	-0.00180603	-8.00788e-05	
2.02107e-05	-0.00182585	1.52905e-05	
0.00206583	-0.000943369	-0.000609474	
0.000548808	-0.00137214	-0.000130771	
0.00153173	-0.00116458	-0.000488945	
0.000112442	-0.00134377	0.000108189	
1.06167e-05	-0.00182872	-5.01426e-07	
0.00311957	-0.000737595	-0.000867529	
1.67448e-06	-0.00187408	5.47244e-06	
0.000108293	-0.00187492	-3.66012e-05	
0.00388067	0.000172066	-0.00037798	
3.71769e-05	-0.00178429	3.04965e-05	
0.00382254	-0.000146119	-0.000690152	
0.00108774	-0.0014747	-0.000440586	
1.29799e-06	-0.00186059	2.18195e-06	
4.83548e-05	-0.00154754	4.19021e-05	
0.000154813	-0.00083967	0.000277823	
-1.706e-05	-0.0018788	4.49215e-05	
-0.00623039	-9.05796e-05	0.00167956	
-0.000380226	-0.00158348	8.73184e-05	
-1.46949e-05	-0.00166182	-4.82089e-05	
-0.00954432	0.00149067	0.00134052	
0.00047136	-0.00188585	-0.000197869	
-4.82598e-05	-0.00162144	-4.96544e-05	
-0.000525969	-0.00189398	0.000263414	
0.000354317	-0.00189041	-0.000168859	
0.000426569	-0.00188601	-0.000212629	
-0.00152154	-0.00139072	0.000590863	
-0.000240364	-0.00183768	8.73634e-05	
-0.00100988	-0.00186167	0.000468132	
-0.000929666	-0.00170469	0.000399878	
-0.000614172	-0.00179868	0.000257557	
0.00025637	-0.00182442	-0.000155448	
-0.00402179	-0.000826963	0.00138634	
-0.00137899	-0.00132386	0.000491709	
-0.00169655	-0.00117917	0.000584933	
-4.0726e-05	-0.00178291	-2.99309e-05	
-0.00011909	-0.00119213	-0.000137093	
-2.41964e-05	-0.00183626	-1.73233e-05	
-0.000162557	-0.000964307	-0.000269435	
-1.36567e-05	-0.00186534	-9.78616e-06	
-9.57438e-05	-0.00133066	-9.55233e-05	
-2.57315e-05	-0.00181968	-2.30704e-05	
-0.0173255	0.00366724	0.00137177	
-0.00105682	-0.00152319	0.000406093	
-0.000171161	-0.000698098	-0.000270647	
-7.78661e-05	-0.00150263	-6.46396e-05	
0.0234087	0.00493906	-0.0019165	
0.00383207	-0.00109375	-0.00134921	
0.000836031	-0.00172153	-0.000299597	
0.000184854	-0.00181102	-1.93115e-05	
-2.02402e-05	-0.00194604	1.56065e-05	
5.00239e-05	-0.00176089	5.32376e-05	
0.00133062	-0.00193197	-0.000618445	
-0.00159011	-0.00196694	0.000761824	
0.000315086	-0.00167725	-3.26914e-05	
-9.5718e-05	-0.00195725	5.67392e-05	
0.000824041	-0.00196731	-0.000386039	
0.001113	-0.00184382	-0.000474767	
0.00013187	-0.00193004	-3.57654e-05	
0.000249352	-0.00189768	-8.17901e-05	
2.2005e-05	-0.0019484	1.7554e-05	
0.00225081	-0.00104706	-0.000646808	
0.00059306	-0.00163121	-0.000118984	
0.00163392	-0.00144549	-0.000492389	
0.000136113	-0.00162069	0.000137087	
1.17725e-05	-0.00193026	1.60134e-06	
0.0032934	-0.000796682	-0.000895396	
2.19288e-06	-0.00194212	5.44813e-06	
0.00010519	-0.00194416	-3.36431e-05	
0.00403639	0.000184357	-0.000433088	
3.98426e-05	-0.00189426	3.47139e-05	
0.00399837	-0.00013969	-0.000751707	
0.00112996	-0.00166386	-0.000441526	
2.24354e-06	-0.00197916	2.60797e-06	
5.52204e-05	-0.00171445	5.2208e-05	
0.000161442	-0.000877598	0.000284615	
-2.75053e-05	-0.00194064	5.12572e-05	
-0.00655126	-7.59425e-05	0.00179948	
-0.00043678	-0.0017469	9.68607e-05	
-0.000109597	-0.00183087	-1.37436e-05	
-0.00992135	0.00154163	0.00143185	
0.000473805	-0.00193996	-0.000197511	
-5.4626e-05	-0.00177638	-6.0961e-05	
-0.000522474	-0.00194037	0.000260591	
0.000387125	-0.00194321	-0.000183426	
0.000437257	-0.00197648	-0.000216994	
-0.00159892	-0.00163964	0.000599283	
-0.000249531	-0.00196849	8.74522e-05	
-0.00104211	-0.00198159	0.000478002	
-0.000968735	-0.00185621	0.00040653	
-0.000669865	-0.00190042	0.000276969	
0.000236777	-0.00195618	-0.000147569	
-0.00433756	-0.000905464	0.00147961	
-0.001469	-0.00160069	0.000495203	
-0.00199634	-0.00135335	0.000688759	
-4.36325e-05	-0.00190008	-3.4867e-05	
-0.000133865	-0.00133822	-0.00015781	
-2.58358e-05	-0.00194591	-1.88649e-05	
-0.00017088	-0.00101582	-0.000278833	
-1.52709e-05	-0.00198232	-1.04195e-05	
-0.000116505	-0.00161469	-0.000122319	
-2.78103e-05	-0.00194307	-2.62253e-05	
-0.0178238	0.00359425	0.00147627	
-0.00109508	-0.00171032	0.000403094	
-0.00017391	-0.000713245	-0.000268153	
-9.05678e-05	-0.00170927	-8.1634e-05	
0.024049	0.00495486	-0.00209818	
0.00406983	-0.00096142	-0.00145936	
0.000993555	-0.00183089	-0.000358503	
0.000251423	-0.00194449	-4.26822e-05	
3.39537e-05	-0.00220034	-9.48267e-06	
5.56209e-05	-0.00190889	6.20765e-05	
0.00133167	-0.00219463	-0.000608372	
-0.00150819	-0.0021869	0.000715622	
0.000523979	-0.00165844	-0.000124447	
-5.8485e-05	-0.00211376	4.0167e-05	
0.000826207	-0.00211781	-0.000382867	
0.00113793	-0.00196063	-0.000477296	
0.000179407	-0.00206387	-5.67208e-05	
0.000310768	-0.00204799	-0.000107527	
2.37951e-05	-0.0020861	1.87461e-05	
0.00239927	-0.00095148	-0.000708509	
0.000651496	-0.00150647	-0.000154244	
0.00170747	-0.00126353	-0.000549038	
0.00012287	-0.00146113	0.000122136	
1.37091e-05	-0.00210559	1.92793e-06	
0.00343856	-0.000707924	-0.000966778	
2.73005e-06	-0.00219997	7.10525e-06	
0.000113168	-0.002237	-3.55172e-05	
0.00416108	0.000268317	-0.000510279	
4.20557e-05	-0.00199784	3.61256e-05	
0.00415266	-4.26577e-05	-0.000844948	
0.00118708	-0.00169805	-0.000456116	
2.54946e-06	-0.002122	3.50698e-06	
5.94047e-05	-0.00177242	5.8807e-05	
0.000149251	-0.000817224	0.000252953	
-7.26189e-05	-0.00224294	7.86437e-05	
-0.00684669	4.09365e-05	0.00194099	
-0.000601296	-0.00184175	0.00016376	
-0.000223361	-0.00197762	3.04546e-05	
-0.0102548	0.00164841	0.00156279	
0.000470108	-0.0022079	-0.000190852	
-6.11875e-05	-0.00193164	-6.95033e-05	
-0.000494163	-0.00220289	0.00024485	
0.000374244	-0.00222454	-0.000175521	
0.000376184	-0.00221658	-0.00018609	
-0.00183389	-0.00159354	0.000699908	
-0.000293796	-0.00214006	0.000104596	
-0.00104641	-0.00215074	0.000475142	
-0.000965852	-0.00203089	0.000391771	
-0.00074037	-0.0020745	0.000303496	
0.000207188	-0.00211672	-0.000135696	
-0.00461637	-0.000805097	0.00159175	
-0.00156821	-0.00145822	0.000547931	
-0.00217504	-0.00123983	0.000775286	
-4.72541e-05	-0.00203893	-3.84507e-05	
-0.000125558	-0.00125717	-0.000146619	
-2.9065e-05	-0.00213878	-2.12546e-05	
-0.00015912	-0.000952957	-0.000250584	
-1.70024e-05	-0.00215676	-1.09301e-05	
-0.000103466	-0.00143849	-0.00010932	
-3.02282e-05	-0.00209744	-2.88755e-05	
-0.018265	0.00364212	0.00148265	
-0.00114326	-0.00175783	0.000415891	
-0.000159666	-0.000657236	-0.000237016	
-9.40319e-05	-0.00174096	-8.59859e-05	
0.0245648	0.00502949	-0.00235604	
0.00422764	-0.000667612	-0.00156546	
0.00101789	-0.00142019	-0.000388431	
0.000304701	-0.00143652	-8.63872e-05	
4.41183e-05	-0.00160167	-1.63269e-05	
4.21895e-05	-0.00143661	4.7562e-05	
0.00137473	-0.00155438	-0.000627726	
-0.00154552	-0.00151989	0.000725331	
0.000597261	-0.00123326	-0.000184772	
-3.79883e-05	-0.00148729	2.69705e-05	
0.000886362	-0.00155486	-0.000411454	
0.00112371	-0.00149001	-0.000480296	
0.000187355	-0.00145707	-6.95042e-05	
0.000264536	-0.00145759	-9.67854e-05	
1.6669e-05	-0.00146676	1.32186e-05	
0.00249477	-0.000702461	-0.000792089	
0.000674419	-0.00118759	-0.000193044	
0.00178717	-0.00095072	-0.000625996	
9.61088e-05	-0.00116634	9.47331e-05	
1.00148e-05	-0.00148097	1.85426e-06	
0.00352439	-0.000492644	-0.00106308	
2.16191e-06	-0.00152103	4.65344e-06	
0.00012553	-0.00156436	-4.72912e-05	
0.00425011	0.000381336	-0.000613902	
3.09151e-05	-0.00150047	2.74065e-05	
0.00425098	9.5677e-05	-0.00095538	
0.00130678	-0.00126212	-0.000523857	
2.04122e-06	-0.00154906	3.24327e-06	
4.79659e-05	-0.00141347	4.727e-05	
0.000117589	-0.000659677	0.00019247	
-3.29042e-05	-0.00158103	4.39345e-05	
-0.00707483	0.000185403	0.00208633	
-0.00067179	-0.00153622	0.000214246	
-0.000291382	-0.00160573	7.42301e-05	
-0.0105407	0.00175446	0.00170947	
0.000469786	-0.0016326	-0.000199181	
-4.99146e-05	-0.00155813	-5.48733e-05	
-0.000525778	-0.00163638	0.000256035	
0.00037084	-0.00160573	-0.00017428	
0.000420959	-0.0016067	-0.000204843	
-0.00190171	-0.00125141	0.000749699	
-0.000299101	-0.00162346	0.000114008	
-0.00106762	-0.00166864	0.000488177	
-0.000991827	-0.00162425	0.000410971	
-0.000683105	-0.00162315	0.000284513	
0.000216001	-0.00161606	-0.000129688	
-0.00487084	-0.000626501	0.00172878	
-0.00158351	-0.00123727	0.000573647	
-0.00236069	-0.00117759	0.000862462	
-3.74615e-05	-0.0016753	-3.21995e-05	
-0.000108574	-0.00110635	-0.000123852	
-2.22223e-05	-0.001612	-1.60462e-05	
-0.000134187	-0.000821161	-0.00020338	
-1.30341e-05	-0.00164631	-9.01708e-06	
-9.06284e-05	-0.00129122	-9.34049e-05	
-2.32728e-05	-0.00162243	-2.20344e-05	
-0.0186505	0.00367315	0.00163011	
-0.00124378	-0.00145626	0.0004804	
-0.000138225	-0.000579496	-0.000197855	
-7.45592e-05	-0.00137735	-6.78431e-05	
0.0251726	0.00493183	-0.00263039	
0.00433248	-0.000833615	-0.00158074	
0.00121859	-0.0013886	-0.000475526	
0.000342403	-0.00155308	-9.53264e-05	
5.52068e-05	-0.0013558	-2.18758e-05	
4.40492e-05	-0.0015149	5.25572e-05	
0.00136145	-0.00135106	-0.000615393	
-0.00161709	-0.00140522	0.000748497	
0.000715483	-0.00124499	-0.000236601	
-6.42781e-05	-0.00151189	4.04396e-05	
0.000831426	-0.0014844	-0.000379515	
0.00113389	-0.00153714	-0.00047665	
0.000155531	-0.00153168	-5.23416e-05	
0.000269219	-0.00155622	-9.49563e-05	
1.75107e-05	-0.00151887	1.35634e-05	
0.0026255	-0.00081978	-0.000817632	
0.000713797	-0.00117095	-0.000213871	
0.00184881	-0.000978718	-0.000654703	
9.20777e-05	-0.00115251	8.97826e-05	
1.0782e-05	-0.00148418	3.34224e-06	
0.00367091	-0.000613737	-0.00108923	
1.92634e-06	-0.00138169	3.45136e-06	
0.000130575	-0.00136	-5.27778e-05	
0.00439451	0.000322611	-0.000665424	
3.10953e-05	-0.00155874	3.04765e-05	
0.00441689	2.91281e-05	-0.00101694	
0.00134815	-0.0012691	-0.000537579	
2.09107e-06	-0.0014364	3.16713e-06	
4.49727e-05	-0.00133568	4.6498e-05	
0.000132757	-0.000773069	0.00021047	
-4.04238e-05	-0.00136646	4.0253e-05	
-0.007301	0.000230153	0.00221327	
-0.000798514	-0.00118925	0.000291616	
-0.000355825	-0.00126504	0.000116191	
-0.0108365	0.00178119	0.00186094	
0.000478434	-0.00136744	-0.000206737	
-4.03893e-05	-0.00126707	-4.50931e-05	
-0.000517991	-0.00137494	0.00024666	
0.000402566	-0.00138593	-0.000188079	
0.00045925	-0.00141727	-0.000222006	
-0.00200862	-0.000985381	0.000810622	
-0.000353486	-0.00152264	0.000139535	
-0.000973927	-0.00149883	0.000439567	
-0.00104212	-0.00132536	0.000438538	
-0.000760358	-0.0014375	0.000322476	
0.000184287	-0.00149345	-0.000111165	
-0.00499718	-0.000536518	0.00180175	
-0.00163099	-0.000941711	0.000619669	
-0.00236853	-0.000792356	0.000912512	
-2.94395e-05	-0.0013947	-2.75115e-05	
-8.81519e-05	-0.000929101	-9.71069e-05	
-2.10568e-05	-0.0015309	-1.54315e-05	
-0.000123442	-0.00078659	-0.000182737	
-1.14396e-05	-0.00144949	-8.33131e-06	
-6.45587e-05	-0.00096387	-6.68689e-05	
-2.05229e-05	-0.00146585	-1.9716e-05	
-0.0190148	0.00362765	0.00180731	
-0.00126572	-0.00111186	0.000507152	
-0.000129793	-0.000563361	-0.000179068	
-5.89561e-05	-0.00111255	-5.31468e-05	
0.0256831	0.00477388	-0.00299014	
0.00449813	-0.00065212	-0.00167959	
0.0013138	-0.00135645	-0.00051714	
0.000403675	-0.00140507	-0.00012826	
0.000150983	-0.0018599	-6.57058e-05	
3.91443e-05	-0.00138656	4.69366e-05	
0.00138062	-0.00179396	-0.000614745	
-0.00157929	-0.0017383	0.000723648	
0.000864835	-0.0011382	-0.000310407	
9.60975e-05	-0.00161953	-2.96471e-05	
0.000867955	-0.00173211	-0.000390907	
0.00114716	-0.00143973	-0.000480422	
0.00020416	-0.00153337	-7.38249e-05	
0.000331717	-0.00152493	-0.000124168	
1.79475e-05	-0.0015658	1.41455e-05	
0.00272155	-0.000653012	-0.000890186	
0.000717822	-0.00107235	-0.000226724	
0.00189477	-0.000915456	-0.000688777	
8.19845e-05	-0.00108116	8.00361e-05	
1.20335e-05	-0.00170118	6.63542e-06	
0.00374047	-0.000445024	-0.00117394	
2.66612e-06	-0.00178426	4.19989e-06	
0.000128904	-0.0018748	-4.85186e-05	
0.00447617	0.000389216	-0.000768121	
2.79253e-05	-0.00147044	3.04839e-05	
0.00451317	0.000131965	-0.00112835	
0.00141842	-0.00120343	-0.000567082	
3.06587e-06	-0.00174538	4.51137e-06	
4.26713e-05	-0.00130121	4.46815e-05	
0.000103021	-0.000637323	0.000159949	
-8.56244e-05	-0.00187067	6.86355e-05	
-0.00752087	0.000255971	0.00233843	
-0.000933772	-0.00144931	0.000339358	
-0.000321941	-0.00148801	9.30407e-05	
-0.0111103	0.00171473	0.00202966	
0.000408632	-0.00183416	-0.000167757	
-4.54266e-05	-0.00148949	-5.1435e-05	
-0.000535061	-0.00176785	0.00025224	
0.000316319	-0.00174817	-0.000145595	
0.000444989	-0.00167042	-0.000214357	
-0.0021687	-0.00115652	0.000865755	
-0.000499777	-0.0014701	0.000204688	
-0.00106885	-0.0016192	0.000477767	
-0.00101762	-0.00144344	0.00042134	
-0.000767058	-0.00144326	0.000322796	
0.000179288	-0.00143665	-0.000107418	
-0.00533611	-0.000562046	0.0019381	
-0.00166514	-0.001109	0.000618938	
-0.00243591	-0.000997499	0.000918771	
-2.8132e-05	-0.00143458	-2.91611e-05	
-9.96119e-05	-0.00111338	-0.000110085	
-2.18874e-05	-0.00155757	-1.61157e-05	
-0.000113903	-0.000772469	-0.000166197	
-1.32274e-05	-0.00165498	-1.01258e-05	
-7.31791e-05	-0.00116511	-7.64886e-05	
-1.94089e-05	-0.00143595	-1.9015e-05	
-0.0194045	0.00347198	0.00203512	
-0.00134518	-0.00134258	0.000528487	
-0.000120229	-0.000550843	-0.000161049	
-6.67893e-05	-0.00130805	-6.05189e-05	
0.0260853	0.00454382	-0.00334914	
0.00445728	-0.000293343	-0.00171488	
0.00132261	-0.000828015	-0.000542502	
0.000573071	-0.000907013	-0.000224432	
6.11218e-05	-0.00118981	-2.60538e-05	
2.27774e-05	-0.000868314	2.78128e-05	
0.00142142	-0.00124432	-0.000631907	
-0.00159999	-0.00127855	0.000724694	
0.00087601	-0.000777179	-0.000336506	
9.92959e-05	-0.00116538	-3.52002e-05	
0.000946538	-0.00118628	-0.000426093	
0.00125111	-0.00102261	-0.000534699	
0.000242595	-0.00114563	-9.73347e-05	
0.00031335	-0.00111942	-0.00012317	
1.29837e-05	-0.0011554	1.04928e-05	
0.00280199	-0.000446843	-0.000962254	
0.000787014	-0.000751846	-0.000284521	
0.00194967	-0.000513408	-0.000758294	
4.8291e-05	-0.000691613	4.76144e-05	
8.43682e-06	-0.00115255	5.29867e-06	
0.0037974	-0.000263442	-0.00125297	
1.92755e-06	-0.00121847	2.84211e-06	
0.000130508	-0.00116467	-5.29185e-05	
0.00453017	0.00044935	-0.000878559	
1.99239e-05	-0.00113789	2.25998e-05	
0.00457272	0.00023282	-0.00123698	
0.00148892	-0.000758225	-0.000613372	
2.57663e-06	-0.00122638	4.58432e-06	
2.62559e-05	-0.000860285	2.74664e-05	
6.97089e-05	-0.000470245	0.000107515	
-6.49627e-05	-0.00117114	4.66087e-05	
-0.00763542	0.000406339	0.002486	
-0.000923084	-0.000849285	0.000368352	
-0.000475978	-0.000919487	0.000185608	
-0.0112864	0.001711	0.00225302	
0.000489649	-0.00120171	-0.000211309	
-2.49935e-05	-0.000881829	-2.90585e-05	
-0.000572562	-0.00127803	0.000266801	
0.000367979	-0.00124571	-0.000169037	
0.000387355	-0.00129578	-0.000184461	
-0.00221662	-0.000717129	0.000910842	
-0.000520683	-0.00115512	0.000216892	
-0.00115876	-0.00118544	0.000517915	
-0.00111437	-0.0010247	0.000475453	
-0.000764101	-0.00110955	0.000325445	
0.000166027	-0.00114502	-9.41914e-05	
-0.00536094	-0.000228411	0.00202023	
-0.00175113	-0.000699496	0.000686702	
-0.00251491	-0.000495215	0.00100594	
-2.0241e-05	-0.00113636	-2.25954e-05	
-4.7835e-05	-0.000582977	-5.36336e-05	
-1.60505e-05	-0.00115246	-1.17737e-05	
-7.10651e-05	-0.000526663	-0.000103385	
-1.00382e-05	-0.00123668	-7.35952e-06	
-3.898e-05	-0.000680461	-4.11721e-05	
-1.45121e-05	-0.00113122	-1.43773e-05	
-0.0196896	0.00332618	0.00234251	
-0.00140148	-0.000847272	0.000581186	
-7.97884e-05	-0.00039472	-0.000102271	
-3.89253e-05	-0.00081369	-3.56661e-05	
0.0266771	0.00405155	-0.00373889	
0.00458125	-0.000604224	-0.00173184	
0.00139459	-0.00124568	-0.000553574	
0.000631561	-0.00129292	-0.00023965	
-2.86978e-05	-0.00148903	1.48078e-05	
3.03981e-05	-0.00128379	3.76621e-05	
0.00141048	-0.00153676	-0.000619457	
-0.00150504	-0.0015139	0.000674149	
0.00114059	-0.00116206	-0.000434303	
6.58659e-05	-0.00147662	-1.75854e-05	
0.000988504	-0.00145276	-0.000438867	
0.00130356	-0.00131721	-0.000547053	
0.000242946	-0.00149089	-9.43886e-05	
0.000434036	-0.00147342	-0.000171936	
1.53547e-05	-0.00146613	1.16693e-05	
0.00284142	-0.00066121	-0.000954267	
0.0008546	-0.0010107	-0.00029861	
0.00204124	-0.000820211	-0.000772632	
6.17198e-05	-0.00098387	6.13411e-05	
1.041e-05	-0.00142265	6.75492e-06	