<VTKFile type="UnstructuredGrid" version="0.1" byte_order="LittleEndian">
	<UnstructuredGrid>
		<Piece NumberOfPoints="300" NumberOfCells="300">
			<CellData Scalars="scalars">
				<DataArray type="Float64" Name="Strength" NumberOfComponents="3" Format="ascii">
0.0164161	-0.0119017	-0.00185401	
0.00221969	-0.0239277	0.000190256	
0.000286109	-0.025307	7.37603e-05	
-0.000547569	-0.0265408	0.000218682	
-0.000373004	-0.0261242	7.61737e-05	
2.23791e-05	-0.0258805	9.94596e-05	
0.0013131	-0.0264958	-0.000314699	
-0.00161869	-0.0257689	0.000442971	
-0.000464275	-0.0252413	0.000319636	
4.38073e-05	-0.025517	5.23005e-06	
0.00070252	-0.0264634	-0.000214007	
0.000787884	-0.0255068	-0.000251192	
-8.68125e-05	-0.0268499	-1.86852e-05	
0.000170943	-0.0263516	2.72245e-05	
6.254e-05	-0.0261533	-4.1922e-05	
0.00108748	-0.0227104	0.000761048	
0.000401074	-0.0255917	0.000217073	
0.000967157	-0.0244768	0.000268294	
0.000226724	-0.0254849	0.000397024	
6.48667e-05	-0.0259649	2.44255e-06	
0.00200361	-0.0218488	0.000786586	
-9.1829e-06	-0.0252576	1.42642e-05	
3.34303e-05	-0.0260401	3.12431e-05	
0.00259734	-0.0157532	0.00117468	
1.73698e-05	-0.026226	6.5518e-05	
0.00230025	-0.0180788	0.0012273	
0.000803326	-0.0250478	-0.000169638	
4.15868e-05	-0.0267676	-5.53548e-05	
5.89002e-05	-0.0257374	0.000112368	
0.000103676	-0.0201089	0.00160609	
6.65838e-05	-0.0260767	0.00013761	
-0.00375191	-0.0198372	-0.000587818	
1.60653e-05	-0.0255716	-0.000272879	
0.000544036	-0.0265195	-0.000161172	
-0.00629113	-0.0158851	-0.000299721	
0.000539713	-0.026269	-7.05064e-05	
-4.95292e-05	-0.0259763	-9.621e-05	
-0.000570283	-0.0267541	0.00014583	
0.000410197	-0.0262022	-9.07555e-05	
0.000557885	-0.0266385	-0.00012306	
-0.000586195	-0.0249639	-2.911e-05	
-0.000156466	-0.0256047	-9.65568e-06	
-0.000984108	-0.0266042	0.000237513	
-0.00059787	-0.0256051	0.000223057	
-0.000592609	-0.0262263	9.69021e-05	
0.000376005	-0.0261523	-8.11831e-05	
-0.00244235	-0.0226106	-0.000378636	
-0.000836135	-0.0250059	-2.51741e-05	
-0.000590017	-0.0238905	-0.000246216	
-2.61314e-05	-0.0261543	-4.28327e-05	
-0.000108003	-0.0239721	-0.000693481	
-5.92812e-05	-0.0260626	-7.92093e-05	
-0.000179522	-0.0216394	-0.00136028	
-2.93435e-05	-0.0271445	-1.25559e-05	
-3.74743e-05	-0.0244396	-0.000369546	
-1.60442e-05	-0.0266557	7.78271e-07	
-0.0129751	-0.012131	0.00121696	
-0.000802769	-0.0261386	6.15117e-05	
-0.000220224	-0.0182583	-0.00188228	
-0.000110351	-0.0254517	-0.00018121	
0.0184104	-0.000862674	-0.00382731	
0.0023916	-0.00407245	-0.000755721	
0.000349023	-0.00488178	-0.000102783	
-0.000373791	-0.00494678	0.000151416	
-0.000192441	-0.00522363	6.40421e-05	
7.88498e-06	-0.00491414	1.48344e-05	
0.00128476	-0.00512504	-0.000471978	
-0.00156171	-0.0051484	0.000583231	
-0.000366971	-0.00469386	0.000171127	
-9.26905e-05	-0.00512437	3.96857e-05	
0.00070162	-0.00508063	-0.000266947	
0.000792128	-0.00507876	-0.000311366	
-9.42813e-05	-0.00506403	3.50962e-05	
0.000129979	-0.00511546	-3.50763e-05	
7.31016e-06	-0.00508543	-7.00881e-07	
0.00127548	-0.00383247	-0.000302734	
0.00027789	-0.00456774	-5.16137e-05	
0.000984595	-0.0042359	-0.000279382	
5.43301e-05	-0.00451138	6.30431e-05	
1.25731e-05	-0.00497324	-2.12462e-06	
0.00220659	-0.00349656	-0.000572505	
-6.70877e-07	-0.00504888	-3.36204e-07	
7.05178e-05	-0.0052479	-1.8425e-05	
0.00288548	-0.00211768	-0.000574726	
4.35443e-06	-0.00515372	1.38635e-05	
0.00268868	-0.00257527	-0.000611298	
0.000762469	-0.00474353	-0.000283963	
4.29134e-06	-0.005111	-5.42584e-06	
1.30842e-05	-0.00483792	1.57501e-05	
5.70232e-05	-0.003146	0.000215309	
7.74746e-06	-0.00527999	2.61495e-05	
-0.00437781	-0.00305357	0.00126384	
1.38778e-05	-0.00492166	-5.06198e-05	
0.000420445	-0.00497666	-0.000162751	
-0.00716556	-0.0019787	0.00179049	
0.000480657	-0.0052603	-0.000164755	
-9.59205e-06	-0.00492995	-1.54305e-05	
-0.000551445	-0.00522167	0.000203317	
0.000399838	-0.00518136	-0.000146458	
0.000504287	-0.00520058	-0.000182171	
-0.000751189	-0.0046055	0.000254506	
-0.000147174	-0.00512985	4.60027e-05	
-0.000936757	-0.00519149	0.000349458	
-0.000642662	-0.0050427	0.000256528	
-0.000469915	-0.00509804	0.000159291	
0.000391577	-0.00505808	-0.000145742	
-0.00273218	-0.00383257	0.000825707	
-0.000919848	-0.00451726	0.000304859	
-0.000821263	-0.0043138	0.000239115	
-4.79111e-06	-0.0051492	-1.25965e-05	
-4.04834e-05	-0.00407385	-9.61088e-05	
-1.72801e-05	-0.00506292	-8.1731e-06	
-6.05124e-05	-0.00352249	-0.000200809	
-7.22825e-06	-0.00517403	-5.02611e-06	
-2.00473e-05	-0.00438357	-5.94774e-05	
-5.91307e-06	-0.00507016	-4.96757e-06	
-0.0142934	-0.000992375	0.00296023	
-0.000763494	-0.0048773	0.00026421	
-7.19565e-05	-0.00262905	-0.000246288	
-2.36013e-05	-0.00476142	-2.53828e-05	
0.0193302	0.000103172	-0.00392986	
0.00254595	-0.00168193	-0.000906268	
0.000396346	-0.00211896	-0.000140993	
-0.000296075	-0.00218118	0.000116972	
-0.000141511	-0.00236046	4.69714e-05	
1.84326e-06	-0.00214694	4.84219e-06	
0.00130114	-0.00233104	-0.000489741	
-0.00156972	-0.00233281	0.000593261	
-0.000278366	-0.00200309	0.00011077	
-0.000113515	-0.00231338	4.43816e-05	
0.000725528	-0.00231811	-0.000278929	
0.000835101	-0.00223853	-0.000326452	
-7.14748e-05	-0.00227599	2.41014e-05	
0.000129769	-0.00228565	-4.5938e-05	
1.96189e-06	-0.00230147	-2.40406e-06	
0.00139226	-0.00157959	-0.000451766	
0.000289857	-0.00193498	-9.67382e-05	
0.00105655	-0.00176885	-0.00037768	
2.09538e-05	-0.0019018	1.4782e-05	
5.99958e-06	-0.00227202	3.01349e-07	
0.0023491	-0.00141764	-0.000765905	
4.63943e-07	-0.00231004	-1.79151e-07	
7.9089e-05	-0.002372	-2.90323e-05	
0.00302487	-0.000801737	-0.000758173	
3.47398e-07	-0.0022871	5.87637e-06	
0.00286321	-0.000999097	-0.000832494	
0.000808623	-0.00203767	-0.000314575	
1.41366e-06	-0.00232091	-1.66689e-06	
4.59227e-06	-0.00209897	4.36166e-06	
2.36341e-05	-0.0012795	6.28445e-05	
-9.97276e-06	-0.00238158	1.58027e-05	
-0.00468834	-0.00116252	0.00154052	
-1.27947e-05	-0.00214055	-1.23514e-05	
0.000355377	-0.0021877	-0.000137028	
-0.00757149	-0.000642649	0.00197907	
0.000469033	-0.00237708	-0.000173496	
-2.17861e-06	-0.00215607	-4.7058e-06	
-0.000548032	-0.00236836	0.000207254	
0.000392503	-0.00236715	-0.000150092	
0.000485419	-0.0023654	-0.000183761	
-0.000888767	-0.00197731	0.000339646	
-0.000153849	-0.0023268	5.64447e-05	
-0.000954147	-0.00235492	0.000366872	
-0.000690083	-0.00223371	0.000271822	
-0.000464759	-0.00228351	0.000172486	
0.000365647	-0.00230581	-0.000136178	
-0.00294626	-0.00154132	0.00102498	
-0.000990976	-0.00191733	0.000370737	
-0.000972658	-0.00178131	0.00034925	
1.01375e-07	-0.00228688	-6.1096e-06	
-1.51722e-05	-0.00168406	-2.74661e-05	
-8.41783e-06	-0.00230421	-3.17743e-06	
-2.4337e-05	-0.00142319	-5.99566e-05	
-3.54618e-06	-0.00234935	-3.62613e-07	
-5.49005e-06	-0.00185449	-1.40365e-05	
-6.50735e-07	-0.0022823	2.69973e-08	
-0.0149662	-6.83619e-05	0.00300288	
-0.000796679	-0.00211923	0.000301056	
-2.95234e-05	-0.00107363	-6.98685e-05	
-8.23242e-06	-0.00206566	-1.89341e-06	
0.0203406	-1.0817e-05	-0.00401429	
0.00278106	-0.00189596	-0.000964588	
0.000478629	-0.00239863	-0.000169005	
-0.00022528	-0.00246475	8.78965e-05	
-0.000108642	-0.00262413	3.03347e-05	
-1.60712e-06	-0.00242881	3.9774e-06	
0.00132154	-0.00260217	-0.000491308	
-0.00158572	-0.00259999	0.000584312	
-0.000155876	-0.00225081	6.03014e-05	
-0.000124858	-0.00260721	4.92057e-05	
0.000739491	-0.0026031	-0.000276395	
0.000879223	-0.00251372	-0.000336049	
-3.68097e-05	-0.00257242	6.70147e-06	
0.000144414	-0.00256901	-5.28443e-05	
2.5097e-06	-0.00259235	-3.27762e-06	
0.0015611	-0.00177301	-0.000506695	
0.000338439	-0.00216714	-0.000117262	
0.0011595	-0.00199311	-0.000409865	
1.71128e-05	-0.00212388	9.30778e-06	
4.98813e-06	-0.00256605	2.24234e-07	
0.00254269	-0.00159177	-0.00083042	
-1.33825e-06	-0.00258725	-1.71533e-06	
8.40625e-05	-0.00262426	-3.17621e-05	
0.00323615	-0.000908322	-0.000804696	
-1.05556e-06	-0.00255727	4.09557e-06	
0.0031016	-0.00113838	-0.000894402	
0.000878403	-0.00228919	-0.000331622	
3.05767e-06	-0.002594	1.82617e-08	
2.31911e-06	-0.00235868	2.66328e-06	
1.70366e-05	-0.0014394	4.70919e-05	
-1.9151e-05	-0.00262792	1.72698e-05	
-0.00509288	-0.00134563	0.00165079	
-8.90063e-05	-0.00240462	1.70469e-05	
0.000290048	-0.00246289	-0.000105132	
-0.00812201	-0.000760963	0.00205072	
0.000468104	-0.00263292	-0.000171574	
1.48521e-07	-0.00243152	-4.96483e-06	
-0.000547714	-0.00262769	0.000204434	
0.000388066	-0.00262706	-0.000143216	
0.000478146	-0.00262389	-0.000176378	
-0.00104707	-0.0022198	0.000387593	
-0.000160704	-0.00261431	5.81398e-05	
-0.000968415	-0.00262363	0.000363733	
-0.000732715	-0.00251153	0.000284345	
-0.000488772	-0.0025665	0.00017993	
0.000335546	-0.00259462	-0.000120468	
-0.00323734	-0.00175076	0.00109769	
-0.00107713	-0.00214791	0.000389816	
-0.00115388	-0.00199804	0.000412033	
1.66254e-06	-0.0025561	-4.26464e-06	
-1.05209e-05	-0.00190786	-1.96013e-05	
-7.17749e-06	-0.00258475	-1.93257e-06	
-1.82127e-05	-0.00161369	-4.30031e-05	
-5.48909e-06	-0.00261129	-1.51894e-06	
-8.07004e-07	-0.00208627	-9.15688e-06	
1.70829e-06	-0.00257445	2.45627e-06	
-0.0156753	-0.0001756	0.00303408	
-0.000859646	-0.00235966	0.000319861	
-2.23912e-05	-0.00122525	-4.87823e-05	
-6.9262e-06	-0.00229874	-2.59227e-06	
0.0210133	-0.00017686	-0.00436211	
0.00290745	-0.00164275	-0.0010503	
0.00053893	-0.00211589	-0.000205759	
-0.000150887	-0.00217701	5.76289e-05	
-7.51205e-05	-0.00235597	2.07176e-05	
-2.34726e-06	-0.00214538	4.0628e-06	
0.00128843	-0.00233657	-0.000512795	
-0.00153791	-0.00233254	0.00060267	
-3.28323e-05	-0.00197181	1.32839e-05	
-0.000117188	-0.00231699	4.8772e-05	
0.000728804	-0.00232968	-0.000295754	
0.000887313	-0.00222364	-0.000355954	
3.42922e-07	-0.00227906	-5.78335e-06	
0.000156593	-0.00227299	-5.85302e-05	
1.92123e-06	-0.00229845	-3.07525e-06	
0.00166301	-0.00152736	-0.000572916	
0.000375122	-0.00188996	-0.00013518	
0.0012154	-0.00172696	-0.000459487	
1.03433e-05	-0.00184456	5.82501e-06	
1.46296e-06	-0.00228946	-9.64914e-07	
0.00264768	-0.00137174	-0.00089254	
-1.35404e-06	-0.0023229	-1.44849e-06	
8.58165e-05	-0.00235497	-3.49414e-05	
0.00337208	-0.000795977	-0.000878518	
-1.98983e-06	-0.00225905	2.0707e-06	
0.00325322	-0.000985379	-0.000964847	
0.000909454	-0.0020107	-0.000359451	
2.61728e-06	-0.00232552	-1.18813e-06	
-1.47997e-06	-0.00207507	1.72159e-06	
5.9271e-06	-0.00122859	2.42259e-05	
-2.49531e-05	-0.00236021	1.97595e-05	
-0.00536039	-0.00117218	0.00174501	
-0.000157509	-0.00211735	5.12291e-05	
0.000213227	-0.00217415	-8.03668e-05	
-0.0084742	-0.000724976	0.00223017	
0.000446098	-0.00236542	-0.000176321	
2.03056e-07	-0.00214368	-6.12467e-06	
-0.000530432	-0.00235875	0.000208099	
0.00036628	-0.00235549	-0.000145755	
0.000452789	-0.00235085	-0.000178975	
-0.00115475	-0.0019459	0.00044824	
-0.000174285	-0.00232256	6.78385e-05	
-0.000946546	-0.0023483	0.000386163	
-0.000745689	-0.00222018	0.000307928	
-0.000500378	-0.00227152	0.000195042	
0.000299542	-0.00229984	-0.000114941	
-0.00341197	-0.00152222	0.00119958	
-0.00112036	-0.00187458	0.00042758	
-0.00128213	-0.00173788	0.000483793	
3.19167e-06	-0.00225758	-9.70548e-07	
-3.73895e-06	-0.00165238	-1.13425e-05	
-2.17283e-06	-0.0023054	3.72607e-07	
-7.58689e-06	-0.00138834	-1.88051e-05	
-3.79188e-06	-0.00233999	-1.31087e-08	
2.70574e-06	-0.00181533	-5.39865e-06	
4.2198e-07	-0.0022826	1.75953e-06	
-0.0161059	-0.000282111	0.00331693	
-0.000880167	-0.00207306	0.000350715	
-8.52347e-06	-0.00104478	-2.28709e-05	
-4.29661e-06	-0.00201488	-2.5468e-06	
				</DataArray>
				<DataArray type="Float64" Name="Time Step Shed" NumberOfComponents="1" Format="ascii">
3	
3	
3	
3	
3	
3	
3	
3	
3	
3	
3	
3	
3	
3	
3	
3	
3	
3	
3	
3	
3	
3	
3	
3	
3	
3	
3	
3	
3	
3	
3	
3	
3	
3	
3	
3	
3	
3	
3	
3	
3	
3	
3	
3	
3	
3	
3	
3	
3	
3	
3	
3	
3	
3	
3	
3	
3	
3	
3	
3	
4	
4	
4	
4	
4	
4	
4	
4	
4	
4	
4	
4	
4	
4	
4	
4	
4	
4	
4	
4	
4	
4	
4	
4	
4	
4	
4	
4	
4	
4	
4	
4	
4	
4	
4	
4	
4	
4	
4	
4	
4	
4	
4	
4	
4	
4	
4	
4	
4	
4	
4	
4	
4	
4	
4	
4	
4	
4	
4	
4	
5	
5	
5	
5	
5	
5	
5	
5	
5	
5	
5	
5	
5	
5	
5	
5	
5	
5	
5	
5	
5	
5	
5	
5	
5	
5	
5	
5	
5	
5	
5	
5	
5	
5	
5	
5	
5	
5	
5	
5	
5	
5	
5	
5	
5	
5	
5	
5	
5	
5	
5	
5	
5	
5	
5	
5	
5	
5	
5	
5	
6	
6	
6	
6	
6	
6	
6	
6	
6	
6	
6	
6	
6	
6	
6	
6	
6	
6	
6	
6	
6	
6	
6	
6	
6	
6	
6	
6	
6	
6	
6	
6	
6	
6	
6	
6	
6	
6	
6	
6	
6	
6	
6	
6	
6	
6	
6	
6	
6	
6	
6	
6	
6	
6	
6	
6	
6	
6	
6	
6	
7	
7	
7	
7	
7	
7	
7	
7	
7	
7	
7	
7	
7	
7	
7	
7	
7	
7	
7	
7	
7	
7	
7	
7	
7	
7	
7	
7	
7	
7	
7	
7	
7	
7	
7	
7	
7	
7	
7	
7	
7	
7	
7	
7	
7	
7	
7	
7	
7	
7	
7	
7	
7	
7	
7	
7	
7	
7	
7	
7	
				</DataArray>
			</CellData>
			<Points>
				<DataArray type="Float64" Name="Position" NumberOfComponents="3" Format="ascii">
1.66373	2.93904	0.0589822	
1.65593	2.34667	0.0455015	
1.65164	1.64937	0.0565204	
1.65533	1.44926	0.0573998	
1.65224	0.149511	0.0617226	
1.65499	1.54892	0.0575104	
1.65431	0.249629	0.0620352	
1.65283	0.45021	0.0623432	
1.65358	1.9499	0.052195	
1.65075	0.84998	0.0610624	
1.65406	0.650357	0.0599515	
1.65212	1.34914	0.0593807	
1.65503	1.05033	0.0587714	
1.65469	1.15017	0.0592647	
1.65475	0.950207	0.0601587	
1.65647	2.44612	0.04439	
1.65629	2.04974	0.0495725	
1.65697	2.24786	0.0461419	
1.65852	2.1492	0.0474229	
1.65543	0.750173	0.0609464	
1.65804	2.54563	0.0416975	
1.65338	0.34987	0.0639537	
1.65364	0.0495541	0.0615249	
1.66091	2.8424	0.0456708	
1.6558	1.24949	0.0594661	
1.65948	2.74392	0.0397371	
1.65491	1.84978	0.0544608	
1.65753	0.550547	0.0607043	
1.65763	1.74997	0.0553419	
1.65949	2.64504	0.0394159	
1.65348	-0.0501439	0.0613674	
1.65562	-2.64417	0.0403145	
1.65097	-1.64938	0.0554386	
1.65425	-1.45025	0.0573318	
1.66065	-2.84154	0.0484491	
1.6536	-0.149945	0.0612718	
1.65371	-1.54944	0.0569395	
1.6551	-0.250038	0.0603617	
1.65373	-0.350157	0.0606055	
1.65453	-0.449759	0.0598148	
1.65216	-1.94871	0.0526314	
1.65127	-0.849679	0.0612075	
1.65449	-0.649871	0.0599345	
1.65209	-1.35042	0.0592924	
1.6539	-1.15044	0.0594634	
1.65443	-0.949926	0.0603778	
1.65563	-2.44622	0.0428565	
1.6546	-2.04875	0.0514539	
1.65496	-2.24739	0.0478092	
1.65515	-1.25012	0.0595311	
1.65769	-2.34667	0.0451004	
1.65569	-0.749905	0.0611511	
1.65812	-2.54579	0.0403919	
1.65789	-0.550078	0.0596343	
1.6558	-2.14816	0.0504216	
1.65719	-1.05029	0.0599032	
1.66484	-2.93913	0.0606218	
1.65621	-1.74967	0.0538851	
1.65999	-2.74347	0.0404952	
1.65536	-1.84922	0.0535311	
1.57358	2.94634	0.0247055	
1.58302	2.35055	-0.0119829	
1.58654	1.6502	-0.00322772	
1.58969	1.4498	-0.00485696	
1.58862	0.149666	0.000139023	
1.58846	1.54974	-0.00401408	
1.58948	0.249931	-7.9772e-05	
1.58893	0.449521	0.00111554	
1.5859	1.95098	-0.00758322	
1.58824	0.850252	0.00052264	
1.58866	0.650342	-0.00189423	
1.58787	1.34987	-0.00118864	
1.58927	1.05053	-0.00376343	
1.58835	1.15078	-0.00287724	
1.5886	0.95012	-0.00179118	
1.58067	2.45043	-0.0107055	
1.58644	2.05121	-0.0109466	
1.58452	2.25123	-0.0129349	
1.58586	2.1514	-0.013157	
1.5887	0.750504	-0.00111663	
1.57914	2.55038	-0.0111813	
1.58823	0.349947	0.00351992	
1.58953	0.0499406	-0.000561618	
1.57363	2.8503	0.00428795	
1.58869	1.24993	-0.0028481	
1.57475	2.75053	-0.00594635	
1.58588	1.85088	-0.00531139	
1.58945	0.550138	-0.00268265	
1.58706	1.75074	-0.00588441	
1.57691	2.65049	-0.0100906	
1.58948	-0.0497236	-0.00079432	
1.57618	-2.65033	-0.00980617	
1.5857	-1.6504	-0.00472303	
1.58888	-1.45085	-0.00498745	
1.57409	-2.84997	0.00642654	
1.58849	-0.149715	-0.000868907	
1.58728	-1.55035	-0.00469367	
1.58961	-0.24973	-0.00240012	
1.58892	-0.350048	-0.00132704	
1.59006	-0.449606	-0.00278302	
1.58426	-1.95067	-0.00643394	
1.58877	-0.850102	0.000591564	
1.58918	-0.650464	-0.0023997	
1.58695	-1.35097	-0.0012736	
1.58834	-1.15107	-0.00228409	
1.58909	-0.950108	-0.00143035	
1.58019	-2.45038	-0.0121263	
1.58465	-2.05066	-0.00791649	
1.5833	-2.24985	-0.0100976	
1.58802	-1.25073	-0.00241718	
1.58308	-2.34984	-0.0122407	
1.58948	-0.750465	-0.00126098	
1.57871	-2.55081	-0.012563	
1.5898	-0.550044	-0.00438906	
1.58356	-2.15026	-0.00785694	
1.58932	-1.05061	-0.00298833	
1.57423	-2.94602	0.0264884	
1.58688	-1.75054	-0.00775963	
1.57451	-2.75041	-0.00507049	
1.58489	-1.85094	-0.00700266	
1.47454	2.94905	0.00617859	
1.47851	2.35176	-0.0303155	
1.48109	1.65046	-0.025011	
1.48323	1.44985	-0.0276495	
1.48299	0.149785	-0.0236668	
1.4822	1.55042	-0.0263048	
1.48347	0.249994	-0.0240161	
1.48347	0.449673	-0.022549	
1.4802	1.95087	-0.0282171	
1.48185	0.85017	-0.0225237	
1.4826	0.650448	-0.0250109	
1.48304	1.34986	-0.0240331	
1.48257	1.05046	-0.0267618	
1.48215	1.15061	-0.0257413	
1.48197	0.949953	-0.0248661	
1.47704	2.45181	-0.0283145	
1.48109	2.0514	-0.0311884	
1.47964	2.25198	-0.0318628	
1.48093	2.15192	-0.0329097	
1.48264	0.750649	-0.0243287	
1.47532	2.55173	-0.0277888	
1.48297	0.34998	-0.0201164	
1.48327	0.0499298	-0.0245436	
1.47345	2.8526	-0.0121043	
1.48318	1.25	-0.0259366	
1.47314	2.75193	-0.0210425	
1.48013	1.85065	-0.0263743	
1.48318	0.55017	-0.026132	
1.48082	1.75094	-0.0275778	
1.47363	2.65136	-0.0255426	
1.4835	-0.0496752	-0.024792	
1.47339	-2.6517	-0.0251692	
1.48116	-1.65045	-0.026587	
1.4824	-1.45095	-0.0277121	
1.47383	-2.85231	-0.0104093	
1.48238	-0.149653	-0.0244594	
1.48173	-1.55063	-0.0269286	
1.48295	-0.24965	-0.0260211	
1.48259	-0.349889	-0.024654	
1.48357	-0.449609	-0.0261833	
1.48014	-1.95081	-0.0272624	
1.48225	-0.850173	-0.0225417	
1.48318	-0.650503	-0.0256594	
1.48232	-1.35108	-0.0240518	
1.48232	-1.151	-0.0251596	
1.48224	-0.949996	-0.0244845	
1.47653	-2.45153	-0.0293848	
1.48037	-2.05103	-0.0285338	
1.47892	-2.25049	-0.0292821	
1.48282	-1.25078	-0.0254945	
1.47843	-2.35082	-0.0305289	
1.48325	-0.750687	-0.0246611	
1.47497	-2.55212	-0.028851	
1.48347	-0.549962	-0.0277118	
1.47923	-2.15089	-0.0276508	
1.48277	-1.05064	-0.0259694	
1.47526	-2.94872	0.00759571	
1.48156	-1.75084	-0.0296239	
1.47276	-2.75192	-0.0203952	
1.4801	-1.85099	-0.028264	
1.37406	2.94959	-0.00814815	
1.37436	2.3516	-0.0293778	
1.37491	1.65045	-0.0249587	
1.37626	1.45044	-0.0283902	
1.37591	0.149892	-0.0248737	
1.37533	1.55015	-0.0265542	
1.37661	0.249996	-0.0257997	
1.37734	0.449806	-0.0239135	
1.37496	1.95056	-0.0276904	
1.37619	0.85016	-0.0233687	
1.37569	0.650598	-0.0258284	
1.37667	1.34986	-0.0243513	
1.37563	1.04992	-0.0275885	
1.37632	1.15012	-0.0264283	
1.37555	0.949737	-0.0258024	
1.37369	2.45196	-0.027923	
1.37542	2.05077	-0.0302291	
1.37418	2.25205	-0.0303177	
1.37507	2.15148	-0.0316669	
1.37641	0.750691	-0.0252983	
1.37282	2.55175	-0.0279269	
1.3766	0.350091	-0.0213966	
1.37621	0.049905	-0.0256101	
1.37233	2.85254	-0.0193534	
1.37692	1.24993	-0.0267797	
1.37167	2.75177	-0.0231879	
1.37477	1.85064	-0.0261051	
1.37659	0.550404	-0.0274407	
1.37516	1.75095	-0.0279238	
1.37212	2.65133	-0.0260957	
1.37601	-0.04992	-0.0257023	
1.37199	-2.65182	-0.0254638	
1.37491	-1.65068	-0.02625	
1.37612	-1.45082	-0.0283811	
1.37221	-2.85214	-0.0184037	
1.37583	-0.149834	-0.0252761	
1.37552	-1.55012	-0.0270254	
1.37589	-0.249329	-0.0269514	
1.37622	-0.350004	-0.0251837	
1.37688	-0.449422	-0.0266923	
1.37477	-1.9506	-0.026953	
1.37621	-0.850154	-0.0233955	
1.37607	-0.650644	-0.0262288	
1.37588	-1.35128	-0.0243922	
1.37616	-1.15041	-0.0258944	
1.37563	-0.949819	-0.0254329	
1.37321	-2.45167	-0.0285594	
1.37504	-2.05101	-0.0284226	
1.37403	-2.25094	-0.0285572	
1.37651	-1.25076	-0.0264249	
1.37407	-2.35083	-0.0297687	
1.3765	-0.750973	-0.0255898	
1.37259	-2.55221	-0.0284568	
1.37649	-0.550194	-0.0283704	
1.37481	-2.15075	-0.0271545	
1.37544	-1.05018	-0.0267701	
1.3743	-2.94908	-0.00735846	
1.37538	-1.75101	-0.0297266	
1.37144	-2.75205	-0.023105	
1.37495	-1.85086	-0.0281901	
1.27559	2.95106	-0.0182036	
1.27528	2.35107	-0.0265832	
1.27519	1.65004	-0.0244955	
1.27557	1.45065	-0.0270948	
1.27556	0.149861	-0.0251252	
1.27537	1.55009	-0.0256761	
1.27586	0.249841	-0.0259607	
1.27638	0.449893	-0.0244866	
1.27536	1.95034	-0.0260185	
1.27602	0.850109	-0.0239583	
1.27557	0.650381	-0.0255932	
1.27608	1.3502	-0.0242168	
1.27525	1.04984	-0.0266611	
1.27576	1.15004	-0.025735	
1.27539	0.95	-0.0256165	
1.275	2.4513	-0.0256969	
1.27556	2.05057	-0.0274112	
1.27506	2.25122	-0.0271376	
1.27542	2.15111	-0.0282555	
1.27596	0.750289	-0.0253532	
1.27463	2.55134	-0.0257781	
1.27633	0.349935	-0.0227529	
1.27575	0.0499762	-0.0256904	
1.27459	2.85229	-0.0227891	
1.27602	1.25	-0.0261175	
1.27432	2.75157	-0.023427	
1.27537	1.85047	-0.0251714	
1.2758	0.550443	-0.0268699	
1.27521	1.75042	-0.0267368	
1.27443	2.65121	-0.0246775	
1.27565	-0.0499061	-0.0256832	
1.27444	-2.65155	-0.0242069	
1.27511	-1.6502	-0.0252044	
1.27563	-1.45058	-0.0270442	
1.27454	-2.85215	-0.0223433	
1.27556	-0.149829	-0.0252174	
1.27537	-1.55013	-0.025839	
1.2755	-0.249571	-0.0264563	
1.27598	-0.349869	-0.0250969	
1.27606	-0.449713	-0.0260323	
1.27516	-1.95039	-0.0255739	
1.27597	-0.850042	-0.0239941	
1.27574	-0.650376	-0.02576	
1.27577	-1.35089	-0.0242887	
1.27575	-1.15022	-0.0254235	
1.2755	-0.950027	-0.0253743	
1.27468	-2.45123	-0.0259957	
1.27541	-2.05079	-0.0265898	
1.27487	-2.25075	-0.0262968	
1.27577	-1.25044	-0.0259166	
1.27493	-2.35053	-0.0269169	
1.27597	-0.750564	-0.0255571	
1.27439	-2.55144	-0.0260608	
1.2757	-0.550327	-0.0272157	
1.27539	-2.1508	-0.0254574	
1.27528	-1.04999	-0.0261239	
1.27558	-2.9506	-0.0177906	
1.27527	-1.75054	-0.027752	
1.27423	-2.75178	-0.0235971	
1.27534	-1.85064	-0.0265752	
				</DataArray>
			</Points>
			<Cells>
				<DataArray type="Int32" Name="connectivity" Format="ascii">
0	
1	
2	
3	
4	
5	
6	
7	
8	
9	
10	
11	
12	
13	
14	
15	
16	
17	
18	
19	
20	
21	
22	
23	
24	
25	
26	
27	
28	
29	
30	
31	
32	
33	
34	
35	
36	
37	
38	
39	
40	
41	
42	
43	
44	
45	
46	
47	
48	
49	
50	
51	
52	
53	
54	
55	
56	
57	
58	
59	
60	
61	
62	
63	
64	
65	
66	
67	
68	
69	
70	
71	
72	
73	
74	
75	
76	
77	
78	
79	
80	
81	
82	
83	
84	
85	
86	
87	
88	
89	
90	
91	
92	
93	
94	
95	
96	
97	
98	
99	
100	
101	
102	
103	
104	
105	
106	
107	
108	
109	
110	
111	
112	
113	
114	
115	
116	
117	
118	
119	
120	
121	
122	
123	
124	
125	
126	
127	
128	
129	
130	
131	
132	
133	
134	
135	
136	
137	
138	
139	
140	
141	
142	
143	
144	
145	
146	
147	
148	
149	
150	
151	
152	
153	
154	
155	
156	
157	
158	
159	
160	
161	
162	
163	
164	
165	
166	
167	
168	
169	
170	
171	
172	
173	
174	
175	
176	
177	
178	
179	
180	
181	
182	
183	
184	
185	
186	
187	
188	
189	
190	
191	
192	
193	
194	
195	
196	
197	
198	
199	
200	
201	
202	
203	
204	
205	
206	
207	
208	
209	
210	
211	
212	
213	
214	
215	
216	
217	
218	
219	
220	
221	
222	
223	
224	
225	
226	
227	
228	
229	
230	
231	
232	
233	
234	
235	
236	
237	
238	
239	
240	
241	
242	
243	
244	
245	
246	
247	
248	
249	
250	
251	
252	
253	
254	
255	
256	
257	
258	
259	
260	
261	
262	
263	
264	
265	
266	
267	
268	
269	
270	
271	
272	
273	
274	
275	
276	
277	
278	
279	
280	
281	
282	
283	
284	
285	
286	
287	
288	
289	
290	
291	
292	
293	
294	
295	
296	
297	
298	
299	
				</DataArray>
				<DataArray type="Int32" Name="offsets" Format="ascii">
1	
2	
3	
4	
5	
6	
7	
8	
9	
10	
11	
12	
13	
14	
15	
16	
17	
18	
19	
20	
21	
22	
23	
24	
25	
26	
27	
28	
29	
30	
31	
32	
33	
34	
35	
36	
37	
38	
39	
40	
41	
42	
43	
44	
45	
46	
47	
48	
49	
50	
51	
52	
53	
54	
55	
56	
57	
58	
59	
60	
61	
62	
63	
64	
65	
66	
67	
68	
69	
70	
71	
72	
73	
74	
75	
76	
77	
78	
79	
80	
81	
82	
83	
84	
85	
86	
87	
88	
89	
90	
91	
92	
93	
94	
95	
96	
97	
98	
99	
100	
101	
102	
103	
104	
105	
106	
107	
108	
109	
110	
111	
112	
113	
114	
115	
116	
117	
118	
119	
120	
121	
122	
123	
124	
125	
126	
127	
128	
129	
130	
131	
132	
133	
134	
135	
136	
137	
138	
139	
140	
141	
142	
143	
144	
145	
146	
147	
148	
149	
150	
151	
152	
153	
154	
155	
156	
157	
158	
159	
160	
161	
162	
163	
164	
165	
166	
167	
168	
169	
170	
171	
172	
173	
174	
175	
176	
177	
178	
179	
180	
181	
182	
183	
184	
185	
186	
187	
188	
189	
190	
191	
192	
193	
194	
195	
196	
197	
198	
199	
200	
201	
202	
203	
204	
205	
206	
207	
208	
209	
210	
211	
212	
213	
214	
215	
216	
217	
218	
219	
220	
221	
222	
223	
224	
225	
226	
227	
228	
229	
230	
231	
232	
233	
234	
235	
236	
237	
238	
239	
240	
241	
242	
243	
244	
245	
246	
247	
248	
249	
250	
251	
252	
253	
254	
255	
256	
257	
258	
259	
260	
261	
262	
263	
264	
265	
266	
267	
268	
269	
270	
271	
272	
273	
274	
275	
276	
277	
278	
279	
280	
281	
282	
283	
284	
285	
286	
287	
288	
289	
290	
291	
292	
293	
294	
295	
296	
297	
298	
299	
300	
				</DataArray>
				<DataArray type="Int32" Name="types" Format="ascii">
1	
1	
1	
1	
1	
1	
1	
1	
1	
1	
1	
1	
1	
1	
1	
1	
1	
1	
1	
1	
1	
1	
1	
1	
1	
1	
1	
1	
1	
1	
1	
1	
1	
1	
1	
1	
1	
1	
1	
1	
1	
1	
1	
1	
1	
1	
1	
1	
1	
1	
1	
1	
1	
1	
1	
1	
1	
1	
1	
1	
1	
1	
1	
1	
1	
1	
1	
1	
1	
1	
1	
1	
1	
1	
1	
1	
1	
1	
1	
1	
1	
1	
1	
1	
1	
1	
1	
1	
1	
1	
1	
1	
1	
1	
1	
1	
1	
1	
1	
1	
1	
1	
1	
1	
1	
1	
1	
1	
1	
1	
1	
1	
1	
1	
1	
1	
1	
1	
1	
1	
1	
1	
1	
1	
1	
1	
1	
1	
1	
1	
1	
1	
1	
1	
1	
1	
1	
1	
1	
1	
1	
1	
1	
1	
1	
1	
1	
1	
1	
1	
1	
1	
1	
1	
1	
1	
1	
1	
1	
1	
1	
1	
1	
1	
1	
1	
1	
1	
1	
1	
1	
1	
1	
1	
1	
1	
1	
1	
1	
1	
1	
1	
1	
1	
1	
1	
1	
1	
1	
1	
1	
1	
1	
1	
1	
1	
1	
1	
1	
1	
1	
1	
1	
1	
1	
1	
1	
1	
1	
1	
1	
1	
1	
1	
1	
1	
1	
1	
1	
1	
1	
1	
1	
1	
1	
1	
1	
1	
1	
1	
1	
1	
1	
1	
1	
1	
1	
1	
1	
1	
1	
1	
1	
1	
1	
1	
1	
1	
1	
1	
1	
1	
1	
1	
1	
1	
1	
1	
1	
1	
1	
1	
1	
1	
1	
1	
1	
1	
1	
1	
1	
1	
1	
1	
1	
1	
1	
1	
1	
1	
1	
1	
1	
1	
1	
1	
1	
1	
1	
1	
1	
1	
1	
1	
1	
1	
1	
1	
1	
1	
				</DataArray>
			</Cells>
		</Piece>
	</UnstructuredGrid>
</VTKFile>
