<VTKFile type="UnstructuredGrid" version="0.1" byte_order="LittleEndian">
	<UnstructuredGrid>
		<Piece NumberOfPoints="1020" NumberOfCells="1020">
			<CellData Scalars="scalars">
				<DataArray type="Float64" Name="Strength" NumberOfComponents="3" Format="ascii">
0.01716	-0.0109088	0.000390815	
0.00238691	-0.0236857	0.00289295	
0.000657222	-0.025237	0.000815759	
-0.000139569	-0.0264802	0.000972992	
-0.000456056	-0.0260773	0.000383357	
0.0003718	-0.0258168	0.00078506	
0.0011513	-0.0264589	-0.000417341	
-0.00143408	-0.0257274	0.000880019	
6.71105e-06	-0.025124	0.0019038	
0.000178604	-0.0254765	0.000186109	
0.000793963	-0.0264164	-0.000370228	
0.0010433	-0.0254538	0.000110772	
0.000137202	-0.0268038	0.000422623	
0.000421126	-0.0263034	0.000422292	
0.000245569	-0.0261094	0.000320991	
0.00114884	-0.0222418	0.00438934	
0.000772276	-0.0254477	0.00205507	
0.0013077	-0.0242426	0.00285025	
0.000653979	-0.0252769	0.00274854	
0.000203366	-0.0259228	4.58919e-05	
0.00196899	-0.0211724	0.00525977	
-1.28286e-05	-0.0252182	0.000133769	
-0.000119072	-0.0259959	0.00023561	
0.00326021	-0.0146559	0.0054359	
0.00036142	-0.0261731	0.000565479	
0.00249027	-0.0169899	0.00609582	
0.00111751	-0.0249721	0.000821164	
0.000112416	-0.0267247	-7.35655e-05	
0.000469092	-0.0256574	0.00111966	
0.000131451	-0.0190189	0.00657764	
4.59372e-05	-0.0260315	0.000379315	
-0.00385688	-0.0190447	-0.0053342	
-0.000384273	-0.0254889	-0.00124665	
7.05914e-05	-0.0264601	-0.000943383	
-0.00709503	-0.0148475	-0.00445697	
0.000438295	-0.0262284	-3.15815e-05	
-0.000406314	-0.0259098	-0.000856291	
-0.000605021	-0.0267089	0.000310544	
0.000356101	-0.0261619	-0.00021643	
0.000544333	-0.0265953	-0.000356552	
-0.000968057	-0.0248514	-0.0015726	
-0.000150476	-0.0255636	-0.000313749	
-0.000913424	-0.0265632	0.00024387	
-0.000964117	-0.0255492	-0.000201033	
-0.00086957	-0.0261762	-0.000230074	
0.000257989	-0.0261055	-0.0006153	
-0.00247636	-0.0222426	-0.00377129	
-0.00126628	-0.0248671	-0.00183447	
-0.000996397	-0.0236793	-0.00265227	
-0.000460566	-0.0261001	-0.000553417	
-0.000394236	-0.0236431	-0.00369138	
-8.44161e-05	-0.0260201	-0.000332549	
-0.000346811	-0.0207221	-0.00619688	
-1.09903e-05	-0.0271008	-0.000155968	
-0.000522168	-0.0242472	-0.00258339	
-0.000223094	-0.026608	-0.000488402	
-0.0137366	-0.0112379	-0.00101691	
-0.00107198	-0.0260559	-0.00103205	
-0.000693845	-0.0168424	-0.00714297	
-0.000457141	-0.0253422	-0.00165236	
0.0184236	0.000615838	-0.00384048	
0.00234807	-0.0040614	-0.000835639	
0.000389362	-0.00486737	-4.88021e-05	
-0.000238132	-0.00493266	0.000348512	
-0.000152622	-0.00521145	0.000153121	
8.80687e-05	-0.00489972	0.000125663	
0.00109302	-0.00511736	-0.000773646	
-0.00131602	-0.00513311	0.00100854	
-0.000217155	-0.00466323	0.000530172	
-6.44127e-05	-0.00511347	9.28368e-05	
0.000605675	-0.0050679	-0.000448446	
0.000737694	-0.00506617	-0.000419185	
-4.86504e-05	-0.00505202	0.000134117	
0.00015001	-0.00510406	4.655e-06	
4.29871e-05	-0.005074	6.88359e-05	
0.00140616	-0.00378588	-6.74817e-06	
0.000359876	-0.00454521	0.000211555	
0.00108335	-0.00420763	-7.63898e-05	
0.000229276	-0.00447171	0.000447479	
3.03525e-05	-0.00496261	-3.8528e-07	
0.00227778	-0.00346807	-0.000323098	
-3.40942e-06	-0.00503808	2.32074e-05	
6.56343e-05	-0.00523633	-1.95145e-06	
0.00310307	-0.00186208	-9.39726e-05	
7.28977e-05	-0.00514059	9.79016e-05	
0.00287164	-0.00243044	-0.00015642	
0.000739347	-0.00473579	-0.000251261	
8.79609e-07	-0.00509993	-5.85393e-06	
0.0001015	-0.0048213	0.000179654	
0.000326366	-0.00299422	0.000900151	
2.64737e-05	-0.0052677	7.6801e-05	
-0.00442913	-0.00300508	0.00112664	
-7.92782e-05	-0.00490347	-0.000229354	
0.000291267	-0.00496125	-0.000382056	
-0.00729835	-0.00154923	0.00163241	
0.000413553	-0.00525007	-0.000257849	
-7.8191e-05	-0.00491475	-0.000152184	
-0.000455817	-0.00521016	0.000360053	
0.000343963	-0.00516908	-0.000263319	
0.000427078	-0.00518781	-0.000337565	
-0.000794312	-0.00459035	0.000134992	
-0.000148291	-0.00511946	2.41981e-05	
-0.000811558	-0.00517994	0.000566711	
-0.000605897	-0.00503151	0.000314691	
-0.000449968	-0.00508718	0.000195912	
0.00029515	-0.0050445	-0.000334697	
-0.00267983	-0.00384895	0.000827358	
-0.000961735	-0.00450196	0.000182783	
-0.000916624	-0.00428839	6.69165e-06	
-7.37281e-05	-0.00513573	-0.000105498	
-0.000262596	-0.00401576	-0.000564551	
-5.07626e-05	-0.005052	-4.92444e-05	
-0.000361562	-0.00338373	-0.000890323	
-2.1169e-05	-0.00516274	-2.51345e-05	
-0.000210289	-0.00434526	-0.000428255	
-4.59333e-05	-0.00505823	-8.84865e-05	
-0.014296	5.73119e-05	0.00312069	
-0.000756867	-0.00486645	0.000235946	
-0.000368975	-0.00244705	-0.000895158	
-0.000144861	-0.00473922	-0.000268136	
0.0191707	0.00323126	-0.00367942	
0.00242352	-0.00149414	-0.00138439	
0.000403981	-0.0021049	-0.000197089	
-0.000194895	-0.00217539	0.000228195	
-0.000101478	-0.0023535	8.67501e-05	
5.93593e-05	-0.00213801	3.91383e-05	
0.00112307	-0.00231757	-0.000810147	
-0.00134024	-0.0023173	0.000997636	
-0.000165252	-0.00199254	0.00027024	
-8.58017e-05	-0.00230573	8.51455e-05	
0.000618799	-0.00231029	-0.000457088	
0.000753714	-0.00222221	-0.000506664	
-3.76357e-05	-0.0022682	7.44474e-05	
0.000142347	-0.00227712	-5.05191e-05	
2.39063e-05	-0.00229355	2.86052e-05	
0.00144688	-0.00145399	-0.000626425	
0.000345994	-0.00191958	-6.63674e-05	
0.00109076	-0.00170015	-0.000515984	
0.000161998	-0.00188352	0.000123762	
1.19969e-05	-0.00226449	2.48505e-06	
0.00234943	-0.00123619	-0.00101061	
1.92648e-06	-0.00230246	6.20652e-06	
8.67688e-05	-0.00236348	-4.31288e-05	
0.00315733	-0.000342062	-0.000554201	
4.62154e-05	-0.00227836	3.81538e-05	
0.00298799	-0.000653323	-0.000731597	
0.000748724	-0.00202466	-0.000445631	
-5.75694e-06	-0.00231332	3.52733e-06	
6.8971e-05	-0.00208978	5.30144e-05	
0.000232458	-0.00122473	0.000270775	
1.77575e-05	-0.00237346	3.29001e-05	
-0.00465956	-0.000682744	0.00185704	
-8.76663e-05	-0.00212988	-6.29976e-05	
0.00025094	-0.00218073	-0.00027139	
-0.0076035	0.000547651	0.00193558	
0.000415169	-0.00236823	-0.000281139	
-5.93105e-05	-0.00214706	-5.19419e-05	
-0.000451806	-0.00236279	0.000349203	
0.000338049	-0.00235835	-0.000255942	
0.00040851	-0.0023574	-0.000316016	
-0.000869079	-0.00194954	0.00046308	
-0.000154075	-0.00231841	7.74204e-05	
-0.000830337	-0.00233986	0.000605871	
-0.000628317	-0.0022205	0.000407954	
-0.000433107	-0.00227363	0.000256624	
0.000282105	-0.00229814	-0.000260426	
-0.00281548	-0.0013459	0.00150994	
-0.0009752	-0.00188373	0.000499081	
-0.000995628	-0.0017319	0.000460351	
-4.74618e-05	-0.00227794	-4.3459e-05	
-0.000187044	-0.00166194	-0.000134218	
-3.58908e-05	-0.00229642	-1.11576e-05	
-0.000252762	-0.00137058	-0.00026244	
-1.70316e-05	-0.00234147	-3.83333e-06	
-0.000136066	-0.00183852	-0.000116889	
-3.18451e-05	-0.00227431	-3.53111e-05	
-0.0148317	0.00233362	0.00299444	
-0.000767581	-0.00209639	0.000434079	
-0.000234717	-0.00100745	-0.000278136	
-0.000107159	-0.00205407	-7.30682e-05	
0.0202386	0.00415911	-0.0030274	
0.0027171	-0.00164043	-0.00147698	
0.000501682	-0.00237307	-0.000246319	
-0.000129802	-0.00245547	0.00015839	
-7.23281e-05	-0.00261284	4.42296e-05	
6.90153e-05	-0.00241512	2.45172e-05	
0.0011864	-0.00258052	-0.000777418	
-0.00140021	-0.00258013	0.000943901	
-5.9088e-05	-0.00223593	0.000188582	
-9.63167e-05	-0.00259523	8.05499e-05	
0.000653143	-0.0025911	-0.000433698	
0.000831791	-0.00248679	-0.00050937	
-2.96477e-07	-0.00256011	3.70921e-05	
0.000167164	-0.00255374	-6.83108e-05	
3.18956e-05	-0.00258113	2.02502e-05	
0.00163808	-0.0016047	-0.000744802	
0.000409331	-0.00214365	-0.000115376	
0.00122687	-0.00189999	-0.000580028	
0.0001768	-0.00210267	0.000104599	
1.16801e-05	-0.00255361	-3.53049e-06	
0.00258484	-0.00133071	-0.00111097	
4.21008e-06	-0.00257604	6.24515e-06	
9.88744e-05	-0.00261121	-5.60629e-05	
0.00340691	-0.000299586	-0.000583116	
5.46037e-05	-0.00254296	2.58068e-05	
0.00326509	-0.000671909	-0.000810984	
0.000817136	-0.00227419	-0.000463925	
-4.92716e-06	-0.00258136	5.91622e-06	
8.16735e-05	-0.00234393	2.92493e-05	
0.000279086	-0.00137783	0.000274083	
1.65995e-05	-0.00261568	3.34685e-05	
-0.00511342	-0.000661385	0.00201465	
-0.000171153	-0.00238774	3.68276e-06	
0.000192258	-0.00245384	-0.000199101	
-0.00818522	0.000845709	0.00195004	
0.000434392	-0.00261845	-0.000264669	
-7.24944e-05	-0.002417	-3.79957e-05	
-0.000470462	-0.00261828	0.000319419	
0.00034597	-0.0026144	-0.000236622	
0.000414527	-0.00261195	-0.000291535	
-0.00103088	-0.0021789	0.00055627	
-0.000173183	-0.00260032	8.74901e-05	
-0.000876053	-0.00260064	0.000581216	
-0.000701329	-0.00248977	0.000419892	
-0.000478696	-0.00254788	0.000266707	
0.000257398	-0.00258541	-0.000217258	
-0.00314876	-0.00147598	0.0016351	
-0.00110521	-0.00208114	0.000565831	
-0.00119644	-0.00192349	0.000566642	
-5.59639e-05	-0.00254254	-2.8654e-05	
-0.000202225	-0.00188507	-0.000102293	
-4.07286e-05	-0.00257157	2.57321e-06	
-0.000300381	-0.00155541	-0.000259497	
-2.04256e-05	-0.00259905	3.0317e-06	
-0.00014636	-0.00206837	-9.32567e-05	
-4.07365e-05	-0.00256181	-2.191e-05	
-0.0155992	0.00308468	0.00237556	
-0.000853029	-0.00232293	0.000472612	
-0.000289195	-0.00114976	-0.00028432	
-0.000102432	-0.00228381	-7.38129e-05	
0.0211461	0.0043523	-0.00307223	
0.00294806	-0.00139664	-0.00146437	
0.000568087	-0.0020876	-0.000295507	
-8.64032e-05	-0.00216666	0.000104605	
-5.3249e-05	-0.00234232	2.75865e-05	
5.56257e-05	-0.00212988	1.87246e-05	
0.00121274	-0.00231455	-0.000767347	
-0.00143049	-0.00231488	0.00091943	
5.17844e-05	-0.00195742	4.25336e-05	
-9.43782e-05	-0.00230285	6.73761e-05	
0.000683493	-0.00231588	-0.000435054	
0.000873454	-0.0021957	-0.000525301	
2.64526e-05	-0.0022663	5.75002e-06	
0.000178643	-0.00225863	-8.61576e-05	
2.49608e-05	-0.00228563	9.08402e-06	
0.0017675	-0.00136944	-0.000745453	
0.00044031	-0.00186393	-0.000152086	
0.00130734	-0.00163182	-0.000602401	
0.000137931	-0.00182576	7.39186e-05	
1.07054e-05	-0.00227591	-4.94389e-06	
0.00274434	-0.00111651	-0.00112707	
2.15029e-06	-0.00230825	1.88252e-06	
0.000101137	-0.00234077	-5.51531e-05	
0.00357017	-0.000115994	-0.000621526	
4.34531e-05	-0.00224817	1.36443e-05	
0.00344672	-0.000481808	-0.000886961	
0.000916496	-0.00197096	-0.000530065	
-1.02615e-06	-0.00231256	2.58117e-06	
6.13189e-05	-0.00205966	1.26871e-05	
0.000219097	-0.00117433	0.000242791	
1.41883e-06	-0.00234614	3.8298e-05	
-0.00548714	-0.000460952	0.00205552	
-0.000220193	-0.00209855	6.27501e-05	
0.000147106	-0.00216442	-0.000140308	
-0.00867238	0.00109089	0.00192822	
0.000434016	-0.00234821	-0.000250892	
-5.78316e-05	-0.00212872	-2.43773e-05	
-0.00048085	-0.00234724	0.000315755	
0.000345534	-0.00233992	-0.000222973	
0.000418728	-0.00233775	-0.000274084	
-0.00119248	-0.00187361	0.000657415	
-0.000189152	-0.0023061	0.00010108	
-0.000903307	-0.00232639	0.000574393	
-0.000745062	-0.00219329	0.000441772	
-0.000505808	-0.00225214	0.0002874	
0.000249667	-0.00228864	-0.000188107	
-0.00343798	-0.001264	0.00162488	
-0.0011792	-0.00179789	0.000611229	
-0.00134709	-0.00165669	0.000635938	
-4.69612e-05	-0.0022473	-1.47041e-05	
-0.00015315	-0.00163226	-9.36005e-05	
-3.16202e-05	-0.00229225	-7.37178e-07	
-0.000229053	-0.00133846	-0.000233037	
-1.75022e-05	-0.00232716	1.2562e-06	
-0.00011459	-0.00180017	-6.83908e-05	
-3.36515e-05	-0.00226965	-1.19328e-05	
-0.0162422	0.00323803	0.00231098	
-0.000910274	-0.00202839	0.000503446	
-0.000237411	-0.00097832	-0.000250019	
-0.000102279	-0.00199889	-1.4963e-05	
0.0219968	0.00430619	-0.00281926	
0.0032465	-0.00115623	-0.00123165	
0.000664388	-0.00178602	-0.000285257	
-1.26557e-05	-0.00187556	5.02978e-05	
-4.04961e-05	-0.00207921	2.17714e-05	
3.80941e-05	-0.00183187	3.39963e-05	
0.00128197	-0.00205958	-0.000679122	
-0.00150938	-0.00205893	0.000804897	
0.000138378	-0.00165593	-2.15048e-06	
-0.000104167	-0.00205026	6.2889e-05	
0.000739829	-0.00205617	-0.0003878	
0.000971035	-0.00192616	-0.000489274	
4.12056e-05	-0.00202695	-1.3992e-06	
0.000200797	-0.00202159	-8.54185e-05	
1.81433e-05	-0.00203827	8.81833e-06	
0.00193458	-0.00113155	-0.000615628	
0.000488347	-0.00156766	-0.000143303	
0.00142915	-0.00136154	-0.000485526	
0.000105236	-0.00153331	8.18757e-05	
1.16852e-05	-0.00202648	-5.1888e-06	
0.0029682	-0.000916046	-0.000881772	
4.18689e-07	-0.00205967	2.20235e-06	
0.000101395	-0.00207523	-4.37728e-05	
0.0037259	-7.81853e-06	-0.000543535	
3.44775e-05	-0.00200389	1.73399e-05	
0.00364014	-0.000344157	-0.000775467	
0.00100396	-0.00167914	-0.000456748	
-1.89042e-06	-0.00205414	1.97822e-06	
4.49016e-05	-0.00175279	2.24492e-05	
0.000150319	-0.000975361	0.000250724	
-1.25689e-05	-0.00208017	4.00728e-05	
-0.00591652	-0.000339969	0.00173042	
-0.000287859	-0.00179045	7.02195e-05	
7.9698e-05	-0.00187034	-8.09874e-05	
-0.00913117	0.00118433	0.00173901	
0.000450062	-0.00208491	-0.000217477	
-3.91518e-05	-0.00182712	-4.35462e-05	
-0.000510044	-0.00208536	0.00028207	
0.000352845	-0.00208212	-0.000187864	
0.00043476	-0.00207498	-0.000231218	
-0.00135037	-0.00159226	0.000599591	
-0.000205613	-0.00204695	8.62307e-05	
-0.00096614	-0.0020616	0.000500356	
-0.000834598	-0.00191827	0.000420336	
-0.000553501	-0.00201013	0.000264319	
0.000259135	-0.00203297	-0.000158673	
-0.0037942	-0.00103453	0.00135968	
-0.00126827	-0.0015175	0.000546804	
-0.00153887	-0.00137601	0.000556905	
-3.81888e-05	-0.00199594	-1.28258e-05	
-0.000109221	-0.00136406	-0.000117131	
-2.64911e-05	-0.0020343	-7.22902e-06	
-0.000154448	-0.00111324	-0.000237703	
-1.36631e-05	-0.0020612	-4.63541e-06	
-8.43347e-05	-0.00151378	-7.41512e-05	
-2.37196e-05	-0.00202304	-1.26284e-05	
-0.016839	0.00315213	0.0021801	
-0.000979866	-0.00172559	0.000452233	
-0.000176129	-0.00081553	-0.000243684	
-6.87156e-05	-0.00169409	-5.15349e-05	
0.0227739	0.00404789	-0.00269812	
0.00344507	-0.00099396	-0.00121891	
0.000764392	-0.00157758	-0.000279946	
7.43515e-05	-0.00166221	1.07194e-05	
-4.16057e-05	-0.00188275	2.08629e-05	
3.25422e-05	-0.00162217	3.63354e-05	
0.00134122	-0.00187558	-0.00059341	
-0.00155902	-0.00187596	0.000703955	
0.000245316	-0.0014596	-3.90181e-05	
-9.48923e-05	-0.00183918	4.89365e-05	
0.000788812	-0.00185871	-0.000352939	
0.00106806	-0.00171194	-0.000448345	
6.55863e-05	-0.00181901	-1.31497e-05	
0.000231898	-0.00180727	-7.9507e-05	
1.53484e-05	-0.00182641	1.09822e-05	
0.00204746	-0.000979071	-0.000616343	
0.000532866	-0.00137809	-0.000139906	
0.00151127	-0.00118842	-0.000497345	
8.68345e-05	-0.00134785	8.51411e-05	
8.39726e-06	-0.0018292	-7.25472e-07	
0.00310253	-0.00079687	-0.000876042	
1.01564e-06	-0.00187456	3.3298e-06	
0.000106584	-0.00187559	-3.60509e-05	
0.0038593	4.59737e-05	-0.000567064	
2.68386e-05	-0.0017851	2.47385e-05	
0.00379089	-0.000241438	-0.00081991	
0.00108423	-0.00148139	-0.000430012	
9.94852e-07	-0.00186109	1.21409e-06	
3.54405e-05	-0.00154865	3.26454e-05	
0.000127314	-0.000861759	0.000219458	
-2.10949e-05	-0.00187944	3.99228e-05	
-0.00619862	-0.000231693	0.00177744	
-0.000369143	-0.00158633	9.34805e-05	
-2.0851e-06	-0.00166264	-3.95625e-05	
-0.00952942	0.00113892	0.00170916	
0.000473639	-0.00188657	-0.000191341	
-3.50744e-05	-0.00162263	-3.8701e-05	
-0.000534166	-0.00189424	0.000249652	
0.00035753	-0.00189116	-0.000159732	
0.000432675	-0.00188652	-0.00020107	
-0.00151382	-0.00140525	0.000579227	
-0.000238558	-0.00183847	8.65088e-05	
-0.00101762	-0.00186337	0.000447995	
-0.0009277	-0.00170957	0.000386963	
-0.000611975	-0.0018013	0.000248649	
0.000265229	-0.00182473	-0.000142671	
-0.00401398	-0.000881106	0.0013772	
-0.00136666	-0.00133945	0.000486724	
-0.00168243	-0.00120093	0.000583725	
-2.90845e-05	-0.00178377	-2.36754e-05	
-9.17544e-05	-0.00119791	-0.000108735	
-1.96417e-05	-0.00183682	-1.36033e-05	
-0.000129733	-0.00098387	-0.000212291	
-1.1385e-05	-0.00186587	-7.31666e-06	
-7.06016e-05	-0.00133401	-7.57953e-05	
-1.85691e-05	-0.00182034	-1.68584e-05	
-0.0173871	0.00295388	0.00201964	
-0.00105042	-0.00153016	0.000399862	
-0.000147397	-0.000722801	-0.000215316	
-5.90421e-05	-0.00150458	-4.99925e-05	
0.0234836	0.00393106	-0.0028816	
0.00381508	-0.0011627	-0.00134336	
0.000828179	-0.00172671	-0.000297236	
0.000172122	-0.00181287	-2.7135e-05	
-2.2948e-05	-0.0019467	1.30253e-05	
3.55206e-05	-0.00176228	4.16396e-05	
0.00134431	-0.00193326	-0.00058978	
-0.00160942	-0.00196808	0.000723511	
0.000296591	-0.001681	-4.79593e-05	
-0.000100309	-0.00195776	5.3245e-05	
0.000831302	-0.00196838	-0.000369936	
0.00111149	-0.00184949	-0.000460941	
0.000125883	-0.00193101	-3.9617e-05	
0.000243015	-0.00189915	-8.25681e-05	
1.62581e-05	-0.00194912	1.2576e-05	
0.0022271	-0.00109088	-0.000658381	
0.000571638	-0.00163833	-0.00013575	
0.00160435	-0.00147381	-0.000509097	
0.00010267	-0.00162639	0.00010411	
9.52181e-06	-0.00193089	1.34685e-06	
0.0032695	-0.000858111	-0.000926095	
1.35513e-06	-0.00194274	3.5624e-06	
0.000103194	-0.00194494	-3.42622e-05	
0.00401176	3.31111e-05	-0.000634438	
2.80651e-05	-0.00189528	2.70526e-05	
0.00396178	-0.000257885	-0.000894618	
0.00112316	-0.00167142	-0.000435183	
1.69154e-06	-0.0019798	1.77174e-06	
3.9526e-05	-0.00171595	3.96346e-05	
0.000128754	-0.00090169	0.000220724	
-3.2098e-05	-0.00194142	4.48353e-05	
-0.00651555	-0.000245391	0.00190826	
-0.000423063	-0.00175046	0.000106841	
-9.53385e-05	-0.00183242	-4.2949e-06	
-0.0099054	0.00112852	0.00183625	
0.00047576	-0.00194084	-0.000191917	
-3.88632e-05	-0.00177794	-4.72719e-05	
-0.000530531	-0.0019408	0.000247085	
0.000390837	-0.00194406	-0.00017412	
0.000443401	-0.00197715	-0.000205255	
-0.00158583	-0.00165586	0.000594102	
-0.000246973	-0.00196947	8.7324e-05	
-0.00104935	-0.00198344	0.000459471	
-0.000964428	-0.00186189	0.000395778	
-0.000666771	-0.00190345	0.000269359	
0.000246166	-0.00195666	-0.000134592	
-0.0043265	-0.000977354	0.00146918	
-0.00144984	-0.00161862	0.000497846	
-0.00197897	-0.00138052	0.000688531	
-3.03424e-05	-0.00190115	-2.67051e-05	
-9.98584e-05	-0.00134543	-0.000123355	
-2.09022e-05	-0.00194663	-1.44919e-05	
-0.000132232	-0.0010374	-0.000215607	
-1.25708e-05	-0.001983	-7.8849e-06	
-8.3539e-05	-0.0016194	-9.39159e-05	
-1.94843e-05	-0.00194391	-1.88362e-05	
-0.0178801	0.00284556	0.00213642	
-0.00108527	-0.001718	0.000402043	
-0.000145542	-0.000739392	-0.000209266	
-6.73444e-05	-0.00171195	-6.0912e-05	
0.024125	0.00383911	-0.00311304	
0.00405389	-0.0010481	-0.00144982	
0.000984243	-0.00183743	-0.000357831	
0.000236515	-0.00194704	-5.20456e-05	
3.05551e-05	-0.00220131	-1.08607e-05	
3.81967e-05	-0.00191067	4.74648e-05	
0.00134441	-0.00219652	-0.000581014	
-0.00152579	-0.00218909	0.000679138	
0.000505281	-0.00166403	-0.000138773	
-6.33211e-05	-0.00211452	3.68203e-05	
0.000833043	-0.0021192	-0.000367212	
0.00113478	-0.00196715	-0.000464605	
0.0001728	-0.00206516	-6.09423e-05	
0.000303582	-0.00204993	-0.000108497	
1.71502e-05	-0.00208705	1.2407e-05	
0.00237509	-0.00100426	-0.000719945	
0.000630364	-0.00151466	-0.000170287	
0.00168023	-0.00129576	-0.000562312	
8.97309e-05	-0.00146667	9.08637e-05	
1.07497e-05	-0.00210642	1.77171e-06	
0.00341392	-0.000781512	-0.000998565	
1.71851e-06	-0.00220082	4.47565e-06	
0.000110399	-0.00223807	-3.6615e-05	
0.00413603	8.61111e-05	-0.000717527	
2.83457e-05	-0.00199908	2.78596e-05	
0.00411478	-0.000186899	-0.000992764	
0.00117885	-0.00170671	-0.000451496	
2.27217e-06	-0.00212287	2.33606e-06	
4.09341e-05	-0.0017743	4.31868e-05	
0.000114611	-0.000839899	0.000191431	
-7.89311e-05	-0.00224398	7.02136e-05	
-0.00681069	-0.000166403	0.00205711	
-0.000585988	-0.00184672	0.000174325	
-0.000207163	-0.00198011	4.15131e-05	
-0.0102427	0.00115646	0.0019904	
0.000471419	-0.00220902	-0.000186858	
-4.21758e-05	-0.00193369	-5.06784e-05	
-0.000502336	-0.00220355	0.000232019	
0.00037764	-0.00222563	-0.000166512	
0.000381394	-0.00221761	-0.000174863	
-0.00182097	-0.00161385	0.000693223	
-0.000290788	-0.00214132	0.000105134	
-0.00105269	-0.00215314	0.000457582	
-0.000958652	-0.00203715	0.00038425	
-0.000736153	-0.00207818	0.000296316	
0.000217422	-0.00211747	-0.000121898	
-0.00460271	-0.000892557	0.00158977	
-0.00154978	-0.00147926	0.000549356	
-0.00215747	-0.00127372	0.000774404	
-3.15624e-05	-0.00204027	-2.94037e-05	
-9.05242e-05	-0.0012645	-0.000111623	
-2.26925e-05	-0.00213974	-1.6622e-05	
-0.000118784	-0.000973616	-0.000188599	
-1.35678e-05	-0.00215768	-8.54053e-06	
-7.14121e-05	-0.00144313	-8.11069e-05	
-2.03865e-05	-0.00209852	-1.9712e-05	
-0.0183221	0.00279382	0.00224823	
-0.00113097	-0.00176679	0.000418035	
-0.000128609	-0.000682029	-0.000180972	
-6.74628e-05	-0.0017441	-6.31721e-05	
0.0246524	0.00373095	-0.00341243	
0.00421893	-0.000766619	-0.00155292	
0.00101123	-0.00142789	-0.000384408	
0.000293887	-0.00143929	-9.17245e-05	
4.13318e-05	-0.00160254	-1.67272e-05	
2.7623e-05	-0.00143817	3.54035e-05	
0.00138847	-0.00155623	-0.000601324	
-0.00156398	-0.00152129	0.00069178	
0.000583445	-0.00123969	-0.000192832	
-4.16777e-05	-0.00148796	2.4669e-05	
0.000895034	-0.00155588	-0.000395521	
0.00112304	-0.00149676	-0.000467916	
0.000182982	-0.00145829	-7.15967e-05	
0.000259185	-0.00145934	-9.68743e-05	
1.15285e-05	-0.00146756	8.22427e-06	
0.00247657	-0.000762487	-0.000797953	
0.000657106	-0.00119641	-0.000204594	
0.0017657	-0.000988113	-0.00063437	
6.77384e-05	-0.00117099	6.86628e-05	
7.65099e-06	-0.00148168	1.83973e-06	
0.00350492	-0.000576928	-0.00108851	
1.32823e-06	-0.00152176	2.73339e-06	
0.000123314	-0.00156535	-4.68342e-05	
0.00422696	0.000165604	-0.000820261	
1.98152e-05	-0.00150157	2.04993e-05	
0.00421584	-7.35519e-05	-0.00109919	
0.00130232	-0.00127317	-0.000514813	
1.92761e-06	-0.00154982	1.97562e-06	
3.16297e-05	-0.00141519	3.43712e-05	
8.59933e-05	-0.000677638	0.000142652	
-3.72362e-05	-0.00158188	3.82979e-05	
-0.00704193	-6.46123e-05	0.00220481	
-0.000658681	-0.00154212	0.000221216	
-0.000278052	-0.00160864	8.20605e-05	
-0.0105335	0.00116098	0.00216215	
0.000471781	-0.00163377	-0.000193815	
-3.28427e-05	-0.00155998	-3.95e-05	
-0.00053393	-0.00163685	0.000243964	
0.000374453	-0.00160677	-0.000165628	
0.000427057	-0.00160748	-0.000194289	
-0.00189264	-0.00127579	0.00073926	
-0.000296856	-0.00162483	0.00011272	
-0.00107547	-0.00167123	0.000469777	
-0.000987003	-0.00163083	0.000403912	
-0.00068019	-0.00162683	0.000277789	
0.000225322	-0.00161659	-0.000118104	
-0.00486057	-0.000731956	0.00172496	
-0.00156727	-0.00126084	0.000573366	
-0.00234261	-0.00121927	0.00086086	
-2.37166e-05	-0.00167658	-2.40545e-05	
-7.50045e-05	-0.00111306	-9.17003e-05	
-1.68561e-05	-0.00161287	-1.24399e-05	
-9.56188e-05	-0.000838569	-0.000150409	
-1.01523e-05	-0.00164715	-6.49216e-06	
-5.96572e-05	-0.00129552	-6.80146e-05	
-1.49132e-05	-0.00162343	-1.46467e-05	
-0.0187143	0.00269464	0.00243361	
-0.00123402	-0.0014677	0.000477868	
-0.000106065	-0.000601571	-0.000147341	
-5.12838e-05	-0.00138012	-4.86617e-05	
0.0252634	0.00342185	-0.00372481	
0.00431564	-0.000946378	-0.00157804	
0.00121215	-0.00139862	-0.000471947	
0.0003292	-0.00155653	-0.000103764	
5.24445e-05	-0.00135672	-2.2002e-05	
2.70878e-05	-0.00151684	3.73174e-05	
0.00137445	-0.00135338	-0.000592605	
-0.00163571	-0.00140682	0.000717907	
0.000700745	-0.00125318	-0.00024556	
-6.87532e-05	-0.00151271	3.65922e-05	
0.000839097	-0.00148534	-0.000367797	
0.00113114	-0.00154464	-0.000468861	
0.000149633	-0.00153309	-5.6488e-05	
0.000262554	-0.00155824	-9.71239e-05	
1.14908e-05	-0.00151987	7.48223e-06	
0.00259831	-0.000891644	-0.000836357	
0.000695322	-0.001181	-0.000227033	
0.00182403	-0.00102113	-0.000667458	
6.17947e-05	-0.0011573	6.25822e-05	
8.03331e-06	-0.00148506	3.02145e-06	
0.00364194	-0.000715691	-0.00113051	
1.00897e-06	-0.00138249	1.76353e-06	
0.000128572	-0.00136111	-5.13792e-05	
0.00436473	6.10951e-05	-0.000885165	
1.87065e-05	-0.0015601	2.12263e-05	
0.00437471	-0.000177444	-0.00117182	
0.00134195	-0.00128197	-0.000531758	
1.92572e-06	-0.00143724	1.74137e-06	
2.775e-05	-0.00133759	3.23502e-05	
9.12868e-05	-0.000793655	0.000151028	
-4.46934e-05	-0.00136728	3.63416e-05	
-0.00726732	-6.45059e-05	0.00234065	
-0.00078939	-0.00119635	0.000294886	
-0.000345468	-0.00126827	0.000122999	
-0.0108329	0.00110725	0.00231361	
0.000480931	-0.00136872	-0.000201331	
-2.50314e-05	-0.00126879	-3.14017e-05	
-0.000525494	-0.00137532	0.000237056	
0.000406629	-0.00138705	-0.000179843	
0.000465769	-0.00141808	-0.000211915	
-0.00200363	-0.00101335	0.00079934	
-0.000351275	-0.00152436	0.000138115	
-0.000980425	-0.00150157	0.000425366	
-0.00103917	-0.00133244	0.000432931	
-0.000758752	-0.00144166	0.000316033	
0.000193537	-0.00149405	-0.000100573	
-0.00498771	-0.000657939	0.00180214	
-0.00162004	-0.000967469	0.00061719	
-0.00235965	-0.000837144	0.000905264	
-1.74595e-05	-0.00139592	-2.00274e-05	
-5.71865e-05	-0.000934765	-7.01065e-05	
-1.51724e-05	-0.00153188	-1.15726e-05	
-8.29697e-05	-0.000802985	-0.000130837	
-8.60175e-06	-0.00145034	-5.7807e-06	
-3.99878e-05	-0.00096721	-4.64376e-05	
-1.22442e-05	-0.00146693	-1.2387e-05	
-0.0190818	0.00249234	0.00264273	
-0.00125929	-0.00112471	0.000503386	
-9.35028e-05	-0.00058452	-0.000129462	
-3.83803e-05	-0.00111498	-3.69083e-05	
0.0257707	0.00306092	-0.00408127	
0.00448496	-0.000782626	-0.00168256	
0.00130678	-0.00136831	-0.000516903	
0.000391288	-0.00140917	-0.000136685	
0.000147694	-0.00186159	-6.49177e-05	
2.21646e-05	-0.00138859	3.20254e-05	
0.00139199	-0.00179715	-0.000597244	
-0.00159715	-0.00174036	0.000698553	
0.000851451	-0.00114854	-0.000318929	
9.23518e-05	-0.00162089	-3.16946e-05	
0.000875462	-0.00173349	-0.000381776	
0.00114421	-0.00144763	-0.000476957	
0.000197816	-0.00153517	-7.8558e-05	
0.000325106	-0.00152751	-0.000126479	
1.08476e-05	-0.00156705	7.38254e-06	
0.00269793	-0.000734462	-0.000910002	
0.000699525	-0.00108327	-0.000240772	
0.00186934	-0.000963997	-0.000704065	
5.15553e-05	-0.00108581	5.33767e-05	
8.66706e-06	-0.00170245	4.47147e-06	
0.00371634	-0.000557771	-0.00121412	
1.24136e-06	-0.00178555	1.80989e-06	
0.000124846	-0.00187651	-4.80267e-05	
0.00444819	9.54524e-05	-0.000982318	
1.52929e-05	-0.00147196	2.07956e-05	
0.00447485	-0.000105083	-0.00127805	
0.00141177	-0.00121821	-0.000565142	
2.76261e-06	-0.0017466	2.44229e-06	
2.41283e-05	-0.00130331	2.96638e-05	
6.53253e-05	-0.000653551	0.000110499	
-9.22601e-05	-0.00187202	6.20872e-05	
-0.00748577	-9.349e-05	0.00247777	
-0.0009198	-0.0014591	0.000347635	
-0.000307541	-0.0014917	0.000103625	
-0.0111031	0.000963519	0.00248572	
0.000408993	-0.00183592	-0.000166289	
-2.58028e-05	-0.00149176	-3.47282e-05	
-0.000542935	-0.00176871	0.000243925	
0.000319072	-0.0017497	-0.000139578	
0.000451734	-0.00167158	-0.000205283	
-0.00215895	-0.00118977	0.00086222	
-0.000498356	-0.00147251	0.000202811	
-0.00107525	-0.00162274	0.000465732	
-0.00101209	-0.00145129	0.000420263	
-0.000764518	-0.00144815	0.000318362	
0.000189276	-0.00143736	-9.69514e-05	
-0.00532324	-0.00070676	0.00195018	
-0.00164792	-0.00113793	0.00062521	
-0.00241938	-0.00104801	0.000921588	
-1.49952e-05	-0.00143606	-1.95726e-05	
-5.95145e-05	-0.00112021	-7.74676e-05	
-1.49734e-05	-0.00155883	-1.15916e-05	
-7.08243e-05	-0.000787958	-0.000114512	
-9.50349e-06	-0.00165618	-6.75175e-06	
-4.14002e-05	-0.00116927	-5.09547e-05	
-1.05446e-05	-0.0014372	-1.06778e-05	
-0.0194662	0.00220799	0.00286098	
-0.00133286	-0.00135858	0.000532124	
-7.96305e-05	-0.00057083	-0.000112493	
-4.04422e-05	-0.00131116	-4.0356e-05	
0.0261918	0.00259843	-0.00442892	
0.00446695	-0.00043096	-0.00174655	
0.00132586	-0.000840543	-0.000549584	
0.000569013	-0.000911908	-0.000232007	
5.84921e-05	-0.00119066	-2.67339e-05	
1.08977e-05	-0.00086949	1.81101e-05	
0.00143876	-0.00124764	-0.000627882	
-0.00162373	-0.00128024	0.000716001	
0.000870645	-0.000787882	-0.000347246	
9.6713e-05	-0.0011663	-3.71074e-05	
0.000958705	-0.00118752	-0.000424164	
0.00125641	-0.00103142	-0.000539879	
0.000239088	-0.00114718	-0.000102503	
0.000309588	-0.00112156	-0.000127695	
7.04591e-06	-0.0011562	5.10686e-06	
0.0027914	-0.000537304	-0.00099508	
0.000776876	-0.000763999	-0.000298941	
0.00194221	-0.000565342	-0.000781244	
2.72256e-05	-0.000694466	3.02203e-05	
5.74178e-06	-0.00115324	3.41668e-06	
0.00378727	-0.000389401	-0.00130915	
7.35466e-07	-0.00121917	1.01476e-06	
0.00012864	-0.0011657	-5.36958e-05	
0.00451137	0.000120374	-0.00108868	
9.19836e-06	-0.00113894	1.46635e-05	
0.00454638	-3.30926e-05	-0.00139759	
0.00149274	-0.000774513	-0.000620631	
2.17917e-06	-0.0012271	2.47948e-06	
1.27347e-05	-0.000861598	1.74758e-05	
3.8994e-05	-0.000481394	7.10926e-05	
-6.98514e-05	-0.0011718	4.2845e-05	
-0.00762065	1.56698e-05	0.0026646	
-0.000919526	-0.000859472	0.00037835	
-0.000470219	-0.00092394	0.000193448	
-0.0112998	0.000864908	0.00270483	
0.00049392	-0.00120292	-0.000212879	
-1.21896e-05	-0.000883087	-1.85626e-05	
-0.000582459	-0.00127838	0.00026413	
0.00037301	-0.00124676	-0.000166513	
0.000394696	-0.00129651	-0.000180568	
-0.00222201	-0.000753857	0.00092114	
-0.000521905	-0.00115751	0.000219005	
-0.00117094	-0.00118938	0.00051608	
-0.00111733	-0.00103319	0.000481411	
-0.000765795	-0.00111411	0.000328667	
0.000175508	-0.00114532	-8.70749e-05	
-0.00537269	-0.000386853	0.0020596	
-0.00174863	-0.000731023	0.000700336	
-0.00251917	-0.000550133	0.00101914	
-9.00747e-06	-0.00113739	-1.51672e-05	
-2.50634e-05	-0.000586418	-3.65243e-05	
-1.0182e-05	-0.00115323	-8.20037e-06	
-3.91047e-05	-0.000536512	-6.7993e-05	
-6.72548e-06	-0.00123745	-4.52315e-06	
-1.87592e-05	-0.000682756	-2.63217e-05	
-6.72503e-06	-0.00113209	-7.40129e-06	
-0.0197663	0.00190315	0.00314867	
-0.00140123	-0.000864854	0.000591692	
-4.67361e-05	-0.00040777	-6.90127e-05	
-2.10344e-05	-0.000815573	-2.23771e-05	
0.0267366	0.0019477	-0.00474215	
0.00457087	-0.00075253	-0.00179374	
0.00138954	-0.00126062	-0.000573539	
0.000621611	-0.00129978	-0.000254847	
-3.38148e-05	-0.00149102	1.37766e-05	
1.14798e-05	-0.00128642	2.28128e-05	
0.0014242	-0.00154157	-0.00062503	
-0.00152559	-0.00151709	0.000674011	
0.00112775	-0.0011784	-0.000458668	
6.13342e-05	-0.00147885	-2.06735e-05	
0.000999431	-0.00145524	-0.000443528	
0.00130305	-0.00132819	-0.000563376	
0.000236598	-0.00149401	-0.000103087	
0.000428274	-0.00147745	-0.000181106	
7.4543e-06	-0.00146817	4.55765e-06	
0.00281523	-0.000758037	-0.00100633	
0.000836551	-0.0010262	-0.000323276	
0.00202025	-0.000876456	-0.000813509	
3.00921e-05	-0.000988281	3.55554e-05	