<VTKFile type="UnstructuredGrid" version="0.1" byte_order="LittleEndian">
	<UnstructuredGrid>
		<Piece NumberOfPoints="2160" NumberOfCells="2160">
			<CellData Scalars="scalars">
				<DataArray type="Float64" Name="Strength" NumberOfComponents="3" Format="ascii">
0.015836	-0.0122387	0.00368658	
-0.00219134	-0.0231754	0.00576261	
-1.78478e-05	-0.0251089	0.00273396	
-0.000459506	-0.0263463	0.00280051	
-0.000966187	-0.0260642	0.000425119	
-0.00015019	-0.0257017	0.00257365	
0.000340479	-0.0264739	-0.000836668	
-0.00103003	-0.0257052	0.00173789	
-0.00117387	-0.0246975	0.00484725	
5.52826e-05	-0.0254677	0.000831998	
0.000654306	-0.0264264	-0.000200186	
0.000452639	-0.025438	0.00133264	
-2.65288e-06	-0.0267696	0.00150326	
0.000205429	-0.0262677	0.00157159	
0.000124675	-0.0260907	0.00114217	
-0.00409174	-0.0207059	0.0083475	
-0.00109887	-0.0250252	0.00498574	
-0.0017708	-0.0236444	0.00593353	
-0.00163619	-0.0246758	0.00592729	
0.000169368	-0.0259218	0.000532195	
-0.00449591	-0.0189031	0.010104	
-0.000247732	-0.0252183	0.000319295	
-0.000721702	-0.0259881	7.62249e-05	
-0.000589904	-0.0117725	0.0107608	
0.000144009	-0.0261131	0.00192303	
-0.00362577	-0.0138718	0.011234	
-6.17824e-05	-0.0248116	0.00313568	
9.22154e-05	-0.0267255	0.000293385	
-0.000289787	-0.0254522	0.0034334	
-0.00648947	-0.0150633	0.0116502	
-0.000245613	-0.026034	0.000157303	
0.00260347	-0.0166964	-0.0109666	
0.000358226	-0.0253199	-0.00317388	
0.000403636	-0.0263152	-0.00289861	
-0.00332277	-0.0132066	-0.01025	
4.26408e-05	-0.02623	-0.000434047	
0.000216434	-0.0257883	-0.00266828	
-0.000661081	-0.0267103	0.000283255	
0.000274856	-0.0261609	-0.000557161	
0.000594701	-0.0265894	-0.000731828	
0.000917753	-0.0245652	-0.00408477	
0.000440858	-0.0255577	-0.00064184	
-0.000276647	-0.0265797	0.000458751	
-0.000405821	-0.0255134	-0.0016536	
-0.000397603	-0.0261603	-0.00133146	
0.000689821	-0.0260701	-0.00140348	
0.00289863	-0.0210496	-0.0079728	
0.00100358	-0.0245213	-0.00457915	
0.00205442	-0.0230215	-0.00586624	
-0.000122765	-0.0260311	-0.00206339	
0.00372195	-0.0224652	-0.00736688	
0.000359208	-0.0260189	-0.000505668	
0.00516614	-0.017497	-0.0116104	
0.000326308	-0.0270996	-0.000277954	
0.00182166	-0.0236176	-0.00579695	
0.000203768	-0.026575	-0.00148739	
-0.0126881	-0.0117572	-0.00413167	
0.000406896	-0.0259228	-0.00297984	
0.00461331	-0.0122457	-0.0127904	
0.00100786	-0.025053	-0.00404523	
0.0183935	-0.00272959	-0.00311648	
0.00106388	-0.00458996	-0.000722864	
0.000188474	-0.00487549	0.000192616	
-0.000170803	-0.00489351	0.000729988	
-0.000175955	-0.00520813	0.000230078	
3.86379e-06	-0.00488359	0.000424023	
0.000550425	-0.00513654	-0.00113716	
-0.000749521	-0.00512572	0.0015027	
-0.00028435	-0.00455811	0.00110203	
-6.52358e-05	-0.0051117	0.000182434	
0.000359465	-0.00507066	-0.00064716	
0.00039284	-0.00510584	-0.000405747	
-5.11934e-05	-0.00504644	0.000286898	
6.30423e-05	-0.00510494	0.000141566	
1.26322e-05	-0.00507319	0.000150556	
0.00054354	-0.00395113	0.000640878	
-3.27226e-06	-0.00451888	0.000641403	
0.000373814	-0.00431905	0.000303297	
-6.53664e-05	-0.00437675	0.0010409	
2.85743e-06	-0.00496342	2.41073e-05	
0.00129909	-0.00393648	0.000385198	
-5.54568e-05	-0.005038	5.72961e-05	
-8.95085e-05	-0.00523612	4.24675e-06	
0.00274331	-0.00222297	0.000809546	
2.89757e-05	-0.00513315	0.000309156	
0.00228572	-0.00289182	0.000778177	
0.000330749	-0.00478799	-4.5928e-05	
4.55471e-06	-0.00510052	2.20798e-06	
-1.53922e-05	-0.0047923	0.000563659	
-0.000293343	-0.00261987	0.00171118	
-2.75467e-05	-0.00526723	0.00011284	
-0.00355367	-0.00415361	0.000276892	
3.93502e-05	-0.00487672	-0.000561911	
0.000203902	-0.00491858	-0.000781297	
-0.00697591	-0.00309291	0.000469518	
0.000192758	-0.00525601	-0.000375222	
1.41423e-05	-0.00489751	-0.000444274	
-0.00027911	-0.00520686	0.000544183	
0.000194966	-0.00517139	-0.0003615	
0.000247328	-0.00518827	-0.000483559	
-0.000284337	-0.00464934	-0.000159093	
-7.75988e-06	-0.00512229	1.91332e-05	
-0.000405141	-0.00519567	0.000812408	
-0.000328456	-0.00506133	0.000247502	
-0.00022892	-0.00510465	0.000144247	
0.000248214	-0.00503082	-0.000530439	
-0.00140163	-0.00452982	0.000461341	
-0.00037109	-0.00459048	-0.000129982	
-0.000267321	-0.00435401	-0.000451946	
-3.47058e-05	-0.00512693	-0.000334384	
0.000237697	-0.00384527	-0.00129283	
4.91515e-05	-0.00505221	-8.66466e-05	
0.000165514	-0.00300223	-0.00182389	
1.07893e-05	-0.00516323	-3.10465e-05	
7.86518e-05	-0.00423948	-0.00106051	
3.06278e-05	-0.0050551	-0.000218924	
-0.0140236	-0.00287903	0.00311234	
-0.000295711	-0.00492087	8.14359e-05	
0.000145116	-0.00204516	-0.00164803	
7.43814e-05	-0.00469367	-0.000716561	
0.0195326	0.00237437	-0.00234919	
0.00183616	-0.00169666	-0.00194172	
0.000258349	-0.00212848	-0.000187207	
-9.23238e-05	-0.00215557	0.000408332	
-4.15219e-05	-0.00235165	0.000159615	
4.83728e-05	-0.00213369	0.000144569	
0.000668432	-0.00233449	-0.0011782	
-0.000794163	-0.00230427	0.00148808	
-8.80293e-05	-0.00194173	0.000540174	
-5.17819e-05	-0.00230319	0.000158784	
0.000333265	-0.00231819	-0.000667028	
0.000459496	-0.00225831	-0.000671921	
-7.15647e-06	-0.00226426	0.000162893	
9.4249e-05	-0.00228043	-3.39366e-05	
3.20231e-05	-0.00229265	8.21975e-05	
0.00137669	-0.00148506	-0.000706371	
0.000261091	-0.00193308	6.30437e-05	
0.000911352	-0.0017735	-0.000608847	
0.000280635	-0.00183685	0.000368245	
1.6882e-06	-0.00226479	2.46723e-05	
0.00226739	-0.00126452	-0.00115339	
-1.32213e-05	-0.00230258	2.29105e-05	
6.96322e-05	-0.00236414	-4.10864e-05	
0.00319165	-0.00047669	6.83795e-05	
5.90704e-05	-0.00227604	0.000108425	
0.00302114	-0.000873054	-0.00014182	
0.000431574	-0.00209761	-0.000521093	
-2.99917e-05	-0.00231343	1.25969e-05	
3.21035e-05	-0.00208241	0.000191936	
0.000298397	-0.00112009	0.000531587	
5.52785e-05	-0.00237244	5.893e-05	
-0.0047672	-0.000651242	0.0015823	
-7.57087e-05	-0.00212314	-0.000184779	
0.000146729	-0.00215726	-0.000465083	
-0.0078322	0.000265915	0.000776785	
0.000259363	-0.00237061	-0.000415906	
-4.10699e-05	-0.00214244	-0.000155488	
-0.000214488	-0.00236273	0.000529433	
0.000197944	-0.00235697	-0.000385296	
0.000222533	-0.00235392	-0.000483724	
-0.00060628	-0.00203812	0.000498719	
-0.000100901	-0.00232185	7.18331e-05	
-0.000470708	-0.00235555	0.000872376	
-0.000367621	-0.00225232	0.000532866	
-0.000260332	-0.00228987	0.000337248	
0.000139817	-0.00228387	-0.000441115	
-0.00228899	-0.00159095	0.00206015	
-0.00069419	-0.00199229	0.00054513	
-0.000780896	-0.00182561	0.000510139	
-4.22854e-05	-0.00227601	-0.00011085	
-0.000350136	-0.00160067	-0.000360624	
-5.32133e-05	-0.00229586	-5.33664e-05	
-0.00048127	-0.00122128	-0.00053555	
-2.39953e-05	-0.00234155	-2.78601e-05	
-0.000220768	-0.00179491	-0.000375679	
-3.756e-05	-0.00227248	-0.000104663	
-0.0151347	0.00148426	0.00195693	
-0.000490246	-0.00216094	0.000511504	
-0.000189077	-0.00089991	-0.000548524	
-0.00011971	-0.00203764	-0.000262767	
0.0202316	0.00532319	-8.92684e-05	
0.00239706	-0.00101217	-0.00234024	
0.000479767	-0.00237137	-0.000297547	
8.07127e-05	-0.00244135	0.000322314	
2.34328e-05	-0.00261295	7.99528e-05	
0.000196539	-0.00240523	0.000115647	
0.000826693	-0.00257379	-0.00116548	
-0.000930661	-0.00256391	0.0014357	
0.000127294	-0.00221282	0.000353168	
-4.2051e-05	-0.00259357	0.000155713	
0.00041472	-0.00260016	-0.000629664	
0.000666195	-0.00249224	-0.00069205	
6.29987e-05	-0.00255742	0.000114231	
0.000190524	-0.00255307	-4.20949e-05	
7.88767e-05	-0.00257946	7.70944e-05	
0.00174255	-0.00116679	-0.00118853	
0.00051443	-0.0021196	-0.000133256	
0.00134139	-0.00166426	-0.000938454	
0.000553516	-0.00203303	0.000150057	
8.45543e-06	-0.00255389	2.38129e-05	
0.00260984	-0.000849186	-0.00146738	
1.30201e-05	-0.00257632	1.82573e-05	
0.000145597	-0.00260839	-8.01324e-05	
0.00346241	-0.000224541	0.000173416	
0.000159845	-0.0025365	0.000108082	
0.00334828	-0.000745198	-0.000163592	
0.000568585	-0.0023109	-0.000623679	
-2.78333e-05	-0.00258122	2.80333e-05	
0.00014813	-0.00233797	0.000110595	
0.00046311	-0.00124139	0.000542343	
0.000108318	-0.00261337	4.15121e-05	
-0.00525215	-0.000134648	0.00175247	
-0.000255869	-0.00237959	-3.77017e-05	
-9.72654e-06	-0.00243991	-0.000379299	
-0.00835619	0.00126876	0.000529248	
0.00034886	-0.00261274	-0.000408221	
-0.000205094	-0.00240615	-0.000126531	
-0.00025037	-0.00262294	0.00048578	
0.000236626	-0.00261211	-0.000365004	
0.000249988	-0.00261116	-0.000445488	
-0.000889617	-0.00217016	0.000784961	
-0.000190759	-0.00259892	0.00010143	
-0.000630611	-0.00259371	0.000861937	
-0.000560227	-0.00249909	0.000554413	
-0.00040616	-0.0025525	0.00033696	
7.27237e-05	-0.00257919	-0.000376678	
-0.0028182	-0.000905638	0.00244855	
-0.000999692	-0.00204857	0.000820961	
-0.00121096	-0.00177522	0.000912227	
-0.000156048	-0.00253594	-0.000118784	
-0.00063354	-0.00178929	-4.27741e-05	
-0.000115941	-0.00256954	-1.89251e-05	
-0.000720618	-0.00137393	-0.000410152	
-6.06372e-05	-0.00259857	-5.25083e-06	
-0.000465175	-0.00201637	-0.000157861	
-0.000117761	-0.00255817	-9.34702e-05	
-0.015582	0.0040435	0.000513676	
-0.00068436	-0.00233377	0.00065535	
-0.000316281	-0.000997341	-0.000624674	
-0.00028447	-0.00226252	-0.000173819	
0.0210299	0.0058781	0.000781048	
0.00271637	-0.000838251	-0.00216687	
0.000556674	-0.00205978	-0.000461222	
8.08812e-05	-0.00216354	0.000155079	
1.23431e-05	-0.0023428	2.23767e-05	
0.000188106	-0.00212189	2.24809e-05	
0.000839089	-0.0022914	-0.00120605	
-0.000952829	-0.00230446	0.00142172	
0.000197826	-0.00194762	4.92619e-05	
-4.19286e-05	-0.00230262	0.000114858	
0.000475686	-0.00231647	-0.000652726	
0.000719306	-0.0021698	-0.000794333	
8.38431e-05	-0.00226489	2.08758e-05	
0.000208329	-0.00225428	-0.00012681	
6.66143e-05	-0.00228477	2.58375e-05	
0.00177732	-0.00103902	-0.00114615	
0.000538153	-0.00182565	-0.000258626	
0.00137459	-0.00140392	-0.000933565	
0.000412	-0.0017845	4.35867e-05	
2.04703e-05	-0.00227601	-5.63933e-06	
0.00270063	-0.000804991	-0.00145093	
1.82183e-05	-0.00230831	2.29657e-06	
0.00012626	-0.00233765	-0.000105004	
0.00362389	-1.80314e-05	0.00023068	
0.000146542	-0.00224368	1.73765e-05	
0.00354709	-0.000551188	-0.000202991	
0.000811629	-0.00191731	-0.00081599	
-2.71886e-06	-0.00231235	1.93037e-05	
0.000207043	-0.00204974	2.99803e-06	
0.000374203	-0.00101021	0.000569193	
6.92963e-05	-0.00234503	3.3261e-05	
-0.00562226	-0.00019425	0.00171487	
-0.000345975	-0.00207855	0.000119646	
-3.00128e-05	-0.00216243	-0.00021854	
-0.00879839	0.00170014	0.00026215	
0.000338646	-0.00234201	-0.000405311	
-0.000193109	-0.00212029	-2.91728e-05	
-0.000288145	-0.00235052	0.000480402	
0.000239722	-0.00233824	-0.000345625	
0.000270268	-0.00233838	-0.000415929	
-0.00112881	-0.00172539	0.00105269	
-0.000186432	-0.00230302	0.000160465	
-0.00066005	-0.00230755	0.000891283	
-0.000622434	-0.00217637	0.000659011	
-0.000440541	-0.00224173	0.000437137	
9.47067e-05	-0.00228975	-0.000289234	
-0.00318609	-0.000839329	0.00227883	
-0.00108992	-0.00169153	0.000970801	
-0.00131525	-0.00147156	0.00103208	
-0.000143312	-0.00224307	-2.588e-05	
-0.000418412	-0.00158713	-4.17712e-05	
-9.32507e-05	-0.00229061	1.97057e-05	
-0.000527185	-0.00118708	-0.000457567	
-5.27501e-05	-0.00232649	9.91616e-06	
-0.00036705	-0.00176663	-3.37227e-05	
-0.000109921	-0.00226723	-2.13812e-05	
-0.0160609	0.00474924	-0.00048009	
-0.00086418	-0.00195601	0.000786685	
-0.000260257	-0.000802109	-0.000602899	
-0.000333102	-0.00197294	2.74688e-05	
0.021753	0.00583396	0.00233731	
0.00332556	-0.000817607	-0.00129301	
0.000661942	-0.00176242	-0.000405924	
0.000100569	-0.0018716	7.33477e-05	
-8.04927e-06	-0.00207916	2.2821e-05	
0.000141267	-0.00182598	4.53964e-05	
0.00102897	-0.00204668	-0.00104434	
-0.00120818	-0.00205287	0.00121678	
0.000255215	-0.00164143	-8.68724e-07	
-5.54776e-05	-0.00205088	9.2227e-05	
0.00062059	-0.00205315	-0.000567478	
0.000903244	-0.00188744	-0.000713923	
9.38969e-05	-0.00202498	2.54956e-06	
0.000241204	-0.00201495	-0.000123879	
6.10016e-05	-0.00203723	1.88048e-05	
0.00205314	-0.000920348	-0.000584593	
0.000586029	-0.00153252	-0.000149263	
0.00156929	-0.0012137	-0.000442074	
0.000271238	-0.00150182	0.000193488	
3.3173e-05	-0.00202607	-6.33825e-06	
0.00304469	-0.000684038	-0.000837594	
8.43791e-06	-0.00205954	6.83079e-07	
0.000109328	-0.00207343	-7.58239e-05	
0.00374204	0.000120412	0.000463046	
0.00012751	-0.00199976	1.94023e-05	
0.0037155	-0.000444958	9.4247e-05	
0.00097366	-0.00162932	-0.000654493	
9.72619e-07	-0.00205374	7.9597e-06	
0.000145884	-0.00174638	3.45838e-05	
0.000226644	-0.000776651	0.000616919	
2.5848e-05	-0.00207946	4.66116e-05	
-0.00609994	-7.78944e-05	0.00099347	
-0.000364951	-0.00177426	9.84568e-05	
-4.19959e-05	-0.00186879	-0.000122632	
-0.00921468	0.00177955	-0.000255141	
0.000392901	-0.00208193	-0.000325098	
-0.000135224	-0.0018211	-6.94731e-05	
-0.000394241	-0.00208752	0.000415487	
0.000292453	-0.00208121	-0.000277618	
0.000351307	-0.00207438	-0.000345711	
-0.00133487	-0.00148548	0.000851124	
-0.000210936	-0.0020436	0.000134212	
-0.000823051	-0.00204776	0.000747537	
-0.000793996	-0.00188315	0.00061044	
-0.000540979	-0.00199235	0.00039161	
0.000157918	-0.00203461	-0.000244622	
-0.003843	-0.000792864	0.00138946	
-0.00128464	-0.00140227	0.000767474	
-0.00162367	-0.00125635	0.000596062	
-0.000140498	-0.00199108	-1.05829e-05	
-0.000277524	-0.00132161	-0.000247175	
-6.92439e-05	-0.00203313	-1.79623e-06	
-0.000326717	-0.000927929	-0.000591586	
-3.29265e-05	-0.00206062	2.14331e-07	
-0.000260186	-0.00148884	-0.000133001	
-8.80952e-05	-0.00202099	-2.06415e-05	
-0.0166048	0.00468344	-0.00139696	
-0.000969189	-0.00167408	0.000628732	
-0.000142552	-0.000637515	-0.000572142	
-0.0002191	-0.00168001	-6.60694e-05	
0.0224022	0.00549264	0.00362999	
0.00350869	-0.000667804	-0.00126217	
0.000804905	-0.00154833	-0.000319712	
0.000152809	-0.00165537	4.80539e-05	
-2.67722e-05	-0.00188221	3.17615e-05	
0.000115455	-0.00161592	8.02732e-05	
0.00124621	-0.00187068	-0.000780373	
-0.00143621	-0.00187198	0.000932088	
0.000338755	-0.00144036	1.42809e-05	
-6.674e-05	-0.00183935	6.97264e-05	
0.00074549	-0.00185476	-0.000449864	
0.00107175	-0.00167989	-0.000545116	
0.000105762	-0.00181683	9.63848e-06	
0.000272128	-0.00180122	-7.92535e-05	
5.05391e-05	-0.00182517	3.38833e-05	
0.00214606	-0.000778095	-0.00056842	
0.000627401	-0.00134085	-9.24304e-05	
0.00162984	-0.00104439	-0.000442505	
0.000234516	-0.00131493	0.000211445	
2.37813e-05	-0.00182866	5.67499e-07	
0.00317477	-0.00054032	-0.000820491	
5.73297e-06	-0.0018741	1.25863e-05	
0.000112213	-0.00187443	-4.09938e-05	
0.00385951	0.000107115	0.000614021	
9.86803e-05	-0.00178116	5.81415e-05	
0.00387201	-0.000367458	0.000159039	
0.00110872	-0.00143789	-0.000503262	
6.83837e-06	-0.00186047	7.50187e-06	
0.000123724	-0.00154151	7.87264e-05	
0.000195619	-0.0006701	0.000563929	
1.76152e-06	-0.00187807	6.55777e-05	
-0.0063855	0.000101954	0.000976924	
-0.0004437	-0.00156728	7.0365e-05	
-8.98194e-05	-0.00165767	-8.60754e-05	
-0.00960184	0.00161802	-0.000800437	
0.00045643	-0.00188521	-0.000234716	
-0.000123471	-0.00161521	-9.23137e-05	
-0.000484202	-0.0018944	0.000330377	
0.000335043	-0.00188962	-0.000212144	
0.000395682	-0.00188541	-0.000268851	
-0.00155858	-0.00131618	0.000660047	
-0.000249127	-0.00183623	9.4487e-05	
-0.000964978	-0.00185659	0.000570684	
-0.000949629	-0.00167639	0.000465634	
-0.000632133	-0.00178656	0.000296154	
0.000207403	-0.00182478	-0.00021462	
-0.00404234	-0.000643679	0.00143022	
-0.00143336	-0.00124702	0.000534526	
-0.0017496	-0.00107989	0.00062008	
-0.000109471	-0.00177931	-5.627e-05	
-0.000240001	-0.00115334	-0.000255952	
-4.66382e-05	-0.00183571	-3.0977e-05	
-0.000288714	-0.00079753	-0.000555495	
-2.57316e-05	-0.00186505	-1.72377e-05	
-0.000220451	-0.00130603	-0.000182968	
-6.65166e-05	-0.00181829	-5.05724e-05	
-0.017061	0.00440959	-0.00250091	
-0.00109128	-0.00148656	0.00044628	
-9.09066e-05	-0.000540634	-0.000537264	
-0.000177249	-0.00148999	-0.000124378	
0.0231367	0.00523469	0.00398445	
0.00391094	-0.000784577	-0.00134308	
0.00088281	-0.00169256	-0.000324477	
0.000259591	-0.00180135	1.28367e-05	
-1.07957e-05	-0.00194566	2.39207e-05	
0.000133734	-0.00175373	0.000102039	
0.00124683	-0.00193094	-0.000773334	
-0.00147697	-0.00196547	0.000963298	
0.000415763	-0.00165452	3.39162e-05	
-6.72435e-05	-0.00195765	7.67071e-05	
0.000787537	-0.00196376	-0.000468904	
0.00112588	-0.00181452	-0.000548682	
0.000168791	-0.00192745	-1.54043e-05	
0.000290187	-0.00189204	-7.60952e-05	
5.76081e-05	-0.00194725	4.28014e-05	
0.00235489	-0.000848436	-0.000566881	
0.000700011	-0.00159131	-4.81142e-05	
0.00177314	-0.00130393	-0.000397139	
0.000297049	-0.00157895	0.000282776	
2.88572e-05	-0.00193002	4.12015e-06	
0.00336504	-0.000526605	-0.000837088	
6.77933e-06	-0.00194198	1.50022e-05	
0.000107433	-0.00194358	-3.55174e-05	
0.00401347	8.08431e-05	0.000679569	
0.000111739	-0.00188998	7.27318e-05	
0.00405904	-0.000321921	0.000207577	
0.00116787	-0.00162296	-0.000488744	
1.00474e-05	-0.00197884	1.22095e-05	
0.000149115	-0.00170547	0.000108971	
0.000211483	-0.00068843	0.000597736	
-8.56092e-06	-0.00193945	7.8999e-05	
-0.00672479	0.000202003	0.00100329	
-0.000513218	-0.00172687	6.15538e-05	
-0.000194891	-0.00182238	-5.67324e-05	
-0.00998896	0.00157371	-0.00100451	
0.000458142	-0.00193961	-0.000231135	
-0.000145217	-0.00176752	-0.000121072	
-0.000479877	-0.00194064	0.000328056	
0.000364388	-0.00194197	-0.0002346	
0.000402144	-0.00197601	-0.000278121	
-0.00166029	-0.00155898	0.000643725	
-0.000260964	-0.00196677	8.96685e-05	
-0.000996647	-0.00197732	0.00057917	
-0.00100149	-0.00182492	0.000462122	
-0.000691855	-0.00188649	0.000315069	
0.000184208	-0.00195555	-0.00021452	
-0.00437447	-0.000700814	0.00148936	
-0.0015563	-0.00151217	0.000504582	
-0.00206888	-0.00122953	0.000706849	
-0.000125631	-0.00189499	-7.41919e-05	
-0.000280974	-0.00128523	-0.000318121	
-5.09212e-05	-0.00194503	-3.89504e-05	
-0.000314432	-0.000824551	-0.000598944	
-2.84122e-05	-0.00198177	-2.43421e-05	
-0.000281623	-0.00157822	-0.000251438	
-7.55142e-05	-0.00194089	-6.49803e-05	
-0.017581	0.0041414	-0.00283543	
-0.0011461	-0.00167036	0.000424149	
-8.97532e-05	-0.000546818	-0.000550364	
-0.000213946	-0.00169084	-0.000171509	
0.0236879	0.00535701	0.00452628	
0.00414364	-0.000599072	-0.00144959	
0.00104951	-0.00179367	-0.000380303	
0.000338757	-0.00193085	-1.62576e-06	
4.39686e-05	-0.00219954	-2.294e-06	
0.000158162	-0.00189876	0.00012991	
0.00125099	-0.0021938	-0.000758819	
-0.00140047	-0.00218513	0.000908487	
0.00062578	-0.00162534	-6.51976e-05	
-2.69003e-05	-0.00211368	5.73081e-05	
0.000792751	-0.00211345	-0.000464493	
0.00116238	-0.0019279	-0.000542639	
0.000222347	-0.00205997	-3.46774e-05	
0.000358422	-0.00204021	-0.000100587	
6.67331e-05	-0.00208442	4.90336e-05	
0.00250203	-0.000714094	-0.000632696	
0.000758671	-0.0014603	-8.4897e-05	
0.00183828	-0.00110543	-0.000460855	
0.000281266	-0.0014174	0.000271869	
3.51828e-05	-0.002105	6.34347e-06	
0.0035048	-0.000372658	-0.000926204	
9.60198e-06	-0.0021995	2.19526e-05	
0.000119708	-0.00223597	-3.35245e-05	
0.00414707	0.000209874	0.00069117	
0.000124729	-0.00199238	8.43714e-05	
0.00423703	-0.000163436	0.000202274	
0.00123847	-0.00165003	-0.000489442	
1.18693e-05	-0.00212144	1.49183e-05	
0.00016856	-0.00176043	0.000133694	
0.00020403	-0.000632249	0.000557967	
-4.59423e-05	-0.00224097	0.000121303	
-0.00703504	0.000413841	0.00104952	
-0.000686331	-0.00181391	0.000124241	
-0.000321111	-0.00196346	-1.64697e-05	
-0.0103144	0.00173922	-0.00117528	
0.000457431	-0.0022072	-0.000219199	
-0.00017287	-0.00191918	-0.00015111	
-0.000451167	-0.00220307	0.000311422	
0.000352591	-0.00222304	-0.000226458	
0.000342984	-0.0022159	-0.000243488	
-0.00189681	-0.00149438	0.000746091	
-0.0003094	-0.00213744	0.000105017	
-0.00100627	-0.00214512	0.000572459	
-0.00101871	-0.00199569	0.000431772	
-0.000769379	-0.00205757	0.000341425	
0.00014793	-0.00211545	-0.00020846	
-0.00464556	-0.000526526	0.00162958	
-0.00165203	-0.00135792	0.000556862	
-0.002244	-0.00109302	0.000798876	
-0.000142791	-0.00203235	-8.90641e-05	
-0.000279206	-0.00119985	-0.000313345	
-6.07726e-05	-0.0021373	-4.78926e-05	
-0.000304435	-0.000763201	-0.000565229	
-3.44081e-05	-0.00215588	-2.90117e-05	
-0.000265322	-0.00140051	-0.000239728	
-8.87883e-05	-0.0020943	-7.80922e-05	
-0.0179471	0.00417169	-0.00336123	
-0.00120734	-0.00171195	0.000421217	
-8.35713e-05	-0.000500858	-0.000504784	
-0.000235492	-0.00171706	-0.000200496	
0.0241042	0.00578008	0.00481899	
0.0042634	-0.000229061	-0.00159625	
0.00105718	-0.00138034	-0.000420237	
0.000368215	-0.00142198	-6.35975e-05	
5.40029e-05	-0.00160076	-1.16236e-05	
0.000127802	-0.00142742	0.000107109	
0.00128719	-0.00155148	-0.000792349	
-0.00143237	-0.0015167	0.000928618	
0.000671412	-0.00119765	-0.000156007	
-1.39592e-05	-0.00148696	4.17639e-05	
0.000842424	-0.00154973	-0.000506952	
0.00113049	-0.00145683	-0.000555289	
0.000217007	-0.00145305	-5.8972e-05	
0.000299058	-0.00145064	-9.36567e-05	
4.98784e-05	-0.00146522	3.95759e-05	
0.00256473	-0.000434461	-0.000764383	
0.000760441	-0.00114031	-0.000147616	
0.00188593	-0.000771474	-0.0005811	
0.000235826	-0.00112821	0.000218657	
2.65733e-05	-0.00148036	5.04096e-06	
0.0035613	-0.000130495	-0.00105524	
8.01195e-06	-0.00152056	1.55182e-05	
0.000129313	-0.00156328	-5.01431e-05	
0.00425017	0.000383937	0.000676221	
9.80415e-05	-0.0014957	6.80858e-05	
0.00436277	5.66592e-05	0.000151297	
0.00133172	-0.00120559	-0.000585666	
8.91505e-06	-0.00154852	1.07709e-05	
0.000145869	-0.00140192	0.000115001	
0.000165846	-0.000506502	0.000448161	
-1.28302e-05	-0.00157956	7.22743e-05	
-0.00726792	0.000684751	0.00112896	
-0.000745615	-0.00150434	0.000186406	
-0.000371681	-0.00158935	4.24811e-05	
-0.0105661	0.0020642	-0.00131906	
0.000453617	-0.00163127	-0.000237021	
-0.000149358	-0.00154629	-0.000129885	
-0.00048125	-0.00163667	0.000326388	
0.000347167	-0.00160412	-0.000225298	
0.00038569	-0.00160558	-0.000267853	
-0.00194016	-0.00113752	0.000824673	
-0.000309907	-0.00162037	0.000121643	
-0.00102026	-0.00166156	0.000595763	
-0.00102532	-0.00158765	0.000463208	
-0.000703469	-0.00160637	0.00032389	
0.000161958	-0.00161515	-0.000196656	
-0.00487374	-0.000257054	0.00181776	
-0.00165437	-0.0011243	0.000602157	
-0.00242897	-0.000994286	0.000901165	
-0.000121805	-0.00166917	-7.80378e-05	
-0.000259583	-0.00105074	-0.000278861	
-5.02182e-05	-0.00161057	-3.72968e-05	
-0.000271231	-0.00065061	-0.000485166	
-2.81153e-05	-0.00164551	-2.21469e-05	
-0.000249404	-0.00125403	-0.000216311	
-7.38035e-05	-0.00161945	-6.32287e-05	
-0.0182487	0.00440025	-0.00368265	
-0.00129308	-0.00140166	0.000506706	
-7.71988e-05	-0.00043654	-0.000443419	
-0.000199881	-0.00135565	-0.000164073	
0.0245795	0.00609634	0.00523697	
0.00440436	-0.000308496	-0.00157278	
0.00125412	-0.00133671	-0.000522773	
0.00041845	-0.00153473	-6.65425e-05	
6.6374e-05	-0.00135464	-1.97804e-05	
0.000144294	-0.00150319	0.000124759	
0.00127785	-0.00134588	-0.000776329	
-0.00150172	-0.00140131	0.000956921	
0.000793846	-0.00119966	-0.000212667	
-3.52111e-05	-0.00151147	6.29589e-05	
0.000791118	-0.00148008	-0.000465649	
0.00114786	-0.00150022	-0.000548645	
0.000193392	-0.0015273	-3.20113e-05	
0.000311284	-0.00154811	-8.67034e-05	
5.57105e-05	-0.00151675	4.58523e-05	
0.0027271	-0.000483554	-0.000754158	
0.000805204	-0.00111643	-0.000169904	
0.00196208	-0.000768358	-0.000602268	
0.000241318	-0.00111216	0.00021722	
2.9716e-05	-0.00148327	8.42451e-06	
0.00373999	-0.000143667	-0.00102495	
8.20282e-06	-0.00138102	1.47048e-05	
0.00013563	-0.00135839	-5.94965e-05	
0.0043737	0.000450763	0.000788936	
0.00010621	-0.00155308	7.5242e-05	
0.00453332	0.00012669	0.000229693	
0.00138109	-0.00120251	-0.000597095	
7.06958e-06	-0.00143574	1.07046e-05	
0.000147553	-0.00132295	0.000115551	
0.000200118	-0.000588009	0.000521431	
-2.06244e-05	-0.00136536	5.96604e-05	
-0.00749644	0.000930966	0.00115114	
-0.000848843	-0.00115205	0.000293165	
-0.000417737	-0.00124648	9.88098e-05	
-0.010814	0.00235482	-0.00147891	
0.000459402	-0.00136562	-0.000250414	
-0.000130378	-0.00125559	-0.000114036	
-0.000475561	-0.00137556	0.000313024	
0.000376667	-0.00138371	-0.000243457	
0.000421626	-0.00141599	-0.000288141	
-0.00202442	-0.000852163	0.000910217	
-0.000363671	-0.00151829	0.000152186	
-0.000933225	-0.00149058	0.000537311	
-0.0010592	-0.00128555	0.000505129	
-0.000771892	-0.00141752	0.000374135	
0.000130239	-0.00149243	-0.000174236	
-0.00498731	-8.39511e-05	0.00190691	
-0.00167344	-0.000816987	0.000676621	
-0.00239305	-0.000593089	0.000993393	
-0.000103442	-0.00138918	-6.57474e-05	
-0.000226861	-0.000879108	-0.000233387	
-5.25107e-05	-0.00152911	-3.5966e-05	
-0.000267352	-0.000618282	-0.000460421	
-2.60102e-05	-0.00144863	-2.03493e-05	
-0.0001917	-0.000934244	-0.000162603	
-7.06679e-05	-0.00146256	-6.01076e-05	
-0.0185063	0.00466957	-0.00398731	
-0.00129621	-0.00104897	0.000556015	
-7.93924e-05	-0.000422162	-0.000425104	
-0.000171241	-0.00109287	-0.000134877	
0.0249525	0.00651668	0.00552926	
0.00454369	-5.45154e-05	-0.00167974	
0.00135279	-0.00129502	-0.000563176	
0.000473868	-0.00138368	-0.00010383	
0.000165839	-0.00185722	-7.00058e-05	
0.000138122	-0.00137437	0.00012052	
0.00130934	-0.00178703	-0.000760486	
-0.00147181	-0.00173492	0.000917814	
0.000933334	-0.00108322	-0.0003014	
0.000121825	-0.00161698	-2.42519e-05	
0.00083042	-0.00172802	-0.000471833	
0.00116324	-0.00140116	-0.000542936	
0.000243593	-0.00152762	-5.08004e-05	
0.000372836	-0.00151495	-0.000117016	
6.10673e-05	-0.00156309	5.1109e-05	
0.00279563	-0.0002783	-0.000857909	
0.000806474	-0.00101436	-0.000184763	
0.00200839	-0.000681352	-0.000632903	
0.000231742	-0.00104057	0.000206795	
3.51838e-05	-0.00169972	2.0179e-05	
0.0037811	5.73117e-05	-0.00113237	
1.21594e-05	-0.00178311	1.97653e-05	
0.000143446	-0.00187222	-5.40798e-05	
0.00445828	0.000634978	0.000778058	
0.000102686	-0.00146414	8.14133e-05	
0.00464564	0.000352888	0.000186615	
0.00145379	-0.00112551	-0.000625779	
8.93516e-06	-0.00174433	1.48788e-05	
0.000150394	-0.00128722	0.000118047	
0.00017094	-0.000484632	0.000420425	
-5.44622e-05	-0.00186911	9.86542e-05	
-0.0077112	0.00118378	0.00116906	
-0.00100851	-0.0013994	0.000325684	
-0.000406982	-0.00146764	5.29792e-05	
-0.0110281	0.00262503	-0.00163807	
0.00040063	-0.0018316	-0.000196877	
-0.000159539	-0.00147437	-0.000140873	
-0.000492565	-0.00176876	0.000313052	
0.000298359	-0.00174573	-0.000191256	
0.000407538	-0.00166904	-0.000278478	
-0.00221157	-0.000993618	0.000946415	
-0.000505571	-0.00146303	0.000230986	
-0.00103116	-0.00160766	0.000578272	
-0.00105031	-0.00140242	0.000468781	
-0.000783626	-0.00142195	0.000366954	
0.000123213	-0.00143557	-0.000169827	
-0.00532949	8.82323e-06	0.00203461	
-0.00173889	-0.00096551	0.000649268	
-0.00249651	-0.000766433	0.000971154	
-0.000107631	-0.00142813	-7.59598e-05	
-0.000278577	-0.00104978	-0.000281064	
-5.8859e-05	-0.00155518	-4.15634e-05	
-0.000269422	-0.000604045	-0.000444904	
-3.16293e-05	-0.00165365	-2.61228e-05	
-0.000236061	-0.00112716	-0.000198561	
-7.22242e-05	-0.0014322	-6.14202e-05	
-0.0187844	0.00492385	-0.00425763	
-0.0014058	-0.00126415	0.000554745	
-8.30625e-05	-0.000410977	-0.000408423	
-0.000208539	-0.0012829	-0.000161372	
0.0252121	0.00699893	0.0057009	
0.00444414	0.000330384	-0.00173317	
0.00132844	-0.000765425	-0.000606362	
0.000606638	-0.000881617	-0.000230045	
7.43891e-05	-0.00118808	-2.38783e-05	
8.78319e-05	-0.000859934	7.90361e-05	
0.00135085	-0.00123403	-0.000774754	
-0.00149966	-0.00127419	0.000906051	
0.000915277	-0.000722634	-0.000346636	
0.0001175	-0.00116294	-2.94949e-05	
0.00090323	-0.00118122	-0.00051356	
0.00124682	-0.00098048	-0.000607684	
0.000269028	-0.00113957	-8.63282e-05	
0.000341912	-0.00111007	-0.000121636	
4.7043e-05	-0.00115299	4.02994e-05	
0.00283586	-4.59653e-05	-0.000964286	
0.000841545	-0.000693053	-0.000271676	
0.00200097	-0.000270122	-0.000744474	
0.000148172	-0.000664588	0.000133777	
2.59345e-05	-0.00115136	1.62328e-05	
0.00379863	0.000265306	-0.00125082	
9.21053e-06	-0.0012174	1.48023e-05	
0.000138518	-0.00116229	-6.08883e-05	
0.00450539	0.000853618	0.00076602	
8.03458e-05	-0.00113244	6.67267e-05	
0.00471436	0.000581737	0.000124033	
0.00149209	-0.00067469	-0.000688228	
7.31276e-06	-0.0012254	1.51344e-05	
0.000101204	-0.00085028	8.01509e-05	
0.000130851	-0.000357172	0.000303052	
-4.42249e-05	-0.00116991	6.95536e-05	
-0.00779076	0.0015473	0.00129125	
-0.000954274	-0.000801992	0.000386568	
-0.000517364	-0.000896253	0.000180914	
-0.0111519	0.00299059	-0.00169051	
0.000472963	-0.00119905	-0.000250513	
-9.61172e-05	-0.000872185	-8.52153e-05	
-0.000531981	-0.00127894	0.000328301	
0.000347049	-0.00124302	-0.000215637	
0.000356306	-0.00129453	-0.00023663	
-0.00221711	-0.000544686	0.00101061	
-0.00052318	-0.00114664	0.000245308	
-0.00111514	-0.00117114	0.00062244	
-0.0011217	-0.00098064	0.000536966	
-0.000771107	-0.00108811	0.000369609	
0.000117894	-0.00114417	-0.000148375	
-0.00528342	0.000378131	0.00218706	
-0.00177664	-0.000548351	0.000746949	
-0.00250477	-0.000256867	0.00110628	
-8.50811e-05	-0.00113073	-6.45636e-05	
-0.00014761	-0.000547957	-0.000148116	
-4.65615e-05	-0.0011504	-3.28501e-05	
-0.000187143	-0.000411609	-0.000295948	
-2.58293e-05	-0.00123538	-2.09576e-05	
-0.000138706	-0.000657114	-0.00011785	
-5.83392e-05	-0.00112782	-5.09895e-05	
-0.0190064	0.00517293	-0.0043655	
-0.00142308	-0.00076442	0.000631076	
-6.49097e-05	-0.000296596	-0.000282348	
-0.000132144	-0.000796712	-0.000104122	
0.0256328	0.00742434	0.00595862	
0.00464201	0.000102352	-0.00165459	
0.00144347	-0.00116953	-0.000578019	
0.000695191	-0.00126122	-0.000218003	
-4.88823e-06	-0.00148764	2.62701e-05	
0.000130987	-0.00127052	0.000119938	
0.00135623	-0.00152523	-0.000735711	
-0.00142004	-0.00150756	0.000830058	
0.00121651	-0.00108358	-0.000417965	
9.48118e-05	-0.00147373	-2.90096e-06	
0.000953411	-0.0014467	-0.000513396	
0.00132527	-0.00126771	-0.000593253	
0.000285013	-0.00148315	-6.92284e-05	
0.000475021	-0.00145961	-0.000164473	
6.09134e-05	-0.00146264	5.14473e-05	
0.0029323	-0.000191414	-0.000881842	
0.000944311	-0.000938515	-0.00025073	
0.00215793	-0.000533581	-0.000692724	
0.000210486	-0.000943857	0.000192362	
3.40618e-05	-0.00142081	2.23883e-05	