<VTKFile type="UnstructuredGrid" version="0.1" byte_order="LittleEndian">
	<UnstructuredGrid>
		<Piece NumberOfPoints="1380" NumberOfCells="1380">
			<CellData Scalars="scalars">
				<DataArray type="Float64" Name="Strength" NumberOfComponents="3" Format="ascii">
0.0170019	-0.0110466	0.0016294	
0.00138176	-0.0235314	0.00438913	
0.000650282	-0.0252055	0.00140444	
-9.41195e-05	-0.0264483	0.00153924	
-0.000618493	-0.0260674	0.000501297	
0.000374242	-0.0257888	0.00133257	
0.000926481	-0.0264629	-0.00047608	
-0.00130305	-0.0257199	0.00114741	
-0.000119327	-0.0250179	0.00295388	
0.000198011	-0.0254708	0.000354188	
0.000817251	-0.0264115	-0.000367896	
0.00101832	-0.0254464	0.000464069	
0.000158026	-0.026793	0.000750553	
0.000441091	-0.0262923	0.000752742	
0.000267111	-0.0261012	0.000569494	
-1.15214e-05	-0.0217725	0.00640543	
0.000445693	-0.025332	0.00320454	
0.000636714	-0.0240477	0.00431067	
0.000210532	-0.02509	0.0041323	
0.000246353	-0.0259187	0.000142886	
0.000599679	-0.0205069	0.00766224	
-6.04679e-05	-0.025214	0.000221578	
-0.000315346	-0.0259895	0.000281297	
0.00252977	-0.0137836	0.00764484	
0.000413525	-0.0261567	0.000960864	
0.00123109	-0.0160549	0.00851833	
0.000983748	-0.0249364	0.00157869	
0.000157624	-0.0267202	-8.16752e-06	
0.000441321	-0.0256094	0.0018558	
-0.00123386	-0.0178867	0.00912877	
-6.0381e-05	-0.0260263	0.000424126	
-0.00254955	-0.018354	-0.00790417	
-0.000301416	-0.0254416	-0.00192741	
2.4606e-05	-0.0264258	-0.00155934	
-0.00640251	-0.014275	-0.00676686	
0.000312588	-0.0262255	-8.13929e-05	
-0.000355078	-0.0258788	-0.00144715	
-0.000639172	-0.0267037	0.000343731	
0.000324013	-0.0261579	-0.000314938	
0.00056413	-0.0265889	-0.000485663	
-0.000635849	-0.0247731	-0.00258386	
-3.6062e-06	-0.0255578	-0.000480911	
-0.000745377	-0.0265648	0.000253446	
-0.000951073	-0.0255384	-0.000635931	
-0.00084958	-0.0261683	-0.00056717	
0.000338053	-0.0260914	-0.000930083	
-0.00138501	-0.0219152	-0.00572109	
-0.00087481	-0.0247677	-0.0029879	
-0.000422256	-0.0234877	-0.0040811	
-0.000513625	-0.0260811	-0.00102471	
0.000394645	-0.02331	-0.00539342	
3.28401e-05	-0.0260149	-0.000458473	
0.000756183	-0.0197657	-0.00874228	
7.65147e-05	-0.0270956	-0.000234675	
-0.000116124	-0.0240631	-0.00394757	
-0.00017797	-0.0265961	-0.000835476	
-0.0136066	-0.0112208	-0.0022384	
-0.000790415	-0.0260204	-0.00177006	
0.000412523	-0.0155191	-0.00969384	
-0.000195704	-0.0252616	-0.00258674	
0.018512	0.000271642	-0.00347819	
0.00213378	-0.00418673	-0.000788247	
0.000367317	-0.00486826	2.55151e-05	
-0.00019228	-0.00492301	0.000476175	
-0.000151741	-0.00520904	0.000201076	
9.6669e-05	-0.00489524	0.00022118	
0.000948684	-0.00512434	-0.000900665	
-0.00115688	-0.00512861	0.0012014	
-0.00020094	-0.00463305	0.0007491	
-6.59534e-05	-0.00511224	0.000118012	
0.000537896	-0.00506715	-0.000528054	
0.000669665	-0.00507389	-0.000428944	
-4.79661e-05	-0.00504986	0.000182804	
0.000136764	-0.00510365	4.14706e-05	
3.21531e-05	-0.00507304	9.28682e-05	
0.00130989	-0.00381247	0.000236815	
0.00030996	-0.00453624	0.000391256	
0.000993096	-0.00422885	9.46305e-05	
0.00022194	-0.00443885	0.000698777	
2.08346e-05	-0.00496207	2.98993e-08	
0.00215886	-0.00355706	-7.20768e-05	
-1.35197e-05	-0.00503729	3.86157e-05	
3.57976e-05	-0.0052358	1.07356e-05	
0.00309063	-0.00187034	0.000245705	
8.03365e-05	-0.00513812	0.000162272	
0.00283306	-0.0024729	0.000198375	
0.000660463	-0.00474969	-0.000183886	
8.23134e-07	-0.0050991	-7.28372e-07	
0.000102517	-0.00481375	0.000308792	
0.000300011	-0.00286307	0.00126079	
2.19861e-05	-0.00526657	9.76714e-05	
-0.00434182	-0.00320808	0.000882514	
-7.55284e-05	-0.00489505	-0.000354319	
0.000247389	-0.00495029	-0.000518627	
-0.00733066	-0.00175595	0.00124325	
0.000356888	-0.00525091	-0.000304608	
-7.43044e-05	-0.00490964	-0.00025461	
-0.000396664	-0.00520892	0.000429463	
0.000305012	-0.00516779	-0.000317595	
0.000379052	-0.00518539	-0.000411607	
-0.000712228	-0.00460511	1.15432e-05	
-0.000111576	-0.00511978	1.18428e-05	
-0.000702124	-0.0051849	0.000653864	
-0.000551947	-0.00503769	0.000302053	
-0.000407093	-0.00509053	0.000186101	
0.000273421	-0.00503893	-0.000415966	
-0.00247283	-0.00400826	0.000704726	
-0.000871719	-0.00452295	5.36313e-05	
-0.000840624	-0.0042994	-0.000183994	
-8.42124e-05	-0.00513284	-0.000178683	
-0.000255239	-0.00396096	-0.000868508	
-3.07351e-05	-0.00505135	-6.7208e-05	
-0.000371672	-0.00325512	-0.00127783	
-1.44e-05	-0.00516183	-4.32118e-05	
-0.000209926	-0.00431227	-0.000679494	
-3.29816e-05	-0.00505663	-0.000135902	
-0.0143328	-0.000302685	0.0029601	
-0.000668988	-0.00488102	0.000171165	
-0.000337798	-0.00230634	-0.00121962	
-0.000128333	-0.00472532	-0.000446741	
0.0191775	0.00383063	-0.00307579	
0.00230632	-0.00145651	-0.00160488	
0.000378446	-0.00210915	-0.000197266	
-0.000143097	-0.00217075	0.000295963	
-7.6655e-05	-0.00235306	0.000111205	
7.54336e-05	-0.00213614	7.43252e-05	
0.000999067	-0.00232007	-0.000950273	
-0.00118681	-0.00231138	0.00118473	
-0.000121839	-0.00197951	0.00036843	
-7.13876e-05	-0.00230486	0.000109682	
0.000541617	-0.00231212	-0.000536453	
0.000687743	-0.00222673	-0.00057361	
-2.19397e-05	-0.00226692	0.000104911	
0.000142776	-0.00227699	-4.21082e-05	
3.17483e-05	-0.00229287	4.73701e-05	
0.00146369	-0.00141459	-0.000673958	
0.000352134	-0.00191911	-2.64136e-05	
0.00108611	-0.00168692	-0.00056492	
0.000228792	-0.00186955	0.000200533	
1.32002e-05	-0.00226422	8.3064e-06	
0.00235294	-0.00117049	-0.00107702	
-4.64517e-07	-0.00230213	1.29954e-05	
9.05843e-05	-0.0023629	-4.56149e-05	
0.00319953	-0.000252254	-0.000317632	
6.8301e-05	-0.00227681	6.67609e-05	
0.00303652	-0.000596391	-0.000564915	
0.000680569	-0.00204087	-0.000477391	
-1.29679e-05	-0.00231293	6.50015e-06	
7.46955e-05	-0.00208735	0.000101887	
0.000306005	-0.0011816	0.000369371	
3.34392e-05	-0.00237277	4.19071e-05	
-0.00466522	-0.000546584	0.0018879	
-0.000103392	-0.00212691	-0.000107831	
0.000207234	-0.00217401	-0.000347462	
-0.00767362	0.000794269	0.00154795	
0.00037715	-0.00236746	-0.000332749	
-7.14295e-05	-0.00214492	-9.19848e-05	
-0.000382799	-0.00236381	0.00041538	
0.000301843	-0.00235689	-0.0003065	
0.000356277	-0.00235616	-0.000378861	
-0.000828872	-0.00196057	0.000487337	
-0.000148978	-0.00231831	8.04344e-05	
-0.0007414	-0.00233953	0.000710792	
-0.000570025	-0.00222677	0.000454194	
-0.000400166	-0.00227599	0.000284666	
0.000233206	-0.00229499	-0.000325221	
-0.0026996	-0.00131487	0.00173075	
-0.000934827	-0.00189546	0.000528951	
-0.000979403	-0.00173131	0.000494151	
-6.71478e-05	-0.00227627	-7.58874e-05	
-0.000278398	-0.00164097	-0.000209376	
-5.05081e-05	-0.00229579	-2.29382e-05	
-0.000363851	-0.00132269	-0.000358047	
-2.43117e-05	-0.00234104	-9.03541e-06	
-0.000197255	-0.0018258	-0.000196282	
-4.38456e-05	-0.0022733	-6.04707e-05	
-0.0148547	0.00272326	0.00256079	
-0.000714396	-0.00210756	0.000466551	
-0.000276663	-0.000962205	-0.000379646	
-0.000138051	-0.0020487	-0.000134643	
0.0200922	0.00544294	-0.00183953	
0.00265367	-0.00144933	-0.00176173	
0.000516433	-0.0023656	-0.000278848	
-6.11086e-05	-0.00245442	0.000201375	
-4.40845e-05	-0.00261285	5.10126e-05	
0.000119454	-0.00241231	4.3669e-05	
0.00108989	-0.00257458	-0.000921095	
-0.00127016	-0.00257442	0.00112222	
1.30501e-05	-0.00223074	0.000244341	
-7.75819e-05	-0.00259472	0.000101238	
0.000591002	-0.00259234	-0.000505886	
0.000798491	-0.00247941	-0.000588525	
2.32007e-05	-0.00255923	5.63377e-05	
0.00018156	-0.00255227	-7.10372e-05	
5.03431e-05	-0.00258026	3.53343e-05	
0.0016824	-0.00147432	-0.000897543	
0.000455723	-0.00213327	-0.000124099	
0.00127236	-0.00182952	-0.000694469	
0.000292488	-0.00208796	0.000127311	
1.42349e-05	-0.00255322	1.28733e-06	
0.00260814	-0.00116037	-0.0012382	
7.92898e-06	-0.00257562	8.77751e-06	
0.000113192	-0.00260975	-7.08349e-05	
0.00345494	-0.000134975	-0.000307096	
9.31985e-05	-0.00254113	4.23246e-05	
0.00333055	-0.000547236	-0.000619995	
0.000771214	-0.00227456	-0.000531569	
-1.02296e-05	-0.0025808	1.26371e-05	
0.000137309	-0.00234037	5.01584e-05	
0.000390411	-0.00132885	0.000362731	
4.27817e-05	-0.00261486	3.43129e-05	
-0.00514087	-0.000356745	0.00202189	
-0.000229475	-0.00238221	-7.18228e-06	
0.000123355	-0.00245268	-0.000253461	
-0.00822415	0.00133377	0.00147327	
0.000412104	-0.00261558	-0.000317615	
-0.000124878	-0.00241385	-5.97166e-05	
-0.000411441	-0.00262004	0.0003765	
0.000316234	-0.00261301	-0.000283608	
0.000368867	-0.00261163	-0.000345598	
-0.001016	-0.00215928	0.000648974	
-0.000182236	-0.00259879	0.000101123	
-0.000813765	-0.00259399	0.000688045	
-0.000676417	-0.00248528	0.000479199	
-0.000468231	-0.00254516	0.00030382	
0.000202227	-0.0025851	-0.000267745	
-0.00307803	-0.00126718	0.00191747	
-0.00110177	-0.00205309	0.00066348	
-0.00121894	-0.00187213	0.000677041	
-9.42861e-05	-0.00254064	-4.86591e-05	
-0.000337478	-0.00186516	-0.000104012	
-6.54151e-05	-0.00257068	2.55975e-06	
-0.000457849	-0.00150487	-0.000317492	
-3.33929e-05	-0.0025984	4.17833e-06	
-0.00025255	-0.00205653	-0.000114802	
-6.86439e-05	-0.0025606	-3.83215e-05	
-0.0154839	0.0040739	0.00157941	
-0.000824313	-0.00231671	0.000544284	
-0.000359782	-0.00109645	-0.000391725	
-0.000173608	-0.00227779	-0.000102564	
0.0209803	0.00576658	-0.00169421	
0.00289408	-0.00122439	-0.00170323	
0.000574245	-0.00207559	-0.000356149	
-3.13038e-05	-0.00216673	0.000119956	
-3.57504e-05	-0.00234206	2.70055e-05	
0.000100735	-0.00212762	1.66047e-05	
0.00111467	-0.00230664	-0.000919783	
-0.00130395	-0.00231026	0.00109662	
0.000115606	-0.0019541	4.19512e-05	
-7.43164e-05	-0.00230262	8.18913e-05	
0.000627419	-0.00231461	-0.000514547	
0.000840829	-0.00218147	-0.000624038	
4.84185e-05	-0.0022654	7.55532e-06	
0.000192242	-0.00225625	-0.000103402	
4.29452e-05	-0.00228482	1.34978e-05	
0.0017864	-0.00126202	-0.000876088	
0.000474653	-0.00185274	-0.000175689	
0.00133611	-0.001565	-0.000704777	
0.000221923	-0.00181656	8.10241e-05	
1.60169e-05	-0.00227544	-6.21439e-06	
0.00274188	-0.000971623	-0.0012574	
5.88113e-06	-0.00230775	2.19017e-06	
0.000107735	-0.00233942	-7.10429e-05	
0.00361187	6.83011e-05	-0.000333172	
7.87252e-05	-0.00224661	1.3567e-05	
0.00350535	-0.000360633	-0.000699426	
0.000895686	-0.00194984	-0.000629894	
-5.71276e-07	-0.00231194	7.81106e-06	
0.000109108	-0.00205705	6.47692e-06	
0.000300253	-0.00113156	0.000337663	
2.07304e-05	-0.00234542	3.90779e-05	
-0.00551092	-0.00021072	0.00203335	
-0.000261699	-0.00209248	8.0882e-05	
8.75841e-05	-0.00216528	-0.000164893	
-0.00868944	0.00166093	0.00139448	
0.000409614	-0.00234586	-0.000301968	
-0.000102875	-0.00212635	-2.64024e-05	
-0.000428601	-0.00234795	0.000374609	
0.000317183	-0.00233881	-0.000266403	
0.000378734	-0.0023372	-0.000325885	
-0.00118571	-0.00182543	0.000788215	
-0.000193182	-0.00230428	0.000121599	
-0.000838803	-0.00231893	0.000686979	
-0.000723966	-0.00218129	0.000523942	
-0.000496459	-0.00224586	0.00034236	
0.00020243	-0.00228949	-0.000224055	
-0.00337789	-0.00110644	0.00184696	
-0.00117224	-0.00175703	0.000728311	
-0.00135016	-0.00160424	0.000750388	
-8.44787e-05	-0.00224563	-1.55995e-05	
-0.000248004	-0.0016201	-9.40029e-05	
-4.98557e-05	-0.00229147	4.95178e-06	
-0.000345246	-0.00129655	-0.000310251	
-2.80799e-05	-0.00232644	3.54255e-06	
-0.000194787	-0.00179251	-7.31003e-05	
-6.08178e-05	-0.00226856	-1.24767e-05	
-0.0160929	0.00440629	0.00129663	
-0.0009042	-0.00200312	0.000601457	
-0.000297106	-0.000925958	-0.000359422	
-0.000173781	-0.00199334	-5.28318e-06	
0.0218156	0.00583994	-0.00113407	
0.00327278	-0.00104468	-0.0012595	
0.000670723	-0.00177576	-0.000325637	
1.54354e-05	-0.00187436	6.51836e-05	
-3.03872e-05	-0.00207867	2.27827e-05	
6.87742e-05	-0.00183014	3.95277e-05	
0.00121542	-0.00205498	-0.000799197	
-0.00142962	-0.00205579	0.000940899	
0.000176447	-0.00165161	5.1206e-06	
-9.41154e-05	-0.00204975	7.46563e-05	
0.000705459	-0.00205644	-0.000441421	
0.000955042	-0.00191418	-0.000557977	
5.56794e-05	-0.00202597	1.35527e-06	
0.000212135	-0.00201924	-9.70507e-05	
2.74613e-05	-0.00203752	1.62442e-05	
0.0019746	-0.00106422	-0.000607189	
0.000518748	-0.00155752	-0.000138734	
0.00147558	-0.00131437	-0.000473696	
0.000161705	-0.00152504	0.00012175	
1.45864e-05	-0.00202589	-3.39026e-06	
0.00300462	-0.000813	-0.000859818	
3.70798e-06	-0.00205911	1.10709e-06	
0.000108081	-0.00207386	-5.65698e-05	
0.0037566	0.000207045	-0.000211229	
6.1375e-05	-0.00200253	2.051e-05	
0.00369769	-0.000216096	-0.000514943	
0.00100062	-0.00166182	-0.000518188	
-2.53162e-06	-0.00205346	4.32169e-06	
7.84231e-05	-0.00175081	2.76665e-05	
0.000208962	-0.000924713	0.000369769	
-7.42711e-07	-0.00207935	4.6328e-05	
-0.00598392	-0.000132603	0.00152153	
-0.000314934	-0.00178487	7.66116e-05	
4.73751e-05	-0.00186981	-9.99112e-05	
-0.00913258	0.00180673	0.00112443	
0.000436696	-0.00208342	-0.000248926	
-7.18793e-05	-0.00182518	-5.17352e-05	
-0.000479259	-0.00208551	0.00032533	
0.000338121	-0.00208098	-0.000217924	
0.000412913	-0.00207415	-0.000268467	
-0.00135375	-0.00155683	0.000675746	
-0.000204305	-0.00204603	9.59779e-05	
-0.00092738	-0.00205914	0.000573443	
-0.000822274	-0.00190922	0.000476854	
-0.000546733	-0.00200623	0.000299619	
0.000236673	-0.00203197	-0.000194002	
-0.00381194	-0.000939627	0.00137789	
-0.00128176	-0.00148022	0.00060979	
-0.00157041	-0.00133507	0.000565523	
-6.47291e-05	-0.00199454	-1.85224e-05	
-0.000169045	-0.00135221	-0.000166261	
-3.59088e-05	-0.00203356	-1.17615e-05	
-0.000228017	-0.00106774	-0.00035507	
-2.02399e-05	-0.00206048	-4.34082e-06	
-0.00014008	-0.00150735	-0.000102149	
-3.85248e-05	-0.0020221	-2.12045e-05	
-0.0166907	0.00438232	0.00101278	
-0.000982421	-0.0017077	0.000506432	
-0.000214765	-0.000762846	-0.000355455	
-0.000117791	-0.00169029	-6.13614e-05	
0.0226061	0.00565538	-0.000728675	
0.00346771	-0.00088412	-0.001237	
0.00077606	-0.00156859	-0.000291765	
9.7956e-05	-0.00166005	2.32864e-05	
-3.58048e-05	-0.00188201	2.45409e-05	
5.7553e-05	-0.00162021	5.21625e-05	
0.00131208	-0.00187348	-0.000655647	
-0.00152027	-0.00187512	0.000780004	
0.000275122	-0.00145387	-1.87923e-05	
-8.64979e-05	-0.00183871	5.52023e-05	
0.000774498	-0.00185716	-0.000385474	
0.00106766	-0.00170171	-0.000481655	
7.72604e-05	-0.00181789	-5.20651e-06	
0.000243397	-0.00180496	-8.05079e-05	
2.56944e-05	-0.00182554	1.894e-05	
0.00208306	-0.000910136	-0.000601356	
0.000564883	-0.00136608	-0.000122411	
0.00155168	-0.00114094	-0.000481017	
0.000137835	-0.0013392	0.000129905	
1.32217e-05	-0.00182848	-7.62701e-07	
0.00313357	-0.000683771	-0.00086239	
2.41474e-06	-0.00187387	7.1516e-06	
0.000109848	-0.00187453	-3.76924e-05	
0.0038924	0.000249486	-0.000178687	
4.82748e-05	-0.00178367	3.58576e-05	
0.00385098	-9.28634e-05	-0.000530015	
0.00109164	-0.00146762	-0.000452704	
2.00406e-06	-0.00186035	2.97979e-06	
6.2105e-05	-0.00154652	5.04344e-05	
0.000177214	-0.000813946	0.000334364	
-1.32731e-05	-0.00187841	5.01064e-05	
-0.00626214	1.36151e-05	0.00156499	
-0.000391588	-0.00158063	8.33186e-05	
-2.78799e-05	-0.00166114	-5.58736e-05	
-0.00955394	0.00174738	0.000929205	
0.000468961	-0.0018854	-0.000205022	
-6.19747e-05	-0.00162041	-5.79114e-05	
-0.000517755	-0.001894	0.000277015	
0.00035091	-0.00188998	-0.000178028	
0.000419887	-0.00188589	-0.00022414	
-0.00152937	-0.00137596	0.000603695	
-0.000242504	-0.00183709	8.91952e-05	
-0.00100214	-0.00186002	0.000489119	
-0.000932515	-0.00169944	0.000413602	
-0.00061714	-0.00179619	0.000265948	
0.00024695	-0.00182442	-0.000167513	
-0.00402694	-0.000784748	0.00139636	
-0.00139162	-0.00130795	0.000497408	
-0.00170976	-0.00115772	0.000588487	
-5.31646e-05	-0.00178224	-3.53629e-05	
-0.000145099	-0.00118567	-0.000163378	
-2.90013e-05	-0.00183595	-2.01723e-05	
-0.000191266	-0.000941073	-0.000325781	
-1.63422e-05	-0.00186507	-1.12524e-05	
-0.000120887	-0.00132691	-0.000113725	
-3.32965e-05	-0.00181928	-2.87521e-05	
-0.0172521	0.00421734	0.000630923	
-0.00106337	-0.00151632	0.000412965	
-0.000179715	-0.000672189	-0.000324649	
-9.70238e-05	-0.0015006	-7.74506e-05	
0.0233201	0.00567518	-0.000797319	
0.00384951	-0.00103146	-0.00134784	
0.000844458	-0.0017162	-0.00030338	
0.000198227	-0.00180927	-1.28084e-05	
-1.78271e-05	-0.00194569	1.77607e-05	
6.52018e-05	-0.00175964	6.35433e-05	
0.00131609	-0.00193126	-0.000648335	
-0.00156991	-0.00196667	0.000800694	
0.000334115	-0.00167338	-1.84551e-05	
-9.05189e-05	-0.00195706	6.00818e-05	
0.000817201	-0.00196634	-0.000402633	
0.00111487	-0.0018382	-0.000489529	
0.000138453	-0.00192935	-3.22002e-05	
0.000256313	-0.00189647	-8.13802e-05	
2.83951e-05	-0.00194796	2.25088e-05	
0.00227276	-0.00100679	-0.000633541	
0.000614265	-0.00162396	-0.000103628	
0.00166247	-0.00141886	-0.0004725	
0.000168664	-0.00161424	0.000168267	
1.46661e-05	-0.00192993	1.74902e-06	
0.00331297	-0.000734557	-0.000877506	
3.21802e-06	-0.00194184	7.19871e-06	
0.000106632	-0.0019437	-3.35668e-05	
0.00405051	0.000281143	-0.000209901	
5.24882e-05	-0.00189345	4.19209e-05	
0.0040305	-6.5294e-05	-0.000577814	
0.00113708	-0.00165627	-0.000449304	
3.46765e-06	-0.00197883	3.48006e-06	
7.17899e-05	-0.00171303	6.38466e-05	
0.000186213	-0.000848591	0.00034908	
-2.30688e-05	-0.00194014	5.7223e-05	
-0.0065847	5.86507e-05	0.00167904	
-0.000450946	-0.00174327	8.90692e-05	
-0.000124728	-0.00182942	-2.22679e-05	
-0.00993413	0.00182339	0.000971748	
0.000471518	-0.00193947	-0.000203707	
-7.105e-05	-0.0017749	-7.34995e-05	
-0.000514326	-0.00194026	0.0002743	
0.000382963	-0.00194279	-0.000193024	
0.000430473	-0.00197625	-0.000229084	
-0.00161182	-0.00162377	0.00060581	
-0.000252378	-0.00196775	8.81518e-05	
-0.00103455	-0.00197999	0.000498071	
-0.000973812	-0.00185053	0.000417645	
-0.000673739	-0.00189759	0.000284518	
0.000226808	-0.00195599	-0.000160705	
-0.00434789	-0.000855655	0.00147874	
-0.00148835	-0.00158296	0.000492347	
-0.00201508	-0.00132706	0.000684062	
-5.7846e-05	-0.00189919	-4.25791e-05	
-0.000165745	-0.00132976	-0.000192211	
-3.12072e-05	-0.00194547	-2.27633e-05	
-0.000204936	-0.000989105	-0.00034316	
-1.84335e-05	-0.00198196	-1.26129e-05	
-0.000148989	-0.00160933	-0.000149211	
-3.66604e-05	-0.00194251	-3.35594e-05	
-0.0177584	0.0041641	0.000689135	
-0.00110482	-0.00170297	0.00040501	
-0.000185279	-0.000686386	-0.000323826	
-0.000113902	-0.00170645	-0.000100591	
0.0239538	0.00579259	-0.000875972	
0.00408547	-0.000883927	-0.00146321	
0.00100354	-0.00182413	-0.000361459	
0.000266836	-0.0019421	-3.42975e-05	
3.64637e-05	-0.00219983	-7.94026e-06	
7.38282e-05	-0.00190723	7.61288e-05	
0.0013183	-0.00219342	-0.000637471	
-0.0014898	-0.00218612	0.000751654	
0.0005429	-0.00165275	-0.00011129	
-5.29373e-05	-0.0021134	4.31389e-05	
0.000820007	-0.00211647	-0.000399746	
0.0011422	-0.00195411	-0.000490385	
0.000186813	-0.00206292	-5.27796e-05	
0.000318703	-0.00204638	-0.000106875	
3.12935e-05	-0.00208553	2.4271e-05	
0.00242182	-0.000902642	-0.000695122	
0.00067247	-0.00149827	-0.000138395	
0.00173436	-0.00123228	-0.000534078	
0.000155133	-0.00145463	0.00015318	
1.72415e-05	-0.00210515	2.2276e-06	
0.00345908	-0.000642252	-0.000940252	
4.04819e-06	-0.00219955	9.41997e-06	
0.000115402	-0.00223639	-3.45122e-05	
0.00417566	0.000391027	-0.000275979	
5.65305e-05	-0.00199684	4.47087e-05	
0.00418706	5.67678e-05	-0.000662277	
0.00119632	-0.00168932	-0.000461312	
3.85797e-06	-0.00212157	4.40964e-06	
7.83381e-05	-0.00177064	7.34415e-05	
0.000176109	-0.000789888	0.000313852	
-6.67936e-05	-0.00224228	8.72338e-05	
-0.00687916	0.000209116	0.00181587	
-0.00061689	-0.00183684	0.000154144	
-0.000240017	-0.00197529	2.1564e-05	
-0.0102618	0.00199669	0.00106684	
0.000468545	-0.00220726	-0.000195586	
-8.08625e-05	-0.00192967	-8.66534e-05	
-0.000486145	-0.00220263	0.000258383	
0.000370502	-0.00222397	-0.000184563	
0.000370179	-0.00221617	-0.000196945	
-0.00184693	-0.00157385	0.000707357	
-0.00029734	-0.00213911	0.000104811	
-0.00104033	-0.00214866	0.000493919	
-0.000974405	-0.00202451	0.000399925	
-0.000745401	-0.00207106	0.000310975	
0.000196278	-0.00211639	-0.000149198	
-0.00462693	-0.000729619	0.00159679	
-0.0015868	-0.00143762	0.000546454	
-0.00219083	-0.00120804	0.000779307	
-6.38648e-05	-0.00203779	-4.79488e-05	
-0.000158882	-0.00124848	-0.000180833	
-3.55979e-05	-0.0021382	-2.61302e-05	
-0.000195342	-0.00092701	-0.000312912	
-2.07337e-05	-0.00215627	-1.3497e-05	
-0.000135377	-0.00143303	-0.000136324	
-4.07014e-05	-0.0020967	-3.80233e-05	
-0.0181929	0.00426591	0.000593143	
-0.00115554	-0.00174919	0.000415088	
-0.000174173	-0.000631083	-0.000290644	
-0.000120492	-0.00173755	-0.00010874	
0.0244613	0.00595946	-0.00112401	
0.00423569	-0.000573458	-0.0015785	
0.00102483	-0.00141297	-0.000393258	
0.000316231	-0.00143385	-8.14046e-05	
4.653e-05	-0.00160118	-1.57578e-05	
5.73593e-05	-0.00143518	5.90465e-05	
0.00135963	-0.00155304	-0.000659128	
-0.00152573	-0.00151893	0.000763887	
0.000611196	-0.00122699	-0.000177224	
-3.35807e-05	-0.00148698	2.91878e-05	
0.00087783	-0.00155379	-0.000430139	
0.00112499	-0.00148332	-0.000494537	
0.000192367	-0.00145613	-6.77872e-05	
0.000270397	-0.00145607	-9.72288e-05	
2.23353e-05	-0.00146627	1.83831e-05	
0.00251135	-0.000646847	-0.000786276	
0.000691578	-0.00117874	-0.00018292	
0.00180737	-0.000915417	-0.000618795	
0.000124294	-0.00116081	0.000120452	
1.28672e-05	-0.00148059	1.67798e-06	
0.00353978	-0.000416649	-0.00104478	
3.19222e-06	-0.00152067	6.46194e-06	
0.000127138	-0.00156377	-4.82235e-05	
0.00426405	0.000532443	-0.000374259	
4.26579e-05	-0.00149961	3.43927e-05	
0.00428596	0.000221025	-0.000767089	
0.0013115	-0.00125168	-0.00053401	
2.78458e-06	-0.00154866	4.34002e-06	
6.49795e-05	-0.00141179	6.10068e-05	
0.000142617	-0.000636995	0.000243808	
-2.87486e-05	-0.0015805	4.98141e-05	
-0.00710579	0.000394086	0.00195167	
-0.000685082	-0.00153063	0.00020766	
-0.000305215	-0.00160293	6.78812e-05	
-0.0105385	0.00218844	0.00117521	
0.00046732	-0.00163187	-0.000206385	
-6.75733e-05	-0.00155635	-6.97284e-05	
-0.000517479	-0.00163627	0.000269523	
0.000366771	-0.00160515	-0.000183641	
0.000414466	-0.00160632	-0.000216702	
-0.00191058	-0.00122895	0.000761009	
-0.000301441	-0.00162248	0.000115777	
-0.0010598	-0.00166626	0.00050919	
-0.000997214	-0.00161742	0.000421201	
-0.000686415	-0.00161968	0.000292805	
0.000206214	-0.00161583	-0.00014226	
-0.00487931	-0.000536604	0.00173336	
-0.00159931	-0.00121438	0.000575944	
-0.00237655	-0.00113893	0.000868338	
-5.20849e-05	-0.00167427	-4.05456e-05	
-0.00014077	-0.00109817	-0.000156056	
-2.79099e-05	-0.00161149	-1.95071e-05	
-0.000168977	-0.000798537	-0.000258344	
-1.60584e-05	-0.00164588	-1.07506e-05	
-0.000121567	-0.00128602	-0.000119244	
-3.21999e-05	-0.00162176	-2.94725e-05	
-0.0185673	0.00438823	0.000700488	
-0.00125344	-0.00144586	0.00048348	
-0.00015568	-0.000554978	-0.00024766	
-9.79168e-05	-0.00137432	-8.68376e-05	
0.0250523	0.00604368	-0.00131659	
0.00434845	-0.000725326	-0.00158616	
0.00122522	-0.00137902	-0.000482269	
0.000356103	-0.00154981	-8.82978e-05	
5.76965e-05	-0.00135527	-2.2002e-05	
6.15671e-05	-0.00151308	6.7604e-05	
0.00134744	-0.00134928	-0.000644364	
-0.00159737	-0.0014045	0.000785382	
0.000730411	-0.00123687	-0.000229533	
-5.92287e-05	-0.00151153	4.38063e-05	
0.000823951	-0.00148344	-0.000395101	
0.00113641	-0.00153012	-0.000488786	
0.000161931	-0.00153066	-4.87273e-05	
0.000276425	-0.00155449	-9.3918e-05	
2.39747e-05	-0.00151826	1.9213e-05	
0.00264903	-0.000752814	-0.000804604	
0.000732152	-0.0011609	-0.000202544	
0.00187263	-0.000937857	-0.000643983	
0.000121769	-0.00114676	0.000116824	
1.39806e-05	-0.0014837	4.01108e-06	
0.00369396	-0.000519235	-0.00105973	
3.0715e-06	-0.00138129	5.26946e-06	
0.000132156	-0.00135933	-5.43027e-05	
0.0044106	0.000513213	-0.000405914	
4.41657e-05	-0.00155771	3.85853e-05	
0.00445537	0.000189529	-0.000820062	
0.00135467	-0.00125666	-0.00054639	
2.62425e-06	-0.00143595	4.25669e-06	
6.26878e-05	-0.00133387	6.02131e-05	
0.000166308	-0.000746552	0.000271603	
-3.64081e-05	-0.00136599	4.43191e-05	
-0.00733114	0.000481589	0.00207121	
-0.000807812	-0.00118247	0.000290235	
-0.00036663	-0.0012619	0.000110755	
-0.0108267	0.00230281	0.00129779	
0.000475414	-0.00136674	-0.000213974	
-5.61675e-05	-0.00126539	-5.87324e-05	
-0.000510359	-0.00137481	0.00025888	
0.000398112	-0.00138527	-0.000197879	
0.000452343	-0.00141693	-0.000233804	
-0.00201372	-0.000958326	0.000826018	
-0.000355797	-0.00152134	0.000142055	
-0.000967436	-0.0014964	0.000457355	
-0.00104502	-0.00131812	0.000449563	
-0.000762346	-0.00143349	0.000331676	
0.000174715	-0.0014932	-0.000122449	
-0.00500424	-0.000430293	0.00180721	
-0.00164149	-0.00091657	0.000626372	
-0.0023764	-0.000749594	0.00092473	
-4.20831e-05	-0.00139375	-3.47171e-05	
-0.000117561	-0.000921955	-0.000125578	
-2.71857e-05	-0.00153028	-1.90515e-05	
-0.00016026	-0.000764889	-0.00023636	
-1.4418e-05	-0.00144903	-1.05963e-05	
-8.91026e-05	-0.000959859	-8.68444e-05	
-2.9286e-05	-0.00146511	-2.71682e-05	
-0.0189187	0.00446931	0.000818007	
-0.00127215	-0.00109963	0.000514155	
-0.000151343	-0.000539186	-0.00022826	
-7.95885e-05	-0.00110984	-6.98826e-05	
0.0255539	0.00607307	-0.00160298	
0.00450998	-0.000528612	-0.00168452	
0.00132141	-0.00134498	-0.00052238	
0.000416338	-0.00140122	-0.00012187	
0.000154364	-0.00185886	-6.68242e-05	
5.65594e-05	-0.0013847	6.19579e-05	
0.00136888	-0.0017915	-0.000639948	
-0.00156114	-0.00173726	0.000756502	
0.000878251	-0.00112812	-0.000305283	
0.000100394	-0.00161869	-2.84141e-05	
0.000861076	-0.00173104	-0.000404609	
0.00115051	-0.00143226	-0.00048915	
0.000210783	-0.00153206	-6.92528e-05	
0.000338773	-0.00152284	-0.000122843	
2.54195e-05	-0.00156503	2.09627e-05	
0.00274124	-0.000577776	-0.000878956	
0.00073568	-0.00106169	-0.000215262	
0.00191938	-0.000868844	-0.00067692	
0.000111761	-0.00107553	0.000106824	
1.60065e-05	-0.0017005	8.3581e-06	
0.00375806	-0.000340653	-0.00115055	
4.35087e-06	-0.00178362	6.71644e-06	
0.000132463	-0.00187378	-4.96326e-05	
0.00449086	0.000615108	-0.00050582	
4.09898e-05	-0.00146929	4.00619e-05	
0.00454946	0.000322883	-0.000933427	
0.00142554	-0.001189	-0.000574396	
3.8802e-06	-0.00174473	6.26176e-06	
6.13754e-05	-0.0012992	5.95133e-05	
0.000134185	-0.000615916	0.000210592	
-7.95147e-05	-0.00186996	7.48251e-05	
-0.00755001	0.000558899	0.00218725	
-0.000947889	-0.00144016	0.000333871	
-0.000336847	-0.00148456	8.34519e-05	
-0.0110969	0.00233714	0.00143214	
0.00040775	-0.00183313	-0.000172027	
-6.54536e-05	-0.00148732	-6.89487e-05	
-0.000527408	-0.00176751	0.000263323	
0.000313186	-0.00174736	-0.000153166	
0.000438154	-0.00166988	-0.000225517	
-0.00217865	-0.00112443	0.00087659	
-0.000501385	-0.00146821	0.00020883	
-0.00106289	-0.00161617	0.000494822	
-0.00102365	-0.00143607	0.000426705	
-0.000770077	-0.00143898	0.000329776	
0.000169372	-0.00143637	-0.000118478	
-0.00534552	-0.000435114	0.00193843	
-0.00168194	-0.00108079	0.000618709	
-0.00245172	-0.000949092	0.000922886	
-4.18435e-05	-0.00143343	-3.85731e-05	
-0.000137402	-0.00110469	-0.000144747	
-2.90127e-05	-0.00155682	-2.04075e-05	
-0.000153215	-0.000751642	-0.000218944	
-1.70282e-05	-0.00165434	-1.31976e-05	
-0.000104602	-0.00116008	-0.000101935	
-2.86552e-05	-0.00143509	-2.67799e-05	
-0.0193015	0.00445433	0.000995392	
-0.00135728	-0.00132771	0.000529809	
-0.000146452	-0.000526633	-0.00021069	
-9.29103e-05	-0.00130465	-8.08684e-05	
0.0259452	0.00605498	-0.00192483	
0.00445679	-0.000164142	-0.00172287	
0.00132434	-0.000816061	-0.000550142	
0.000579442	-0.000902085	-0.000223668	
6.38587e-05	-0.00118911	-2.57585e-05	
3.44573e-05	-0.000867032	3.79755e-05	
0.00140955	-0.00124128	-0.000654874	
-0.00158241	-0.00127753	0.000754194	
0.000884239	-0.000766804	-0.000334604	
0.000102484	-0.00116459	-3.43221e-05	
0.000938701	-0.00118486	-0.000440533	
0.00125108	-0.00101401	-0.000544266	
0.000247216	-0.00114423	-9.48683e-05	
0.000318474	-0.00111737	-0.000122665	
1.90579e-05	-0.00115472	1.60444e-05	
0.00281544	-0.000364846	-0.000952709	
0.000798673	-0.000740452	-0.000278141	
0.00196192	-0.000463405	-0.000753303	
6.84234e-05	-0.000687957	6.54317e-05	
1.1398e-05	-0.001152	7.06979e-06	
0.00380755	-0.000148376	-0.00123661	
3.24107e-06	-0.00121792	4.66009e-06	
0.000132502	-0.00116382	-5.41361e-05	
0.00454199	0.000714575	-0.000616967	
3.07029e-05	-0.00113688	3.09056e-05	
0.00460119	0.000449955	-0.00106242	
0.00149042	-0.000742533	-0.00062237	
3.26221e-06	-0.00122584	6.49314e-06	
3.95819e-05	-0.000858838	3.81237e-05	
9.52438e-05	-0.000454851	0.000145421	
-6.07791e-05	-0.00117061	5.13449e-05	
-0.00765448	0.00074491	0.00234075	
-0.000929469	-0.000840125	0.00036852	
-0.000483453	-0.000915244	0.000182933	
-0.0112693	0.00242038	0.00164675	
0.000487054	-0.0012008	-0.000216499	
-3.76301e-05	-0.000880447	-3.97218e-05	
-0.000565263	-0.00127771	0.000277418	
0.000364274	-0.0012449	-0.000176521	
0.000381534	-0.0012953	-0.000193204	
-0.00221893	-0.000682781	0.000922835	
-0.000521594	-0.0011529	0.000221156	
-0.00115144	-0.0011816	0.000535167	
-0.00111612	-0.00101628	0.000483067	
-0.000765537	-0.00110498	0.000332204	
0.000157384	-0.0011448	-0.000103408	
-0.00535714	-9.11966e-05	0.00203042	
-0.00175861	-0.000669102	0.00069158	
-0.0025158	-0.000444299	0.00101994	
-3.15593e-05	-0.00113535	-3.0533e-05	
-6.90192e-05	-0.000578395	-7.22637e-05	
-2.18396e-05	-0.00115181	-1.56173e-05	
-9.98526e-05	-0.000512832	-0.000140102	
-1.3308e-05	-0.00123609	-9.96158e-06	
-5.84352e-05	-0.000677463	-5.67766e-05	
-2.23517e-05	-0.00113044	-2.12941e-05	
-0.019585	0.00444469	0.00128538	
-0.00140667	-0.000830709	0.000586075	
-0.000102767	-0.000377609	-0.000138329	
-5.63247e-05	-0.000811428	-4.94156e-05	
0.0265436	0.00580256	-0.00229914	
0.00459635	-0.00046235	-0.0017192	
0.00140418	-0.00123133	-0.000551659	
0.000643511	-0.00128689	-0.000232562	
-2.39432e-05	-0.00148828	1.62614e-05	
4.88404e-05	-0.00128176	5.36268e-05	
0.00140132	-0.00153289	-0.000636572	
-0.00149004	-0.0015121	0.000697092	
0.00115598	-0.00114716	-0.000425259	
7.0937e-05	-0.00147559	-1.49179e-05	
0.000981892	-0.00145105	-0.000449397	
0.00130806	-0.00130719	-0.000550034	
0.000250609	-0.001489	-8.9248e-05	
0.000441559	-0.0014704	-0.000168833	
2.35133e-05	-0.0014651	1.90226e-05	
0.00286744	-0.000565499	-0.000929979	
0.000873319	-0.000996949	-0.000284176	
0.00206654	-0.000764062	-0.000753978	
9.18737e-05	-0.000978659	8.78983e-05	