<VTKFile type="UnstructuredGrid" version="0.1" byte_order="LittleEndian">
	<UnstructuredGrid>
		<Piece NumberOfPoints="1440" NumberOfCells="1440">
			<CellData Scalars="scalars">
				<DataArray type="Float64" Name="Strength" NumberOfComponents="3" Format="ascii">
0.0169458	-0.0111047	0.00181767	
0.00114935	-0.0235041	0.00459749	
0.000624023	-0.0251993	0.00151479	
-0.000103711	-0.0264418	0.00164178	
-0.000651426	-0.0260665	0.000512175	
0.000357874	-0.0257832	0.00143234	
0.000880669	-0.0264641	-0.000490424	
-0.00128143	-0.0257186	0.00119748	
-0.000169924	-0.0249967	0.00312437	
0.000195914	-0.0254703	0.000390133	
0.000813443	-0.0264119	-0.000358733	
0.00099742	-0.0254458	0.00053131	
0.000154632	-0.0267913	0.000810863	
0.0004345	-0.0262908	0.000810697	
0.000263277	-0.0261003	0.000616766	
-0.000273489	-0.0216847	0.00669013	
0.000358416	-0.0253097	0.00338437	
0.000481065	-0.0240125	0.00452097	
9.58345e-05	-0.0250563	0.00433369	
0.000247453	-0.0259185	0.000167624	
0.000288555	-0.0203796	0.00801107	
-6.92141e-05	-0.0252139	0.000235032	
-0.000352864	-0.0259888	0.000283161	
0.00234434	-0.0136243	0.00798106	
0.000408447	-0.0261539	0.00103423	
0.0009334	-0.0158822	0.00887175	
0.000937309	-0.024929	0.001713	
0.000159893	-0.02672	1.24995e-05	
0.000413768	-0.0255997	0.00198712	
-0.00154922	-0.0176693	0.00949567	
-8.1596e-05	-0.0260261	0.000422194	
-0.00224758	-0.0182236	-0.00828726	
-0.000266003	-0.0254328	-0.00204069	
3.28851e-05	-0.0264189	-0.00166622	
-0.00622066	-0.0141788	-0.00712854	
0.000288227	-0.0262258	-9.53391e-05	
-0.000329057	-0.0258729	-0.00154841	
-0.000646003	-0.0267035	0.000344627	
0.000323403	-0.0261577	-0.000337782	
0.000571332	-0.0265881	-0.000513154	
-0.000544594	-0.0247583	-0.00274054	
2.98378e-05	-0.0255572	-0.000506623	
-0.000713772	-0.0265656	0.000263449	
-0.000933682	-0.0255369	-0.000713389	
-0.000832804	-0.0261675	-0.000629217	
0.000359984	-0.0260892	-0.000981934	
-0.00113362	-0.0218491	-0.0060198	
-0.000765336	-0.0247495	-0.00316151	
-0.000272259	-0.0234514	-0.00429489	
-0.000505597	-0.0260779	-0.00110451	
0.00058267	-0.0232469	-0.00564216	
5.5778e-05	-0.0260146	-0.000470046	
0.00101241	-0.0195845	-0.00911485	
9.6016e-05	-0.0270952	-0.000247347	
-5.73941e-06	-0.0240282	-0.00415468	
-0.000160265	-0.0265943	-0.000896157	
-0.0135578	-0.0112419	-0.00242435	
-0.000719321	-0.026014	-0.00188635	
0.000677282	-0.0152692	-0.0100677	
-0.000123015	-0.0252465	-0.00273213	
0.0185262	0.000142727	-0.00341625	
0.00208081	-0.00421524	-0.000778263	
0.000359106	-0.00486875	3.97064e-05	
-0.000186904	-0.00492097	0.000498396	
-0.000153466	-0.00520877	0.000207798	
9.34306e-05	-0.0048944	0.000239077	
0.000921603	-0.00512577	-0.000920207	
-0.00112769	-0.00512794	0.00123131	
-0.000202743	-0.00462717	0.000783967	
-6.57746e-05	-0.00511216	0.000122441	
0.000525383	-0.00506719	-0.000540493	
0.000653435	-0.00507607	-0.000428086	
-4.74211e-05	-0.00504957	0.000190728	
0.00013375	-0.00510369	4.81438e-05	
3.11921e-05	-0.005073	9.68438e-05	
0.00127766	-0.00382054	0.000279935	
0.000294425	-0.00453477	0.000419101	
0.000965481	-0.00423451	0.000122568	
0.000210639	-0.00443284	0.000738974	
1.95795e-05	-0.0049621	5.31219e-07	
0.00212126	-0.0035803	-2.63357e-05	
-1.58947e-05	-0.00503726	4.09085e-05	
2.88564e-05	-0.00523584	1.19796e-05	
0.00307815	-0.00188277	0.000302783	
7.89403e-05	-0.00513772	0.000174545	
0.00281358	-0.00248951	0.000260481	
0.00064185	-0.0047527	-0.000170776	
8.95539e-07	-0.00509912	1.01087e-06	
9.87145e-05	-0.00481228	0.000331374	
0.000279386	-0.00283994	0.00131646	
1.98763e-05	-0.00526651	9.99422e-05	
-0.00431459	-0.00325867	0.000830344	
-6.98858e-05	-0.00489352	-0.000375177	
0.000241952	-0.00494813	-0.000541011	
-0.00732738	-0.00182132	0.00116913	
0.000348098	-0.00525146	-0.000305402	
-7.05086e-05	-0.00490871	-0.000271846	
-0.000386498	-0.00520881	0.000439611	
0.000300378	-0.00516794	-0.000319206	
0.000370123	-0.00518505	-0.000423347	
-0.000689713	-0.00460853	-8.51204e-06	
-0.000104229	-0.00511997	1.04999e-05	
-0.000679772	-0.00518629	0.000666542	
-0.000539626	-0.00503921	0.000298636	
-0.000396977	-0.00509146	0.000182713	
0.000270803	-0.00503815	-0.00042752	
-0.00241862	-0.00404561	0.000679887	
-0.000846705	-0.00452791	3.16797e-05	
-0.000814474	-0.00430295	-0.000215839	
-8.38393e-05	-0.00513236	-0.000191591	
-0.000242371	-0.00395067	-0.000917524	
-2.60395e-05	-0.00505134	-6.95299e-05	
-0.000357892	-0.00323156	-0.00133984	
-1.19781e-05	-0.00516179	-4.6435e-05	
-0.000200366	-0.00430594	-0.000721059	
-3.02892e-05	-0.00505643	-0.000143513	
-0.0143348	-0.000416719	0.0029415	
-0.000646734	-0.00488442	0.000159578	
-0.000317858	-0.00228246	-0.00126876	
-0.000119078	-0.00472268	-0.000475881	
0.0191913	0.00384764	-0.0029772	
0.00228159	-0.00145746	-0.00163888	
0.000372509	-0.00211025	-0.000196696	
-0.000137455	-0.00216967	0.000306179	
-7.25021e-05	-0.00235303	0.000115051	
7.56584e-05	-0.00213588	8.05104e-05	
0.000976699	-0.00232069	-0.000971593	
-0.00115924	-0.00231003	0.00121407	
-0.000115607	-0.00197685	0.000384265	
-6.91861e-05	-0.00230472	0.000114036	
0.000527144	-0.00231273	-0.000548123	
0.000674429	-0.00222842	-0.000582715	
-1.96003e-05	-0.0022667	0.000110077	
0.000141752	-0.00227709	-3.99734e-05	
3.28502e-05	-0.00229281	5.03826e-05	
0.00146473	-0.00141052	-0.00068016	
0.000350243	-0.00191954	-1.8604e-05	
0.00108228	-0.00168724	-0.000571224	
0.000238681	-0.00186678	0.000214215	
1.30866e-05	-0.00226423	9.63434e-06	
0.00234675	-0.00117026	-0.00109077	
-1.25112e-06	-0.00230213	1.4572e-05	
9.08349e-05	-0.00236289	-4.58698e-05	
0.00320348	-0.00025062	-0.000279469	
7.12133e-05	-0.00227655	7.2127e-05	
0.00304315	-0.000597154	-0.000528324	
0.000666537	-0.00204455	-0.000481329	
-1.436e-05	-0.00231292	7.20231e-06	
7.44875e-05	-0.00208691	0.000110217	
0.000314029	-0.00117427	0.000385556	
3.59908e-05	-0.0023727	4.35434e-05	
-0.00467045	-0.000532273	0.00187937	
-0.000104334	-0.00212647	-0.000115007	
0.000201714	-0.0021727	-0.000358634	
-0.0076883	0.000805278	0.00147041	
0.000369614	-0.00236756	-0.000340491	
-7.09272e-05	-0.00214463	-9.83339e-05	
-0.000370461	-0.00236388	0.000425945	
0.000295004	-0.00235675	-0.000314204	
0.000347182	-0.00235585	-0.000388956	
-0.000819189	-0.00196398	0.000489941	
-0.000147144	-0.00231847	7.98842e-05	
-0.000724466	-0.00234012	0.000726115	
-0.000556993	-0.00222864	0.000461033	
-0.000392338	-0.00227701	0.000287427	
0.000224975	-0.0022943	-0.000335827	
-0.00267298	-0.00132142	0.00176655	
-0.000924398	-0.00189966	0.000532163	
-0.000972608	-0.00173395	0.00049824	
-6.94607e-05	-0.002276	-8.14667e-05	
-0.000292443	-0.00163678	-0.000222515	
-5.2561e-05	-0.00229572	-2.55587e-05	
-0.000379869	-0.00131388	-0.000373413	
-2.51801e-05	-0.00234102	-1.07146e-05	
-0.000205623	-0.00182327	-0.000210563	
-4.52053e-05	-0.00227315	-6.50371e-05	
-0.0148726	0.00271888	0.00246666	
-0.000702682	-0.00211054	0.000470822	
-0.000278111	-0.000955186	-0.000395857	
-0.00014149	-0.0020477	-0.00014544	
0.0200765	0.00557085	-0.00164001	
0.0026414	-0.00141356	-0.00180844	
0.000518853	-0.0023645	-0.000283121	
-4.86786e-05	-0.00245402	0.000209065	
-3.87753e-05	-0.00261288	5.23382e-05	
0.000128594	-0.00241172	4.75222e-05	
0.00107198	-0.00257387	-0.0009436	
-0.00124639	-0.00257353	0.00115035	
2.51801e-05	-0.00222962	0.000253273	
-7.41154e-05	-0.00259466	0.000105027	
0.000579398	-0.00259276	-0.000516943	
0.000792004	-0.00247857	-0.000600482	
2.72638e-05	-0.00255911	6.00285e-05	
0.000183852	-0.00255212	-7.07265e-05	
5.3537e-05	-0.00258016	3.80464e-05	
0.00169023	-0.00144917	-0.00092339	
0.000464009	-0.00213133	-0.000126304	
0.00128064	-0.0018159	-0.000714611	
0.00031393	-0.00208468	0.000129452	
1.46643e-05	-0.00255322	2.42498e-06	
0.00261271	-0.0011292	-0.00125725	
8.48652e-06	-0.00257564	9.45722e-06	
0.000116006	-0.00260956	-7.30948e-05	
0.00345972	-0.000121759	-0.000257713	
9.98416e-05	-0.00254081	4.55868e-05	
0.00333887	-0.00053866	-0.000582647	
0.000762759	-0.00227474	-0.000542719	
-1.12725e-05	-0.00258078	1.39617e-05	
0.000147232	-0.00233964	5.41766e-05	
0.000404824	-0.00132055	0.00037675	
4.76686e-05	-0.00261476	3.4585e-05	
-0.00514818	-0.000315447	0.00201054	
-0.00024	-0.00238112	-9.0856e-06	
0.000111166	-0.00245221	-0.000263263	
-0.00823279	0.00138236	0.00138139	
0.000407873	-0.00261516	-0.000326063	
-0.000134297	-0.0024132	-6.36199e-05	
-0.000400367	-0.0026204	0.000385717	
0.000310759	-0.00261283	-0.000291284	
0.000360438	-0.00261162	-0.000354358	
-0.00101308	-0.00215601	0.000664104	
-0.000184033	-0.00259859	0.000102732	
-0.000802333	-0.00259307	0.000704535	
-0.00067119	-0.00248491	0.00048825	
-0.000465917	-0.00254496	0.000309086	
0.000191978	-0.00258502	-0.000275995	
-0.00306559	-0.00122818	0.00196212	
-0.00110105	-0.0020482	0.00067943	
-0.00122233	-0.00186257	0.000696868	
-0.000100752	-0.00254031	-5.24464e-05	
-0.000362386	-0.0018606	-0.000101593	
-7.00564e-05	-0.00257056	2.00939e-06	
-0.000482904	-0.00149504	-0.000326587	
-3.57665e-05	-0.00259837	3.89558e-06	
-0.000271624	-0.00205393	-0.000117296	
-7.36067e-05	-0.0025604	-4.15244e-05	
-0.0154738	0.00416936	0.00143978	
-0.000819138	-0.00231564	0.000556254	
-0.00036511	-0.00108769	-0.000410605	
-0.000187022	-0.00227654	-0.000106443	
0.0209583	0.00592027	-0.00145152	
0.00288444	-0.00119093	-0.00174264	
0.000574807	-0.00207383	-0.00036498	
-2.06912e-05	-0.0021667	0.000122116	
-3.26832e-05	-0.00234208	2.63768e-05	
0.000109613	-0.00212713	1.61608e-05	
0.00109631	-0.00230555	-0.000943925	
-0.00128039	-0.00230951	0.00112528	
0.000121446	-0.00195365	4.45475e-05	
-7.03516e-05	-0.00230265	8.43877e-05	
0.000617495	-0.00231471	-0.00052585	
0.00083524	-0.00217896	-0.000639846	
5.2709e-05	-0.00226529	8.05577e-06	
0.000195101	-0.00225585	-0.000106293	
4.64547e-05	-0.00228474	1.39511e-05	
0.00178936	-0.00124163	-0.000898787	
0.000481114	-0.00185053	-0.000180957	
0.00134118	-0.00155207	-0.000723371	
0.000237275	-0.00181459	8.09399e-05	
1.71218e-05	-0.00227543	-5.99209e-06	
0.00273876	-0.00095621	-0.00127561	
6.46944e-06	-0.00230774	2.992e-06	
0.000109136	-0.00233924	-7.37331e-05	
0.00361622	8.35452e-05	-0.000282187	
8.54769e-05	-0.00224634	1.24603e-05	
0.00351338	-0.000354311	-0.000662486	
0.00089218	-0.00194617	-0.000645693	
-2.78767e-07	-0.0023119	8.94753e-06	
0.000118025	-0.00205651	6.57272e-06	
0.000313256	-0.00112276	0.000354781	
2.40408e-05	-0.00234535	3.91671e-05	
-0.00551666	-0.000182997	0.00202092	
-0.000269408	-0.00209132	8.42309e-05	
7.61631e-05	-0.00216539	-0.000168566	
-0.00869439	0.00172085	0.00129264	
0.000405046	-0.00234547	-0.000310748	
-0.000111233	-0.00212588	-2.64033e-05	
-0.000418957	-0.00234822	0.000383445	
0.000312051	-0.00233866	-0.000273338	
0.000371337	-0.00233722	-0.000333815	
-0.00118393	-0.00181708	0.000809655	
-0.000194313	-0.002304	0.000124714	
-0.000827412	-0.00231773	0.000704351	
-0.000720273	-0.00217931	0.000536827	
-0.000495148	-0.00224474	0.000351271	
0.000193419	-0.00228968	-0.000229967	
-0.00336549	-0.00108375	0.0018826	
-0.00116935	-0.00175053	0.000748131	
-0.00135029	-0.00159358	0.000772428	
-9.18227e-05	-0.00224532	-1.46637e-05	
-0.00026491	-0.00161757	-9.0888e-05	
-5.34977e-05	-0.00229138	6.13496e-06	
-0.000363192	-0.0012887	-0.000322056	
-3.00239e-05	-0.0023264	4.13453e-06	
-0.000209135	-0.00179088	-7.25846e-05	
-6.59506e-05	-0.0022684	-1.33507e-05	
-0.0160721	0.00453649	0.00111731	
-0.000903299	-0.00199886	0.000616471	
-0.000301838	-0.000916631	-0.000378738	
-0.000186771	-0.00199212	-3.54086e-06	
0.0217904	0.00599494	-0.00082774	
0.00327729	-0.00102621	-0.00126309	
0.000668983	-0.00177545	-0.000330422	
1.93912e-05	-0.00187416	6.82649e-05	
-2.88548e-05	-0.00207865	2.33535e-05	
7.13682e-05	-0.0018299	4.31634e-05	
0.00120307	-0.00205406	-0.000819601	
-0.0014143	-0.00205517	0.000964707	
0.000183315	-0.00165082	5.59351e-06	
-9.39787e-05	-0.00204959	7.86673e-05	
0.000697932	-0.0020573	-0.000449136	
0.000948519	-0.00191453	-0.000567506	
5.51605e-05	-0.00202595	4.85811e-06	
0.000210943	-0.0020194	-9.59377e-05	
2.74696e-05	-0.00203748	1.90421e-05	
0.001981	-0.00105319	-0.000605624	
0.000523949	-0.00155572	-0.00013875	
0.00148322	-0.00130642	-0.000471685	
0.000171076	-0.00152349	0.000127518	
1.34581e-05	-0.00202589	-1.45185e-06	
0.00300996	-0.000798838	-0.000854777	
3.89939e-06	-0.00205909	1.3198e-06	
0.000106844	-0.00207386	-5.65372e-05	
0.00375884	0.000225682	-0.000151408	
6.29848e-05	-0.0020024	2.38183e-05	
0.00370476	-0.000207914	-0.000467758	
0.00100035	-0.0016587	-0.000528307	
-2.21303e-06	-0.00205343	4.25347e-06	
8.4454e-05	-0.00175047	2.79646e-05	
0.000215435	-0.000915033	0.000389446	
1.30748e-06	-0.00207931	4.67321e-05	
-0.00599396	-0.000105662	0.00148537	
-0.000320084	-0.00178382	7.84012e-05	
4.27243e-05	-0.00186967	-0.000103541	
-0.00913444	0.00186985	0.00100921	
0.000433484	-0.00208328	-0.000255227	
-7.77595e-05	-0.00182486	-5.28258e-05	
-0.000472986	-0.00208562	0.000333315	
0.000331467	-0.00208186	-0.000219387	
0.000409653	-0.00207394	-0.000274673	
-0.00135426	-0.00155053	0.000688816	
-0.000205986	-0.00204566	9.98421e-05	
-0.000921378	-0.0020573	0.000589272	
-0.000818518	-0.00190867	0.000485171	
-0.000544285	-0.00200622	0.000303892	
0.000233901	-0.00203153	-0.000201559	
-0.00381534	-0.000925471	0.00137829	
-0.00128337	-0.00147384	0.000621545	
-0.00157498	-0.00132864	0.000567778	
-6.79213e-05	-0.00199438	-2.09011e-05	
-0.000178562	-0.00135001	-0.000173697	
-3.97582e-05	-0.00203349	-9.94894e-06	
-0.000238837	-0.00105879	-0.000374064	
-2.13984e-05	-0.00206043	-4.63666e-06	
-0.000149457	-0.00150615	-0.000105665	
-3.97101e-05	-0.00202201	-2.40349e-05	
-0.0166684	0.00451803	0.000801108	
-0.000982863	-0.00170463	0.000515467	
-0.000215484	-0.000753852	-0.000373644	
-0.000126482	-0.00168957	-6.20183e-05	
0.0225776	0.00581655	-0.000368017	
0.00347098	-0.00086634	-0.00124065	
0.000778058	-0.00156698	-0.000294696	
0.000102201	-0.00165972	2.51233e-05	
-3.48613e-05	-0.00188198	2.52041e-05	
6.19802e-05	-0.00161992	5.44028e-05	
0.00130689	-0.00187324	-0.000666264	
-0.00151338	-0.00187505	0.000793146	
0.000280257	-0.00145287	-1.60447e-05	
-8.48512e-05	-0.00183873	5.61402e-05	
0.000772056	-0.00185698	-0.000391061	
0.00106771	-0.00169993	-0.000487472	
7.94403e-05	-0.00181777	-3.99571e-06	
0.000245606	-0.00180463	-8.05416e-05	
2.77371e-05	-0.00182548	2.00927e-05	
0.00208843	-0.000899391	-0.000599092	
0.000570193	-0.00136402	-0.000120037	
0.00155812	-0.0011329	-0.000479092	
0.000146112	-0.00133756	0.000136888	
1.41977e-05	-0.00182844	-8.54449e-07	
0.00313801	-0.000667801	-0.000859312	
2.60749e-06	-0.00187385	7.7349e-06	
0.000110296	-0.00187444	-3.81476e-05	
0.00389417	0.000270454	-0.000108842	
5.21485e-05	-0.00178348	3.76197e-05	
0.003859	-8.55166e-05	-0.000472914	
0.00109303	-0.00146518	-0.000456887	
2.27728e-06	-0.00186031	3.38844e-06	
6.68641e-05	-0.00154618	5.27684e-05	
0.000183748	-0.000804667	0.000352646	
-1.2071e-05	-0.00187832	5.17148e-05	
-0.0062728	3.93008e-05	0.00152346	
-0.000395453	-0.00157968	8.19955e-05	
-3.25105e-05	-0.00166092	-5.82745e-05	
-0.00955607	0.00180856	0.000793854	
0.000468055	-0.00188529	-0.000207606	
-6.67242e-05	-0.00162007	-6.04815e-05	
-0.000515005	-0.00189402	0.000281579	
0.000349757	-0.00188988	-0.000181196	
0.000417698	-0.00188587	-0.000227975	
-0.00153186	-0.00137094	0.000608589	
-0.000243286	-0.00183693	8.98834e-05	
-0.000999302	-0.00185958	0.000496324	
-0.000933561	-0.00169759	0.000418523	
-0.000618251	-0.00179534	0.000268827	
0.000243595	-0.00182448	-0.000171441	
-0.00402954	-0.000772647	0.00139594	
-0.00139573	-0.0013025	0.000500092	
-0.00171371	-0.00115096	0.000590151	
-5.75352e-05	-0.00178203	-3.70421e-05	
-0.000153676	-0.00118337	-0.000171628	
-3.06187e-05	-0.00183588	-2.10668e-05	
-0.000201551	-0.000932234	-0.000344339	
-1.71621e-05	-0.00186502	-1.18636e-05	
-0.000129344	-0.00132556	-0.00011948	
-3.59784e-05	-0.00181917	-3.05874e-05	
-0.0172273	0.00435843	0.000374491	
-0.00106571	-0.0015138	0.000415761	
-0.000179761	-0.000662755	-0.000343349	
-0.000103461	-0.0014999	-8.1414e-05	
0.0232912	0.00584914	-0.000407549	
0.00385448	-0.0010113	-0.001349	
0.000847432	-0.00171434	-0.000304889	
0.000202861	-0.0018087	-1.07275e-05	
-1.70813e-05	-0.00194561	1.83829e-05	
7.03952e-05	-0.00175924	6.66906e-05	
0.00131098	-0.00193127	-0.0006581	
-0.00156279	-0.00196657	0.000814223	
0.000340519	-0.00167204	-1.36829e-05	
-8.85971e-05	-0.00195704	6.17319e-05	
0.000814811	-0.00196607	-0.00040835	
0.00111557	-0.00183632	-0.000494533	
0.000140816	-0.00192915	-3.04371e-05	
0.000258947	-0.00189607	-8.09924e-05	
3.06198e-05	-0.00194786	2.38984e-05	
0.00227973	-0.000993914	-0.000628977	
0.000621274	-0.00162152	-9.84888e-05	
0.00167169	-0.00140979	-0.000466796	
0.000179338	-0.00161189	0.000178541	
1.59043e-05	-0.00192987	2.2571e-06	
0.00331781	-0.000714503	-0.000876302	
3.42612e-06	-0.00194179	7.93792e-06	
0.000106984	-0.00194358	-3.36442e-05	
0.00405284	0.000301242	-0.000134245	
5.69303e-05	-0.00189319	4.43172e-05	
0.00403986	-5.18012e-05	-0.000513421	
0.00113946	-0.00165374	-0.000452037	
3.74468e-06	-0.00197877	4.66567e-06	
7.75508e-05	-0.00171253	6.79605e-05	
0.000192624	-0.000837985	0.000370364	
-2.18103e-05	-0.00194002	5.86994e-05	
-0.0065959	9.57074e-05	0.0016349	
-0.000455697	-0.00174208	8.62297e-05	
-0.00012999	-0.00182895	-2.48829e-05	
-0.00993819	0.00188722	0.000810405	
0.000470602	-0.00193945	-0.000205272	
-7.66174e-05	-0.00177441	-7.77515e-05	
-0.000511597	-0.00194023	0.000278935	
0.00038166	-0.00194264	-0.000196516	
0.000428165	-0.0019762	-0.000233138	
-0.00161596	-0.00161854	0.000608352	
-0.000253421	-0.00196754	8.84761e-05	
-0.00103177	-0.00197958	0.000504986	
-0.000975698	-0.00184869	0.000420907	
-0.000675126	-0.00189663	0.000287244	
0.000223414	-0.00195593	-0.000165415	
-0.00434966	-0.000841524	0.00148201	
-0.00149465	-0.00157692	0.000492215	
-0.00202005	-0.00131897	0.000684817	
-6.29022e-05	-0.00189889	-4.55519e-05	
-0.000176026	-0.00132671	-0.000203262	
-3.30635e-05	-0.00194537	-2.4632e-05	
-0.0002153	-0.000979227	-0.000364255	
-1.93572e-05	-0.00198187	-1.4113e-05	
-0.000159834	-0.00160735	-0.000158121	
-3.98095e-05	-0.00194234	-3.65956e-05	
-0.0177361	0.00430658	0.00040956	
-0.00110831	-0.00170026	0.000406286	
-0.000186067	-0.000676873	-0.000342714	
-0.000121808	-0.00170542	-0.00010703	
0.0239203	0.00599592	-0.000443339	
0.00409053	-0.000858456	-0.00146422	
0.001007	-0.00182183	-0.000362601	
0.000272161	-0.0019413	-3.16137e-05	
3.72971e-05	-0.0021997	-7.30169e-06	
8.01061e-05	-0.00190666	8.08146e-05	
0.00131352	-0.00219326	-0.000647101	
-0.00148333	-0.002186	0.000764039	
0.000549272	-0.0016508	-0.000107268	
-5.08965e-05	-0.00211335	4.41209e-05	
0.000817863	-0.00211614	-0.000405176	
0.00114374	-0.00195202	-0.000494437	
0.000189491	-0.00206263	-5.14905e-05	
0.000321711	-0.00204587	-0.00010625	
3.4016e-05	-0.00208539	2.61197e-05	
0.00242907	-0.000887034	-0.000689969	
0.000679396	-0.00149547	-0.00013367	
0.00174319	-0.0012219	-0.00052887	
0.000165774	-0.00145223	0.000163426	
1.85708e-05	-0.00210506	2.40548e-06	
0.00346516	-0.000621854	-0.000932149	
4.47551e-06	-0.00219948	1.02752e-05	
0.000116025	-0.00223624	-3.4254e-05	
0.00417833	0.000418004	-0.000193936	
6.1521e-05	-0.00199653	4.78173e-05	
0.00419735	7.82185e-05	-0.000594739	
0.00119954	-0.00168638	-0.000463088	
4.44829e-06	-0.00212148	4.85839e-06	
8.47678e-05	-0.00177001	7.83115e-05	
0.000183225	-0.000779835	0.000334038	
-6.49171e-05	-0.0022421	9.00653e-05	
-0.00688994	0.000257001	0.00177056	
-0.000622235	-0.00183515	0.000151224	
-0.000245923	-0.00197448	1.86285e-05	
-0.010264	0.00207909	0.000890385	
0.000467848	-0.00220712	-0.000197354	
-8.76739e-05	-0.001929	-9.20115e-05	
-0.00048338	-0.0022026	0.000262795	
0.00036917	-0.00222384	-0.000187787	
0.000368086	-0.0022161	-0.000200776	
-0.00185112	-0.00156727	0.000710534	
-0.000298575	-0.00213884	0.000104872	
-0.00103806	-0.00214811	0.000500345	
-0.000977545	-0.00202235	0.000402438	
-0.000747336	-0.00206995	0.000313184	
0.000192355	-0.00211634	-0.000153683	
-0.00462918	-0.000705353	0.00160132	
-0.00159266	-0.00143101	0.000546347	
-0.00219645	-0.00119811	0.000778528	
-6.96516e-05	-0.00203743	-5.11976e-05	
-0.000169697	-0.00124533	-0.00019176	
-3.78228e-05	-0.00213806	-2.78616e-05	
-0.000206569	-0.00091723	-0.000333563	
-2.19984e-05	-0.00215617	-1.45387e-05	
-0.000145846	-0.00143105	-0.000145025	
-4.44313e-05	-0.0020965	-4.11041e-05	
-0.0181662	0.00442415	0.000273785	
-0.00115967	-0.00174636	0.000414778	
-0.000175768	-0.000621848	-0.000308854	
-0.000129277	-0.00173631	-0.000116329	
0.0244203	0.00621992	-0.000638036	
0.00423856	-0.000542909	-0.00158141	
0.00102717	-0.00141048	-0.000395429	
0.000320225	-0.00143295	-7.99679e-05	
4.73787e-05	-0.00160106	-1.56972e-05	
6.25765e-05	-0.00143468	6.32338e-05	
0.00135429	-0.00155254	-0.000670471	
-0.00151878	-0.00151855	0.000777528	
0.00061595	-0.00122482	-0.000174896	
-3.21369e-05	-0.00148692	3.00994e-05	
0.000875062	-0.00155338	-0.000436606	
0.00112536	-0.00148106	-0.000499819	
0.00019413	-0.00145587	-6.69764e-05	
0.000272493	-0.00145562	-9.69665e-05	
2.436e-05	-0.00146615	2.0264e-05	
0.00251662	-0.000629294	-0.000783739	
0.000697202	-0.00117584	-0.000179445	
0.00181402	-0.000903908	-0.000616036	
0.000133645	-0.00115876	0.00012892	
1.39292e-05	-0.00148051	1.98113e-06	
0.00354405	-0.000392953	-0.00103997	
3.54559e-06	-0.0015206	7.1622e-06	
0.000127516	-0.00156364	-4.82145e-05	
0.00426687	0.000567822	-0.000289043	
4.6791e-05	-0.00149935	3.6867e-05	
0.00429627	0.000251065	-0.000699991	
0.00131304	-0.00124827	-0.000537604	
3.1199e-06	-0.00154859	4.83603e-06	
7.09147e-05	-0.00141119	6.55307e-05	
0.000149427	-0.000628622	0.000260649	
-2.73362e-05	-0.00158037	5.16379e-05	
-0.00711539	0.000454442	0.00190507	
-0.000689646	-0.00152867	0.000206003	
-0.000310037	-0.00160198	6.5886e-05	
-0.0105373	0.00229625	0.000982669	
0.000466331	-0.00163173	-0.000208682	
-7.36821e-05	-0.00155571	-7.48543e-05	
-0.000514607	-0.00163626	0.000274398	
0.000365289	-0.001605	-0.000187071	
0.000412204	-0.0016062	-0.000221087	
-0.00191312	-0.0012217	0.000765719	
-0.000302218	-0.00162218	0.000116635	
-0.00105704	-0.00166552	0.000516571	
-0.000999006	-0.00161516	0.000425	
-0.000687745	-0.00161855	0.00029528	
0.000202728	-0.00161578	-0.000146792	
-0.00488113	-0.000508426	0.00173682	
-0.00160445	-0.00120676	0.000577179	
-0.00238205	-0.00112665	0.000868833	
-5.72809e-05	-0.00167395	-4.33386e-05	
-0.000151228	-0.00109513	-0.000166509	
-2.99096e-05	-0.00161136	-2.06946e-05	
-0.000179857	-0.000790033	-0.00027625	
-1.71298e-05	-0.00164579	-1.16083e-05	
-0.000131911	-0.00128411	-0.000127485	
-3.53392e-05	-0.00162157	-3.23834e-05	
-0.018538	0.00456578	0.000372024	
-0.00125661	-0.00144233	0.000485156	
-0.000158186	-0.000546472	-0.00026423	
-0.000105815	-0.00137321	-9.31686e-05	
0.0250109	0.00631901	-0.000837914	
0.00435398	-0.000690345	-0.00158622	
0.00122733	-0.00137583	-0.000485275	
0.00036084	-0.0015487	-8.62277e-05	
5.8497e-05	-0.00135514	-2.18326e-05	
6.77002e-05	-0.00151246	7.25702e-05	
0.00134234	-0.00134883	-0.000654921	
-0.00159026	-0.00140431	0.000798895	
0.000735414	-0.00123414	-0.000227404	
-5.74295e-05	-0.00151147	4.51572e-05	
0.000821332	-0.00148317	-0.000400751	
0.00113716	-0.00152775	-0.000493638	
0.000164193	-0.00153036	-4.75743e-05	
0.000278936	-0.00155394	-9.36931e-05	
2.62479e-05	-0.00151811	2.11497e-05	
0.00265648	-0.000731264	-0.000799894	
0.000738233	-0.00115744	-0.000199364	
0.0018802	-0.000924049	-0.000641556	
0.000131695	-0.0011446	0.000125639	
1.51662e-05	-0.0014836	4.25119e-06	
0.00370049	-0.000489085	-0.00105168	
3.44778e-06	-0.0013812	5.91582e-06	
0.00013262	-0.00135914	-5.51304e-05	
0.00441326	0.000560523	-0.000312623	
4.87377e-05	-0.00155739	4.13687e-05	
0.00446725	0.00023111	-0.000744311	
0.00135681	-0.00125234	-0.000550235	
2.88616e-06	-0.00143586	4.67681e-06	
6.88762e-05	-0.00133323	6.48658e-05	
0.000175664	-0.000736413	0.000292249	
-3.50744e-05	-0.00136588	4.5682e-05	
-0.00734072	0.000556424	0.00201979	
-0.000810887	-0.00118018	0.000290332	
-0.000370374	-0.00126082	0.000109406	
-0.0108222	0.00243674	0.001092	
0.000474353	-0.00136648	-0.000217077	
-6.16727e-05	-0.00126481	-6.30322e-05	
-0.00050765	-0.00137485	0.00026313	
0.000396517	-0.00138509	-0.000201536	
0.000449895	-0.00141684	-0.000238153	
-0.00201513	-0.000949835	0.000831603	
-0.000356537	-0.00152097	0.000143046	
-0.000965055	-0.00149567	0.000463884	
-0.00104595	-0.00131559	0.000454076	
-0.000762961	-0.00143214	0.000335339	
0.000171319	-0.00149316	-0.000126455	
-0.00500553	-0.000396481	0.00181125	
-0.00164484	-0.000908503	0.00062875	
-0.00237853	-0.000735456	0.000930062	
-4.65497e-05	-0.00139345	-3.70652e-05	
-0.000127127	-0.000919278	-0.000134797	
-2.93149e-05	-0.00153013	-2.03311e-05	
-0.000171764	-0.000756402	-0.000254498	
-1.54151e-05	-0.00144894	-1.13802e-05	
-9.73642e-05	-0.000958326	-9.35801e-05	
-3.2396e-05	-0.00146491	-2.9652e-05	
-0.0188831	0.00468431	0.000464669	
-0.00127402	-0.00109576	0.000517183	
-0.00015515	-0.00053071	-0.000244729	
-8.6604e-05	-0.00110885	-7.52862e-05	
0.025505	0.00640907	-0.00109691	
0.00451311	-0.000489623	-0.00168709	
0.00132382	-0.00134108	-0.000525307	
0.000420663	-0.00139992	-0.000120236	
0.000155413	-0.0018586	-6.71153e-05	
6.25977e-05	-0.00138407	6.68443e-05	
0.00136456	-0.00179086	-0.000649396	
-0.00155456	-0.00173699	0.000769016	
0.000882727	-0.00112467	-0.000304293	
0.000101884	-0.00161848	-2.77826e-05	
0.000858646	-0.00173073	-0.000409893	
0.00115161	-0.00142978	-0.000492783	
0.000213133	-0.00153166	-6.78854e-05	
0.000341216	-0.00152217	-0.000122578	
2.79842e-05	-0.00156483	2.31869e-05	
0.00274709	-0.000553797	-0.000876005	
0.000741571	-0.00105804	-0.000212122	
0.00192725	-0.000853571	-0.000673439	
0.000121667	-0.0010734	0.000115568	
1.74333e-05	-0.00170035	9.04849e-06	
0.00376256	-0.000307313	-0.00114537	
4.92121e-06	-0.00178349	7.68206e-06	
0.000133504	-0.00187354	-4.99191e-05	
0.00449314	0.000673591	-0.000410056	
4.5542e-05	-0.00146893	4.33114e-05	
0.00456106	0.00037496	-0.00085697	
0.00142789	-0.00118405	-0.000577868	
4.25296e-06	-0.00174459	6.91031e-06	
6.79067e-05	-0.00129849	6.4496e-05	
0.000143024	-0.000607723	0.000227527	
-7.74047e-05	-0.00186981	7.67676e-05	
-0.00755886	0.000650406	0.00213229	
-0.000952509	-0.00143705	0.000333096	
-0.000342045	-0.00148337	8.06427e-05	
-0.0110895	0.00250139	0.00121367	
0.000407406	-0.00183284	-0.000173936	
-7.23791e-05	-0.00148657	-7.47145e-05	
-0.000524677	-0.00176751	0.000267346	
0.000312096	-0.00174714	-0.000156112	
0.000435755	-0.00166976	-0.000229726	
-0.00218189	-0.00111369	0.000881151	
-0.000501847	-0.00146765	0.000210582	
-0.0010606	-0.00161526	0.00050145	
-0.0010256	-0.00143351	0.000429653	
-0.000771059	-0.00143754	0.000332816	
0.000165875	-0.00143632	-0.000122429	
-0.00534715	-0.000394342	0.0019421	
-0.00168722	-0.00107131	0.000619991	
-0.00245646	-0.000933187	0.000925703	
-4.66691e-05	-0.00143307	-4.16329e-05	
-0.000149689	-0.00110135	-0.000156393	
-3.1466e-05	-0.00155663	-2.18699e-05	
-0.000165556	-0.000743534	-0.000236464	
-1.82917e-05	-0.0016542	-1.42556e-05	
-0.000115126	-0.00115817	-0.00011025	
-3.18888e-05	-0.00143485	-2.94449e-05	
-0.0192613	0.00471141	0.000617366	
-0.00136117	-0.00132267	0.000531452	
-0.000151638	-0.000518169	-0.000227086	
-0.000101764	-0.0013034	-8.76168e-05	
0.0258894	0.00645606	-0.00139855	
0.00445621	-0.000122341	-0.00172654	
0.00132484	-0.000812017	-0.000553837	
0.000581538	-0.000900456	-0.000224006	
6.47593e-05	-0.00118894	-2.57819e-05	
3.84463e-05	-0.0008666	4.13523e-05	
0.00140527	-0.00124044	-0.000663896	
-0.00157629	-0.00127724	0.000765526	
0.000886913	-0.00076329	-0.000334811	
0.00010359	-0.00116439	-3.40411e-05	
0.00093597	-0.00118443	-0.000446287	
0.00125088	-0.00101116	-0.000548816	
0.000248777	-0.00114381	-9.41544e-05	
0.000320199	-0.00111673	-0.00012278	
2.11719e-05	-0.00115454	1.79225e-05	
0.00281916	-0.000338685	-0.000950927	
0.000802443	-0.000736619	-0.000276778	
0.00196585	-0.000446952	-0.000752199	
7.51103e-05	-0.00068656	7.13333e-05	
1.24236e-05	-0.00115188	7.77727e-06	
0.00380955	-0.000112797	-0.00123397	
3.68825e-06	-0.00121781	5.37839e-06	
0.000133126	-0.0011636	-5.46548e-05	
0.00454346	0.000785865	-0.000518944	
3.44133e-05	-0.00113657	3.36895e-05	
0.0046131	0.000512627	-0.000982868	
0.0014908	-0.000737216	-0.000626671	
3.52253e-06	-0.00122572	7.13734e-06	
4.41788e-05	-0.000858328	4.16967e-05	
0.000102613	-0.000448855	0.000158139	
-5.94192e-05	-0.00117049	5.28963e-05	
-0.00765999	0.000847974	0.00228812	
-0.000931537	-0.000837067	0.00036939	
-0.000485996	-0.00091379	0.000182629	
-0.0112593	0.00261583	0.00141726	
0.000486126	-0.00120054	-0.000218837	
-4.20019e-05	-0.00087996	-4.33968e-05	
-0.000562677	-0.00127774	0.000281261	
0.000362963	-0.0012447	-0.000179449	
0.000379552	-0.00129519	-0.000196516	
-0.0022193	-0.000671371	0.000928863	
-0.000521833	-0.00115223	0.00022306	
-0.00114875	-0.00118041	0.000542132	
-0.00111659	-0.00101338	0.00048693	
-0.000765897	-0.00110357	0.000335118	
0.000154419	-0.00114478	-0.000106674	
-0.00535453	-4.79911e-05	0.00203751	
-0.00176078	-0.000659028	0.000694696	
-0.00251569	-0.000427954	0.00102608	
-3.54937e-05	-0.00113504	-3.3151e-05	
-7.5865e-05	-0.000576629	-7.84752e-05	
-2.37964e-05	-0.00115164	-1.70077e-05	
-0.000108906	-0.000507353	-0.000152349	
-1.43834e-05	-0.00123596	-1.08622e-05	
-6.4926e-05	-0.000676311	-6.19335e-05	
-2.50507e-05	-0.00113022	-2.35433e-05	
-0.019542	0.00474494	0.000892624	
-0.00140825	-0.000825196	0.000588935	
-0.000107579	-0.000371751	-0.000149668	
-6.21876e-05	-0.000810592	-5.39144e-05	
0.0264835	0.0062856	-0.00174899	
0.00460073	-0.00041604	-0.00171716	
0.0014074	-0.00122655	-0.000552435	
0.000647497	-0.00128492	-0.000230871	
-2.23191e-05	-0.00148812	1.68733e-05	
5.51326e-05	-0.00128106	5.9112e-05	
0.00139808	-0.00153182	-0.000643866	
-0.0014848	-0.00151154	0.000706885	
0.00116109	-0.00114217	-0.000423332	
7.26739e-05	-0.00147534	-1.3904e-05	
0.000979588	-0.00145058	-0.000454174	
0.00130954	-0.00130387	-0.000552578	
0.000253224	-0.00148845	-8.77791e-05	
0.000444088	-0.00146947	-0.000168312	
2.63415e-05	-0.00146484	2.15576e-05	
0.00287579	-0.000535837	-0.00092093	
0.000879496	-0.00099225	-0.000280408	
0.00207486	-0.000745218	-0.000748748	