<VTKFile type="UnstructuredGrid" version="0.1" byte_order="LittleEndian">
	<UnstructuredGrid>
		<Piece NumberOfPoints="960" NumberOfCells="960">
			<CellData Scalars="scalars">
				<DataArray type="Float64" Name="Strength" NumberOfComponents="3" Format="ascii">
0.0171513	-0.0109273	0.000180975	
0.0024788	-0.0237097	0.00261727	
0.000639119	-0.0252418	0.00072957	
-0.000161549	-0.0264848	0.000885343	
-0.000433905	-0.0260797	0.000356315	
0.000355394	-0.0258211	0.000702558	
0.00118243	-0.0264591	-0.000414414	
-0.00145473	-0.0257292	0.000838133	
-7.73466e-07	-0.0251381	0.00173358	
0.000169836	-0.0254779	0.000164094	
0.000787718	-0.026418	-0.000366658	
0.00103234	-0.0254558	5.85016e-05	
0.00012746	-0.026806	0.000369333	
0.000406925	-0.0263057	0.000370969	
0.000237844	-0.026111	0.000280053	
0.00125847	-0.0223059	0.00402625	
0.00078841	-0.0254637	0.00186118	
0.00136338	-0.0242705	0.00258865	
0.00067975	-0.0253027	0.00250939	
0.000193589	-0.0259242	3.52405e-05	
0.00210174	-0.0212627	0.00483276	
-9.47497e-06	-0.0252196	0.000119336	
-9.0546e-05	-0.0259979	0.000219061	
0.00331213	-0.0147835	0.00504869	
0.000336483	-0.0261762	0.000502464	
0.00260301	-0.0171296	0.00564534	
0.00111608	-0.0249774	0.000707002	
0.000102049	-0.0267262	-7.68478e-05	
0.000455159	-0.0256641	0.00100439	
0.000262698	-0.0191717	0.00611868	
5.82564e-05	-0.0260334	0.000362393	
-0.00398435	-0.0191406	-0.00488357	
-0.000373848	-0.0254959	-0.00113903	
9.88876e-05	-0.0264649	-0.00084796	
-0.00713672	-0.0149406	-0.00406578	
0.000457062	-0.0262294	-3.15388e-05	
-0.000397127	-0.0259145	-0.000765459	
-0.000601935	-0.0267106	0.000303182	
0.000362367	-0.0261634	-0.000201595	
0.00054361	-0.0265971	-0.000333182	
-0.00098594	-0.0248624	-0.00140436	
-0.000162697	-0.0255651	-0.000284082	
-0.000934892	-0.026564	0.00024812	
-0.00094174	-0.025552	-0.00013567	
-0.000854961	-0.0261784	-0.00017941	
0.000254926	-0.026108	-0.000561355	
-0.00257761	-0.0222871	-0.00343378	
-0.00128418	-0.0248817	-0.00163768	
-0.00102989	-0.0237062	-0.00240214	
-0.00043488	-0.0261035	-0.000483063	
-0.000457134	-0.0236882	-0.00339167	
-9.54017e-05	-0.0260216	-0.000306743	
-0.000450504	-0.0208519	-0.00574356	
-1.9268e-05	-0.0271024	-0.00013965	
-0.000538724	-0.0242719	-0.00235196	
-0.000217781	-0.0266104	-0.000430914	
-0.0137247	-0.0112693	-0.000809548	
-0.00108618	-0.0260616	-0.00091037	
-0.000788579	-0.0170225	-0.00669845	
-0.000467152	-0.0253534	-0.00149668	
0.0184115	0.000595146	-0.00389469	
0.00236613	-0.00405101	-0.000836639	
0.000388524	-0.00486765	-5.79251e-05	
-0.000248226	-0.00493384	0.000328659	
-0.000154418	-0.00521189	0.000144795	
8.34111e-05	-0.00490044	0.000111873	
0.00111424	-0.00511651	-0.000751037	
-0.00134018	-0.00513404	0.000973596	
-0.000226724	-0.00466701	0.000494765	
-6.41105e-05	-0.0051138	8.85104e-05	
0.00061563	-0.00506818	-0.000434654	
0.000745506	-0.00506563	-0.000415236	
-4.87905e-05	-0.00505251	0.000124881	
0.000150974	-0.00510429	-1.40713e-06	
4.10255e-05	-0.00507432	6.16894e-05	
0.0014069	-0.00378564	-4.10171e-05	
0.000358601	-0.00454683	0.000182736	
0.00108725	-0.00420629	-0.000103325	
0.000221968	-0.00447625	0.000406612	
3.38874e-05	-0.00496286	2.95645e-07	
0.00228322	-0.00346144	-0.000356479	
-2.30152e-06	-0.00503837	2.05252e-05	
6.87418e-05	-0.00523661	-4.58255e-06	
0.00309552	-0.00187105	-0.000147145	
6.92476e-05	-0.0051411	8.79062e-05	
0.00286693	-0.0024321	-0.000208838	
0.000746157	-0.00473464	-0.000258919	
9.17462e-07	-0.00510018	-6.21299e-06	
9.69171e-05	-0.00482238	0.000160597	
0.000316221	-0.00301328	0.000839038	
2.57242e-05	-0.00526809	7.23912e-05	
-0.00443335	-0.00298862	0.00115405	
-7.46968e-05	-0.00490473	-0.000210171	
0.000301014	-0.00496261	-0.000360359	
-0.00728932	-0.00154164	0.00167797	
0.000421598	-0.00525006	-0.000250237	
-7.55849e-05	-0.00491557	-0.000136462	
-0.000465673	-0.0052104	0.000348018	
0.000349757	-0.00516947	-0.000253473	
0.000434418	-0.00518837	-0.000323983	
-0.000797628	-0.00458954	0.000151945	
-0.000150219	-0.00511963	2.75221e-05	
-0.000826512	-0.00517962	0.000550809	
-0.000611683	-0.00503113	0.000314011	
-0.000454336	-0.00508702	0.00019662	
0.000302707	-0.00504542	-0.000317121	
-0.00269849	-0.0038339	0.000838004	
-0.000967337	-0.00450025	0.000200835	
-0.000918318	-0.00428818	3.56093e-05	
-6.90707e-05	-0.00513629	-9.49069e-05	
-0.000253097	-0.00402329	-0.000514616	
-4.95747e-05	-0.00505229	-4.4163e-05	
-0.00034595	-0.00340176	-0.000826685	
-2.0652e-05	-0.00516301	-2.25446e-05	
-0.000202173	-0.00434967	-0.000388268	
-4.69699e-05	-0.0050586	-7.95645e-05	
-0.0142896	5.7972e-05	0.00314555	
-0.000764264	-0.00486517	0.000244866	
-0.000359995	-0.00246866	-0.000838434	
-0.000139599	-0.00474115	-0.000241223	
0.0191822	0.0030494	-0.00376365	
0.00243887	-0.00150542	-0.00134544	
0.000404135	-0.00210525	-0.00019466	
-0.000204839	-0.00217579	0.000216816	
-0.000105307	-0.00235362	8.28061e-05	
5.40836e-05	-0.00213838	3.41077e-05	
0.0011413	-0.00231789	-0.000784331	
-0.00136355	-0.00231817	0.00096454	
-0.000173185	-0.00199419	0.000253805	
-8.80875e-05	-0.00230591	8.05757e-05	
0.000629961	-0.00231032	-0.000442331	
0.000762697	-0.00222219	-0.000494102	
-4.04738e-05	-0.00226843	6.9396e-05	
0.000141518	-0.00227728	-5.15382e-05	
2.21118e-05	-0.00229372	2.56104e-05	
0.00144211	-0.00146514	-0.000611851	
0.000343457	-0.00191996	-7.25652e-05	
0.00108973	-0.00170374	-0.000507008	
0.000150519	-0.00188537	0.000111429	
1.1799e-05	-0.00226462	1.08284e-06	
0.0023492	-0.00125056	-0.000993872	
2.05174e-06	-0.00230259	4.99485e-06	
8.60992e-05	-0.00236368	-4.19166e-05	
0.00314796	-0.000368596	-0.000588143	
4.20178e-05	-0.00227864	3.33384e-05	
0.00297685	-0.00067538	-0.000756145	
0.000757685	-0.00202274	-0.000440147	
-4.80401e-06	-0.00231346	2.31011e-06	
6.37569e-05	-0.00209026	4.60465e-05	
0.000216096	-0.00123132	0.000254484	
1.49885e-05	-0.00237365	3.18666e-05	
-0.00465796	-0.000720788	0.00184697	
-8.11892e-05	-0.00213047	-5.63002e-05	
0.000260872	-0.00218133	-0.000258061	
-0.00759609	0.000478785	0.00198048	
0.000420514	-0.00236858	-0.00027138	
-5.40921e-05	-0.00214748	-4.60287e-05	
-0.000461932	-0.00236269	0.000337549	
0.000343445	-0.00235869	-0.000246806	
0.000416432	-0.00235764	-0.000304964	
-0.000873428	-0.00194903	0.000457883	
-0.000154577	-0.0023185	7.69329e-05	
-0.00084307	-0.00234059	0.000586004	
-0.000635447	-0.00222029	0.000398922	
-0.000437117	-0.00227355	0.000251659	
0.000290133	-0.00229847	-0.000249598	
-0.00282973	-0.00136067	0.0014703	
-0.000979246	-0.00188357	0.00049259	
-0.000995772	-0.00173381	0.000453577	
-4.33034e-05	-0.00227825	-3.8233e-05	
-0.000171836	-0.00166463	-0.000121772	
-3.31997e-05	-0.00229657	-9.79658e-06	
-0.00023194	-0.00137722	-0.000247144	
-1.58587e-05	-0.00234162	-3.01834e-06	
-0.000125183	-0.0018402	-0.000103921	
-2.9295e-05	-0.00227452	-3.13969e-05	
-0.0148416	0.00219929	0.00303988	
-0.000772061	-0.00209665	0.000425857	
-0.000222291	-0.00101489	-0.000261282	
-0.000102543	-0.00205479	-6.28581e-05	
0.0202655	0.0038997	-0.00317366	
0.00272616	-0.00166911	-0.00142827	
0.000499353	-0.00237448	-0.000239467	
-0.000140332	-0.0024555	0.000151825	
-7.63485e-05	-0.00261293	4.35247e-05	
6.13454e-05	-0.00241553	2.2512e-05	
0.00120094	-0.00258183	-0.000751638	
-0.00142012	-0.0025813	0.000911781	
-7.00127e-05	-0.0022366	0.000179041	
-9.92077e-05	-0.00259538	7.73643e-05	
0.000662415	-0.00259117	-0.00042049	
0.000836614	-0.00248845	-0.000494423	
-4.05848e-06	-0.00256032	3.40861e-05	
0.000164815	-0.00255409	-6.75338e-05	
2.88516e-05	-0.00258134	1.80056e-05	
0.00163092	-0.00162386	-0.000719263	
0.000402157	-0.00214525	-0.000114447	
0.00121955	-0.00191047	-0.000561765	
0.000159287	-0.00210448	9.96991e-05	
1.11813e-05	-0.00255377	-3.71436e-06	
0.00258263	-0.00135651	-0.00108538	
3.62749e-06	-0.0025762	5.74799e-06	
9.71056e-05	-0.00261153	-5.31579e-05	
0.00339657	-0.000339281	-0.000619144	
4.84808e-05	-0.00254327	2.36809e-05	
0.00325202	-0.000704537	-0.000835068	
0.000823794	-0.00227447	-0.000452055	
-4.20736e-06	-0.00258153	4.73419e-06	
7.30039e-05	-0.00234444	2.68907e-05	
0.000257288	-0.00138517	0.000258815	
1.26905e-05	-0.00261591	3.3094e-05	
-0.00511081	-0.000720908	0.00200131	
-0.000162219	-0.00238856	4.38174e-06	
0.000202906	-0.00245388	-0.000190243	
-0.00818168	0.000736055	0.00200574	
0.000437892	-0.00261896	-0.000255973	
-6.45573e-05	-0.00241746	-3.50813e-05	
-0.000478992	-0.00261815	0.000309434	
0.000350548	-0.00261471	-0.000228291	
0.0004214	-0.0026121	-0.000282015	
-0.00103297	-0.00218225	0.000540195	
-0.000171926	-0.00260066	8.47207e-05	
-0.000885793	-0.00260188	0.000561931	
-0.000704699	-0.00249094	0.000408543	
-0.00048002	-0.00254855	0.000259503	
0.000265834	-0.00258541	-0.000208952	
-0.00316103	-0.00150458	0.00158558	
-0.00110532	-0.00208579	0.000549392	
-0.00119275	-0.00193111	0.000549283	
-4.97462e-05	-0.00254287	-2.60462e-05	
-0.000181576	-0.00188741	-0.000100435	
-3.71909e-05	-0.00257177	1.95906e-06	
-0.00027366	-0.00156243	-0.000247616	
-1.85115e-05	-0.00259923	2.22649e-06	
-0.000130408	-0.00206981	-8.85422e-05	
-3.63594e-05	-0.00256207	-1.95546e-05	
-0.0156218	0.00285889	0.00249226	
-0.000857304	-0.00232417	0.000460027	
-0.000271676	-0.00115837	-0.000266802	
-9.18778e-05	-0.00228462	-6.8916e-05	
0.0211773	0.00402839	-0.00326932	
0.00295575	-0.0014223	-0.00142498	
0.000567199	-0.0020895	-0.000285401	
-9.45223e-05	-0.00216667	0.000101717	
-5.5803e-05	-0.00234247	2.81354e-05	
4.90522e-05	-0.00213026	1.87585e-05	
0.00122738	-0.00231572	-0.000741732	
-0.00144989	-0.00231552	0.000888674	
4.20474e-05	-0.00195788	4.17938e-05	
-9.73175e-05	-0.00230297	6.54332e-05	
0.000692002	-0.002316	-0.000422424	
0.000878555	-0.0021978	-0.000509131	
2.33364e-05	-0.00226653	4.9614e-06	
0.000176697	-0.00225909	-8.32878e-05	
2.23872e-05	-0.00228584	8.13944e-06	
0.00176395	-0.0013854	-0.000724977	
0.000434859	-0.00186567	-0.000149082	
0.001303	-0.00164158	-0.000586176	
0.000124892	-0.00182704	6.99605e-05	
9.92526e-06	-0.00227613	-4.4989e-06	
0.00274503	-0.00113937	-0.00110318	
1.68084e-06	-0.00230844	1.63189e-06	
0.00010013	-0.00234111	-5.24357e-05	
0.00356075	-0.000161969	-0.000661992	
3.81987e-05	-0.00224846	1.39188e-05	
0.00343584	-0.000515179	-0.000909795	
0.000919545	-0.00197436	-0.00051326	
-9.34107e-07	-0.00231276	2.31533e-06	
5.41667e-05	-0.00206008	1.26589e-05	
0.000202308	-0.00118055	0.000227612	
-1.53104e-06	-0.00234638	3.75491e-05	
-0.00548519	-0.000516309	0.00204822	
-0.000213792	-0.00209951	5.98576e-05	
0.000155976	-0.00216431	-0.000135782	
-0.00867063	0.000960743	0.00200015	
0.000437623	-0.00234859	-0.000243301	
-5.10354e-05	-0.00212911	-2.3984e-05	
-0.000488633	-0.00234714	0.000306223	
0.000349776	-0.00234023	-0.000215267	
0.000424859	-0.00233792	-0.000265119	
-0.00119332	-0.00188089	0.000636047	
-0.000188648	-0.00230649	9.72691e-05	
-0.000913202	-0.00232752	0.000555435	
-0.000748338	-0.00219513	0.000428352	
-0.000507371	-0.0022532	0.000277893	
0.00025658	-0.00228861	-0.000181494	
-0.00344856	-0.00128699	0.00158525	
-0.00117763	-0.00180601	0.000591195	
-0.00134563	-0.00166486	0.000618541	
-4.12245e-05	-0.00224762	-1.45315e-05	
-0.000138115	-0.00163393	-9.09371e-05	
-2.89915e-05	-0.00229247	-1.53609e-06	
-0.000207978	-0.00134431	-0.000219928	
-1.59889e-05	-0.00232737	3.05552e-07	
-0.000102111	-0.00180122	-6.57465e-05	
-2.97441e-05	-0.00226991	-1.12747e-05	
-0.0162679	0.00297476	0.00245741	
-0.000911137	-0.00203211	0.000488099	
-0.000222445	-0.000986278	-0.00023261	
-9.13868e-05	-0.00199963	-1.60495e-05	
0.0220273	0.00394045	-0.00306432	
0.00324244	-0.00117541	-0.00122547	
0.00066375	-0.00178751	-0.000279331	
-1.77597e-05	-0.00187579	4.84335e-05	
-4.21259e-05	-0.00207942	2.12765e-05	
3.32015e-05	-0.00183223	3.24349e-05	
0.00129125	-0.00206053	-0.000660381	
-0.00152117	-0.00205986	0.000782057	
0.000132382	-0.00165664	-4.2268e-06	
-0.000106122	-0.00205042	6.14181e-05	
0.000744622	-0.00205665	-0.000377914	
0.0009739	-0.00192794	-0.000478113	
3.91281e-05	-0.00202721	-2.7223e-06	
0.000199329	-0.00202201	-8.41697e-05	
1.62299e-05	-0.00203849	7.75377e-06	
0.00192767	-0.00114401	-0.000615141	
0.000483484	-0.00156932	-0.0001443	
0.00142123	-0.0013696	-0.000487208	
9.55748e-05	-0.00153452	7.51936e-05	
1.08153e-05	-0.00202669	-4.85827e-06	
0.00296128	-0.000935943	-0.000884616	
1.88774e-07	-0.00205987	1.78881e-06	
0.000101007	-0.00207552	-4.25703e-05	
0.00371743	-6.00481e-05	-0.000592697	
3.01818e-05	-0.0020042	1.65351e-05	
0.00362817	-0.000377517	-0.000813848	
0.00100491	-0.00168173	-0.000446605	
-1.6847e-06	-0.00205435	1.51613e-06	
3.96477e-05	-0.00175317	2.0962e-05	
0.000139134	-0.000982229	0.000230321	
-1.47172e-05	-0.00208043	3.87129e-05	
-0.0059054	-0.000383606	0.00175877	
-0.000283641	-0.00179139	6.98549e-05	
8.53241e-05	-0.00187045	-7.81426e-05	
-0.00913051	0.00103996	0.00182615	
0.000452427	-0.00208516	-0.000212837	
-3.41152e-05	-0.00182751	-4.10231e-05	
-0.000515037	-0.00208545	0.000274467	
0.000355065	-0.00208246	-0.000182496	
0.000438247	-0.00207519	-0.000225134	
-0.00134997	-0.00159789	0.000586829	
-0.000205403	-0.00204727	8.4164e-05	
-0.000971752	-0.00206257	0.000487172	
-0.000836303	-0.00191995	0.000410829	
-0.000554043	-0.00201105	0.000258061	
0.000263425	-0.00203305	-0.000153448	
-0.00379091	-0.00105403	0.00135499	
-0.0012662	-0.00152341	0.000536465	
-0.00153357	-0.00138292	0.000555571	
-3.34226e-05	-0.00199626	-1.22117e-05	
-9.89866e-05	-0.00136583	-0.00010747	
-2.43846e-05	-0.00203453	-6.99977e-06	
-0.000141741	-0.00111909	-0.000218383	
-1.25831e-05	-0.00206142	-4.37736e-06	
-7.50402e-05	-0.00151474	-6.88246e-05	
-2.10389e-05	-0.0020233	-1.09102e-05	
-0.0168615	0.00289789	0.00232862	
-0.000979666	-0.00172845	0.00044327	
-0.000164144	-0.000823274	-0.000226048	
-6.08521e-05	-0.0016947	-4.90545e-05	
0.0227953	0.00370185	-0.00295837	
0.00344123	-0.00101451	-0.0012144	
0.000762522	-0.0015791	-0.000278519	
7.05895e-05	-0.00166263	8.56305e-06	
-4.2582e-05	-0.00188299	2.0092e-05	
2.84434e-05	-0.00162257	3.32606e-05	
0.00134596	-0.00187601	-0.000583602	
-0.00156531	-0.00187621	0.000691735	
0.000240421	-0.00146057	-4.26142e-05	
-9.61589e-05	-0.00183939	4.78427e-05	
0.000791305	-0.00185904	-0.000347795	
0.00106815	-0.00171367	-0.000443392	
6.37652e-05	-0.0018193	-1.45303e-05	
0.000230157	-0.00180774	-7.95645e-05	
1.36807e-05	-0.00182666	9.28412e-06	
0.00204115	-0.00099147	-0.000618393	
0.000527516	-0.00138008	-0.000143185	
0.00150445	-0.00119618	-0.000500745	
7.821e-05	-0.0013491	7.73588e-05	
7.82656e-06	-0.00182944	-8.03324e-07	
0.00309539	-0.000816404	-0.000883721	
7.44581e-07	-0.00187479	2.80262e-06	
0.000105967	-0.00187589	-3.6007e-05	
0.00385008	-6.4643e-06	-0.000624476	
2.34084e-05	-0.00178542	2.25994e-05	
0.00377899	-0.000280811	-0.000860009	
0.00108321	-0.00148367	-0.000426466	
8.97486e-07	-0.00186132	8.98003e-07	
3.11581e-05	-0.00154906	2.9401e-05	
0.000116574	-0.000868131	0.000200366	
-2.25739e-05	-0.00187972	3.8125e-05	
-0.00618743	-0.000288088	0.00180759	
-0.000365382	-0.00158735	9.55371e-05	
2.08416e-06	-0.00166296	-3.68601e-05	
-0.00952323	0.00099576	0.00182111	
0.000474341	-0.00188692	-0.000189201	
-3.07077e-05	-0.00162306	-3.51977e-05	
-0.000536899	-0.00189441	0.000245054	
0.000358704	-0.00189146	-0.000156803	
0.000434698	-0.00188676	-0.000197205	
-0.00151121	-0.00141017	0.000575796	
-0.00023802	-0.0018388	8.61452e-05	
-0.00102028	-0.00186402	0.000441363	
-0.000927061	-0.0017113	0.000382714	
-0.000611269	-0.00180221	0.000245999	
0.000268194	-0.00182488	-0.000138492	
-0.00401141	-0.000901714	0.0013728	
-0.00136246	-0.00134473	0.000485478	
-0.00167813	-0.00120819	0.000582491	
-2.52474e-05	-0.0017841	-2.15178e-05	
-8.22328e-05	-0.00119961	-9.96796e-05	
-1.81902e-05	-0.00183708	-1.24333e-05	
-0.000117923	-0.00098951	-0.000193155	
-1.05406e-05	-0.0018661	-6.61937e-06	
-6.22673e-05	-0.00133504	-6.9023e-05	
-1.62058e-05	-0.00182061	-1.48336e-05	
-0.0174038	0.0026818	0.00221047	
-0.00104828	-0.00153255	0.000398145	
-0.000136679	-0.000730255	-0.000197158	
-5.27534e-05	-0.00150522	-4.51171e-05	
0.0235042	0.00354299	-0.0031565	
0.00380945	-0.00118846	-0.00133947	
0.000825666	-0.00172852	-0.000296483	
0.000167734	-0.00181356	-3.0007e-05	
-2.40992e-05	-0.00194701	1.23868e-05	
3.06294e-05	-0.00176279	3.76223e-05	
0.00134901	-0.00193393	-0.000579861	
-0.00161596	-0.00196876	0.000710457	
0.000290339	-0.00168228	-5.30297e-05	
-0.000101777	-0.00195802	5.19838e-05	
0.000833925	-0.00196886	-0.000364363	
0.0011111	-0.00185152	-0.000456334	
0.000123998	-0.0019314	-4.09508e-05	
0.00024097	-0.00189971	-8.29296e-05	
1.45081e-05	-0.00194945	1.08847e-05	
0.00221874	-0.00110639	-0.000662208	
0.000564484	-0.00164068	-0.000141701	
0.00159455	-0.00148336	-0.000514253	
9.13745e-05	-0.0016281	9.29982e-05	
8.77097e-06	-0.00193119	1.31899e-06	
0.00326069	-0.000880296	-0.000937364	
1.09307e-06	-0.00194304	2.90655e-06	
0.000102436	-0.0019453	-3.45189e-05	
0.00400118	-2.87693e-05	-0.000694844	
2.4046e-05	-0.00189568	2.45788e-05	
0.00394852	-0.000304893	-0.00093659	
0.00112122	-0.00167406	-0.000432547	
1.61505e-06	-0.00198011	1.26883e-06	
3.41746e-05	-0.00171649	3.53936e-05	
0.000116094	-0.000908633	0.000199361	
-3.37561e-05	-0.00194175	4.29952e-05	
-0.00650352	-0.000305227	0.00194132	
-0.000418421	-0.00175172	0.000110056	
-9.046e-05	-0.00183299	-8.45669e-07	
-0.00989776	0.000959053	0.00195932	
0.000476441	-0.00194125	-0.000189909	
-3.35374e-05	-0.00177851	-4.2292e-05	
-0.000533401	-0.001941	0.000242535	
0.000392086	-0.00194443	-0.000171027	
0.000445475	-0.00197745	-0.00020143	
-0.00158164	-0.00166162	0.00059177	
-0.000246232	-0.00196988	8.72705e-05	
-0.00105196	-0.00198427	0.000452838	
-0.000963163	-0.00186389	0.000392112	
-0.000665866	-0.00190454	0.000266738	
0.000249279	-0.00195692	-0.000130187	
-0.00432065	-0.00100453	0.00147042	
-0.00144337	-0.0016248	0.000498943	
-0.00197275	-0.00139009	0.000689288	
-2.58323e-05	-0.00190157	-2.41395e-05	
-8.82106e-05	-0.00134756	-0.000111829	
-1.9135e-05	-0.00194695	-1.32389e-05	
-0.000118343	-0.00104356	-0.000194374	
-1.1503e-05	-0.00198332	-7.06338e-06	
-7.24405e-05	-0.00162082	-8.43077e-05	
-1.67175e-05	-0.00194426	-1.63475e-05	
-0.0178959	0.00254952	0.00233099	
-0.00108197	-0.00172076	0.000401753	
-0.000132961	-0.000747151	-0.000190095	
-5.93873e-05	-0.00171282	-5.42773e-05	
0.0241451	0.00339606	-0.00340777	
0.00404847	-0.00107812	-0.00144726	
0.00098118	-0.00183976	-0.000358012	
0.000231528	-0.00194798	-5.52274e-05	
2.93105e-05	-0.00220175	-1.12089e-05	
3.22957e-05	-0.00191134	4.25034e-05	
0.00134872	-0.00219724	-0.000572814	
-0.0015322	-0.00218969	0.000667542	
0.000498999	-0.00166599	-0.000143494	
-6.49538e-05	-0.00211489	3.59137e-05	
0.000835695	-0.00211969	-0.000362515	
0.00113397	-0.00196952	-0.000460287	
0.000170771	-0.00206569	-6.23192e-05	
0.000301213	-0.0020507	-0.000108825	
1.49515e-05	-0.00208748	1.01185e-05	
0.00236666	-0.0010223	-0.000724512	
0.000623171	-0.00151747	-0.000175833	
0.00167073	-0.00130706	-0.000567148	
7.86803e-05	-0.00146832	8.05018e-05	
9.8184e-06	-0.00210683	1.75116e-06	
0.00340461	-0.000808069	-0.00101111	
1.3683e-06	-0.00220124	3.63771e-06	
0.000109189	-0.00223858	-3.67974e-05	
0.00412528	1.29256e-05	-0.000778491	
2.37915e-05	-0.00199959	2.49696e-05	
0.00410104	-0.000243284	-0.00103629	
0.00117602	-0.00170989	-0.000450266	
2.22766e-06	-0.00212327	1.80025e-06	
3.48021e-05	-0.00177497	3.81028e-05	
0.000101386	-0.00084618	0.000171615	
-8.10673e-05	-0.00224445	6.72476e-05	
-0.00679806	-0.000245441	0.00209314	
-0.000580845	-0.00184848	0.000178196	
-0.000201798	-0.00198102	4.51084e-05	
-0.0102358	0.000953817	0.00211821	
0.00047172	-0.0022096	-0.000185485	
-3.57055e-05	-0.00193442	-4.46769e-05	
-0.000505173	-0.00220387	0.000228074	
0.000378767	-0.00222614	-0.000163685	
0.000383449	-0.00221801	-0.00017143	
-0.00181658	-0.0016213	0.000691018	
-0.000289735	-0.00214189	0.000105111	
-0.00105515	-0.00215411	0.000451542	
-0.000956314	-0.00203936	0.000382271	
-0.000734856	-0.00207955	0.000294108	
0.00022094	-0.0021178	-0.000117366	
-0.00459738	-0.000924157	0.00159123	
-0.00154353	-0.00148662	0.000550162	
-0.00215127	-0.00128568	0.000774975	
-2.63814e-05	-0.0020408	-2.62917e-05	
-7.85093e-05	-0.00126666	-9.94983e-05	
-2.05505e-05	-0.00214018	-1.51019e-05	
-0.000104299	-0.000979232	-0.000168871	
-1.23428e-05	-0.0021581	-7.54569e-06	
-6.064e-05	-0.0014445	-7.1877e-05	
-1.71398e-05	-0.00209899	-1.66862e-05	
-0.0183371	0.0024608	0.00246336	
-0.0011268	-0.00177018	0.000418496	
-0.000115239	-0.000689263	-0.00016275	
-5.84509e-05	-0.00174513	-5.54746e-05	
0.0246744	0.00322012	-0.0037118	
0.00421595	-0.000800433	-0.00155088	
0.00100904	-0.00143057	-0.000384112	
0.000290266	-0.00144031	-9.38492e-05	
4.03002e-05	-0.00160295	-1.69096e-05	
2.27011e-05	-0.00143876	3.10511e-05	
0.00139307	-0.00155704	-0.000593974	
-0.00157041	-0.00152185	0.000681861	
0.000578817	-0.00124188	-0.000196198	
-4.29381e-05	-0.0014883	2.40349e-05	
0.000897999	-0.00155632	-0.00039131	
0.00112273	-0.0014991	-0.000465486	
0.000181652	-0.00145877	-7.27152e-05	
0.000257463	-0.00146001	-9.72587e-05	
9.82841e-06	-0.00146793	6.27153e-06	
0.00246941	-0.000783615	-0.000803045	
0.000651292	-0.00119938	-0.00020909	
0.00175849	-0.00100071	-0.000638259	
5.81656e-05	-0.00117239	5.97895e-05	
6.87928e-06	-0.00148202	1.74594e-06	
0.00349733	-0.000606967	-0.00110007	
1.03012e-06	-0.00152211	2.12213e-06	
0.000122458	-0.0015658	-4.69068e-05	
0.00421647	7.81895e-05	-0.0008813	
1.6135e-05	-0.00150202	1.81214e-05	
0.00420341	-0.000138647	-0.00114094	
0.00130087	-0.00127699	-0.00051301	
1.92451e-06	-0.00155018	1.51308e-06	
2.61137e-05	-0.00141583	2.98041e-05	
7.40659e-05	-0.000682595	0.000126262	
-3.87574e-05	-0.00158227	3.65167e-05	
-0.00703027	-0.000157257	0.00224227	
-0.000654344	-0.00154416	0.00022431	
-0.000273594	-0.00160972	8.48409e-05	
-0.0105293	0.000948787	0.0022768	
0.000472445	-0.00163429	-0.000192576	
-2.71075e-05	-0.00156065	-3.4384e-05	
-0.0005367	-0.00163713	0.000240486	
0.000375687	-0.00160724	-0.000163218	
0.000429193	-0.00160783	-0.000191211	
-0.00188965	-0.00128417	0.000737341	
-0.000296106	-0.00162541	0.000112624	
-0.00107822	-0.00167225	0.00046457	
-0.000985346	-0.0016332	0.000402735	
-0.00067932	-0.00162816	0.000276198	
0.000228493	-0.00161687	-0.000114325	
-0.00485638	-0.000769399	0.00172727	
-0.00156178	-0.00126883	0.000574764	
-0.00233643	-0.0012336	0.000862062	
-1.92286e-05	-0.0016771	-2.13876e-05	
-6.3401e-05	-0.00111497	-8.14324e-05	
-1.5005e-05	-0.00161327	-1.11537e-05	
-8.19021e-05	-0.000843329	-0.000132935	
-9.12933e-06	-0.00164755	-5.61397e-06	
-4.94227e-05	-0.00129682	-5.92631e-05	
-1.216e-05	-0.00162387	-1.21335e-05	
-0.0187285	0.00230468	0.00266689	
-0.00123088	-0.00147165	0.000478082	
-9.25853e-05	-0.000607856	-0.000130981	
-4.34382e-05	-0.00138102	-4.23005e-05	
0.025282	0.00282438	-0.00403511	
0.00430891	-0.000987346	-0.00158214	
0.00121014	-0.0014021	-0.000472533	
0.000324748	-0.00155779	-0.000107527	
5.14227e-05	-0.00135715	-2.21467e-05	
2.13662e-05	-0.00151758	3.21494e-05	
0.001379	-0.00135435	-0.000587019	
-0.00164235	-0.00140747	0.000709896	
0.000695804	-0.00125605	-0.000249345	
-7.03276e-05	-0.0015131	3.59852e-05	
0.000841951	-0.0014858	-0.000364941	
0.00113044	-0.00154726	-0.000467953	
0.000147704	-0.0015337	-5.7717e-05	
0.000260395	-0.00155908	-9.78804e-05	
9.40297e-06	-0.00152034	5.58226e-06	
0.00258819	-0.000917632	-0.000845097	
0.000689206	-0.00118435	-0.000232426	
0.00181552	-0.00103625	-0.000672954	
5.14832e-05	-0.00115873	5.36371e-05	
7.1709e-06	-0.0014855	2.61202e-06	
0.0036309	-0.00075194	-0.00114843	
6.79002e-07	-0.00138289	1.20504e-06	
0.000127842	-0.00136161	-5.11199e-05	
0.00435251	-3.32478e-05	-0.0009439	
1.45741e-05	-0.00156067	1.8146e-05	
0.00435933	-0.000256126	-0.00121698	
0.00134	-0.00128638	-0.000531802	
1.93819e-06	-0.00143765	1.28729e-06	
2.19676e-05	-0.00133829	2.7478e-05	
7.58211e-05	-0.000799161	0.000131749	
-4.61973e-05	-0.00136768	3.50989e-05	
-0.007255	-0.000172575	0.00238294	
-0.000786219	-0.00119899	0.000296995	
-0.000342138	-0.00126945	0.000125497	
-0.0108285	0.000862903	0.00243274	
0.000481841	-0.00136926	-0.000200424	
-1.99172e-05	-0.00126944	-2.6724e-05	
-0.000528126	-0.00137557	0.000234615	
0.00040806	-0.00138755	-0.000177819	
0.000468109	-0.00141849	-0.000209092	
-0.00200214	-0.0010229	0.000798209	
-0.00035056	-0.00152507	0.00013823	
-0.000982776	-0.00150265	0.000422024	
-0.00103848	-0.00133488	0.000432503	
-0.000758332	-0.00144328	0.000314653	
0.000196675	-0.00149438	-9.72893e-05	
-0.00498371	-0.000701909	0.00180746	
-0.00161638	-0.000976309	0.000618452	
-0.00235694	-0.000852551	0.000904879	
-1.3468e-05	-0.00139644	-1.73698e-05	
-4.64464e-05	-0.000936354	-6.20431e-05	
-1.31679e-05	-0.00153236	-1.02393e-05	
-6.85855e-05	-0.000807337	-0.000114123	
-7.59346e-06	-0.00145077	-4.92248e-06	
-3.16357e-05	-0.000968204	-4.0056e-05	
-9.49669e-06	-0.00146741	-9.85768e-06	
-0.019095	0.00207235	0.0028619	
-0.00125706	-0.00112936	0.000503943	
-7.86632e-05	-0.000590316	-0.000113837	
-3.14377e-05	-0.00111579	-3.15532e-05	
0.0258082	0.00239329	-0.00439254	
0.00449047	-0.000826748	-0.00171314	
0.00130854	-0.00137226	-0.00052655	
0.000388268	-0.00141033	-0.000142388	
0.000147005	-0.00186186	-6.54718e-05	
1.60027e-05	-0.001389	2.73548e-05	
0.00140107	-0.001798	-0.000602117	
-0.00160955	-0.00174072	0.000702278	
0.000849463	-0.00115185	-0.000327477	
9.12377e-05	-0.00162108	-3.25178e-05	
0.00088148	-0.00173358	-0.000385716	
0.00114738	-0.00145005	-0.000484474	
0.000196451	-0.00153552	-8.16531e-05	
0.000324026	-0.00152812	-0.000129816	
8.40699e-06	-0.0015672	5.37839e-06	
0.00269495	-0.000762961	-0.000932209	
0.000694844	-0.00108697	-0.000249891	
0.00186547	-0.000979983	-0.000721683	
4.07108e-05	-0.00108697	4.49977e-05	
7.57558e-06	-0.00170257	3.54558e-06	
0.00371369	-0.000598743	-0.00124917	
7.26769e-07	-0.00178564	1.00735e-06	
0.000123792	-0.00187675	-4.8974e-05	
0.00444056	-1.4136e-05	-0.00105085	
1.08397e-05	-0.0014722	1.79056e-05	
0.00446582	-0.000194153	-0.00134093	
0.00141407	-0.00122305	-0.000574464	
2.68363e-06	-0.00174674	1.71543e-06	
1.754e-05	-0.00130378	2.50723e-05	
5.09596e-05	-0.000657646	9.50231e-05	
-9.51352e-05	-0.00187212	6.06181e-05	
-0.0074821	-0.000222073	0.00256376	
-0.000917615	-0.00146242	0.000357252	
-0.000303512	-0.00149273	0.000109102	
-0.0111085	0.000670379	0.00263343	
0.000410585	-0.00183619	-0.000169471	
-1.87747e-05	-0.00149223	-2.94097e-05	
-0.000547791	-0.00176868	0.000245666	
0.000321248	-0.00174992	-0.000140201	
0.000455918	-0.00167166	-0.000205914	
-0.00216201	-0.00120147	0.000876516	
-0.000499676	-0.00147311	0.0002057	
-0.00108141	-0.00162374	0.000470161	
-0.00101394	-0.00145375	0.000427323	
-0.000766487	-0.00144947	0.000323088	
0.000193361	-0.00143732	-9.53184e-05	
-0.00532906	-0.000756654	0.00198875	
-0.00164675	-0.00114754	0.00063883	
-0.00241869	-0.00106575	0.000941149	
-1.04517e-05	-0.00143629	-1.68845e-05	
-4.52957e-05	-0.00112196	-6.7251e-05	
-1.25107e-05	-0.00155897	-1.00384e-05	
-5.51631e-05	-0.000791883	-9.77707e-05	
-8.13543e-06	-0.00165634	-5.61327e-06	
-3.01532e-05	-0.00117026	-4.31064e-05	
-7.44254e-06	-0.00143738	-8.42161e-06	
-0.0194919	0.00170973	0.00310318	
-0.00133285	-0.00136394	0.000543145	
-6.31132e-05	-0.000575994	-9.75889e-05	
-3.12149e-05	-0.00131189	-3.38733e-05	
0.026179	0.00193676	-0.00467404	
0.00446273	-0.000472885	-0.00175628	
0.00132478	-0.000844585	-0.000552227	
0.00056668	-0.000914021	-0.000234914	
5.74399e-05	-0.00119198	-2.73956e-05	
6.89985e-06	-0.000870517	1.47242e-05	
0.00144151	-0.00124978	-0.000626482	
-0.00162866	-0.00128205	0.000712732	
0.000866994	-0.000792243	-0.00035252	
9.58706e-05	-0.00116761	-3.78753e-05	
0.000961176	-0.00118877	-0.00042357	
0.00125555	-0.00103476	-0.000542633	
0.000237661	-0.00114869	-0.000104466	
0.000307943	-0.00112311	-0.000129143	
5.28165e-06	-0.00115733	3.21949e-06	
0.00278274	-0.000565037	-0.00100483	
0.000772286	-0.000768541	-0.000304782	
0.00193746	-0.000580379	-0.000789326	
2.03263e-05	-0.000695677	2.40492e-05	
4.89543e-06	-0.00115437	2.84029e-06	
0.00377477	-0.000428374	-0.00133159	
1.65938e-07	-0.00122045	5.20652e-07	
0.000127754	-0.00116699	-5.41496e-05	
0.00449663	1.18298e-05	-0.00113442	
5.64418e-06	-0.00114009	1.16693e-05	
0.0045306	-0.000117921	-0.00143143	
0.00149178	-0.000779977	-0.000623335	
2.09477e-06	-0.00122822	1.97537e-06	
8.29612e-06	-0.000862551	1.38848e-05	
2.80674e-05	-0.00048459	5.8064e-05	
-7.13585e-05	-0.00117301	4.14715e-05	
-0.00760419	-0.000102225	0.00270268	
-0.000916485	-0.000863121	0.000382302	
-0.000467467	-0.000925991	0.000196435	
-0.0112808	0.000577695	0.00280272	
0.000494256	-0.00120435	-0.000213446	
-7.85777e-06	-0.000884164	-1.49881e-05	
-0.00058465	-0.00127964	0.000263185	
0.00037405	-0.00124819	-0.000165782	
0.000396523	-0.00129788	-0.000179188	
-0.00221994	-0.000765312	0.000926397	
-0.000521618	-0.00115924	0.000220134	
-0.00117305	-0.0011915	0.000515327	
-0.00111584	-0.00103668	0.000484297	
-0.000765149	-0.00111643	0.00032982	
0.000178078	-0.00114622	-8.45809e-05	
-0.00536499	-0.000435487	0.00207669	
-0.00174455	-0.000740502	0.000707106	
-0.00251433	-0.000566415	0.00102994	
-5.35087e-06	-0.00113868	-1.23742e-05	
-1.75486e-05	-0.00058783	-3.01303e-05	
-8.30339e-06	-0.00115434	-6.72675e-06	
-2.82917e-05	-0.00053941	-5.52444e-05	
-5.60707e-06	-0.00123862	-3.64729e-06	
-1.20466e-05	-0.000683986	-2.1184e-05	
-4.40165e-06	-0.00113337	-5.26074e-06	
-0.0197563	0.00139975	0.00333423	
-0.00139858	-0.000870574	0.00059571	
-3.44107e-05	-0.000411474	-5.68541e-05	
-1.49328e-05	-0.000816696	-1.75144e-05	
0.0266711	0.00133727	-0.00497512	
0.00454485	-0.000788443	-0.00178543	
0.00137859	-0.00126616	-0.000574203	
0.000614679	-0.00130319	-0.000256118	
-3.49639e-05	-0.00149303	1.24139e-05	
6.03947e-06	-0.00128873	1.68843e-05	
0.00141877	-0.00154466	-0.000618393	
-0.00152008	-0.00151873	0.000666374	
0.00111647	-0.00118295	-0.000458263	
5.95193e-05	-0.00148063	-2.20619e-05	
0.000995392	-0.00145774	-0.000438946	
0.00129452	-0.00133301	-0.000560344	
0.000232053	-0.00149613	-0.00010526	
0.000422843	-0.00148008	-0.000182689	
4.34239e-06	-0.00147058	1.44291e-06	
0.00279517	-0.000781578	-0.00101569	
0.000825412	-0.00103081	-0.0003273	
0.00200361	-0.000890442	-0.000811647	