<VTKFile type="UnstructuredGrid" version="0.1" byte_order="LittleEndian">
	<UnstructuredGrid>
		<Piece NumberOfPoints="1860" NumberOfCells="1860">
			<CellData Scalars="scalars">
				<DataArray type="Float64" Name="Strength" NumberOfComponents="3" Format="ascii">
0.0164101	-0.0116623	0.00293988	
-0.00073986	-0.0233082	0.00557848	
0.000333709	-0.0251503	0.00225144	
-0.000246533	-0.0263897	0.00233433	
-0.000854754	-0.0260623	0.000502672	
0.000140358	-0.0257387	0.00211908	
0.000565284	-0.0264703	-0.000664625	
-0.0011179	-0.0257102	0.00152577	
-0.000704604	-0.024825	0.00422783	
0.000151527	-0.0254676	0.000640784	
0.000753562	-0.0264176	-0.000282351	
0.000752922	-0.0254407	0.00100673	
9.89111e-05	-0.0267781	0.00121773	
0.00034963	-0.0262773	0.00125036	
0.000215098	-0.0260929	0.000939469	
-0.00245125	-0.0210618	0.00808902	
-0.000454322	-0.0251401	0.00446418	
-0.000859577	-0.0237726	0.00560231	
-0.000901066	-0.0248137	0.00548062	
0.000237471	-0.0259189	0.000361462	
-0.00236646	-0.0194566	0.00976623	
-0.000155646	-0.0252148	0.000305976	
-0.000600583	-0.0259865	0.000206558	
0.000725417	-0.0124549	0.00995453	
0.000317063	-0.0261305	0.00155446	
-0.00162618	-0.0146402	0.0107137	
0.000422525	-0.0248664	0.00259741	
0.000151521	-0.0267208	0.000164524	
7.63528e-05	-0.0255202	0.00286418	
-0.00427443	-0.0160838	0.0113015	
-0.000220356	-0.0260284	0.000320702	
0.000401581	-0.0172665	-0.0103666	
5.37207e-05	-0.0253682	-0.00274566	
0.000171062	-0.0263626	-0.00240331	
-0.0046164	-0.0135425	-0.00926201	
0.000110685	-0.0262279	-0.000254167	
-7.74561e-05	-0.0258262	-0.00222898	
-0.000680064	-0.0267045	0.000328333	
0.000286402	-0.0261581	-0.000465128	
0.000588986	-0.0265865	-0.000651039	
0.000281327	-0.0246453	-0.00365154	
0.000269319	-0.0255556	-0.000612077	
-0.000442081	-0.0265734	0.000361048	
-0.000709073	-0.0255235	-0.00127032	
-0.00063256	-0.0261621	-0.00105885	
0.000543074	-0.0260756	-0.00126485	
0.00107203	-0.0213472	-0.00761963	
0.000226623	-0.0246136	-0.00415122	
0.00103958	-0.0231844	-0.00546648	
-0.000350727	-0.0260507	-0.00168243	
0.00228608	-0.0227747	-0.00698102	
0.00025125	-0.026015	-0.000516578	
0.00328162	-0.0182718	-0.0110879	
0.000249218	-0.0270949	-0.000284876	
0.00102902	-0.0237758	-0.00531339	
2.12512e-05	-0.0265811	-0.00127654	
-0.0130944	-0.0115014	-0.00352469	
-8.6141e-05	-0.0259638	-0.00258767	
0.00292118	-0.0134282	-0.0120835	
0.000524333	-0.0251318	-0.00360066	
0.0185404	-0.0012959	-0.00313144	
0.0015549	-0.00444931	-0.000705988	
0.000273494	-0.0048727	0.000134973	
-0.000170012	-0.004905	0.000642213	
-0.000169738	-0.00520734	0.000235073	
5.31509e-05	-0.00488808	0.000354669	
0.000713399	-0.00513416	-0.00105016	
-0.000906524	-0.00512346	0.00141857	
-0.000245721	-0.00458403	0.000995929	
-6.51112e-05	-0.00511163	0.000154702	
0.000431854	-0.00506809	-0.00061463	
0.000516597	-0.00509289	-0.000417081	
-4.69281e-05	-0.00504747	0.000247378	
0.000100712	-0.00510407	0.000102898	
2.2125e-05	-0.00507266	0.000127388	
0.000917819	-0.00389353	0.000555996	
0.000132853	-0.0045247	0.000579433	
0.000664217	-0.00428515	0.000277089	
7.37889e-05	-0.00439342	0.000964819	
9.78447e-06	-0.0049625	9.34101e-06	
0.00172182	-0.00377922	0.000277349	
-3.46816e-05	-0.00503738	5.29011e-05	
-3.43172e-05	-0.00523604	1.71697e-05	
0.00291564	-0.00204679	0.000653467	
5.90169e-05	-0.00513473	0.000256334	
0.00256394	-0.00268285	0.00064404	
0.000475733	-0.00477448	-8.76102e-05	
2.01942e-06	-0.0050995	-3.21843e-06	
4.41902e-05	-0.00480077	0.000477805	
3.8936e-06	-0.00268938	0.00162572	
-7.07895e-06	-0.00526624	0.000125922	
-0.00397628	-0.00373359	0.000436168	
-1.22032e-05	-0.00488315	-0.000497723	
0.000213834	-0.00493111	-0.000689086	
-0.00719717	-0.00248124	0.000679386	
0.000262205	-0.00525482	-0.000336442	
-2.89366e-05	-0.00490208	-0.00038024	
-0.00032277	-0.00520674	0.000512348	
0.000244586	-0.00516975	-0.000341955	
0.000306578	-0.00518595	-0.00046418	
-0.000473204	-0.0046343	-0.000121651	
-4.56018e-05	-0.00512116	9.63176e-06	
-0.000523577	-0.0051915	0.000763435	
-0.000428958	-0.00505162	0.000270267	
-0.000309434	-0.00509879	0.000158748	
0.000256681	-0.00503272	-0.000497244	
-0.00190106	-0.00433827	0.000502539	
-0.000596837	-0.00456682	-9.32492e-05	
-0.000538166	-0.00433352	-0.000397501	
-6.37281e-05	-0.00512881	-0.000279439	
-2.18443e-05	-0.00388225	-0.00119884	
1.45101e-05	-0.0050516	-8.17017e-05	
-0.000127689	-0.00307555	-0.00169968	
7.55841e-06	-0.00516207	-4.7862e-05	
-6.28509e-05	-0.00426266	-0.000961778	
6.58203e-07	-0.00505516	-0.000193554	
-0.0142495	-0.00166518	0.00294552	
-0.000455625	-0.00490762	9.81115e-05	
-8.21432e-05	-0.00212778	-0.00154426	
-1.63795e-05	-0.00470416	-0.000643355	
0.0193744	0.00332574	-0.00243884	
0.0020652	-0.00154379	-0.00183501	
0.000314657	-0.00212039	-0.000189215	
-0.000106025	-0.00216127	0.000371369	
-5.04976e-05	-0.00235214	0.000144074	
6.64167e-05	-0.00213429	0.00012193	
0.000804725	-0.00232812	-0.0011024	
-0.000953495	-0.00230511	0.00138925	
-9.07417e-05	-0.00195537	0.000486911	
-5.65878e-05	-0.0023037	0.000141851	
0.000418608	-0.00231582	-0.000624264	
0.000558476	-0.00224548	-0.000637545	
-8.17834e-06	-0.00226498	0.000144481	
0.000120419	-0.0022787	-2.9573e-05	
3.53812e-05	-0.00229239	7.09921e-05	
0.00143965	-0.00142594	-0.000701505	
0.000314788	-0.00192548	3.4257e-05	
0.00101519	-0.00172035	-0.000595231	
0.000281845	-0.00184708	0.00031034	
8.15503e-06	-0.0022644	1.85706e-05	
0.00231018	-0.00119058	-0.00114578	
-6.71581e-06	-0.00230225	2.06111e-05	
8.31011e-05	-0.00236337	-4.20401e-05	
0.00320944	-0.000332021	-3.46256e-05	
7.14444e-05	-0.00227554	0.000100602	
0.00305815	-0.000695325	-0.000260668	
0.000541659	-0.00207603	-0.000502952	
-2.41681e-05	-0.00231304	1.04655e-05	
5.74622e-05	-0.00208393	0.000164245	
0.00032849	-0.0011327	0.00048473	
4.99019e-05	-0.00237233	5.51378e-05	
-0.00473325	-0.000528279	0.00171979	
-9.54465e-05	-0.00212387	-0.000162332	
0.000166826	-0.00216298	-0.000428649	
-0.00779221	0.000624754	0.000931977	
0.000309784	-0.00236905	-0.000387322	
-5.91111e-05	-0.00214294	-0.000137258	
-0.000281418	-0.00236325	0.000492764	
0.00024148	-0.0023565	-0.000359962	
0.000277486	-0.00235439	-0.00044967	
-0.000715164	-0.00200304	0.000494879	
-0.000125562	-0.0023201	7.45446e-05	
-0.000586121	-0.00234803	0.000819963	
-0.00045391	-0.00224276	0.000503973	
-0.000321115	-0.00228486	0.00031414	
0.000172115	-0.00228805	-0.000403645	
-0.00246494	-0.00143562	0.00196838	
-0.00081306	-0.00194732	0.000541714	
-0.000891542	-0.00177511	0.000505156	
-5.64714e-05	-0.00227555	-0.000103466	
-0.000355132	-0.00160998	-0.000309587	
-5.72507e-05	-0.00229555	-4.36738e-05	
-0.000460664	-0.00125332	-0.000476012	
-2.6751e-05	-0.0023411	-2.1436e-05	
-0.000233159	-0.00180517	-0.000312476	
-4.59064e-05	-0.00227217	-9.62226e-05	
-0.0150255	0.00226284	0.00200522	
-0.000594166	-0.00213859	0.000493366	
-0.000246009	-0.000915344	-0.000497858	
-0.000142469	-0.00204075	-0.000221898	
0.0200886	0.00578864	-0.000487033	
0.00252093	-0.00116442	-0.00212928	
0.000518002	-0.00236309	-0.000296389	
3.45947e-05	-0.00244812	0.00027231	
-1.53852e-06	-0.00261303	6.60203e-05	
0.000186477	-0.00240688	8.71917e-05	
0.000936996	-0.00257102	-0.00108435	
-0.00107079	-0.00256718	0.00132719	
9.16832e-05	-0.00222018	0.0003137	
-5.31874e-05	-0.00259406	0.000133567	
0.000489191	-0.00259646	-0.000587895	
0.000732921	-0.00248057	-0.000663961	
5.25296e-05	-0.00255802	8.98959e-05	
0.000193589	-0.0025519	-5.81282e-05	
7.18253e-05	-0.00257952	5.98195e-05	
0.00173798	-0.00127057	-0.00108371	
0.000501719	-0.00212233	-0.000133342	
0.00132709	-0.00172197	-0.000849668	
0.000459638	-0.00205651	0.000143024	
1.30971e-05	-0.00255343	1.32641e-05	
0.00261636	-0.000956041	-0.00138673	
1.21828e-05	-0.00257587	1.42088e-05	
0.000134825	-0.00260857	-8.08351e-05	
0.00347001	-0.000135423	4.45972e-05	
0.000141171	-0.00253818	7.78682e-05	
0.00336746	-0.000592007	-0.000310089	
0.000664057	-0.00229242	-0.000595458	
-2.02609e-05	-0.00258082	2.17987e-05	
0.000165392	-0.00233743	8.804e-05	
0.000465873	-0.00126701	0.000476387	
8.41016e-05	-0.00261394	3.82343e-05	
-0.00520973	-0.000111725	0.00187243	
-0.000265697	-0.00237829	-2.83572e-05	
2.70303e-05	-0.00244598	-0.000334366	
-0.0083021	0.001453	0.000794277	
0.000376312	-0.00261316	-0.000377332	
-0.000192592	-0.00240802	-0.000101428	
-0.000316244	-0.00262219	0.000447592	
0.000269287	-0.00261219	-0.000337065	
0.000298721	-0.0026113	-0.000410385	
-0.000954888	-0.00215642	0.000743949	
-0.000192052	-0.00259809	0.000106303	
-0.000711047	-0.00259074	0.000804744	
-0.000622106	-0.00248853	0.000533008	
-0.000439502	-0.00254702	0.000331754	
0.000120575	-0.00258254	-0.000335153	
-0.00293236	-0.001023	0.00226037	
-0.00105376	-0.00204056	0.000770833	
-0.00122461	-0.00180665	0.000827666	
-0.000139567	-0.00253764	-8.76186e-05	
-0.000534467	-0.00182003	-7.55087e-05	
-9.9574e-05	-0.00256981	-7.40775e-06	
-0.000634979	-0.0014231	-0.00038238	
-5.17322e-05	-0.00259827	2.10343e-07	
-0.000385861	-0.00203394	-0.000141761	
-0.000104444	-0.0025589	-6.95712e-05	
-0.0154819	0.00435855	0.000714028	
-0.000760257	-0.00231903	0.000621749	
-0.000358494	-0.00103184	-0.000539899	
-0.000254553	-0.00226776	-0.000145253	
0.0209178	0.00628151	6.30049e-05	
0.00279921	-0.000963158	-0.00200261	
0.000570491	-0.00206328	-0.000425838	
4.46668e-05	-0.00216527	0.000139442	
-7.36572e-06	-0.00234242	2.32731e-05	
0.000161794	-0.00212374	1.75493e-05	
0.000953543	-0.00229698	-0.00110547	
-0.00109876	-0.00230617	0.00130848	
0.000165447	-0.00195025	5.2457e-05	
-4.17147e-05	-0.00230286	9.97879e-05	
0.000540933	-0.00231469	-0.000604695	
0.000780123	-0.00216788	-0.000738953	
8.07291e-05	-0.00226457	1.43961e-05	
0.000212605	-0.00225365	-0.000121894	
6.81823e-05	-0.00228431	1.89685e-05	
0.00178771	-0.0011169	-0.0010523	
0.000517146	-0.00183621	-0.00022229	
0.00137353	-0.00145858	-0.000846591	
0.000342115	-0.00179832	6.54302e-05	
2.59377e-05	-0.00227548	-8.19114e-06	
0.00271778	-0.000850058	-0.00139081	
1.24393e-05	-0.00230789	2.84908e-06	
0.000119276	-0.00233813	-9.3094e-05	
0.00362897	7.07028e-05	5.62724e-05	
0.000132483	-0.00224414	1.08742e-05	
0.00355003	-0.000410465	-0.00038448	
0.000849595	-0.00192745	-0.000750135	
-3.67477e-07	-0.00231191	1.46558e-05	
0.000172082	-0.00205266	2.58208e-06	
0.000368284	-0.00105978	0.000474892	
4.98849e-05	-0.00234506	3.6888e-05	
-0.00557548	-9.95888e-05	0.00186391	
-0.000319923	-0.00208303	0.000107805	
1.05522e-05	-0.00216421	-0.000197854	
-0.00874608	0.0018533	0.000619842	
0.00036949	-0.00234311	-0.000367979	
-0.000165353	-0.00212231	-2.56696e-05	
-0.000345763	-0.00234975	0.000442807	
0.000272332	-0.00233809	-0.000318247	
0.000315035	-0.00233775	-0.000384506	
-0.00115909	-0.00176177	0.000954355	
-0.000202052	-0.00230199	0.000149251	
-0.000737449	-0.00230982	0.000820626	
-0.000671521	-0.00217399	0.000615727	
-0.000480596	-0.00223805	0.000410112	
0.000126318	-0.00229068	-0.000265231	
-0.00326521	-0.00092389	0.00212833	
-0.00112667	-0.00171861	0.000876133	
-0.0013342	-0.00152644	0.00092144	
-0.000130049	-0.0022435	-1.71393e-05	
-0.000358368	-0.00160046	-7.04928e-05	
-8.0231e-05	-0.0022907	1.47742e-05	
-0.000471019	-0.00123128	-0.000397681	
-4.205e-05	-0.00232627	7.4017e-06	
-0.000299942	-0.00177838	-5.85912e-05	
-0.000101266	-0.00226721	-1.67236e-05	
-0.0160067	0.0049282	1.84696e-05	
-0.000886703	-0.00197045	0.000722149	
-0.000296645	-0.00085005	-0.000513741	
-0.000272919	-0.00198203	1.49894e-05	
0.0216952	0.00633164	0.00119846	
0.00330493	-0.000901155	-0.00128795	
0.000664996	-0.001768	-0.0003742	
6.01493e-05	-0.00187286	7.70794e-05	
-1.71717e-05	-0.00207875	2.41197e-05	
0.000100862	-0.00182815	5.26939e-05	
0.00110847	-0.00204863	-0.0009545	
-0.00130136	-0.00205226	0.0011167	
0.000226264	-0.00164544	2.88925e-06	
-7.22554e-05	-0.00205019	8.71403e-05	
0.000654999	-0.0020541	-0.000522158	
0.000920992	-0.00190134	-0.000650351	
7.50151e-05	-0.00202536	5.66752e-06	
0.000224205	-0.00201737	-0.000108896	
4.54925e-05	-0.00203718	2.09816e-05	
0.00202391	-0.000976572	-0.000593059	
0.000559823	-0.00154263	-0.000143546	
0.00153457	-0.00125178	-0.000455819	
0.000230463	-0.00151145	0.000168757	
2.4296e-05	-0.00202585	-4.56481e-06	
0.00303595	-0.000724218	-0.000832127	
6.36257e-06	-0.00205914	7.77619e-07	
0.000108322	-0.00207345	-6.7078e-05	
0.00375613	0.00022805	0.000245212	
9.57258e-05	-0.00200106	2.57688e-05	
0.00372831	-0.000298008	-0.000116171	
0.00098552	-0.00164187	-0.000602733	
-4.42437e-07	-0.00205336	6.31432e-06	
0.000117838	-0.00174828	3.45893e-05	
0.000236771	-0.000838981	0.000524426	
1.57941e-05	-0.00207921	4.75377e-05	
-0.00605968	-2.37848e-05	0.00120698	
-0.000345719	-0.00177834	8.91692e-05	
2.38471e-06	-0.00186899	-0.000121822	
-0.00916906	0.00198791	0.00020985	
0.000411597	-0.00208211	-0.000297144	
-0.000109073	-0.0018227	-6.5792e-05	
-0.000428896	-0.00208649	0.000383272	
0.000310136	-0.0020811	-0.000255058	
0.000377337	-0.00207376	-0.000318519	
-0.00134498	-0.0015125	0.000784383	
-0.000208382	-0.00204443	0.000118926	
-0.000866466	-0.00205153	0.000684355	
-0.000802518	-0.001896	0.000555834	
-0.000540289	-0.00199928	0.000353	
0.000191008	-0.00203316	-0.000228952	
-0.00383116	-0.00083956	0.0013915	
-0.00128865	-0.00143074	0.000705091	
-0.0016042	-0.00128549	0.000585166	
-0.000106715	-0.00199273	-1.85335e-05	
-0.000240406	-0.00133353	-0.00021961	
-5.60064e-05	-0.00203317	-6.48803e-06	
-0.000297985	-0.000986759	-0.000505068	
-2.83784e-05	-0.00206029	-2.20758e-06	
-0.000213568	-0.00149676	-0.00012524	
-6.61031e-05	-0.00202137	-2.44505e-05	
-0.0165774	0.00491334	-0.00061534	
-0.000974885	-0.00168767	0.000581178	
-0.000185542	-0.000687468	-0.000497044	
-0.000179476	-0.00168448	-6.6319e-05	
0.0224137	0.0061396	0.0021394	
0.00349353	-0.000744065	-0.00125894	
0.000793214	-0.00155633	-0.000308944	
0.000131448	-0.00165722	3.98558e-05	
-2.98377e-05	-0.00188193	2.91048e-05	
9.25755e-05	-0.00161763	7.09602e-05	
0.00127125	-0.00187165	-0.000735237	
-0.00146776	-0.00187301	0.000878284	
0.000315095	-0.00144565	3.43516e-06	
-7.4333e-05	-0.0018389	6.43284e-05	
0.000756099	-0.00185578	-0.000425903	
0.00106956	-0.00168826	-0.000521947	
9.43662e-05	-0.00181707	4.86331e-06	
0.000260719	-0.00180252	-8.00144e-05	
4.08321e-05	-0.00182509	2.90763e-05	
0.00212344	-0.000825779	-0.000583423	
0.000604679	-0.00135042	-0.000101989	
0.00160194	-0.00107855	-0.000460279	
0.000200242	-0.00132479	0.000182786	
1.96635e-05	-0.0018284	1.69594e-07	
0.00316228	-0.000575946	-0.000840243	
4.36797e-06	-0.00187382	1.09794e-05	
0.000111784	-0.00187424	-4.00746e-05	
0.00388341	0.000249927	0.000358067	
7.92446e-05	-0.00178206	5.00285e-05	
0.00388656	-0.000171385	-7.93777e-05	
0.001102	-0.00144927	-0.000484314	
4.68266e-06	-0.0018602	5.99508e-06	
9.95459e-05	-0.00154355	6.96029e-05	
0.000205711	-0.000731474	0.00047733	
-3.69278e-06	-0.001878	6.06767e-05	
-0.00633875	0.000147858	0.00122786	
-0.000423257	-0.00157264	7.36167e-05	
-6.52251e-05	-0.0016591	-7.60179e-05	
-0.00957803	0.00189395	-0.000199923	
0.000461514	-0.00188497	-0.000223791	
-9.95375e-05	-0.00161733	-8.03951e-05	
-0.000496357	-0.00189424	0.000310966	
0.000341389	-0.00188948	-0.00020022	
0.00040475	-0.0018854	-0.0002529	
-0.00154755	-0.00133913	0.000638593	
-0.000246415	-0.00183635	9.27775e-05	
-0.000979131	-0.0018577	0.000540926	
-0.000942162	-0.00168536	0.000446959	
-0.000626059	-0.00179	0.000285672	
0.000222655	-0.00182436	-0.000198838	
-0.00404035	-0.000693981	0.0014087	
-0.00141981	-0.00126877	0.000518405	
-0.00173591	-0.00110683	0.000609653	
-8.76854e-05	-0.00178041	-4.93773e-05	
-0.000207492	-0.00116601	-0.000224601	
-4.00252e-05	-0.00183562	-2.75951e-05	
-0.000261199	-0.000859642	-0.000469695	
-2.22924e-05	-0.00186482	-1.56238e-05	
-0.00018348	-0.00131468	-0.000159772	
-5.33329e-05	-0.0018185	-4.33969e-05	
-0.0170868	0.00474391	-0.00141086	
-0.00108025	-0.00149835	0.00043279	
-0.000143615	-0.000596089	-0.000461736	
-0.000147021	-0.00149441	-0.000107854	
0.0231502	0.00605349	0.00231471	
0.00388746	-0.000875701	-0.00135179	
0.000867292	-0.00170186	-0.000316831	
0.000235573	-0.00180453	3.52881e-06	
-1.23653e-05	-0.00194548	2.20623e-05	
0.000106934	-0.00175621	8.79645e-05	
0.00127409	-0.00193067	-0.00072733	
-0.00151275	-0.0019659	0.000904162	
0.000385219	-0.00166204	1.61495e-05	
-7.64841e-05	-0.0019572	7.02024e-05	
0.000798417	-0.00196448	-0.000445737	
0.00112063	-0.00182341	-0.000528539	
0.000156792	-0.00192798	-2.16042e-05	
0.000276781	-0.00189359	-7.88042e-05	
4.6129e-05	-0.00194732	3.50896e-05	
0.00232549	-0.00090947	-0.000590066	
0.000669064	-0.00160374	-6.76493e-05	
0.00173284	-0.00134731	-0.00042695	
0.000250638	-0.0015934	0.000243754	
2.34229e-05	-0.00192976	2.63564e-06	
0.00334929	-0.000591489	-0.000852412	
5.22699e-06	-0.00194174	1.23453e-05	
0.000108245	-0.00194335	-3.49921e-05	
0.00404374	0.000258879	0.000377026	
8.86147e-05	-0.00189133	6.09676e-05	
0.00407316	-0.000115947	-6.85918e-05	
0.00115625	-0.00163554	-0.000473567	
6.70914e-06	-0.0019786	7.88836e-06	
0.000118645	-0.00170874	9.22386e-05	
0.000220215	-0.000755781	0.000506154	
-1.35267e-05	-0.00193953	7.14254e-05	
-0.00667083	0.00024945	0.00129283	
-0.00048875	-0.00173346	7.18554e-05	
-0.000167112	-0.00182534	-4.35341e-05	
-0.00996535	0.00193888	-0.000303344	
0.00046391	-0.0019392	-0.000220832	
-0.000116464	-0.00177068	-0.000103018	
-0.000492446	-0.00194041	0.000308893	
0.000371978	-0.00194199	-0.000219734	
0.000412761	-0.00197594	-0.000260288	
-0.00164265	-0.00158339	0.000628183	
-0.000257714	-0.00196688	8.93453e-05	
-0.00101135	-0.00197767	0.000550696	
-0.000989583	-0.00183484	0.000447083	
-0.000684097	-0.00189057	0.000305035	
0.000200588	-0.00195558	-0.000195261	
-0.00436685	-0.000741381	0.00148835	
-0.00153342	-0.00153755	0.00049681	
-0.00205168	-0.00126333	0.000695785	
-9.91588e-05	-0.0018967	-6.23309e-05	
-0.000241309	-0.00130314	-0.000274612	
-4.38352e-05	-0.001945	-3.3103e-05	
-0.000282552	-0.00089664	-0.000503559	
-2.48178e-05	-0.00198159	-1.9537e-05	
-0.000233514	-0.00159152	-0.000213729	
-6.02949e-05	-0.00194136	-5.36689e-05	
-0.0176152	0.00459471	-0.00158191	
-0.00113084	-0.0016823	0.00041711	
-0.000149192	-0.000604971	-0.000470818	
-0.000175851	-0.00169753	-0.000145412	
0.0237389	0.00625491	0.00262966	
0.00412137	-0.000701288	-0.00146383	
0.00103116	-0.00180577	-0.000372589	
0.000309827	-0.00193551	-1.36915e-05	
4.16315e-05	-0.00219938	-3.33611e-06	
0.000124121	-0.00190251	0.000109399	
0.00127828	-0.00219302	-0.000713273	
-0.00143623	-0.00218562	0.000848594	
0.000593958	-0.00163644	-8.04574e-05	
-3.73001e-05	-0.0021133	5.21414e-05	
0.000802721	-0.00211454	-0.00044061	
0.00115424	-0.00193789	-0.000523009	
0.000208095	-0.00206094	-4.13116e-05	
0.000342382	-0.00204253	-0.000102328	
5.26577e-05	-0.00208464	3.99859e-05	
0.00247389	-0.000784348	-0.000656865	
0.000726713	-0.00147524	-0.000102674	
0.00180046	-0.00115271	-0.000491256	
0.000235496	-0.00143296	0.000230642	
2.74408e-05	-0.00210481	4.9825e-06	
0.00349245	-0.000465522	-0.000926548	
7.40187e-06	-0.00219929	1.67158e-05	
0.00011895	-0.00223581	-3.31849e-05	
0.00417178	0.000402409	0.000369324	
9.71067e-05	-0.00199426	6.96832e-05	
0.0042414	4.63499e-05	-0.000109809	
0.00122233	-0.00166567	-0.000476325	
8.24182e-06	-0.00212121	1.04158e-05	
0.000131834	-0.001765	0.000111394	
0.000211198	-0.000698045	0.000469923	
-5.30884e-05	-0.00224128	0.000108204	
-0.00696975	0.000451704	0.00139415	
-0.000659224	-0.00182312	0.000134391	
-0.000288347	-0.00196847	-1.33093e-06	
-0.0102905	0.00215414	-0.000363206	
0.000462408	-0.00220681	-0.000210527	
-0.000135718	-0.00192386	-0.000126715	
-0.000464161	-0.00220275	0.000292315	
0.000359896	-0.00222319	-0.00021023	
0.000353856	-0.00221579	-0.000225907	
-0.00187915	-0.00152453	0.000728571	
-0.00030485	-0.00213781	0.000104497	
-0.00101952	-0.00214628	0.000542847	
-0.00100021	-0.00200724	0.000420126	
-0.000759547	-0.00206283	0.00032951	
0.000166726	-0.00211574	-0.000186233	
-0.00463856	-0.000574659	0.00162969	
-0.00162923	-0.00138781	0.000549224	
-0.00222697	-0.00113352	0.000788537	
-0.00011075	-0.0020347	-7.41353e-05	
-0.000238756	-0.00121998	-0.000265149	
-5.09027e-05	-0.00213745	-4.01062e-05	
-0.000275065	-0.000833911	-0.000472845	
-2.91805e-05	-0.00215575	-2.30376e-05	
-0.000216867	-0.00141463	-0.000202468	
-6.9596e-05	-0.00209514	-6.35176e-05	
-0.0180041	0.00473034	-0.00196223	
-0.00118727	-0.00172661	0.000417461	
-0.000143322	-0.000554212	-0.000430045	
-0.000190418	-0.00172613	-0.000167016	
0.024184	0.00668024	0.0027107	
0.00425344	-0.000350942	-0.0015974	
0.00104405	-0.00139343	-0.000409335	
0.000347236	-0.00142682	-7.06061e-05	
5.17842e-05	-0.00160069	-1.34916e-05	
9.94312e-05	-0.00143085	8.93484e-05	
0.00131625	-0.00155098	-0.00074373	
-0.00146968	-0.00151697	0.000867571	
0.000648542	-0.00120922	-0.000162797	
-2.17745e-05	-0.00148676	3.66647e-05	
0.000855806	-0.001551	-0.000479321	
0.00112767	-0.00146672	-0.000533992	
0.000206753	-0.00145419	-6.24438e-05	
0.000287238	-0.00145274	-9.51044e-05	
3.85793e-05	-0.00146551	3.15276e-05	
0.00254758	-0.000512674	-0.000770768	
0.000734896	-0.00115526	-0.000159601	
0.00185731	-0.000824677	-0.000598257	
0.000195457	-0.001142	0.000184293	
2.09702e-05	-0.00148024	3.48608e-06	
0.00355917	-0.000229911	-0.00104183	
6.05224e-06	-0.00152041	1.2082e-05	
0.000129221	-0.00156318	-4.92026e-05	
0.0042666	0.000587983	0.000313905	
7.56214e-05	-0.00149739	5.5004e-05	
0.0043516	0.000261075	-0.000190217	
0.00132351	-0.00122372	-0.000565992	
6.03769e-06	-0.00154836	7.86289e-06	
0.000113397	-0.00140636	9.49883e-05	
0.000173967	-0.000559678	0.000376161	
-1.84601e-05	-0.00157974	6.38445e-05	
-0.00719356	0.000720938	0.00150193	
-0.000721499	-0.00151498	0.000194295	
-0.000344364	-0.00159509	5.27812e-05	
-0.0105417	0.00249038	-0.000422625	
0.000459386	-0.00163116	-0.000225485	
-0.000116468	-0.00155077	-0.000107572	
-0.000494984	-0.00163643	0.000305687	
0.000355179	-0.00160426	-0.00020978	
0.000397056	-0.00160569	-0.00024899	
-0.00192934	-0.00117134	0.00080165	
-0.000306506	-0.00162093	0.000119591	
-0.00103592	-0.00166267	0.000564305	
-0.00101262	-0.00159946	0.000449601	
-0.000696083	-0.00161154	0.000312509	
0.000179606	-0.00161533	-0.000176583	
-0.00487477	-0.000334125	0.00179886	
-0.00163505	-0.00115716	0.000591818	
-0.00241111	-0.00104533	0.000889772	
-9.34019e-05	-0.00167145	-6.34476e-05	
-0.000218936	-0.00107063	-0.000234375	
-4.17605e-05	-0.00161075	-3.04871e-05	
-0.000241968	-0.000715905	-0.000401485	
-2.35644e-05	-0.00164546	-1.7486e-05	
-0.000201726	-0.00126803	-0.000181585	
-5.68981e-05	-0.00162034	-5.06295e-05	
-0.0183332	0.00498995	-0.00211582	
-0.00127725	-0.00141875	0.000498744	
-0.000132477	-0.000484556	-0.000375236	
-0.000160403	-0.00136406	-0.000134683	
0.0247156	0.00698973	0.00284987	
0.00438463	-0.000458745	-0.00158734	
0.00124242	-0.00135365	-0.000506481	
0.000393339	-0.00154089	-7.50271e-05	
6.3538e-05	-0.00135466	-2.09406e-05	
0.000111149	-0.00150751	0.00010427	
0.00130587	-0.00134695	-0.000726041	
-0.0015399	-0.00140286	0.000891617	
0.000769686	-0.00121448	-0.000216851	
-4.49396e-05	-0.00151128	5.5621e-05	
0.000803373	-0.00148143	-0.000439283	
0.0011427	-0.0015118	-0.000526607	
0.000180328	-0.00152856	-3.83636e-05	
0.00029701	-0.00155053	-8.99824e-05	
4.26418e-05	-0.00151724	3.54557e-05	
0.00270145	-0.00058221	-0.000773491	
0.00077827	-0.00113372	-0.000180061	
0.00193006	-0.000832132	-0.000619015	
0.000197874	-0.00112691	0.00018228	
2.32318e-05	-0.00148321	6.94741e-06	
0.00373052	-0.000280095	-0.00102687	
6.26902e-06	-0.00138091	1.05373e-05	
0.000134887	-0.00135841	-5.82887e-05	
0.00440275	0.000641886	0.000367466	
8.10494e-05	-0.00155508	6.08834e-05	
0.0045249	0.0003085	-0.000167054	
0.00137068	-0.00122377	-0.000577243	
5.01533e-06	-0.00143562	8.15778e-06	
0.0001133	-0.00132793	9.51792e-05	
0.000211725	-0.000654359	0.000429875	
-2.63298e-05	-0.0013654	5.40372e-05	
-0.00742106	0.000911767	0.00156097	
-0.000832485	-0.00116429	0.000291288	
-0.000396758	-0.00125288	0.000103464	
-0.0108003	0.00276811	-0.000459313	
0.000466082	-0.00136566	-0.000236833	
-0.000100722	-0.00125998	-9.33789e-05	
-0.000488906	-0.00137523	0.000292885	
0.000385366	-0.00138409	-0.00022614	
0.000433551	-0.00141631	-0.000267502	
-0.00202159	-0.000891662	0.000877395	
-0.000360411	-0.00151925	0.000148492	
-0.00094682	-0.00149237	0.0005075	
-0.00105234	-0.00129837	0.000485895	
-0.000767627	-0.00142368	0.000358244	
0.000148048	-0.00149273	-0.000154602	
-0.00499695	-0.000191625	0.00187011	
-0.00166242	-0.000854458	0.000656561	
-0.00238894	-0.00064965	0.000966232	
-7.8341e-05	-0.0013912	-5.37379e-05	
-0.000189095	-0.000897252	-0.000194714	
-4.26515e-05	-0.00152938	-3.00818e-05	
-0.000238895	-0.000683903	-0.000375457	
-2.162e-05	-0.00144861	-1.65491e-05	
-0.000153297	-0.000945592	-0.000135421	
-5.37932e-05	-0.00146357	-4.78355e-05	
-0.0186336	0.00524251	-0.00223604	
-0.00128661	-0.00106877	0.000540161	
-0.00013473	-0.000469082	-0.000356446	
-0.000135415	-0.00110057	-0.000110754	
0.0251457	0.0073658	0.00284952	
0.00453324	-0.000225738	-0.00168986	
0.0013403	-0.00131478	-0.000546677	
0.000450801	-0.00139083	-0.000110013	
0.000162033	-0.00185744	-6.93281e-05	
0.000105548	-0.00137886	0.000100232	
0.00133361	-0.00178774	-0.000714976	
-0.00150786	-0.00173569	0.000855582	
0.000912421	-0.00110093	-0.000300978	
0.000112996	-0.00161741	-2.58277e-05	
0.000842329	-0.00172895	-0.000446234	
0.00115777	-0.00141323	-0.000522419	
0.00023006	-0.00152929	-5.79931e-05	
0.000358805	-0.00151795	-0.000119895	
4.64318e-05	-0.00156374	3.94741e-05	
0.00277957	-0.000390521	-0.000863418	
0.000780744	-0.00103251	-0.000194063	
0.00197687	-0.000751281	-0.000650948	
0.000188133	-0.00105555	0.000172421	
2.73344e-05	-0.00169977	1.48054e-05	
0.00378124	-9.7146e-05	-0.00112477	
9.13869e-06	-0.00178301	1.45014e-05	
0.000139958	-0.00187242	-5.26842e-05	
0.0044832	0.000813657	0.000311886	
7.7758e-05	-0.00146635	6.56988e-05	
0.00462469	0.000515724	-0.000250547	
0.00144283	-0.00115045	-0.000605247	
6.68163e-06	-0.00174422	1.14598e-05	
0.000114856	-0.00129266	9.68027e-05	
0.000179384	-0.000538971	0.000343935	
-6.36222e-05	-0.00186914	9.04552e-05	
-0.00763671	0.00110211	0.00162569	
-0.000984656	-0.0014156	0.000328202	
-0.000378653	-0.00147472	6.39608e-05	
-0.0110371	0.00299435	-0.00048369	
0.000404072	-0.00183179	-0.000186555	
-0.000121962	-0.00148021	-0.000114366	
-0.000506112	-0.00176801	0.000294426	
0.000304421	-0.00174607	-0.000176542	
0.000419494	-0.00166917	-0.00025851	
-0.00220033	-0.00104303	0.000918315	
-0.000503887	-0.00146474	0.000222594	
-0.00104439	-0.00161028	0.000546099	
-0.00103888	-0.0014161	0.000452283	
-0.000777839	-0.00142845	0.000353021	
0.000141756	-0.00143588	-0.000150428	
-0.0053458	-0.00014566	0.00198183	
-0.00171986	-0.00100787	0.000634691	
-0.002483	-0.000831603	0.000950422	
-8.08508e-05	-0.00143046	-6.19002e-05	
-0.000229708	-0.00107338	-0.000231795	
-4.73623e-05	-0.00155565	-3.3264e-05	
-0.000236912	-0.000671015	-0.000359186	
-2.61332e-05	-0.0016537	-2.13409e-05	
-0.000186873	-0.00114176	-0.000164531	
-5.4523e-05	-0.00143333	-4.83611e-05	
-0.0189617	0.00546317	-0.00229868	
-0.00138673	-0.00128889	0.000545464	
-0.000138101	-0.00045664	-0.000339166	
-0.00016355	-0.0012928	-0.000131661	
0.0254655	0.00774618	0.00274548	
0.00445107	0.00015213	-0.00173681	
0.00132703	-0.000784901	-0.000583963	
0.000596	-0.000889702	-0.000226417	
7.0577e-05	-0.00118822	-2.50954e-05	
6.66687e-05	-0.000863064	6.42573e-05	
0.00137482	-0.00123576	-0.000728453	
-0.00153278	-0.00127575	0.000846667	
0.000904206	-0.000739353	-0.000340146	
0.000111405	-0.00116339	-3.15191e-05	
0.000917195	-0.00118233	-0.000485551	
0.00124855	-0.000993403	-0.000582318	
0.000260206	-0.00114128	-8.93141e-05	
0.000332439	-0.00111279	-0.00012219	
3.56604e-05	-0.00115357	3.08752e-05	
0.0028335	-0.000162985	-0.000955889	
0.000826697	-0.00071044	-0.000271985	
0.00198835	-0.000339884	-0.00074813	
0.000119478	-0.000674655	0.000110081	
2.0013e-05	-0.00115141	1.24853e-05	
0.00380864	0.000114437	-0.00123938	
6.92001e-06	-0.00121738	1.06167e-05	
0.000136719	-0.00116258	-5.83642e-05	
0.00452908	0.00100669	0.000241563	
6.05484e-05	-0.00113432	5.33812e-05	
0.00468074	0.000717617	-0.000356	
0.00149185	-0.000700778	-0.000662022	
5.54773e-06	-0.00122534	1.16363e-05	
7.68552e-05	-0.000854121	6.52125e-05	
0.000134914	-0.000397424	0.000245927	
-5.02956e-05	-0.00117	6.27638e-05	
-0.00771838	0.00140002	0.00177941	
-0.000944787	-0.000816516	0.000379265	
-0.00050383	-0.000903927	0.000180633	
-0.0111765	0.00330096	-0.000395724	
0.000478977	-0.00119935	-0.000236845	
-7.29725e-05	-0.000875913	-6.83623e-05	
-0.000545033	-0.0012783	0.000308551	
0.000353871	-0.00124356	-0.000200457	
0.000366068	-0.00129468	-0.000220054	
-0.00221973	-0.000594254	0.000975737	
-0.000522634	-0.00114867	0.000236283	
-0.00113003	-0.00117413	0.000589074	
-0.00111918	-0.000994705	0.000515666	
-0.000768356	-0.0010945	0.000355874	
0.000133709	-0.00114446	-0.00013094	
-0.00532051	0.000215869	0.00211416	
-0.00177209	-0.00059171	0.000723568	
-0.00251153	-0.000322412	0.0010719	
-6.35005e-05	-0.00113274	-5.1656e-05	
-0.000120551	-0.000561164	-0.000120739	
-3.70459e-05	-0.00115079	-2.61861e-05	
-0.00016211	-0.000457614	-0.000237408	
-2.12355e-05	-0.00123546	-1.68155e-05	
-0.000108892	-0.000666245	-9.59124e-05	
-4.38822e-05	-0.00112884	-3.97309e-05	
-0.0192096	0.00571457	-0.0021857	
-0.00141694	-0.000789425	0.000613666	
-0.000104237	-0.000328336	-0.000230729	
-0.00010288	-0.000803432	-8.37912e-05	
0.0259875	0.00800731	0.00262047	
0.00462831	-0.000107218	-0.00168829	
0.00142856	-0.00119367	-0.000565533	
0.000675142	-0.00127133	-0.000221944	
-1.18257e-05	-0.00148758	2.19846e-05	
9.89133e-05	-0.00127552	9.56125e-05	
0.00137465	-0.0015269	-0.000697069	
-0.00144797	-0.00150887	0.000778133	
0.00119453	-0.00110775	-0.000417727	
8.52726e-05	-0.00147419	-7.23031e-06	
0.000964279	-0.00144793	-0.000489075	
0.00131911	-0.00128234	-0.000574914	
0.000271347	-0.00148523	-7.68807e-05	
0.000461751	-0.00146359	-0.000165887	
4.59845e-05	-0.00146344	3.90499e-05	
0.0029156	-0.000336236	-0.000890507	
0.000919434	-0.000960113	-0.000260411	
0.00212715	-0.000618038	-0.000715421	
0.000167872	-0.000959123	0.000155499	
2.61424e-05	-0.00142093	1.75971e-05	