<VTKFile type="UnstructuredGrid" version="0.1" byte_order="LittleEndian">
	<UnstructuredGrid>
		<Piece NumberOfPoints="900" NumberOfCells="900">
			<CellData Scalars="scalars">
				<DataArray type="Float64" Name="Strength" NumberOfComponents="3" Format="ascii">
0.0171322	-0.0109582	-2.88248e-05	
0.00255171	-0.0237325	0.00234067	
0.000622679	-0.0252466	0.000639262	
-0.000185851	-0.0264892	0.000801621	
-0.000414802	-0.0260822	0.000328181	
0.000334435	-0.0258254	0.000622691	
0.00120272	-0.0264602	-0.000402899	
-0.00147261	-0.0257311	0.000798241	
-1.49189e-05	-0.025151	0.00156702	
0.000167841	-0.0254796	0.000135047	
0.000774655	-0.0264202	-0.000351517	
0.00101966	-0.0254584	8.45307e-06	
0.000107171	-0.0268084	0.000326383	
0.00038983	-0.0263083	0.000322394	
0.000226728	-0.0261133	0.000241173	
0.00134607	-0.0223651	0.00366369	
0.000794938	-0.0254789	0.00167044	
0.00139941	-0.0242966	0.00233131	
0.000694012	-0.0253268	0.00227318	
0.000183635	-0.025926	2.60139e-05	
0.00220943	-0.0213461	0.0044069	
-5.67835e-06	-0.0252213	0.000106613	
-6.5113e-05	-0.0259999	0.000201555	
0.00334367	-0.0149048	0.00466088	
0.000315028	-0.0261794	0.000435178	
0.00269418	-0.0172601	0.00519099	
0.0011119	-0.0249824	0.000593265	
9.49814e-05	-0.0267281	-7.93189e-05	
0.00042869	-0.0256703	0.000902602	
0.000369557	-0.0193126	0.00565846	
6.85139e-05	-0.0260355	0.000344053	
-0.00408645	-0.0192303	-0.00443302	
-0.000366866	-0.0255027	-0.00102834	
0.000132251	-0.0264695	-0.000756047	
-0.00715858	-0.0150323	-0.00367512	
0.000467028	-0.026231	-2.47355e-05	
-0.000382444	-0.0259192	-0.000676903	
-0.000591599	-0.0267128	0.000285478	
0.000367368	-0.0261651	-0.000188791	
0.000542181	-0.0265992	-0.000311368	
-0.000990814	-0.0248731	-0.00123758	
-0.000181152	-0.0255669	-0.000247282	
-0.000944834	-0.0265655	0.000243503	
-0.000915449	-0.0255551	-7.42954e-05	
-0.000837299	-0.0261809	-0.000131681	
0.000254103	-0.0261108	-0.000508196	
-0.00265879	-0.0223287	-0.00309725	
-0.00129099	-0.0248954	-0.00144506	
-0.00104993	-0.0237309	-0.0021551	
-0.000406121	-0.0261067	-0.000411468	
-0.000497768	-0.0237298	-0.00309357	
-0.000104074	-0.0260234	-0.000280935	
-0.000533039	-0.0209708	-0.00529377	
-2.7076e-05	-0.0271045	-0.000124441	
-0.000543424	-0.0242949	-0.00212324	
-0.00020167	-0.026613	-0.000383611	
-0.0137028	-0.0113092	-0.000602349	
-0.00108692	-0.0260674	-0.000797242	
-0.000851872	-0.0172011	-0.00622267	
-0.00046994	-0.0253638	-0.0013455	
0.0184006	0.000551235	-0.00394597	
0.00238068	-0.00404302	-0.000835936	
0.000387885	-0.00486793	-6.81264e-05	
-0.00025872	-0.0049349	0.000309309	
-0.000156511	-0.00521245	0.000134472	
7.81612e-05	-0.00490118	9.85545e-05	
0.00113317	-0.00511644	-0.000725634	
-0.00136319	-0.00513505	0.000938262	
-0.000237151	-0.00467044	0.000459863	
-6.25128e-05	-0.00511422	8.18731e-05	
0.000624176	-0.00506885	-0.000418078	
0.000752493	-0.00506535	-0.000410949	
-4.835e-05	-0.00505299	0.000118346	
0.000151576	-0.00510457	-7.18669e-06	
3.87773e-05	-0.00507473	5.4663e-05	
0.00140482	-0.00378621	-7.44011e-05	
0.000357817	-0.00454826	0.000154127	
0.00108609	-0.00420624	-0.000126827	
0.000211288	-0.00448046	0.000368022	
3.23267e-05	-0.00496314	-1.25862e-06	
0.00228584	-0.0034567	-0.00038753	
-1.1743e-06	-0.0050387	1.81123e-05	
7.12718e-05	-0.00523694	-7.09062e-06	
0.00308566	-0.00188253	-0.000198122	
6.63295e-05	-0.00514166	7.64049e-05	
0.00285975	-0.00243588	-0.000258674	
0.000751907	-0.00473371	-0.000265747	
1.45343e-06	-0.00510054	-6.58418e-06	
9.06382e-05	-0.00482338	0.000144082	
0.000302962	-0.00303129	0.000778065	
2.46575e-05	-0.00526852	6.79331e-05	
-0.00443578	-0.00297609	0.00117774	
-7.08726e-05	-0.00490598	-0.000189857	
0.000311202	-0.00496385	-0.000338975	
-0.00727948	-0.00154294	0.00171806	
0.000428124	-0.00525034	-0.000240565	
-7.22134e-05	-0.00491638	-0.000121053	
-0.000474101	-0.00521094	0.000333461	
0.000355135	-0.00516991	-0.000243731	
0.000441324	-0.00518897	-0.000310478	
-0.00079866	-0.00458916	0.000168209	
-0.00015317	-0.00511982	3.263e-05	
-0.00083908	-0.00517994	0.000532054	
-0.000616757	-0.00503095	0.000313132	
-0.000458211	-0.00508697	0.000196974	
0.000310322	-0.00504634	-0.000299729	
-0.00271349	-0.00382199	0.000845825	
-0.000969609	-0.00449931	0.000218489	
-0.00091771	-0.00428828	6.29861e-05	
-6.51023e-05	-0.00513688	-8.22024e-05	
-0.000240417	-0.00403014	-0.000467189	
-4.7994e-05	-0.00505264	-3.93153e-05	
-0.000327706	-0.00341864	-0.000763527	
-2.01596e-05	-0.00516338	-1.99144e-05	
-0.000190613	-0.00435375	-0.0003503	
-4.81152e-05	-0.00505899	-7.34859e-05	
-0.0142836	4.00131e-05	0.00316885	
-0.000769076	-0.00486449	0.000250836	
-0.000347365	-0.00248939	-0.000781491	
-0.00013327	-0.00474292	-0.000215414	
0.0191955	0.00283542	-0.00384918	
0.00245378	-0.00151677	-0.00130613	
0.000403804	-0.00210583	-0.000191105	
-0.000214724	-0.00217604	0.000206213	
-0.000108995	-0.00235377	7.87929e-05	
4.86744e-05	-0.00213875	2.90602e-05	
0.00115883	-0.00231834	-0.000758082	
-0.00138584	-0.00231944	0.000930453	
-0.000181301	-0.00199563	0.00023767	
-9.05036e-05	-0.0023061	7.66312e-05	
0.000640633	-0.00231038	-0.000427498	
0.000770708	-0.00222274	-0.000480204	
-4.34964e-05	-0.00226868	6.45467e-05	
0.000140548	-0.00227747	-5.21138e-05	
2.02446e-05	-0.00229393	2.27672e-05	
0.00143754	-0.00147626	-0.000596418	
0.000340616	-0.00192042	-7.81996e-05	
0.00108813	-0.00170785	-0.000497339	
0.000139261	-0.00188705	9.97263e-05	
1.15254e-05	-0.00226474	3.41938e-07	
0.00234911	-0.00126503	-0.000976397	
1.80089e-06	-0.00230274	4.87937e-06	
8.53772e-05	-0.00236387	-4.1803e-05	
0.0031382	-0.000397904	-0.000619241	
3.76942e-05	-0.00227894	2.94027e-05	
0.00296575	-0.000699192	-0.000777528	
0.000766367	-0.0020211	-0.000433804	
-4.0726e-06	-0.00231363	2.07025e-06	
5.80898e-05	-0.00209072	4.02294e-05	
0.000199224	-0.00123758	0.000238119	
1.21342e-05	-0.00237383	3.13266e-05	
-0.00465743	-0.000759674	0.00183322	
-7.44423e-05	-0.00213104	-5.05931e-05	
0.000270888	-0.00218174	-0.000245564	
-0.00759004	0.000402777	0.00201846	
0.000425706	-0.00236891	-0.000262157	
-4.91164e-05	-0.00214787	-4.02961e-05	
-0.000471694	-0.00236261	0.000325894	
0.000348987	-0.0023589	-0.000238611	
0.000423928	-0.0023579	-0.000293949	
-0.000877235	-0.00194904	0.000451627	
-0.000154748	-0.00231868	7.55059e-05	
-0.000855483	-0.00234112	0.000566852	
-0.00064178	-0.00222054	0.000388571	
-0.000440766	-0.00227371	0.000245234	
0.00029803	-0.00229879	-0.000238836	
-0.00284351	-0.00137614	0.00142972	
-0.00098302	-0.00188377	0.000485317	
-0.000995471	-0.00173615	0.000446162	
-3.90066e-05	-0.00227857	-3.37899e-05	
-0.00015743	-0.00166703	-0.000109887	
-3.06127e-05	-0.00229674	-8.6184e-06	
-0.000211166	-0.00138339	-0.000231678	
-1.46181e-05	-0.0023418	-2.43985e-06	
-0.000114454	-0.00184174	-9.0885e-05	
-2.65391e-05	-0.00227477	-2.78239e-05	
-0.0148532	0.00204836	0.00308108	
-0.000775743	-0.00209742	0.00041649	
-0.000208608	-0.00102211	-0.000244458	
-9.29161e-05	-0.00205564	-5.53163e-05	
0.0202935	0.00358773	-0.00333939	
0.00273454	-0.00169584	-0.00138124	
0.000497115	-0.0023759	-0.000232323	
-0.000150501	-0.00245552	0.000145357	
-8.01622e-05	-0.00261306	4.27402e-05	
5.39233e-05	-0.00241596	2.03842e-05	
0.00121505	-0.00258313	-0.000725607	
-0.00143937	-0.00258247	0.000879429	
-8.03788e-05	-0.00223723	0.000169444	
-0.000102034	-0.00259556	7.42114e-05	
0.000671316	-0.00259134	-0.000406992	
0.000841225	-0.00249017	-0.000479404	
-7.73108e-06	-0.00256056	3.1263e-05	
0.000162512	-0.00255447	-6.66964e-05	
2.58898e-05	-0.0025816	1.57993e-05	
0.00162405	-0.00164199	-0.000694156	
0.000395498	-0.00214676	-0.000113714	
0.00121277	-0.00192024	-0.000544084	
0.000142639	-0.00210613	9.4381e-05	
1.0719e-05	-0.00255396	-3.98419e-06	
0.00257908	-0.00138355	-0.00106034	
3.09905e-06	-0.0025764	5.32338e-06	
9.55185e-05	-0.00261186	-5.06088e-05	
0.00338513	-0.000382674	-0.000654092	
4.25671e-05	-0.00254361	2.15999e-05	
0.00323883	-0.000739175	-0.000855901	
0.00083038	-0.00227479	-0.000439882	
-3.50252e-06	-0.00258175	3.73524e-06	
6.46012e-05	-0.00234495	2.45791e-05	
0.000235071	-0.00139216	0.00024299	
8.96905e-06	-0.00261615	3.2626e-05	
-0.00510915	-0.000780556	0.0019839	
-0.000153671	-0.00238934	4.91291e-06	
0.000213219	-0.00245391	-0.00018154	
-0.00817863	0.000619145	0.00205458	
0.000441326	-0.00261948	-0.000247239	
-5.69253e-05	-0.00241793	-3.19694e-05	
-0.000487306	-0.00261805	0.000299145	
0.000354927	-0.00261506	-0.000219962	
0.000427963	-0.00261235	-0.000271982	
-0.00103511	-0.00218544	0.000524386	
-0.000170767	-0.00260102	8.18951e-05	
-0.000895206	-0.00260315	0.000542485	
-0.000707905	-0.00249218	0.000397086	
-0.000481274	-0.00254928	0.000252147	
0.000273916	-0.00258546	-0.000200627	
-0.00317024	-0.00153572	0.00153784	
-0.00110551	-0.00209023	0.00053329	
-0.00118864	-0.0019385	0.000533191	
-4.37059e-05	-0.00254323	-2.35296e-05	
-0.000161809	-0.00188953	-9.74711e-05	
-3.38595e-05	-0.00257201	1.49015e-06	
-0.000247322	-0.00156894	-0.000235304	
-1.67618e-05	-0.00259947	1.80598e-06	
-0.00011522	-0.00207112	-8.34018e-05	
-3.21391e-05	-0.00256235	-1.72391e-05	
-0.0156438	0.0026176	0.00260299	
-0.000864074	-0.0023243	0.000448237	
-0.000252822	-0.00116667	-0.000249456	
-8.18925e-05	-0.00228539	-6.37797e-05	
0.0212079	0.00366689	-0.00346244	
0.00296301	-0.00144736	-0.00138583	
0.000566449	-0.00209132	-0.00027583	
-0.000102307	-0.00216674	9.85617e-05	
-5.82583e-05	-0.00234266	2.80135e-05	
4.27742e-05	-0.00213066	1.87149e-05	
0.00124184	-0.0023168	-0.000715919	
-0.00146858	-0.00231617	0.00085796	
3.27957e-05	-0.00195833	4.07542e-05	
-0.000100158	-0.00230315	6.33855e-05	
0.000700512	-0.00231624	-0.000408845	
0.00088355	-0.00219997	-0.000492705	
2.03566e-05	-0.0022668	4.09519e-06	
0.000174825	-0.00225957	-8.05334e-05	
1.98765e-05	-0.0022861	7.19933e-06	
0.00176009	-0.001401	-0.00070525	
0.000429691	-0.00186735	-0.000146426	
0.00129849	-0.00165116	-0.000570422	
0.000112121	-0.00182825	6.65429e-05	
9.21676e-06	-0.00227635	-4.04251e-06	
0.00274511	-0.00116307	-0.00107916	
1.25982e-06	-0.00230867	1.34007e-06	
9.91331e-05	-0.00234148	-4.9827e-05	
0.00355064	-0.000212038	-0.000699482	
3.31335e-05	-0.00224878	1.35657e-05	
0.00342495	-0.000550731	-0.000929745	
0.000922689	-0.00197762	-0.000496535	
-8.14871e-07	-0.002313	1.68516e-06	
4.73156e-05	-0.0020605	1.2843e-05	
0.000185007	-0.00118655	0.000211711	
-4.41082e-06	-0.00234666	3.6645e-05	
-0.00548391	-0.000572543	0.00203776	
-0.000207699	-0.00210045	5.77699e-05	
0.000164464	-0.00216425	-0.000131007	
-0.00866879	0.000818989	0.00206614	
0.000441152	-0.00234905	-0.000235125	
-4.45964e-05	-0.00212952	-2.34584e-05	
-0.000496303	-0.00234715	0.000296101	
0.000353848	-0.00234059	-0.000207534	
0.000430762	-0.00233814	-0.000256168	
-0.00119422	-0.00188781	0.000615089	
-0.000188189	-0.00230692	9.36745e-05	
-0.000922812	-0.00232863	0.000536469	
-0.000751613	-0.00219702	0.000414601	
-0.000508931	-0.00225427	0.000268476	
0.00026324	-0.00228862	-0.00017503	
-0.0034579	-0.0013134	0.00154429	
-0.00117618	-0.00181364	0.00057195	
-0.00134422	-0.00167258	0.000601895	
-3.57353e-05	-0.00224796	-1.42e-05	
-0.000123184	-0.00163551	-8.7771e-05	
-2.6464e-05	-0.00229273	-2.25592e-06	
-0.000186599	-0.0013499	-0.00020574	
-1.45626e-05	-0.00232762	-1.20112e-08	
-9.00445e-05	-0.00180222	-6.26231e-05	
-2.60127e-05	-0.00227019	-1.04706e-05	
-0.0162914	0.00271628	0.00257877	
-0.000911993	-0.00203589	0.000472233	
-0.000206019	-0.000993892	-0.000215613	
-8.09283e-05	-0.00200034	-1.6672e-05	
0.0220536	0.00358863	-0.00326779	
0.00323855	-0.00119539	-0.00121816	
0.000662945	-0.00178916	-0.000273033	
-2.26819e-05	-0.00187606	4.6509e-05	
-4.3788e-05	-0.00207967	2.07503e-05	
2.84942e-05	-0.00183262	3.07735e-05	
0.00130024	-0.00206153	-0.000641845	
-0.00153261	-0.00206084	0.000759475	
0.00012645	-0.00165736	-5.9569e-06	
-0.000108028	-0.00205063	5.99959e-05	
0.000749298	-0.00205717	-0.000368097	
0.000976589	-0.00192989	-0.000466725	
3.70029e-05	-0.00202751	-3.51725e-06	
0.000197789	-0.0020225	-8.24556e-05	
1.43828e-05	-0.00203876	6.69385e-06	
0.00192054	-0.00115676	-0.000614779	
0.000478638	-0.00157102	-0.000145177	
0.00141361	-0.0013777	-0.000488041	
8.57238e-05	-0.00153565	6.92459e-05	
9.98925e-06	-0.00202693	-4.43095e-06	
0.00295412	-0.000956076	-0.000887855	
-4.40991e-08	-0.00206012	1.32942e-06	
0.000100569	-0.00207584	-4.14838e-05	
0.00370799	-0.000119333	-0.000637661	
2.59797e-05	-0.00200453	1.56035e-05	
0.0036157	-0.000412262	-0.00085071	
0.0010058	-0.00168443	-0.000436277	
-1.43151e-06	-0.0020546	1.12722e-06	
3.45402e-05	-0.00175357	1.9948e-05	
0.000127234	-0.000988645	0.000209823	
-1.68579e-05	-0.00208072	3.72826e-05	
-0.00589439	-0.000433703	0.00178404	
-0.000279351	-0.00179238	6.9182e-05	
9.071e-05	-0.00187059	-7.52387e-05	
-0.00912944	0.000884906	0.00190589	
0.000454529	-0.00208556	-0.000207645	
-2.91623e-05	-0.00182793	-3.88107e-05	
-0.000519924	-0.00208559	0.000266918	
0.000357416	-0.00208282	-0.000177231	
0.00044152	-0.00207553	-0.000218515	
-0.00134938	-0.00160376	0.000573862	
-0.000205189	-0.00204764	8.21811e-05	
-0.00097722	-0.00206359	0.000474085	
-0.000837919	-0.00192176	0.000401045	
-0.000554456	-0.00201211	0.000251355	
0.000267564	-0.00203318	-0.000148249	
-0.00378783	-0.00107434	0.00134921	
-0.00126384	-0.00152952	0.000526252	
-0.00152787	-0.00139029	0.000554409	
-2.88124e-05	-0.00199661	-1.14827e-05	
-8.84606e-05	-0.00136746	-9.86153e-05	
-2.23157e-05	-0.0020348	-6.7714e-06	
-0.000128628	-0.00112454	-0.000198938	
-1.1528e-05	-0.00206169	-4.14264e-06	
-6.57371e-05	-0.00151567	-6.3672e-05	
-1.83294e-05	-0.00202359	-9.66619e-06	
-0.0168826	0.00262301	0.00247194	
-0.00097951	-0.00173139	0.000434038	
-0.000151592	-0.000830667	-0.000208007	
-5.25659e-05	-0.0016953	-4.76845e-05	
0.0228146	0.00332654	-0.00320257	
0.00343718	-0.00103497	-0.00121089	
0.000760685	-0.0015807	-0.000276986	
6.67609e-05	-0.0016631	5.84363e-06	
-4.35634e-05	-0.00188328	1.92278e-05	
2.44165e-05	-0.001623	3.02332e-05	
0.00135043	-0.00187677	-0.000573743	
-0.00157158	-0.00187684	0.000678906	
0.000235633	-0.00146152	-4.64208e-05	
-9.74149e-05	-0.00183963	4.68543e-05	
0.00079379	-0.00185949	-0.000342413	
0.00106836	-0.00171553	-0.00043811	
6.19617e-05	-0.00181963	-1.58763e-05	
0.000228399	-0.00180826	-7.95646e-05	
1.20843e-05	-0.00182697	7.61648e-06	
0.00203438	-0.00100441	-0.000621197	
0.000522162	-0.00138209	-0.000146524	
0.00149745	-0.00120453	-0.000503383	
6.9498e-05	-0.00135031	6.9309e-05	
7.29958e-06	-0.00182972	-8.74158e-07	
0.00308787	-0.000835403	-0.000893204	
4.34283e-07	-0.00187506	2.26012e-06	
0.000105267	-0.00187623	-3.59459e-05	
0.00383975	-6.37515e-05	-0.000679062	
2.00454e-05	-0.00178578	2.03424e-05	
0.00376654	-0.00032358	-0.000897884	
0.0010822	-0.0014861	-0.000422751	
7.62637e-07	-0.00186161	7.73691e-07	
2.70503e-05	-0.0015495	2.6281e-05	
0.000105055	-0.000874058	0.000181141	
-2.40455e-05	-0.00188004	3.6167e-05	
-0.00617613	-0.000342368	0.00183725	
-0.000361715	-0.00158839	9.7546e-05	
6.29035e-06	-0.00166331	-3.35819e-05	
-0.00951519	0.000837798	0.0019304	
0.000475042	-0.00188731	-0.000187287	
-2.6407e-05	-0.00162351	-3.16555e-05	
-0.000539628	-0.0018946	0.000240675	
0.000359902	-0.00189178	-0.000153989	
0.000436707	-0.00188703	-0.00019364	
-0.00150851	-0.00141522	0.000572658	
-0.000237424	-0.00183918	8.56582e-05	
-0.00102293	-0.00186468	0.000435125	
-0.000926455	-0.00171313	0.000378448	
-0.000610563	-0.0018032	0.000243221	
0.000271031	-0.0018251	-0.000134367	
-0.00400843	-0.00092491	0.00136824	
-0.00135833	-0.00135006	0.000484297	
-0.00167316	-0.00121576	0.000582854	
-2.15447e-05	-0.00178447	-1.9231e-05	
-7.25588e-05	-0.00120123	-9.03733e-05	
-1.67159e-05	-0.00183737	-1.13073e-05	
-0.000105517	-0.00099465	-0.000174419	
-9.69745e-06	-0.0018664	-5.96522e-06	
-5.39133e-05	-0.00133602	-6.21937e-05	
-1.3866e-05	-0.00182092	-1.2783e-05	
-0.0174187	0.00239558	0.002382	
-0.00104611	-0.00153507	0.000396406	
-0.000124646	-0.000737225	-0.000179277	
-4.65273e-05	-0.00150587	-4.00198e-05	
0.0235216	0.00312435	-0.00341393	
0.00380357	-0.00121479	-0.00133658	
0.00082321	-0.00173041	-0.000295827	
0.000163462	-0.0018143	-3.27419e-05	
-2.53279e-05	-0.00194738	1.17833e-05	
2.58316e-05	-0.00176336	3.37259e-05	
0.00135358	-0.00193473	-0.000570634	
-0.00162261	-0.00196951	0.000697741	
0.000284129	-0.0016836	-5.80441e-05	
-0.000103242	-0.00195837	5.08304e-05	
0.000836557	-0.00196942	-0.000359124	
0.00111095	-0.00185364	-0.000451586	
0.000122167	-0.00193187	-4.22604e-05	
0.000238938	-0.00190034	-8.3382e-05	
1.2663e-05	-0.00194986	8.91154e-06	
0.00221014	-0.00112194	-0.000666974	
0.000557326	-0.00164307	-0.000147578	
0.00158458	-0.00149325	-0.000519321	
8.00001e-05	-0.00162972	8.2454e-05	
8.02635e-06	-0.00193156	1.35628e-06	
0.0032515	-0.000903186	-0.000949368	
8.06093e-07	-0.00194341	2.27429e-06	
0.000101612	-0.00194573	-3.48057e-05	
0.00398873	-9.82533e-05	-0.000753423	
2.00546e-05	-0.00189615	2.20979e-05	
0.00393429	-0.000356086	-0.000977382	
0.00111929	-0.0016768	-0.000430209	
1.60413e-06	-0.0019805	9.17925e-07	
2.89542e-05	-0.00171708	3.15903e-05	
0.000102711	-0.000914947	0.000178224	
-3.54525e-05	-0.00194216	4.0926e-05	
-0.00649061	-0.000375514	0.00197414	
-0.00041384	-0.00175304	0.000113387	
-8.57253e-05	-0.00183363	2.5514e-06	
-0.00989095	0.000787637	0.00206048	
0.000477163	-0.00194171	-0.000188301	
-2.83202e-05	-0.00177913	-3.70962e-05	
-0.000536256	-0.00194127	0.000238248	
0.000393401	-0.00194486	-0.000167998	
0.000447537	-0.00197785	-0.00019762	
-0.00157743	-0.00166736	0.000590281	
-0.000245458	-0.00197037	8.73068e-05	
-0.00105446	-0.0019852	0.000446835	
-0.000961992	-0.00186592	0.000388865	
-0.00066501	-0.00190571	0.000264378	
0.000252432	-0.00195723	-0.000125817	
-0.0043168	-0.00102848	0.00146889	
-0.00143694	-0.00163097	0.000500557	
-0.00196636	-0.00140023	0.000690069	
-2.14182e-05	-0.00190204	-2.16065e-05	
-7.63358e-05	-0.00134959	-0.00010004	
-1.7338e-05	-0.00194735	-1.2019e-05	
-0.000104023	-0.00104914	-0.000173412	
-1.04347e-05	-0.00198371	-6.35765e-06	
-6.13632e-05	-0.00162219	-7.47811e-05	
-1.39996e-05	-0.00194468	-1.38685e-05	
-0.0179084	0.00223478	0.00251491	
-0.00107872	-0.00172358	0.000401825	
-0.000118986	-0.000754347	-0.000171194	
-5.14682e-05	-0.0017137	-4.76953e-05	
0.0241612	0.00291895	-0.00368025	
0.00404281	-0.00110845	-0.00144665	
0.000978146	-0.00184221	-0.00035855	
0.000226589	-0.00194901	-5.8372e-05	
2.79549e-05	-0.0022023	-1.16148e-05	
2.64388e-05	-0.00191208	3.7413e-05	
0.00135296	-0.00219813	-0.000565515	
-0.00153854	-0.00219039	0.000657152	
0.000492792	-0.00166799	-0.000148394	
-6.65562e-05	-0.00211537	3.51404e-05	
0.000838342	-0.00212029	-0.000358406	
0.00113288	-0.00197186	-0.000458052	
0.000168773	-0.00206632	-6.3828e-05	
0.000298841	-0.00205155	-0.00010934	
1.27795e-05	-0.00208799	7.88138e-06	
0.00235759	-0.00104128	-0.000730368	
0.000616026	-0.00152031	-0.000181509	
0.00166116	-0.00131845	-0.000572572	
6.75253e-05	-0.00146991	7.01456e-05	
8.88134e-06	-0.00210732	1.78427e-06	
0.00339459	-0.000835649	-0.00102566	
9.81439e-07	-0.00220174	2.81157e-06	
0.000107881	-0.00223918	-3.70676e-05	
0.00411255	-6.82334e-05	-0.000837272	
1.92559e-05	-0.00200018	2.2074e-05	
0.00408661	-0.000303539	-0.00107764	
0.00117328	-0.00171326	-0.000449107	
2.22543e-06	-0.00212378	1.36653e-06	
2.87088e-05	-0.00177571	3.31747e-05	
8.73568e-05	-0.000851878	0.000151915	
-8.32818e-05	-0.00224501	6.43332e-05	
-0.00678487	-0.000328944	0.00212904	
-0.000575707	-0.00185035	0.000181931	
-0.000196449	-0.00198201	4.89478e-05	
-0.0102288	0.00076145	0.00222143	
0.000472002	-0.00221028	-0.000184389	
-2.93264e-05	-0.0019352	-3.89251e-05	
-0.00050801	-0.00220428	0.000224475	
0.000379906	-0.00222674	-0.000161115	
0.000385502	-0.00221851	-0.000168342	
-0.00181216	-0.00162884	0.000689961	
-0.000288653	-0.00214257	0.000105273	
-0.00105754	-0.00215524	0.000446205	
-0.000954129	-0.00204152	0.000381352	
-0.000733619	-0.00208099	0.000292326	
0.000224462	-0.00211822	-0.000113006	
-0.00459164	-0.000956902	0.00159472	
-0.00153728	-0.00149407	0.000551723	
-0.00214505	-0.00129794	0.000776104	
-2.12926e-05	-0.00204142	-2.31913e-05	
-6.62566e-05	-0.00126863	-8.84162e-05	
-1.83418e-05	-0.00214071	-1.35924e-05	
-8.93711e-05	-0.000984301	-0.000149305	
-1.109e-05	-0.00215862	-6.60767e-06	
-4.9937e-05	-0.00144582	-6.28688e-05	
-1.39273e-05	-0.00209955	-1.37022e-05	
-0.0183486	0.00210351	0.00266274	
-0.00112266	-0.00177361	0.000419762	
-0.000100493	-0.000695889	-0.000144789	
-4.94064e-05	-0.00174616	-4.82554e-05	
0.0246897	0.00266129	-0.00399444	
0.00421324	-0.000835749	-0.00154986	
0.00100689	-0.00143341	-0.000384461	
0.000286682	-0.00144141	-9.61041e-05	
3.92107e-05	-0.00160344	-1.71339e-05	
1.78324e-05	-0.00143941	2.68988e-05	
0.00139769	-0.00155799	-0.000587984	
-0.00157686	-0.0015225	0.000673597	
0.000574222	-0.00124417	-0.000199679	
-4.41847e-05	-0.00148872	2.3423e-05	
0.000901113	-0.00155685	-0.000387747	
0.00112257	-0.00150165	-0.000463503	
0.000180255	-0.00145937	-7.35519e-05	
0.000255729	-0.00146078	-9.77368e-05	
8.16971e-06	-0.00146838	4.55322e-06	
0.00246186	-0.000805445	-0.000809673	
0.000645576	-0.00120236	-0.00021403	
0.00175126	-0.00101351	-0.000643154	
4.84585e-05	-0.00117372	5.13811e-05	
6.1507e-06	-0.00148246	1.77203e-06	
0.00348898	-0.000638608	-0.00111431	
7.18335e-07	-0.00152255	1.51494e-06	
0.00012167	-0.00156635	-4.67831e-05	
0.00420608	-7.52208e-06	-0.000932246	
1.24494e-05	-0.00150256	1.57331e-05	
0.00419032	-0.000208927	-0.0011808	
0.00129947	-0.00128089	-0.000512377	
1.93916e-06	-0.00155062	1.12008e-06	
2.06776e-05	-0.00141652	2.54445e-05	
6.15091e-05	-0.000687002	0.000110219	
-4.03417e-05	-0.00158275	3.47777e-05	
-0.00701772	-0.000256268	0.00228123	
-0.000649844	-0.00154642	0.000227452	
-0.000269204	-0.00161083	8.84921e-05	
-0.0105235	0.000719922	0.00238203	
0.00047311	-0.00163493	-0.000191694	
-2.14553e-05	-0.00156139	-2.93637e-05	
-0.000539517	-0.00163748	0.000237538	
0.000376936	-0.00160779	-0.000161205	
0.000431345	-0.00160826	-0.000188609	
-0.00188662	-0.00129284	0.000736886	
-0.000295329	-0.00162609	0.00011284	
-0.00108096	-0.0016734	0.00046046	
-0.000983825	-0.0016356	0.000402554	
-0.000678497	-0.00162958	0.000275297	
0.000231662	-0.00161723	-0.000110832	
-0.00485155	-0.000808957	0.001733	
-0.00155626	-0.00127698	0.000577321	
-0.00233016	-0.00124831	0.000864775	
-1.47889e-05	-0.0016777	-1.87234e-05	
-5.16584e-05	-0.00111677	-7.1286e-05	
-1.31332e-05	-0.00161376	-9.91829e-06	
-6.77259e-05	-0.000847554	-0.000115978	
-8.07969e-06	-0.00164803	-4.78452e-06	
-3.89259e-05	-0.00129806	-5.1146e-05	
-9.42798e-06	-0.0016244	-9.6531e-06	
-0.0187384	0.00190913	0.00286697	
-0.00122752	-0.00147599	0.000479086	
-7.78177e-05	-0.000613475	-0.000115265	
-3.55602e-05	-0.00138195	-3.60975e-05	
0.0253141	0.00219352	-0.00432498	
0.00431167	-0.00102717	-0.00161198	
0.00121167	-0.0014055	-0.000481	
0.000321198	-0.00155881	-0.000112557	
5.05938e-05	-0.0013573	-2.23353e-05	
1.54295e-05	-0.00151803	2.73142e-05	
0.00138843	-0.00135508	-0.000590906	
-0.00165489	-0.00140783	0.000713384	
0.000692756	-0.00125867	-0.000257285	
-7.22583e-05	-0.00151316	3.60836e-05	
0.000847843	-0.00148588	-0.000368157	
0.0011336	-0.00154972	-0.000474122	
0.000146287	-0.00153401	-6.01098e-05	
0.000259043	-0.00155958	-0.000100659	
7.36354e-06	-0.00152049	3.98292e-06	
0.00258282	-0.000943428	-0.000867908	
0.000684322	-0.0011877	-0.000241856	
0.00181124	-0.00105083	-0.000689827	
4.08061e-05	-0.00115986	4.53689e-05	
6.25674e-06	-0.00148563	2.7496e-06	
0.00362529	-0.000789274	-0.00118577	
3.43392e-07	-0.00138298	6.29223e-07	
0.000127415	-0.00136185	-5.15899e-05	
0.0043422	-0.000136807	-0.00101049	
1.02573e-05	-0.00156093	1.56235e-05	
0.00434758	-0.000339305	-0.00127868	
0.00134205	-0.00129069	-0.000540085	
2.00357e-06	-0.00143778	8.35861e-07	
1.5849e-05	-0.00133873	2.32114e-05	
5.91026e-05	-0.000803855	0.000113381	
-4.80559e-05	-0.00136779	3.44054e-05	
-0.00725084	-0.000290315	0.00246357	
-0.000785163	-0.00120156	0.000304369	
-0.000339724	-0.00127046	0.000129901	
-0.0108327	0.000588297	0.00256855	
0.00048439	-0.00136956	-0.000202814	
-1.44861e-05	-0.00126983	-2.27142e-05	
-0.000532746	-0.00137551	0.000236025	
0.000410951	-0.00138778	-0.000178651	
0.000472196	-0.00141857	-0.000209819	
-0.00200615	-0.00103306	0.000809823	
-0.000350967	-0.00152549	0.000140555	
-0.000988504	-0.00150353	0.000425544	
-0.00104128	-0.00133733	0.000438417	
-0.000760482	-0.00144457	0.000318645	
0.000200592	-0.00149438	-9.55341e-05	
-0.00498896	-0.000746049	0.00184256	
-0.00161709	-0.000985192	0.000629542	
-0.00235864	-0.000868599	0.000921467	
-9.33893e-06	-0.00139667	-1.49451e-05	
-3.52785e-05	-0.0009377	-5.38971e-05	
-1.10199e-05	-0.00153252	-9.03376e-06	
-5.33755e-05	-0.000811091	-9.74837e-05	
-6.52677e-06	-0.00145092	-4.10796e-06	
-2.29059e-05	-0.00096896	-3.41581e-05	
-6.71236e-06	-0.0014676	-7.48956e-06	
-0.0191181	0.00160069	0.00308458	
-0.00125851	-0.00113387	0.00051301	
-6.22242e-05	-0.000595363	-9.87477e-05	
-2.41605e-05	-0.00111635	-2.65877e-05	
0.025792	0.00176556	-0.00462238	
0.00448197	-0.000865876	-0.00172578	
0.00130544	-0.00137644	-0.00053075	
0.000383924	-0.00141253	-0.000146637	
0.000145671	-0.00186387	-6.62964e-05	
1.01595e-05	-0.00139057	2.23404e-05	
0.00140353	-0.00180045	-0.000600685	
-0.00161457	-0.00174296	0.000698379	
0.000844582	-0.00115612	-0.000333685	
9.01851e-05	-0.00162279	-3.34726e-05	
0.000883816	-0.0017353	-0.000384836	
0.00114538	-0.00145352	-0.000487353	
0.000194496	-0.00153737	-8.41197e-05	
0.000321826	-0.00153004	-0.000131568	
6.31788e-06	-0.00156871	3.243e-06	
0.00268369	-0.000788093	-0.000944583	
0.000688323	-0.00109135	-0.000257068	
0.0018565	-0.000994175	-0.000732787	
3.06145e-05	-0.00108873	3.59995e-05	
6.54769e-06	-0.00170422	3.16643e-06	
0.00369823	-0.000635437	-0.0012751	
1.25949e-08	-0.00178749	2.83532e-07	
0.000122279	-0.00187874	-4.9467e-05	
0.00442345	-0.000117041	-0.00109534	
6.55892e-06	-0.00147366	1.41787e-05	
0.00444741	-0.000273914	-0.00137505	
0.00141122	-0.00122833	-0.000578395	
2.67498e-06	-0.0017483	1.40809e-06	
1.13847e-05	-0.00130517	1.99249e-05	
3.66783e-05	-0.00066179	7.77913e-05	
-9.74464e-05	-0.00187405	5.84459e-05	
-0.0074613	-0.00033297	0.00260435	
-0.000911888	-0.00146645	0.000363386	
-0.000298542	-0.00149497	0.000113319	
-0.011086	0.000397983	0.00272737	
0.000410234	-0.00183823	-0.000170174	
-1.20471e-05	-0.00149396	-2.37458e-05	
-0.000550123	-0.00177041	0.000244724	
0.000322042	-0.00175185	-0.000139364	
0.000458005	-0.00167341	-0.000204166	
-0.00215711	-0.00121225	0.000883344	
-0.000499147	-0.0014749	0.000206777	
-0.00108313	-0.00162605	0.000469282	
-0.00101113	-0.00145737	0.00043053	
-0.000765427	-0.00145201	0.000324267	
0.000196247	-0.00143847	-9.22673e-05	
-0.0053166	-0.00080291	0.00200958	
-0.00163965	-0.00115658	0.000647304	
-0.00240879	-0.00108158	0.000955363	
-6.16277e-06	-0.00143786	-1.38503e-05	
-3.17084e-05	-0.00112451	-5.5576e-05	
-1.02955e-05	-0.00156045	-8.59214e-06	
-3.99481e-05	-0.000795932	-7.94708e-05	
-6.82637e-06	-0.00165788	-4.54577e-06	
-1.93499e-05	-0.00117227	-3.48297e-05	
-4.75017e-06	-0.00143897	-5.77556e-06	
-0.0194787	0.00122925	0.0032771	
-0.00132769	-0.00136952	0.000548924	
-4.63071e-05	-0.000581147	-8.07084e-05	
-2.22275e-05	-0.00131361	-2.66847e-05	
0.0261178	0.00136114	-0.00488551	
0.00444227	-0.000505327	-0.00174295	
0.00131668	-0.000848896	-0.000550399	
0.000561807	-0.000916554	-0.000234509	
5.6345e-05	-0.00119367	-2.79086e-05	
3.5219e-06	-0.000872052	1.09634e-05	
0.00143658	-0.00125257	-0.000618441	
-0.00162346	-0.00128328	0.000704121	
0.000859483	-0.000795271	-0.000351462	
9.44567e-05	-0.00116902	-3.84099e-05	
0.000957622	-0.00119076	-0.000418808	
0.0012488	-0.00103839	-0.000538544	
0.000234329	-0.00115026	-0.00010553	
0.000304129	-0.00112507	-0.000129992	
2.9913e-06	-0.00115919	8.47396e-07	
0.00276676	-0.000586633	-0.0010096	
0.000763902	-0.000772274	-0.000306331	
0.00192517	-0.000592425	-0.000783599	
1.40138e-05	-0.000697273	1.65399e-05	
4.32532e-06	-0.0011562	2.29653e-06	
0.00375503	-0.000458619	-0.00133868	
1.19503e-07	-0.00122204	-2.08925e-07	
0.000125848	-0.00116873	-5.47874e-05	
0.00447626	-8.14377e-05	-0.00116431	
2.59081e-06	-0.00114235	8.88636e-06	
0.00451096	-0.000192102	-0.00143504	
0.00148265	-0.00078446	-0.000619893	
2.15022e-06	-0.00123049	1.58534e-06	
4.31621e-06	-0.000863681	9.71077e-06	
1.77983e-05	-0.000487255	4.26118e-05	
-7.21923e-05	-0.00117481	3.97429e-05	
-0.00757658	-0.000200484	0.00269296	
-0.000909544	-0.000866507	0.000383424	
-0.000462966	-0.000928285	0.000196529	
-0.0112445	0.000331495	0.00286412	
0.000492113	-0.00120599	-0.000211002	
-3.88544e-06	-0.000885457	-1.02585e-05	
-0.000583466	-0.00128074	0.000259098	
0.000372991	-0.00124951	-0.000163167	
0.000395554	-0.00129943	-0.00017647	
-0.00220546	-0.000774812	0.00092104	
-0.000518062	-0.00116096	0.000218781	
-0.00116825	-0.00119429	0.000509791	
-0.00110895	-0.00104021	0.000481189	
-0.000759916	-0.00111867	0.000327768	
0.000180241	-0.00114821	-8.05438e-05	
-0.00534594	-0.000472676	0.00205489	
-0.00173174	-0.000748816	0.000705824	
-0.00250155	-0.000579859	0.0010173	
-1.96725e-06	-0.0011405	-9.14416e-06	
-1.09968e-05	-0.000589146	-2.23078e-05	
-6.74523e-06	-0.00115632	-5.14624e-06	
-1.82547e-05	-0.000541888	-4.03122e-05	
-4.44216e-06	-0.00124085	-2.35731e-06	
-6.30802e-06	-0.000685198	-1.50001e-05	
-1.38984e-06	-0.00113498	-2.24976e-06	
-0.0197036	0.000963358	0.0035208	
-0.00139046	-0.000875462	0.000593542	
-2.25198e-05	-0.000414853	-4.20405e-05	
-9.64493e-06	-0.000817877	-1.16574e-05	
0.0265425	0.000850854	-0.00519952	
0.0045089	-0.000822006	-0.00175319	
0.00136325	-0.00127228	-0.000569529	
0.000606021	-0.00130623	-0.000257194	
-3.67004e-05	-0.00149535	1.20991e-05	
1.88472e-06	-0.00129093	1.00625e-05	
0.00140511	-0.00154769	-0.000612941	
-0.00150924	-0.00152202	0.000651898	
0.00110211	-0.00118859	-0.00045786	
5.74121e-05	-0.00148407	-2.20192e-05	
0.000987737	-0.00146051	-0.000431255	
0.00128291	-0.00133588	-0.000551151	
0.000228311	-0.00149876	-0.000106941	
0.000417155	-0.00148429	-0.00018366	
2.45033e-06	-0.00147341	-1.11433e-06	
0.00276683	-0.000803491	-0.00101042	
0.000812939	-0.00103525	-0.000325357	
0.00198317	-0.00090225	-0.000794989	