<VTKFile type="UnstructuredGrid" version="0.1" byte_order="LittleEndian">
	<UnstructuredGrid>
		<Piece NumberOfPoints="540" NumberOfCells="540">
			<CellData Scalars="scalars">
				<DataArray type="Float64" Name="Strength" NumberOfComponents="3" Format="ascii">
0.0168155	-0.0113788	-0.00121768	
0.00252016	-0.0238551	0.000871495	
0.000441571	-0.0252792	0.000224925	
-0.000395496	-0.0265179	0.000383399	
-0.000362999	-0.0261043	0.000167223	
0.000160076	-0.025855	0.000239184	
0.00129718	-0.0264759	-0.000362716	
-0.00157127	-0.0257499	0.000569998	
-0.000230885	-0.025211	0.000697401	
9.33931e-05	-0.0254982	4.04781e-05	
0.000727351	-0.0264419	-0.000284514	
0.000883346	-0.0254827	-0.000202271	
-1.99203e-06	-0.0268297	7.57496e-05	
0.000262072	-0.0263304	0.000102408	
0.000132983	-0.0261334	4.67432e-05	
0.00138167	-0.0226176	0.00168206	
0.000635439	-0.0255522	0.000660352	
0.00126861	-0.0244193	0.000925585	
0.000515482	-0.0254362	0.000982162	
0.000112618	-0.0259451	1.11294e-06	
0.0023098	-0.021711	0.00202514	
-7.50809e-06	-0.0252394	4.26204e-05	
2.63177e-05	-0.0260205	9.07758e-05	
0.00309797	-0.015487	0.00246978	
0.000133127	-0.026204	0.000160701	
0.00270115	-0.0178459	0.00263907	
0.000963437	-0.0250176	2.69313e-05	
5.35329e-05	-0.0267476	-7.48755e-05	
0.00023656	-0.0257089	0.000326237	
0.000454946	-0.0199123	0.00303015	
9.26771e-05	-0.0260566	0.000215775	
-0.00414254	-0.0196469	-0.00192448	
-0.000167247	-0.0255428	-0.000496255	
0.000375984	-0.0264974	-0.000318523	
-0.00684023	-0.0155599	-0.0015129	
0.000531433	-0.0262496	-5.1982e-05	
-0.000201471	-0.0259504	-0.000255469	
-0.000571987	-0.0267338	0.000208427	
0.000397444	-0.0261834	-0.000122191	
0.000547393	-0.0266192	-0.000191426	
-0.000826901	-0.0249288	-0.000378191	
-0.000187372	-0.0255858	-8.56159e-05	
-0.000996018	-0.0265835	0.000252981	
-0.000719217	-0.025581	0.000177057	
-0.000696116	-0.0262039	6.1455e-05	
0.000308216	-0.0261327	-0.000223413	
-0.00268852	-0.0225239	-0.00124377	
-0.00109617	-0.0249648	-0.000447591	
-0.000870171	-0.0238414	-0.000848007	
-0.000171054	-0.0261323	-0.000128499	
-0.000400685	-0.0239066	-0.00147641	
-0.000101623	-0.026043	-0.000139821	
-0.000543748	-0.0214777	-0.00271372	
-4.03141e-05	-0.0271244	-4.46901e-05	
-0.000327424	-0.024396	-0.000907681	
-0.000102065	-0.0266351	-0.000111966	
-0.0133813	-0.0116983	0.000589596	
-0.00097799	-0.0261059	-0.000180112	
-0.000726429	-0.0179881	-0.00345072	
-0.000321211	-0.0254192	-0.000525572	
0.0183711	-0.000112952	-0.00408008	
0.00240468	-0.00404239	-0.00079575	
0.000372744	-0.00487267	-0.000106455	
-0.000324365	-0.00494072	0.000204079	
-0.00017672	-0.00521682	8.88478e-05	
4.1848e-05	-0.00490664	3.42527e-05	
0.00123216	-0.00511796	-0.000571628	
-0.00148877	-0.00514106	0.000719247	
-0.000312326	-0.0046853	0.000267487	
-7.81417e-05	-0.00511805	5.25711e-05	
0.000673547	-0.00507333	-0.000326683	
0.00078122	-0.00506907	-0.000362202	
-7.66959e-05	-0.00505733	6.26444e-05	
0.000143193	-0.00510842	-3.19499e-05	
2.06131e-05	-0.00507873	1.89417e-05	
0.00133756	-0.00380801	-0.000231123	
0.000316894	-0.00455802	1.13736e-05	
0.0010335	-0.00421903	-0.000233515	
0.000120341	-0.00450015	0.000160297	
2.05442e-05	-0.00496681	-4.51074e-06	
0.00225353	-0.00346479	-0.000520426	
4.81396e-07	-0.00504235	4.99738e-06	
7.45708e-05	-0.00524091	-1.60386e-05	
0.00298418	-0.00199966	-0.000454975	
3.07017e-05	-0.00514645	2.95158e-05	
0.00277498	-0.00249886	-0.000498391	
0.000763709	-0.00473486	-0.000290293	
3.05856e-06	-0.00510428	-7.48418e-06	
4.88215e-05	-0.00483016	4.91866e-05	
0.000171931	-0.00311411	0.000424588	
1.63885e-05	-0.00527289	4.21529e-05	
-0.00441716	-0.00298282	0.00124532	
-3.10915e-05	-0.00491358	-8.94353e-05	
0.000369689	-0.00497074	-0.000221222	
-0.00721409	-0.00171641	0.00182823	
0.000463918	-0.00525341	-0.000193079	
-4.44375e-05	-0.00492219	-4.18387e-05	
-0.00052359	-0.00521482	0.000253074	
0.000383585	-0.0051742	-0.000183124	
0.000480534	-0.00519363	-0.000229664	
-0.000776738	-0.00459416	0.00023731	
-0.000153031	-0.00512336	4.52705e-05	
-0.000904102	-0.00518356	0.00042212	
-0.000640107	-0.00503335	0.000294536	
-0.000472186	-0.00508989	0.000183669	
0.000359592	-0.00505179	-0.000200713	
-0.00274658	-0.00380299	0.000849991	
-0.000946962	-0.00450451	0.000289504	
-0.000868348	-0.00429898	0.000188123	
-3.44197e-05	-0.00514176	-2.84749e-05	
-0.000123991	-0.00405988	-0.000221447	
-3.12013e-05	-0.00505651	-1.66534e-05	
-0.000176722	-0.00349386	-0.000406228	
-1.35721e-05	-0.00516723	-9.08191e-06	
-8.99231e-05	-0.00437238	-0.000154211	
-2.32443e-05	-0.00506335	-2.59097e-05	
-0.0142613	-0.000416547	0.00321877	
-0.000779248	-0.00486576	0.00027983	
-0.000208492	-0.00258872	-0.000447529	
-7.39977e-05	-0.00475276	-8.1517e-05	
0.019305	0.00131594	-0.00404748	
0.00251715	-0.00162043	-0.0010486	
0.000399618	-0.00211138	-0.000162073	
-0.000268407	-0.00217707	0.000148397	
-0.00013043	-0.00235534	5.93984e-05	
1.76687e-05	-0.00214149	1.11459e-05	
0.00125215	-0.00232356	-0.000590804	
-0.00150642	-0.00232629	0.000718125	
-0.000242548	-0.00199943	0.000155904	
-0.000105162	-0.00230802	5.54118e-05	
0.000696545	-0.00231239	-0.000334943	
0.000812472	-0.00222929	-0.000386516	
-6.10561e-05	-0.0022708	3.87413e-05	
0.000134356	-0.00227982	-4.96637e-05	
9.01744e-06	-0.002296	6.6773e-06	
0.00140821	-0.00154207	-0.000502693	
0.000309855	-0.0019271	-9.24902e-05	
0.00106849	-0.00174407	-0.000420285	
6.29886e-05	-0.00189525	4.56893e-05	
7.96055e-06	-0.00226666	-8.62831e-07	
0.00235217	-0.00135953	-0.000843369	
6.7994e-07	-0.00230463	7.98872e-07	
8.1626e-05	-0.00236622	-3.31577e-05	
0.00307436	-0.00062356	-0.000739853	
1.34095e-05	-0.00228139	1.23862e-05	
0.00290346	-0.000870944	-0.00084137	
0.000795082	-0.00202738	-0.000361526	
-1.33315e-08	-0.00231558	-1.74533e-06	
2.34255e-05	-0.00209386	1.50289e-05	
9.25843e-05	-0.00126686	0.000136509	
-1.94733e-06	-0.00237604	2.27061e-05	
-0.00467595	-0.00100358	0.00167437	
-3.50471e-05	-0.00213467	-2.45603e-05	
0.000326163	-0.00218329	-0.000175533	
-0.00757925	-0.000182425	0.00208734	
0.000454381	-0.00237161	-0.000205408	
-1.88753e-05	-0.00215079	-1.52564e-05	
-0.000522058	-0.00236358	0.000252135	
0.000377707	-0.00236172	-0.00018257	
0.000464041	-0.00236035	-0.000224844	
-0.00088634	-0.00196267	0.000383732	
-0.000154664	-0.00232095	6.42315e-05	
-0.000920319	-0.00234708	0.000441905	
-0.000673598	-0.00222516	0.000317648	
-0.000457684	-0.00227688	0.000200823	
0.000341398	-0.00230075	-0.000174533	
-0.00291607	-0.00147656	0.00117366	
-0.000990517	-0.00189987	0.000415879	
-0.000982792	-0.00176075	0.000386507	
-1.38033e-05	-0.0022811	-1.41398e-05	
-6.38045e-05	-0.00167749	-5.89016e-05	
-1.58418e-05	-0.00229882	-4.5996e-06	
-9.26464e-05	-0.00141099	-0.000132219	
-7.63069e-06	-0.00234379	-1.15107e-06	
-4.46707e-05	-0.00184852	-4.02136e-05	
-1.06223e-05	-0.00227696	-9.65237e-06	
-0.0149431	0.000876723	0.00315376	
-0.000790617	-0.00210776	0.000345762	
-0.000107022	-0.00105782	-0.000144313	
-3.81627e-05	-0.00206019	-2.05953e-05	
0.0204267	0.00144542	-0.00395521	
0.00277895	-0.00182997	-0.00111568	
0.000485644	-0.0023853	-0.000190598	
-0.000202178	-0.00245677	0.000108371	
-9.95061e-05	-0.0026153	3.68478e-05	
1.64017e-05	-0.00241952	1.01316e-05	
0.00129087	-0.00259147	-0.000571355	
-0.00154201	-0.00258929	0.000688529	
-0.000132426	-0.0022418	0.000104376	
-0.000117549	-0.00259807	5.71256e-05	
0.000718591	-0.00259385	-0.000327008	
0.000868086	-0.00250124	-0.000387118	
-2.65901e-05	-0.00256328	1.46645e-05	
0.00015107	-0.00255808	-5.83017e-05	
1.01575e-05	-0.00258443	3.28632e-06	
0.00158968	-0.00172985	-0.000562499	
0.000364654	-0.00215488	-0.000119651	
0.00118031	-0.00196856	-0.000452378	
5.84248e-05	-0.00211458	5.08147e-05	
7.59025e-06	-0.00255663	-3.28113e-06	
0.00256539	-0.00152291	-0.000907093	
3.66271e-07	-0.00257901	2.92229e-06	
8.78953e-05	-0.00261522	-3.61711e-05	
0.00330483	-0.000695241	-0.000792456	
1.25836e-05	-0.00254682	1.16987e-05	
0.00315811	-0.00098053	-0.000921699	
0.000866349	-0.00227788	-0.000371279	
6.63775e-08	-0.00258445	-1.17055e-06	
2.18438e-05	-0.00234882	1.22778e-05	
9.85889e-05	-0.0014249	0.000137736	
-9.82273e-06	-0.00261905	2.67018e-05	
-0.00511182	-0.00113764	0.00181755	
-0.000109438	-0.00239478	1.08718e-05	
0.000266005	-0.00245506	-0.000131825	
-0.00816758	-0.00020772	0.00217556	
0.000460445	-0.00262368	-0.000197346	
-1.78205e-05	-0.00242166	-1.54902e-05	
-0.000530459	-0.00261948	0.00023654	
0.000378021	-0.00261849	-0.000170781	
0.000462965	-0.00261509	-0.000212826	
-0.00104897	-0.00220286	0.000436332	
-0.000165351	-0.00260455	6.57032e-05	
-0.000946048	-0.0026114	0.000426818	
-0.00072623	-0.00250099	0.000326106	
-0.00048851	-0.00255504	0.000206505	
0.000316387	-0.00258701	-0.000150346	
-0.00322656	-0.00168331	0.00126167	
-0.00109091	-0.00212434	0.000439318	
-0.00116903	-0.00197614	0.00044946	
-1.26676e-05	-0.00254649	-1.06689e-05	
-6.11467e-05	-0.00189951	-6.07957e-05	
-1.68194e-05	-0.00257486	-9.62838e-07	
-9.86848e-05	-0.00159919	-0.000138298	
-8.20666e-06	-0.00260221	-3.7038e-07	
-3.83433e-05	-0.00207805	-4.39287e-05	
-1.05078e-05	-0.0025653	-4.27596e-06	
-0.0157447	0.000954819	0.00300743	
-0.000861911	-0.00234371	0.000365955	
-0.000117354	-0.00120737	-0.000145064	
-3.18007e-05	-0.00229037	-2.79233e-05	
0.0213591	0.00128825	-0.00414327	
0.00301014	-0.00157609	-0.00117936	
0.000566006	-0.00210168	-0.000226483	
-0.000142379	-0.00216848	7.70312e-05	
-7.2065e-05	-0.00234515	2.51337e-05	
1.04865e-05	-0.00213403	1.32078e-05	
0.00132105	-0.00232373	-0.00057271	
-0.00157074	-0.00232144	0.000684534	
-1.51575e-05	-0.00196168	2.59923e-05	
-0.000115531	-0.00230548	5.24505e-05	
0.00074855	-0.00231895	-0.000331753	
0.000915537	-0.00221208	-0.000403361	
5.31101e-06	-0.00226962	-2.44455e-06	
0.000166467	-0.00226345	-6.67055e-05	
7.00746e-06	-0.00228891	-4.09772e-08	
0.00174108	-0.00148435	-0.000605665	
0.000405718	-0.00187613	-0.000146876	
0.0012788	-0.00169953	-0.000498027	
4.56339e-05	-0.00183507	2.93828e-05	
5.75039e-06	-0.00227905	-5.38234e-07	
0.00274604	-0.0012982	-0.000955553	
-5.93156e-07	-0.00231129	-6.13503e-07	
9.31088e-05	-0.00234483	-3.72323e-05	
0.00348005	-0.000571889	-0.000858428	
7.52896e-06	-0.0022519	1.00274e-05	
0.00335747	-0.00081948	-0.00101194	
0.00094431	-0.00199498	-0.000408247	
8.81646e-07	-0.00231574	-1.19301e-06	
1.2693e-05	-0.002064	1.00834e-05	
7.01072e-05	-0.00121453	0.000114227	
-2.04084e-05	-0.00234955	2.81362e-05	
-0.00548677	-0.000958133	0.00195315	
-0.000177284	-0.00210645	5.11077e-05	
0.000208388	-0.00216529	-9.98272e-05	
-0.00866749	-0.000130825	0.0022713	
0.000460722	-0.00235302	-0.000191786	
-1.14293e-05	-0.00213298	-1.47176e-05	
-0.000538485	-0.00234863	0.000238429	
0.000375987	-0.00234397	-0.000164354	
0.000463468	-0.00234079	-0.000204423	
-0.00120361	-0.00192379	0.000507095	
-0.000186184	-0.00231056	7.51623e-05	
-0.000976365	-0.00233603	0.000430679	
-0.000773334	-0.00220785	0.000341188	
-0.000519185	-0.00226115	0.000217704	
0.000299489	-0.00229014	-0.00013474	
-0.00351189	-0.00145494	0.00133625	
-0.00117219	-0.00185285	0.000476571	
-0.00134157	-0.00171042	0.000527685	
-7.82494e-06	-0.00225111	-1.00287e-05	
-4.2208e-05	-0.00164383	-5.09473e-05	
-1.29129e-05	-0.00229548	-4.6989e-06	
-6.70868e-05	-0.00137493	-0.00010931	
-7.02115e-06	-0.00233042	-1.16246e-06	
-2.72889e-05	-0.00180803	-2.828e-05	
-6.92449e-06	-0.00227311	-3.81334e-06	
-0.0164038	0.000860837	0.0030796	
-0.000920844	-0.00205628	0.000390161	
-8.42057e-05	-0.00103005	-0.000115601	
-2.58292e-05	-0.00200481	-1.21686e-05	
0.0221532	0.00102473	-0.0041523	
0.00322777	-0.00132538	-0.00117392	
0.000661128	-0.00179988	-0.000243864	
-4.97528e-05	-0.00187973	3.11181e-05	
-5.43471e-05	-0.00208329	1.69714e-05	
2.77702e-06	-0.00183687	1.96951e-05	
0.00135307	-0.00206878	-0.000548021	
-0.00159928	-0.00206867	0.000642336	
9.54436e-05	-0.00166308	-2.33852e-05	
-0.000119285	-0.00205385	5.31838e-05	
0.000779966	-0.00206188	-0.000314025	
0.000996065	-0.00194232	-0.000411205	
2.5987e-05	-0.00203154	-9.48151e-06	
0.000190515	-0.00202745	-7.55608e-05	
4.64707e-06	-0.00204243	-1.21319e-06	
0.0018802	-0.00123884	-0.000614261	
0.000450445	-0.00158263	-0.00015973	
0.00137376	-0.00142669	-0.000498513	
2.82226e-05	-0.0015427	3.04538e-05	
5.81425e-06	-0.00203047	-8.67776e-07	
0.00290496	-0.00108703	-0.000939558	
-1.29811e-06	-0.0020638	-3.74485e-07	
9.62436e-05	-0.00207995	-3.7029e-05	
0.00363003	-0.000496139	-0.000869273	
3.6562e-06	-0.00200852	8.94499e-06	
0.00353356	-0.000693081	-0.00102191	
0.00101589	-0.00169725	-0.000398899	
8.37218e-07	-0.00205815	-1.07111e-07	
7.02091e-06	-0.00175771	9.98634e-06	
3.99269e-05	-0.00101675	9.3586e-05	
-2.94702e-05	-0.00208455	2.7024e-05	
-0.00582975	-0.000814499	0.00192342	
-0.000258051	-0.00179924	7.63784e-05	
0.00012016	-0.00187368	-5.4006e-05	
-0.00909417	-0.000148751	0.00225663	
0.000466797	-0.00209012	-0.000183524	
-4.06678e-06	-0.00183242	-1.98068e-05	
-0.00054901	-0.00208853	0.000227279	
0.000371063	-0.00208714	-0.00015091	
0.000461381	-0.00207982	-0.000181711	
-0.00135028	-0.00163275	0.000527205	
-0.000203697	-0.00205175	7.31868e-05	
-0.00101077	-0.0020718	0.000403999	
-0.000850261	-0.00193377	0.000355363	
-0.000559	-0.00202034	0.000218624	
0.000291511	-0.00203598	-0.000116888	
-0.00377346	-0.001215	0.00133311	
-0.00125429	-0.00156412	0.000482332	
-0.00150172	-0.00143564	0.000547587	
-4.41038e-06	-0.00200077	-4.96031e-06	
-2.38649e-05	-0.00137648	-4.75155e-05	
-1.0582e-05	-0.00203837	-4.93729e-06	
-4.03114e-05	-0.00114865	-8.66016e-05	
-5.45423e-06	-0.00206533	-2.44989e-06	
-1.21921e-05	-0.00152206	-2.83403e-05	
-3.92451e-06	-0.00202749	1.30291e-08	
-0.0169564	0.000655698	0.00308719	
-0.000981492	-0.00174911	0.000393563	
-5.0797e-05	-0.000865743	-9.67556e-05	
-1.33542e-05	-0.00170049	-1.93696e-05	
0.0227928	0.000669672	-0.00427375	
0.00340426	-0.00116598	-0.00120727	
0.000749489	-0.00159259	-0.00027645	
4.53197e-05	-0.00166938	-1.0362e-05	
-5.13266e-05	-0.00188871	1.46229e-05	
1.98921e-06	-0.00162897	1.20002e-05	
0.00137378	-0.00188531	-0.000530339	
-0.00160362	-0.00188485	0.000622792	
0.000207166	-0.00146969	-7.07662e-05	
-0.000104265	-0.00184478	4.17827e-05	
0.000808312	-0.00186588	-0.000318519	
0.00106864	-0.00172979	-0.00041896	
5.11107e-05	-0.00182557	-2.53579e-05	
0.00021793	-0.00181506	-8.25594e-05	
2.28499e-06	-0.00183283	-2.43023e-06	
0.00198626	-0.00108907	-0.000648641	
0.000490179	-0.0013959	-0.000172175	
0.0014537	-0.0012556	-0.00052692	
1.83131e-05	-0.00135871	2.14414e-05	
4.26236e-06	-0.00183542	2.1952e-07	
0.0030261	-0.000963056	-0.000980928	
-5.04122e-07	-0.00188051	-7.72195e-07	
9.924e-05	-0.00188219	-3.88931e-05	
0.00375228	-0.000460706	-0.000920132	
3.81258e-07	-0.00179203	8.10981e-06	
0.00367539	-0.000625885	-0.00107782	
0.00107524	-0.00150254	-0.00041213	
1.98319e-06	-0.00186771	-3.04956e-07	
3.02622e-06	-0.00155495	8.62559e-06	
2.28536e-05	-0.000899787	6.54058e-05	
-3.40382e-05	-0.00188613	2.52809e-05	
-0.00609	-0.000740079	0.00199908	
-0.000339147	-0.00159744	0.000115426	
2.97349e-05	-0.00166889	-1.50598e-05	
-0.00943301	-0.000197548	0.00233841	
0.000477729	-0.00189342	-0.000180914	
-2.01718e-06	-0.00162907	-9.90438e-06	
-0.000555231	-0.00189938	0.000219261	
0.000365453	-0.0018973	-0.000141542	
0.000447174	-0.00189262	-0.000175348	
-0.00149022	-0.00144826	0.000566365	
-0.000233297	-0.00184514	8.68734e-05	
-0.00103654	-0.0018738	0.000406685	
-0.000922396	-0.0017269	0.000364868	
-0.000605505	-0.0018124	0.000234344	
0.000288738	-0.00183051	-0.00011111	
-0.0039743	-0.00107079	0.00138121	
-0.00133015	-0.00138397	0.000491536	
-0.00163986	-0.00126329	0.000595372	
-1.80126e-07	-0.00179056	-7.46995e-06	
-1.35049e-05	-0.00121089	-3.46028e-05	
-7.51249e-06	-0.00184328	-4.69129e-06	
-2.36471e-05	-0.00101744	-6.09489e-05	
-4.22792e-06	-0.00187253	-1.83693e-06	
-4.89192e-06	-0.00134332	-2.05359e-05	
4.59925e-07	-0.00182686	-1.45107e-07	
-0.0174024	0.000400835	0.00315581	
-0.00103213	-0.00155283	0.000396235	
-3.00756e-05	-0.000768955	-6.69626e-05	
-8.84525e-06	-0.00151213	-1.01502e-05	
0.0233795	0.000413735	-0.00449927	
0.00373402	-0.00136227	-0.0013322	
0.000802106	-0.00174763	-0.000301385	
0.000139421	-0.00182409	-4.95807e-05	
-3.32913e-05	-0.00195557	7.14521e-06	
1.70058e-07	-0.00177266	9.42522e-06	
0.00136233	-0.00194509	-0.000536913	
-0.00164183	-0.00197998	0.000637294	
0.00024801	-0.00169626	-8.95397e-05	
-0.00011026	-0.00196745	4.61643e-05	
0.000844502	-0.00197884	-0.000333507	
0.00110047	-0.00187004	-0.000432966	
0.000110257	-0.00194096	-5.25419e-05	
0.000224903	-0.00191153	-8.9321e-05	
1.87559e-06	-0.00195901	-3.50082e-06	
0.00213575	-0.00121637	-0.000711779	
0.000511839	-0.0016608	-0.00018344	
0.00151425	-0.00154977	-0.000551791	
1.50636e-05	-0.00164172	1.5023e-05	
4.69779e-06	-0.00194022	1.63632e-06	
0.00316086	-0.00104345	-0.00104385	
-8.49563e-07	-0.00195142	-1.4076e-06	
9.56407e-05	-0.00195483	-3.63978e-05	
0.00388482	-0.000516026	-0.000974349	
-1.08348e-06	-0.0019057	5.41732e-06	
0.00382721	-0.000686108	-0.00113065	
0.00109892	-0.00169814	-0.000424406	
3.18478e-06	-0.00198952	9.31084e-07	
1.53529e-06	-0.00172722	5.99646e-06	
1.29941e-05	-0.000941822	4.51172e-05	
-4.58409e-05	-0.0019497	2.63704e-05	
-0.00637344	-0.00080898	0.00208964	
-0.000385901	-0.00176632	0.000135941	
-5.96115e-05	-0.00184249	2.42171e-05	
-0.00976981	-0.000305282	0.00244288	
0.000476275	-0.00195088	-0.000185749	
-9.32818e-07	-0.00178917	-9.11924e-06	
-0.000545512	-0.00194853	0.000220628	
0.000396048	-0.00195345	-0.000154616	
0.000455304	-0.00198627	-0.000178422	
-0.00153962	-0.00170489	0.000584229	
-0.000236874	-0.00198055	8.96896e-05	
-0.00105826	-0.00199728	0.000417711	
-0.000947804	-0.00188163	0.000377303	
-0.000652707	-0.00191956	0.000257854	
0.000267938	-0.00196557	-0.000102202	
-0.00424582	-0.00118753	0.00148378	
-0.00138703	-0.00167014	0.000512475	
-0.001912	-0.00145937	0.000703479	
1.49615e-06	-0.0019116	-4.93598e-06	
-7.65332e-06	-0.00136143	-2.54037e-05	
-6.40175e-06	-0.00195671	-2.95115e-06	
-1.41382e-05	-0.00107309	-4.01854e-05	
-5.7785e-06	-0.0019926	-2.75827e-06	
-4.43327e-07	-0.00163249	-1.53939e-05	
2.38883e-06	-0.00195359	3.40445e-06	
-0.0177961	0.000212038	0.00332192	
-0.00105168	-0.00174612	0.00040626	
-1.77465e-05	-0.000785524	-4.36447e-05	
-7.23725e-06	-0.00172312	-7.73369e-06	
0.0236893	0.000111688	-0.00497593	
0.00380893	-0.0012664	-0.00147438	
0.000900381	-0.0018634	-0.000380527	
0.000188927	-0.00196185	-8.49678e-05	
1.81746e-05	-0.00221564	-1.64413e-05	
-2.43084e-06	-0.00192472	6.16318e-06	
0.00127866	-0.00221351	-0.000561692	
-0.00146378	-0.0022038	0.000633321	
0.000434078	-0.00168496	-0.000180227	
-7.04187e-05	-0.00212819	3.34405e-05	
0.00079011	-0.00213268	-0.000353808	
0.00105693	-0.00198989	-0.000459961	
0.000150076	-0.00207718	-7.26669e-05	
0.000269792	-0.00206349	-0.000115794	
2.50345e-06	-0.00209836	-1.74886e-06	
0.00219461	-0.00114283	-0.000804892	
0.00054781	-0.00154147	-0.000217236	
0.00152572	-0.00137756	-0.000616918	
9.86391e-06	-0.001482	8.48615e-06	
1.65597e-06	-0.00211956	-9.47912e-07	
0.00319622	-0.000987683	-0.00113139	
-8.36447e-07	-0.00221539	-1.27581e-06	
9.47545e-05	-0.00225197	-4.17349e-05	
0.00394902	-0.00051444	-0.00106457	
-1.99178e-06	-0.00200845	2.89618e-06	
0.00390509	-0.000655924	-0.00120986	
0.0010869	-0.00173795	-0.000461963	
3.26597e-06	-0.00213524	-5.16109e-07	
-1.35166e-06	-0.00178829	3.70751e-06	
4.80329e-06	-0.000875866	2.44855e-05	
-8.69249e-05	-0.00225725	4.90944e-05	
-0.00650588	-0.000792313	0.00221628	
-0.000516064	-0.0018673	0.000212491	
-0.000161231	-0.00199425	7.5124e-05	
-0.00992036	-0.000407173	0.00268449	
0.00044063	-0.00222441	-0.00019307	
-1.78259e-08	-0.00194779	-8.58989e-06	
-0.00048792	-0.00221593	0.000212332	
0.000357601	-0.00224085	-0.000157908	
0.000367221	-0.00223043	-0.000160407	
-0.00168346	-0.00167406	0.000703965	
-0.000260995	-0.0021568	0.000111971	
-0.000989682	-0.00217032	0.000445459	
-0.000880751	-0.00206013	0.00039371	
-0.000678849	-0.00209639	0.000295765	
0.000224763	-0.00212868	-9.61839e-05	
-0.00435833	-0.00113064	0.00163353	
-0.00141887	-0.00153477	0.00058313	
-0.00200318	-0.0013624	0.000809677	
3.3636e-06	-0.00204999	-1.84682e-06	
-3.78232e-06	-0.00128048	-1.38778e-05	
-2.26996e-06	-0.00215319	-5.48364e-09	
-6.15625e-06	-0.0010064	-2.01347e-05	
-4.57863e-06	-0.00217019	-9.20172e-07	
1.76521e-06	-0.00145497	-8.12778e-06	
-4.43809e-08	-0.00211093	8.61874e-07	
-0.0179574	-9.64961e-06	0.00372672	
-0.00102991	-0.00179901	0.000444355	
-7.00454e-06	-0.000722245	-2.18578e-05	
-5.18598e-06	-0.00175834	-5.84317e-06	
				</DataArray>
				<DataArray type="Float64" Name="Time Step Shed" NumberOfComponents="1" Format="ascii">
3	
3	
3	
3	
3	
3	
3	
3	
3	
3	
3	
3	
3	
3	
3	
3	
3	
3	
3	
3	
3	
3	
3	
3	
3	
3	
3	
3	
3	
3	
3	
3	
3	
3	
3	
3	
3	
3	
3	
3	
3	
3	
3	
3	
3	
3	
3	
3	
3	
3	
3	
3	
3	
3	
3	
3	
3	
3	
3	
3	
4	
4	
4	
4	
4	
4	
4	
4	
4	
4	
4	
4	
4	
4	
4	
4	
4	
4	
4	
4	
4	
4	
4	
4	
4	
4	
4	
4	
4	
4	
4	
4	
4	
4	
4	
4	
4	
4	
4	
4	
4	
4	
4	
4	
4	
4	
4	
4	
4	
4	
4	
4	
4	
4	
4	
4	
4	
4	
4	
4	
5	
5	
5	
5	
5	
5	
5	
5	
5	
5	
5	
5	
5	
5	
5	
5	
5	
5	
5	
5	
5	
5	
5	
5	
5	
5	
5	
5	
5	
5	
5	
5	
5	
5	
5	
5	
5	
5	
5	
5	
5	
5	
5	
5	
5	
5	
5	
5	
5	
5	
5	
5	
5	
5	
5	
5	
5	
5	
5	
5	
6	
6	
6	
6	
6	
6	
6	
6	
6	
6	
6	
6	
6	
6	
6	
6	
6	
6	
6	
6	
6	
6	
6	
6	
6	
6	
6	
6	
6	
6	
6	
6	
6	
6	
6	
6	
6	
6	
6	
6	
6	
6	
6	
6	
6	
6	
6	
6	
6	
6	
6	
6	
6	
6	
6	
6	
6	
6	
6	
6	
7	
7	
7	
7	
7	
7	
7	
7	
7	
7	
7	
7	
7	
7	
7	
7	
7	
7	
7	
7	
7	
7	
7	
7	
7	
7	
7	
7	
7	
7	
7	
7	
7	
7	
7	
7	
7	
7	
7	
7	
7	
7	
7	
7	
7	
7	
7	
7	
7	
7	
7	
7	
7	
7	
7	
7	
7	
7	
7	
7	
8	
8	
8	
8	
8	
8	
8	
8	
8	
8	
8	
8	
8	
8	
8	
8	
8	
8	
8	
8	
8	
8	
8	
8	
8	
8	
8	
8	
8	
8	
8	
8	
8	
8	
8	
8	
8	
8	
8	
8	
8	
8	
8	
8	
8	
8	
8	
8	
8	
8	
8	
8	
8	
8	
8	
8	
8	
8	
8	
8	
9	
9	
9	
9	
9	
9	
9	
9	
9	
9	
9	
9	
9	
9	
9	
9	
9	
9	
9	
9	
9	
9	
9	
9	
9	
9	
9	
9	
9	
9	
9	
9	
9	
9	
9	
9	
9	
9	
9	
9	
9	
9	
9	
9	
9	
9	
9	
9	
9	
9	
9	
9	
9	
9	
9	
9	
9	
9	
9	
9	
10	
10	
10	
10	
10	
10	
10	
10	
10	
10	
10	
10	
10	
10	
10	
10	
10	
10	
10	
10	
10	
10	
10	
10	
10	
10	
10	
10	
10	
10	
10	
10	
10	
10	
10	
10	
10	
10	
10	
10	
10	
10	
10	
10	
10	
10	
10	
10	
10	
10	
10	
10	
10	
10	
10	
10	
10	
10	
10	
10	
11	
11	
11	
11	
11	
11	
11	
11	
11	
11	
11	
11	
11	
11	
11	
11	
11	
11	
11	
11	
11	
11	
11	
11	
11	
11	
11	
11	
11	
11	
11	
11	
11	
11	
11	
11	
11	
11	
11	
11	
11	
11	
11	
11	
11	
11	
11	
11	
11	
11	
11	
11	
11	
11	
11	
11	
11	
11	
11	
11	
				</DataArray>
			</CellData>
			<Points>
				<DataArray type="Float64" Name="Position" NumberOfComponents="3" Format="ascii">
2.05361	2.92108	0.133667	
2.04454	2.33837	0.0998915	
2.03736	1.6471	0.119015	
2.04125	1.44754	0.122681	
2.03769	0.148843	0.130018	
2.04048	1.54701	0.121791	
2.03971	0.249135	0.131971	
2.03836	0.450312	0.13012	
2.04036	1.94621	0.111555	
2.03608	0.849543	0.127059	
2.03989	0.650207	0.127047	
2.03797	1.3476	0.123718	
2.04098	1.04968	0.125915	
2.04035	1.14926	0.125675	
2.04042	0.949731	0.127313	
2.04529	2.43614	0.0970971	
2.04362	2.04535	0.108173	
2.04513	2.24123	0.102483	
2.04609	2.14375	0.105469	
2.04064	0.749873	0.128409	
2.04781	2.535	0.0940541	
2.03825	0.349721	0.132698	
2.03868	0.0488215	0.12959	
2.05054	2.82789	0.105679	
2.04125	1.2482	0.125749	
2.04963	2.73184	0.0913073	
2.04087	1.84682	0.116256	
2.04337	0.550618	0.129312	
2.04312	1.74735	0.119684	
2.04982	2.63399	0.0900061	
2.03845	-0.0507897	0.129001	
2.04547	-2.63197	0.0889948	
2.03693	-1.64673	0.117255	
2.04014	-1.4485	0.122472	
2.05036	-2.82551	0.111351	
2.03854	-0.150539	0.128658	
2.03941	-1.54741	0.12062	
2.0402	-0.250484	0.128317	
2.03899	-0.350402	0.126938	
2.0401	-0.449719	0.126136	
2.03888	-1.94424	0.113122	
2.03649	-0.848796	0.12778	
2.03989	-0.649179	0.126792	
2.03798	-1.3489	0.124258	
2.03957	-1.14927	0.125831	
2.04016	-0.949047	0.127812	
2.04497	-2.43664	0.093474	
2.04192	-2.04379	0.112277	
2.04342	-2.24111	0.104957	
2.04067	-1.24871	0.12611	
2.04622	-2.33841	0.0987826	
2.04062	-0.749072	0.128926	
2.04791	-2.53493	0.0907184	
2.04334	-0.549693	0.127282	
2.04329	-2.1427	0.11082	
2.04261	-1.04932	0.12822	
2.05521	-2.92064	0.138455	
2.0422	-1.74644	0.117393	
2.05011	-2.73013	0.0938429	
2.04156	-1.84545	0.115765	
1.97036	2.93342	0.0902754	
1.99633	2.34644	0.017976	
2.00284	1.64904	0.0393639	
2.00726	1.44897	0.0403788	
2.00618	0.149284	0.0494176	
2.00532	1.54874	0.040035	
2.00721	0.249633	0.0506016	
2.0062	0.449604	0.0500267	
2.00172	1.9491	0.0306889	
2.0049	0.85013	0.0477483	
2.00682	0.650376	0.0453209	
2.00463	1.34914	0.0434981	
2.00729	1.05022	0.0432982	
2.00585	1.15026	0.0437746	
2.00607	0.949974	0.045138	
1.9926	2.44591	0.0192225	
2.00257	2.04912	0.0253818	
1.9995	2.24808	0.0198299	
2.00174	2.14889	0.0213904	
2.00642	0.750435	0.0468497	
1.98912	2.54605	0.0178971	
2.00458	0.349852	0.0532629	
2.00705	0.0495209	0.0485143	
1.97301	2.8441	0.0486649	
2.00621	1.24937	0.0428144	
1.97779	2.74702	0.0247566	
2.0018	1.84933	0.0354487	
2.00805	0.550171	0.0452746	
2.00372	1.74946	0.0364723	
1.98373	2.64669	0.0177687	
2.00701	-0.050115	0.0477445	
1.98263	-2.64617	0.0174512	
2.00241	-1.64904	0.0367633	
2.00656	-1.44996	0.0400803	
1.97388	-2.84209	0.0547753	
2.00613	-0.150026	0.046996	
2.00434	-1.54919	0.0383823	
2.00769	-0.249966	0.0456066	
2.00662	-0.350211	0.0456153	
2.0083	-0.449634	0.043942	
2.00007	-1.94834	0.0329099	
2.00543	-0.849661	0.0484678	
2.00753	-0.650185	0.0445608	
2.00389	-1.35023	0.0435954	
2.00565	-1.15043	0.0448535	
2.00645	-0.949673	0.0462232	
1.99157	-2.44612	0.0151198	
2.00034	-2.04818	0.0311524	
1.99758	-2.24674	0.0240561	
2.00567	-1.25013	0.0437258	
1.99586	-2.34597	0.0175353	
2.00717	-0.750097	0.0471517	
1.98813	-2.54658	0.0138475	
2.00894	-0.549887	0.0422515	
1.998	-2.14757	0.0298121	
2.00705	-1.0501	0.0445489	
1.9717	-2.93209	0.0957073	
2.00396	-1.74903	0.0338722	
1.97764	-2.74581	0.0281384	
2.00128	-1.84897	0.0334246	
1.87426	2.94018	0.0653972	
1.89545	2.3503	-0.0278382	
1.9055	1.64988	-0.0137771	
1.90964	1.44966	-0.0145277	
1.91023	0.14964	-0.00648314	
1.90782	1.54963	-0.0138827	
1.91131	0.249779	-0.00533659	
1.91046	0.449491	-0.00485733	
1.90301	1.95045	-0.0201226	
1.9091	0.850287	-0.00674583	
1.90983	0.650327	-0.0095344	
1.9081	1.34969	-0.0114308	
1.90982	1.05049	-0.0118087	
1.90871	1.15057	-0.0113424	
1.9091	0.950201	-0.0100566	
1.89185	2.45038	-0.0245917	
1.90276	2.05087	-0.0251918	
1.89849	2.25115	-0.0290361	
1.90121	2.15125	-0.0281761	
1.91	0.750577	-0.0085901	
1.88793	2.55122	-0.0227508	
1.90954	0.349788	-0.00162939	
1.911	0.0498639	-0.00773163	
1.8745	2.85183	0.0197605	
1.9094	1.24986	-0.0122713	
1.87763	2.754	-0.00761151	
1.9039	1.85033	-0.0168362	
1.9108	0.550149	-0.0102437	
1.90577	1.75045	-0.0165248	
1.8827	2.65264	-0.0192572	
1.91114	-0.0498055	-0.0084054	
1.88156	-2.65265	-0.0193439	
1.90466	-1.65004	-0.0166574	
1.90885	-1.45066	-0.0149801	
1.87559	-2.84978	0.0263188	
1.91004	-0.149773	-0.00925691	
1.9067	-1.5501	-0.0156283	
1.9111	-0.249639	-0.0107657	
1.91033	-0.349908	-0.0100371	
1.9114	-0.449551	-0.0118698	
1.90173	-1.95006	-0.0175612	
1.90961	-0.850115	-0.00632553	
1.91055	-0.650407	-0.0108527	
1.90734	-1.35093	-0.0111547	
1.90874	-1.15087	-0.0100599	
1.90961	-0.950055	-0.00894924	
1.89019	-2.4506	-0.02837	
1.9013	-2.05025	-0.0189059	
1.89703	-2.2492	-0.0256238	
1.90896	-1.25071	-0.0107567	
1.89488	-2.34948	-0.0281349	
1.91089	-0.750525	-0.00871014	
1.8866	-2.55206	-0.0267196	
1.9115	-0.550104	-0.0138157	
1.89868	-2.14987	-0.0196699	
1.90986	-1.05057	-0.0102778	
1.87583	-2.93861	0.0708916	
1.90561	-1.75032	-0.0195467	
1.87756	-2.75315	-0.00379554	
1.90295	-1.85052	-0.0187451	
1.77488	2.94466	0.051163	
1.78318	2.35194	-0.03984	
1.79196	1.65016	-0.029546	
1.79504	1.44991	-0.0315115	
1.79574	0.149884	-0.0246131	
1.79372	1.54984	-0.0304523	
1.79714	0.249856	-0.0237316	
1.79649	0.44956	-0.0230049	
1.78961	1.95102	-0.0345828	
1.79488	0.850286	-0.0243361	
1.79553	0.650289	-0.0270553	
1.79419	1.34984	-0.0280311	
1.79483	1.05048	-0.0293892	
1.79433	1.15069	-0.0286165	
1.79473	0.950177	-0.027202	
1.78094	2.45238	-0.0357344	
1.789	2.0516	-0.03869	
1.78484	2.25239	-0.0432179	
1.78749	2.15206	-0.0409599	
1.79578	0.750614	-0.026259	
1.77843	2.55334	-0.0331455	
1.79608	0.349801	-0.0197585	
1.79658	0.0501066	-0.0263112	
1.77218	2.85519	0.00870117	
1.79505	1.24998	-0.0294434	
1.77247	2.75656	-0.0170876	
1.7904	1.85079	-0.0320434	
1.79616	0.55015	-0.0275886	
1.792	1.75076	-0.0328545	
1.77503	2.65496	-0.0287868	
1.79648	-0.0497968	-0.0269425	
1.77384	-2.65516	-0.0286165	
1.79062	-1.65045	-0.0323141	
1.79419	-1.45109	-0.0320452	
1.77326	-2.85337	0.0148151	
1.79526	-0.149729	-0.0272029	
1.79212	-1.55043	-0.032039	
1.79629	-0.249485	-0.0286658	
1.79571	-0.349859	-0.0277025	
1.79643	-0.449543	-0.0295543	
1.78842	-1.95075	-0.032164	
1.79547	-0.850193	-0.0239917	
1.79611	-0.650426	-0.0283967	
1.7932	-1.35127	-0.0275314	
1.79463	-1.15109	-0.027335	
1.79533	-0.950149	-0.0259682	
1.77928	-2.45253	-0.0391403	
1.78827	-2.05115	-0.032743	
1.78404	-2.25061	-0.0383219	
1.79476	-1.2509	-0.0282082	
1.7828	-2.35109	-0.0402042	
1.79655	-0.750636	-0.0265436	
1.77693	-2.55431	-0.0367439	
1.79637	-0.550111	-0.0309385	
1.78581	-2.15081	-0.0336911	
1.79506	-1.0507	-0.027761	
1.77639	-2.94318	0.0562059	
1.79096	-1.75081	-0.0356126	
1.77245	-2.756	-0.0134239	
1.78934	-1.85119	-0.0340059	
1.67474	2.94794	0.0397725	
1.67455	2.35279	-0.0378003	
1.68143	1.65033	-0.0292191	
1.68326	1.45003	-0.0317515	
1.68395	0.149863	-0.0257197	
1.68244	1.54984	-0.0304092	
1.68528	0.249847	-0.0252879	
1.68487	0.449618	-0.0242644	
1.67924	1.95134	-0.0332278	
1.68339	0.850329	-0.0250082	
1.68384	0.650253	-0.0277449	
1.68252	1.34992	-0.0278504	
1.68278	1.05059	-0.0299306	
1.6826	1.15068	-0.0289829	
1.68311	0.950242	-0.0275345	
1.67354	2.45342	-0.0338744	
1.6786	2.05214	-0.0364448	
1.67522	2.25301	-0.0408	
1.67741	2.15269	-0.0383031	
1.68407	0.750531	-0.027008	
1.67167	2.55439	-0.0317448	
1.68456	0.349887	-0.0210117	
1.68459	0.0501534	-0.0275815	
1.67062	2.85658	0.00351578	
1.68342	1.24998	-0.0298378	
1.66923	2.75716	-0.0180204	
1.67996	1.85116	-0.0312307	
1.68427	0.550182	-0.0281994	
1.68125	1.75101	-0.0325585	
1.66997	2.65568	-0.027907	
1.6844	-0.0497748	-0.0280833	
1.66912	-2.65598	-0.0275587	
1.67955	-1.65081	-0.0316149	