<VTKFile type="UnstructuredGrid" version="0.1" byte_order="LittleEndian">
	<UnstructuredGrid>
		<Piece NumberOfPoints="240" NumberOfCells="240">
			<CellData Scalars="scalars">
				<DataArray type="Float64" Name="Strength" NumberOfComponents="3" Format="ascii">
0.0163066	-0.0120238	-0.00202222	
0.00213725	-0.0239621	5.79578e-05	
0.00025307	-0.0253402	5.53919e-05	
-0.000576657	-0.0265764	0.000186467	
-0.000374399	-0.0261604	5.5364e-05	
-4.57773e-06	-0.0259156	8.11119e-05	
0.00131422	-0.0265308	-0.000305847	
-0.00162561	-0.0258032	0.000417422	
-0.000515581	-0.0252751	0.000249969	
3.52958e-05	-0.0255507	2.97533e-06	
0.000700333	-0.0264976	-0.000198747	
0.000769486	-0.0255423	-0.000254859	
-0.000101689	-0.0268856	-3.52257e-05	
0.000153809	-0.026388	2.00672e-05	
4.9546e-05	-0.0261866	-5.5205e-05	
0.00100223	-0.0227477	0.000567319	
0.000348116	-0.0256275	0.00014305	
0.000892078	-0.0245087	0.000149291	
0.000155966	-0.025516	0.000288342	
5.68152e-05	-0.0259979	4.6479e-06	
0.00190312	-0.0218912	0.000514151	
-1.0251e-05	-0.0252915	8.5056e-06	
3.14672e-05	-0.0260751	1.91446e-05	
0.00245698	-0.015813	0.000848871	
-5.45327e-06	-0.02626	4.89391e-05	
0.00217371	-0.0181336	0.000896256	
0.000767449	-0.0250826	-0.000193151	
4.0269e-05	-0.026801	-4.7197e-05	
1.87471e-05	-0.0257698	8.0885e-05	
-6.29683e-06	-0.0201554	0.00128181	
5.62135e-05	-0.0261124	0.000117645	
-0.00362958	-0.0198871	-0.00027923	
5.85325e-05	-0.0256068	-0.000235222	
0.000576519	-0.0265553	-0.000138605	
-0.00613876	-0.0159613	3.65383e-06	
0.000532463	-0.0263042	-7.63734e-05	
-1.55813e-05	-0.0260126	-7.49206e-05	
-0.000572487	-0.0267899	0.000132014	
0.000411168	-0.0262384	-8.42781e-05	
0.000560356	-0.0266745	-0.000109534	
-0.000529663	-0.0249989	3.50464e-05	
-0.000149991	-0.0256385	1.13043e-06	
-0.000982246	-0.0266386	0.000230781	
-0.000571512	-0.0256417	0.000227449	
-0.000572403	-0.0262626	9.56557e-05	
0.00038834	-0.0261861	-5.49808e-05	
-0.00235872	-0.0226511	-0.000199579	
-0.000768795	-0.0250407	5.16467e-05	
-0.000515656	-0.0239265	-0.000133306	
3.63039e-06	-0.0261889	-3.01573e-05	
-2.80322e-05	-0.024008	-0.00054306	
-5.07426e-05	-0.0260955	-6.65209e-05	
-6.85196e-05	-0.0216833	-0.00106616	
-2.52056e-05	-0.0271793	-6.66213e-06	
3.29986e-05	-0.0244751	-0.00027236	
9.24906e-07	-0.0266907	1.83298e-05	
-0.0128659	-0.0122337	0.00137955	
-0.000758928	-0.0261748	0.00010285	
-6.90394e-05	-0.0183152	-0.00151427	
-5.66717e-05	-0.0254859	-0.000122194	
0.0183806	-0.0010165	-0.00373655	
0.00238108	-0.00408298	-0.000741841	
0.00034341	-0.00488929	-0.000100141	
-0.000380788	-0.00495373	0.000138241	
-0.000194439	-0.00523097	5.60923e-05	
2.64403e-06	-0.00492139	1.19157e-05	
0.0012902	-0.0051324	-0.00044495	
-0.00156858	-0.00515536	0.000548888	
-0.000379559	-0.00469979	0.000148427	
-9.43449e-05	-0.00513227	3.58689e-05	
0.000703855	-0.00508845	-0.000250227	
0.000792574	-0.00508783	-0.000296482	
-9.92064e-05	-0.00507108	2.74913e-05	
0.000125234	-0.00512331	-3.70408e-05	
4.09882e-06	-0.00509245	-5.4769e-06	
0.00125994	-0.00383943	-0.000317236	
0.000266541	-0.00457452	-6.31638e-05	
0.000970284	-0.00424469	-0.000286411	
3.75204e-05	-0.00451839	4.07697e-05	
1.23904e-05	-0.00498069	-1.03826e-06	
0.00219068	-0.00350401	-0.000588898	
7.03317e-07	-0.00505624	-3.66361e-07	
6.95006e-05	-0.00525574	-2.07238e-05	
0.00285954	-0.00214271	-0.000602577	
-1.21138e-06	-0.00516154	1.03306e-05	
0.00266549	-0.00259215	-0.00063558	
0.000759322	-0.00475158	-0.000276294	
3.99918e-06	-0.00511788	-4.03622e-06	
6.3415e-06	-0.00484457	9.17409e-06	
3.13031e-05	-0.00315396	0.000158214	
4.64193e-06	-0.00528746	2.26745e-05	
-0.00436007	-0.0030695	0.00125571	
2.3988e-05	-0.00492923	-4.27449e-05	
0.000428218	-0.00498412	-0.000148746	
-0.00714269	-0.002032	0.00175798	
0.000481198	-0.00526702	-0.000157149	
-3.24398e-06	-0.00493677	-1.03275e-05	
-0.000555588	-0.00522842	0.000188816	
0.000400507	-0.00518788	-0.000138099	
0.00050665	-0.00520711	-0.000169315	
-0.000742714	-0.00461297	0.000255681	
-0.000145523	-0.00513801	4.65313e-05	
-0.000939305	-0.00519971	0.0003293	
-0.000641941	-0.00505207	0.000244948	
-0.0004656	-0.00510573	0.00015386	
0.00039837	-0.00506541	-0.000130937	
-0.00272132	-0.00384197	0.000815557	
-0.000911216	-0.00452598	0.000304441	
-0.000807948	-0.00432242	0.000245003	
1.58831e-06	-0.00515696	-9.04048e-06	
-2.28173e-05	-0.00407994	-7.08774e-05	
-1.53194e-05	-0.00507026	-5.78397e-06	
-3.50721e-05	-0.00353118	-0.000145801	
-5.57426e-06	-0.00518163	-3.14517e-06	
-5.40552e-06	-0.00438969	-4.08173e-05	
-2.00808e-07	-0.00507736	6.95913e-07	
-0.0142701	-0.00111309	0.00287954	
-0.000757511	-0.00488535	0.000257762	
-4.20768e-05	-0.00263825	-0.000179523	
-1.23773e-05	-0.00476773	-1.17668e-05	
0.0192721	-0.00010592	-0.00385451	
0.00254013	-0.00169207	-0.00086012	
0.000394521	-0.00212445	-0.000135102	
-0.000298973	-0.0021845	0.000111369	
-0.000142903	-0.00236368	4.44198e-05	
-1.52385e-06	-0.00215084	1.3219e-06	
0.00130164	-0.00233394	-0.000469089	
-0.00157248	-0.00233725	0.000562602	
-0.000281463	-0.00200652	0.000104956	
-0.000114206	-0.00231659	4.36855e-05	
0.000727067	-0.00232194	-0.000264326	
0.000835051	-0.00224194	-0.000310446	
-7.30234e-05	-0.00228015	2.07484e-05	
0.000128859	-0.00229026	-4.52544e-05	
1.65989e-06	-0.00230433	-2.74451e-06	
0.00138315	-0.00158763	-0.000439452	
0.000285479	-0.00193914	-9.57319e-05	
0.00104995	-0.0017734	-0.000359709	
1.37056e-05	-0.00190441	7.82766e-06	
4.44934e-06	-0.00227585	6.90182e-08	
0.00233891	-0.00143013	-0.000744096	
-1.43313e-06	-0.0023127	-1.4838e-06	
7.89305e-05	-0.0023752	-2.79624e-05	
0.0030105	-0.00083403	-0.000744986	
-9.35969e-07	-0.00229142	3.34961e-06	
0.00285256	-0.00102338	-0.000809376	
0.000807969	-0.00204156	-0.000295947	
2.54829e-06	-0.00232469	-2.85139e-07	
2.06684e-06	-0.00210384	2.28961e-06	
1.21635e-05	-0.00128217	3.9287e-05	
-1.07333e-05	-0.00238499	1.14801e-05	
-0.00467899	-0.00119132	0.00147579	
-1.09841e-05	-0.00214392	-1.05625e-05	
0.000358536	-0.00219033	-0.000128387	
-0.00755287	-0.000726747	0.00190674	
0.000469834	-0.00238083	-0.000168141	
2.79752e-07	-0.00216048	-2.22119e-06	
-0.000547737	-0.00237171	0.000198253	
0.000394228	-0.00237054	-0.000141826	
0.000486965	-0.00237005	-0.000173563	
-0.0008871	-0.0019806	0.000318685	
-0.000152744	-0.00233019	5.37663e-05	
-0.000955869	-0.00235938	0.000348619	
-0.000689366	-0.00223612	0.000259217	
-0.000463638	-0.00228826	0.000165337	
0.000366755	-0.00230857	-0.000128306	
-0.0029397	-0.00155449	0.000973064	
-0.000987574	-0.00192151	0.000348121	
-0.000968087	-0.00178551	0.000333681	
1.41915e-06	-0.00229063	-3.35928e-06	
-7.88287e-06	-0.00168608	-1.77939e-05	
-5.71201e-06	-0.00230863	-1.77941e-06	
-1.36098e-05	-0.00142562	-3.47907e-05	
-4.41903e-06	-0.00235266	-1.49887e-06	
-3.23838e-07	-0.0018569	-8.6296e-06	
1.35512e-06	-0.00228639	2.28339e-06	
-0.0149227	-0.000236416	0.00294581	
-0.000796357	-0.00212336	0.000287267	
-1.58396e-05	-0.00107656	-4.23894e-05	
-5.37446e-06	-0.00206873	-2.62272e-06	
0.0201361	-0.000328445	-0.00414814	
0.00270171	-0.00191218	-0.000947325	
0.00046118	-0.00240169	-0.000167356	
-0.000219383	-0.00246684	8.077e-05	
-0.00010516	-0.00262809	3.00561e-05	
-2.37565e-06	-0.00243231	3.80539e-06	
0.00127664	-0.00260704	-0.000488094	
-0.00153428	-0.00260312	0.000577836	
-0.000153542	-0.00225391	5.77811e-05	
-0.000122278	-0.00261071	4.93136e-05	
0.000710267	-0.00260626	-0.000276665	
0.000852054	-0.00251636	-0.000330923	
-3.3888e-05	-0.0025741	7.45202e-06	
0.000141054	-0.00256909	-4.9203e-05	
2.09729e-06	-0.00259565	-3.63128e-06	
0.00151447	-0.00178547	-0.000506635	
0.000328206	-0.0021715	-0.000112317	
0.00112083	-0.00200045	-0.00041163	
1.17167e-05	-0.00212678	5.78304e-06	
1.71101e-06	-0.0025689	-7.77852e-07	
0.00248146	-0.00161329	-0.000815585	
-1.45841e-06	-0.00259153	-1.59384e-06	
8.06011e-05	-0.00262729	-3.17008e-05	
0.00318676	-0.000960654	-0.000815212	
-2.08734e-06	-0.00255575	2.00806e-06	
0.00304631	-0.00117694	-0.000881404	
0.000848524	-0.00229326	-0.000325467	
2.65946e-06	-0.00259596	-1.4124e-06	
-1.18304e-06	-0.00236132	1.53844e-06	
6.26095e-06	-0.00144318	2.51315e-05	
-1.69613e-05	-0.00263188	1.67301e-05	
-0.00500708	-0.00138601	0.00159041	
-8.31455e-05	-0.00240724	1.91933e-05	
0.000279111	-0.00246522	-0.0001018	
-0.00800344	-0.000899334	0.00207595	
0.000451306	-0.00263775	-0.00017088	
3.94667e-07	-0.0024337	-5.54714e-06	
-0.000530749	-0.00263176	0.000198324	
0.000374252	-0.00263119	-0.000142922	
0.00046087	-0.00262686	-0.000174262	
-0.00101352	-0.00222592	0.000381025	
-0.000153168	-0.00261789	5.71329e-05	
-0.00093023	-0.00262686	0.000364852	
-0.000708476	-0.00251473	0.000284103	
-0.000474074	-0.00256692	0.000175889	
0.000324908	-0.00259817	-0.000118972	
-0.00315856	-0.00176944	0.00107781	
-0.00104372	-0.0021524	0.000386124	
-0.00111928	-0.00200309	0.000410352	
3.27943e-06	-0.00255446	-1.00665e-06	
-4.25068e-06	-0.00191019	-1.10988e-05	
-2.38789e-06	-0.00258662	3.78499e-07	
-8.31677e-06	-0.00161735	-1.96066e-05	
-3.82936e-06	-0.00261356	1.19773e-07	
2.6436e-06	-0.00208733	-6.05411e-06	
4.75768e-07	-0.00257656	1.96236e-06	
-0.0154941	-0.000424502	0.00317688	
-0.000826693	-0.00236371	0.000318136	
-9.02725e-06	-0.00122791	-2.45767e-05	
-4.74451e-06	-0.00230228	-2.15013e-06	
				</DataArray>
				<DataArray type="Float64" Name="Time Step Shed" NumberOfComponents="1" Format="ascii">
3	
3	
3	
3	
3	
3	
3	
3	
3	
3	
3	
3	
3	
3	
3	
3	
3	
3	
3	
3	
3	
3	
3	
3	
3	
3	
3	
3	
3	
3	
3	
3	
3	
3	
3	
3	
3	
3	
3	
3	
3	
3	
3	
3	
3	
3	
3	
3	
3	
3	
3	
3	
3	
3	
3	
3	
3	
3	
3	
3	
4	
4	
4	
4	
4	
4	
4	
4	
4	
4	
4	
4	
4	
4	
4	
4	
4	
4	
4	
4	
4	
4	
4	
4	
4	
4	
4	
4	
4	
4	
4	
4	
4	
4	
4	
4	
4	
4	
4	
4	
4	
4	
4	
4	
4	
4	
4	
4	
4	
4	
4	
4	
4	
4	
4	
4	
4	
4	
4	
4	
5	
5	
5	
5	
5	
5	
5	
5	
5	
5	
5	
5	
5	
5	
5	
5	
5	
5	
5	
5	
5	
5	
5	
5	
5	
5	
5	
5	
5	
5	
5	
5	
5	
5	
5	
5	
5	
5	
5	
5	
5	
5	
5	
5	
5	
5	
5	
5	
5	
5	
5	
5	
5	
5	
5	
5	
5	
5	
5	
5	
6	
6	
6	
6	
6	
6	
6	
6	
6	
6	
6	
6	
6	
6	
6	
6	
6	
6	
6	
6	
6	
6	
6	
6	
6	
6	
6	
6	
6	
6	
6	
6	
6	
6	
6	
6	
6	
6	
6	
6	
6	
6	
6	
6	
6	
6	
6	
6	
6	
6	
6	
6	
6	
6	
6	
6	
6	
6	
6	
6	
				</DataArray>
			</CellData>
			<Points>
				<DataArray type="Float64" Name="Position" NumberOfComponents="3" Format="ascii">
1.56538	2.94215	0.040233	
1.55826	2.34822	0.0324627	
1.55367	1.6498	0.0416326	
1.55779	1.4495	0.0416181	
1.55452	0.149668	0.0452441	
1.55747	1.5493	0.0419468	
1.55665	0.24974	0.0451644	
1.55503	0.450132	0.0459037	
1.55629	1.95037	0.0379839	
1.55293	0.849983	0.0450404	
1.55596	0.650402	0.0437402	
1.55479	1.34923	0.0438976	
1.55744	1.0505	0.042474	
1.55722	1.15041	0.0431318	
1.55719	0.950295	0.0437463	
1.55791	2.4476	0.0313945	
1.55884	2.05041	0.0356564	
1.55958	2.24908	0.0329575	
1.56099	2.15009	0.0338084	
1.55751	0.750162	0.0445047	
1.55963	2.54728	0.0288163	
1.55575	0.349891	0.0472066	
1.55613	0.0496857	0.0450093	
1.56286	2.8451	0.030581	
1.5585	1.24966	0.0432562	
1.56152	2.74621	0.0268408	
1.55716	1.8502	0.0396753	
1.55964	0.550489	0.0440041	
1.55953	1.75031	0.0400118	
1.56146	2.64699	0.0268207	
1.55596	-0.050053	0.0449296	
1.55755	-2.64629	0.0281785	
1.55338	-1.6498	0.0407651	
1.55695	-1.45053	0.0416278	
1.56252	-2.8445	0.0325594	
1.55589	-0.149904	0.0448786	
1.55627	-1.54991	0.0416391	
1.5573	-0.25	0.0438798	
1.55605	-0.350115	0.0444486	
1.55675	-0.449737	0.0437574	
1.55475	-1.94942	0.0383486	
1.55364	-0.849737	0.0451366	
1.55654	-0.649994	0.0438118	
1.55455	-1.35055	0.0437388	
1.5564	-1.15074	0.043428	
1.55704	-0.950045	0.0440296	
1.55786	-2.44784	0.0303552	
1.55712	-2.04944	0.0371422	
1.55774	-2.24842	0.0343286	
1.55762	-1.2503	0.0433429	
1.56009	-2.34793	0.0319169	
1.55783	-0.750027	0.0447039	
1.56014	-2.54764	0.0279801	
1.56002	-0.550125	0.0432446	
1.55851	-2.149	0.0363343	
1.5598	-1.0505	0.0434006	
1.56622	-2.9423	0.0411203	
1.55861	-1.75005	0.038836	
1.56183	-2.7459	0.0270908	
1.5579	-1.84983	0.0387156	
1.47413	2.9481	0.00861253	
1.48059	2.35127	-0.0174917	
1.48282	1.65051	-0.0107378	
1.48533	1.44982	-0.0130342	
1.48436	0.149696	-0.00895457	
1.48422	1.55019	-0.0118965	
1.48486	0.250062	-0.00944258	
1.48461	0.449671	-0.0079172	
1.48223	1.95073	-0.0141245	
1.48299	0.850143	-0.00796103	
1.48432	0.650552	-0.010536	
1.48435	1.34987	-0.00928815	
1.48448	1.0504	-0.0123149	
1.48398	1.15068	-0.0112026	
1.48369	0.949941	-0.0103487	
1.47869	2.45125	-0.0163896	
1.48331	2.05119	-0.017114	
1.48201	2.25155	-0.0183763	
1.48326	2.15157	-0.0188801	
1.48417	0.750644	-0.00971682	
1.47708	2.55091	-0.0168141	
1.48396	0.350106	-0.00571116	
1.48496	0.0498943	-0.00951507	
1.47396	2.85113	-0.00621687	
1.48466	1.24999	-0.0112584	
1.47411	2.75071	-0.0126224	
1.48177	1.85056	-0.0122239	
1.48503	0.550087	-0.0115209	
1.48297	1.75086	-0.0132309	
1.47505	2.6505	-0.0155526	
1.48501	-0.0496457	-0.00967139	
1.47482	-2.65077	-0.0151568	
1.48307	-1.65043	-0.0120863	
1.48444	-1.45079	-0.0130092	
1.47424	-2.85094	-0.0051288	
1.48382	-0.149698	-0.00950907	
1.48353	-1.55055	-0.0123242	
1.48463	-0.249802	-0.0110647	
1.48409	-0.350102	-0.00972775	
1.48535	-0.44972	-0.0111604	
1.48187	-1.95069	-0.0133022	
1.4835	-0.85003	-0.00793992	
1.48492	-0.650593	-0.01089	
1.48367	-1.35095	-0.00938952	
1.48403	-1.15105	-0.0106638	
1.48393	-0.949944	-0.00998823	
1.47828	-2.45094	-0.0172168	
1.4824	-2.05079	-0.0147717	
1.48082	-2.25028	-0.0160323	
1.48426	-1.25074	-0.0108733	
1.48045	-2.35044	-0.0177565	
1.4847	-0.750587	-0.00986435	
1.47672	-2.55132	-0.0175388	
1.4854	-0.549899	-0.012794	
1.4812	-2.15057	-0.0142536	
1.48456	-1.05051	-0.0115223	
1.47465	-2.9479	0.00954486	
1.48368	-1.75074	-0.0150323	
1.47382	-2.75066	-0.0123335	
1.4819	-1.85083	-0.0139265	
1.37424	2.94927	-0.0088589	
1.37666	2.35146	-0.0283983	
1.37754	1.65053	-0.0239273	
1.379	1.45043	-0.0272812	
1.37852	0.149871	-0.0238651	
1.37793	1.55014	-0.025488	
1.37921	0.249991	-0.0248149	
1.37991	0.449763	-0.0229232	
1.37745	1.95053	-0.0266161	
1.37886	0.85012	-0.0224068	
1.37828	0.650579	-0.0248607	
1.3792	1.34988	-0.0232353	
1.3784	1.04997	-0.0266429	
1.37889	1.15013	-0.0254502	
1.37831	0.949801	-0.024805	
1.37565	2.45173	-0.0270353	
1.37792	2.0507	-0.0291667	
1.37657	2.25191	-0.0292397	
1.37762	2.15148	-0.0304678	
1.37913	0.750711	-0.0243278	
1.37462	2.55149	-0.0271733	
1.37913	0.350155	-0.0205032	
1.37898	0.0497463	-0.024539	
1.37313	2.85197	-0.0192588	
1.37948	1.24997	-0.0257576	
1.3729	2.75133	-0.0227852	
1.37727	1.85062	-0.0250577	
1.37921	0.550389	-0.0264233	
1.37773	1.7509	-0.0267679	
1.37366	2.65102	-0.0254337	
1.37876	-0.0498259	-0.0246169	
1.37356	-2.65147	-0.0248756	
1.37752	-1.65071	-0.0251172	
1.37882	-1.45073	-0.0272448	
1.37298	-2.85161	-0.0185774	
1.37849	-0.149826	-0.0242452	
1.37815	-1.55009	-0.0259058	
1.3787	-0.249369	-0.0259216	
1.37878	-0.34998	-0.0241579	
1.3796	-0.449418	-0.0256502	
1.37727	-1.95059	-0.0258543	
1.37885	-0.850136	-0.0223982	
1.37871	-0.650662	-0.025207	
1.37869	-1.35105	-0.0233036	
1.37872	-1.1504	-0.0248885	
1.37834	-0.949889	-0.0244163	
1.37522	-2.45146	-0.0275736	
1.37743	-2.05086	-0.0273337	
1.37653	-2.25082	-0.0275416	
1.37908	-1.25073	-0.0253765	
1.37637	-2.35069	-0.0287612	
1.37922	-0.750959	-0.0245631	
1.37447	-2.55192	-0.0276112	
1.3792	-0.550214	-0.0273248	
1.37707	-2.15074	-0.0261373	
1.37831	-1.05013	-0.0258046	
1.37442	-2.94883	-0.00827911	
1.37797	-1.75093	-0.0284479	
1.37269	-2.75157	-0.0228511	
1.37742	-1.85076	-0.0269523	
1.27567	2.95082	-0.0188625	
1.27599	2.35089	-0.0272878	
1.27599	1.65	-0.0252394	
1.27641	1.45058	-0.0278567	
1.27638	0.149856	-0.0259853	
1.27621	1.55005	-0.0264254	
1.27667	0.249849	-0.0268456	
1.27718	0.449899	-0.0253527	
1.27615	1.95027	-0.0267409	
1.27682	0.850068	-0.0248445	
1.2764	0.650385	-0.0264616	
1.27687	1.35019	-0.0249934	
1.27613	1.04986	-0.0275987	
1.27656	1.15005	-0.0266846	
1.27626	0.949955	-0.0265028	
1.27563	2.4511	-0.0264011	
1.27634	2.0505	-0.0281703	
1.27586	2.25109	-0.0278572	
1.27621	2.15099	-0.028914	
1.27677	0.750285	-0.0262234	
1.2752	2.55111	-0.0264923	
1.27707	0.349944	-0.0236695	
1.27658	0.049959	-0.0265243	
1.27485	2.85195	-0.0233204	
1.27681	1.25001	-0.0270593	
1.27472	2.75127	-0.0240782	
1.27615	1.85042	-0.0259075	
1.27665	0.550434	-0.0277192	
1.27603	1.75038	-0.0274354	
1.27492	2.65096	-0.0253438	
1.2765	-0.0499001	-0.026516	
1.27492	-2.65127	-0.0248996	
1.27593	-1.65014	-0.0259499	
1.27649	-1.45053	-0.0278157	
1.27478	-2.85181	-0.022964	
1.27638	-0.149824	-0.0260805	
1.27621	-1.55009	-0.0266013	
1.27636	-0.249597	-0.0273278	
1.27682	-0.349888	-0.0259777	
1.27691	-0.449726	-0.0268958	
1.27598	-1.95034	-0.0263167	
1.27674	-0.850027	-0.0248505	
1.27657	-0.650382	-0.0266079	
1.27657	-1.35084	-0.0250676	
1.27655	-1.15021	-0.0263448	
1.27631	-0.950014	-0.0262325	
1.27534	-2.45103	-0.0266377	
1.27618	-2.0507	-0.0273341	
1.27566	-2.25059	-0.0269582	
1.27658	-1.25042	-0.0268337	
1.27566	-2.35038	-0.0275875	
1.2768	-0.750512	-0.026396	
1.27499	-2.5512	-0.0267182	
1.27657	-0.550329	-0.0280709	
1.27615	-2.15069	-0.0261996	
1.27613	-1.04999	-0.0270207	
1.27564	-2.95039	-0.0185237	
1.27611	-1.75048	-0.0284532	
1.27462	-2.75147	-0.0242763	
1.27616	-1.85058	-0.0272717	
				</DataArray>
			</Points>
			<Cells>
				<DataArray type="Int32" Name="connectivity" Format="ascii">
0	
1	
2	
3	
4	
5	
6	
7	
8	
9	
10	
11	
12	
13	
14	
15	
16	
17	
18	
19	
20	
21	
22	
23	
24	
25	
26	
27	
28	
29	
30	
31	
32	
33	
34	
35	
36	
37	
38	
39	
40	
41	
42	
43	
44	
45	
46	
47	
48	
49	
50	
51	
52	
53	
54	
55	
56	
57	
58	
59	
60	
61	
62	
63	
64	
65	
66	
67	
68	
69	
70	
71	
72	
73	
74	
75	
76	
77	
78	
79	
80	
81	
82	
83	
84	
85	
86	
87	
88	
89	
90	
91	
92	
93	
94	
95	
96	
97	
98	
99	
100	
101	
102	
103	
104	
105	
106	
107	
108	
109	
110	
111	
112	
113	
114	
115	
116	
117	
118	
119	
120	
121	
122	
123	
124	
125	
126	
127	
128	
129	
130	
131	
132	
133	
134	
135	
136	
137	
138	
139	
140	
141	
142	
143	
144	
145	
146	
147	
148	
149	
150	
151	
152	
153	
154	
155	
156	
157	
158	
159	
160	
161	
162	
163	
164	
165	
166	
167	
168	
169	
170	
171	
172	
173	
174	
175	
176	
177	
178	
179	
180	
181	
182	
183	
184	
185	
186	
187	
188	
189	
190	
191	
192	
193	
194	
195	
196	
197	
198	
199	
200	
201	
202	
203	
204	
205	
206	
207	
208	
209	
210	
211	
212	
213	
214	
215	
216	
217	
218	
219	
220	
221	
222	
223	
224	
225	
226	
227	
228	
229	
230	
231	
232	
233	
234	
235	
236	
237	
238	
239	
				</DataArray>
				<DataArray type="Int32" Name="offsets" Format="ascii">
1	
2	
3	
4	
5	
6	
7	
8	
9	
10	
11	
12	
13	
14	
15	
16	
17	
18	
19	
20	
21	
22	
23	
24	
25	
26	
27	
28	
29	
30	
31	
32	
33	
34	
35	
36	
37	
38	
39	
40	
41	
42	
43	
44	
45	
46	
47	
48	
49	
50	
51	
52	
53	
54	
55	
56	
57	
58	
59	
60	
61	
62	
63	
64	
65	
66	
67	
68	
69	
70	
71	
72	
73	
74	
75	
76	
77	
78	
79	
80	
81	
82	
83	
84	
85	
86	
87	
88	
89	
90	
91	
92	
93	
94	
95	
96	
97	
98	
99	
100	
101	
102	
103	
104	
105	
106	
107	
108	
109	
110	
111	
112	
113	
114	
115	
116	
117	
118	
119	
120	
121	
122	
123	
124	
125	
126	
127	
128	
129	
130	
131	
132	
133	
134	
135	
136	
137	
138	
139	
140	
141	
142	
143	
144	
145	
146	
147	
148	
149	
150	
151	
152	
153	
154	
155	
156	
157	
158	
159	
160	
161	
162	
163	
164	
165	
166	
167	
168	
169	
170	
171	
172	
173	
174	
175	
176	
177	
178	
179	
180	
181	
182	
183	
184	
185	
186	
187	
188	
189	
190	
191	
192	
193	
194	
195	
196	
197	
198	
199	
200	
201	
202	
203	
204	
205	
206	
207	
208	
209	
210	
211	
212	
213	
214	
215	
216	
217	
218	
219	
220	
221	
222	
223	
224	
225	
226	
227	
228	
229	
230	
231	
232	
233	
234	
235	
236	
237	
238	
239	
240	
				</DataArray>
				<DataArray type="Int32" Name="types" Format="ascii">
1	
1	
1	
1	
1	
1	
1	
1	
1	
1	
1	
1	
1	
1	
1	
1	
1	
1	
1	
1	
1	
1	
1	
1	
1	
1	
1	
1	
1	
1	
1	
1	
1	
1	
1	
1	
1	
1	
1	
1	
1	
1	
1	
1	
1	
1	
1	
1	
1	
1	
1	
1	
1	
1	
1	
1	
1	
1	
1	
1	
1	
1	
1	
1	
1	
1	
1	
1	
1	
1	
1	
1	
1	
1	
1	
1	
1	
1	
1	
1	
1	
1	
1	
1	
1	
1	
1	
1	
1	
1	
1	
1	
1	
1	
1	
1	
1	
1	
1	
1	
1	
1	
1	
1	
1	
1	
1	
1	
1	
1	
1	
1	
1	
1	
1	
1	
1	
1	
1	
1	
1	
1	
1	
1	
1	
1	
1	
1	
1	
1	
1	
1	
1	
1	
1	
1	
1	
1	
1	
1	
1	
1	
1	
1	
1	
1	
1	
1	
1	
1	
1	
1	
1	
1	
1	
1	
1	
1	
1	
1	
1	
1	
1	
1	
1	
1	
1	
1	
1	
1	
1	
1	
1	
1	
1	
1	
1	
1	
1	
1	
1	
1	
1	
1	
1	
1	
1	
1	
1	
1	
1	
1	
1	
1	
1	
1	
1	
1	
1	
1	
1	
1	
1	
1	
1	
1	
1	
1	
1	
1	
1	
1	
1	
1	
1	
1	
1	
1	
1	
1	
1	
1	
1	
1	
1	
1	
1	
1	
1	
1	
1	
1	
1	
1	
1	
1	
1	
1	
1	
1	
				</DataArray>
			</Cells>
		</Piece>
	</UnstructuredGrid>
</VTKFile>
