<VTKFile type="UnstructuredGrid" version="0.1" byte_order="LittleEndian">
	<UnstructuredGrid>
		<Piece NumberOfPoints="120" NumberOfCells="120">
			<CellData Scalars="scalars">
				<DataArray type="Float64" Name="Strength" NumberOfComponents="3" Format="ascii">
0.0161376	-0.012162	-0.00248084	
0.0020357	-0.0240644	-0.000246421	
0.000218194	-0.0254437	1.01146e-05	
-0.000603679	-0.0266731	0.000137283	
-0.000372195	-0.0262497	1.18729e-05	
-3.25909e-05	-0.0260103	4.11505e-05	
0.00128708	-0.0266258	-0.000294122	
-0.00161789	-0.025895	0.0003676	
-0.000555923	-0.0253803	0.000154766	
1.04304e-05	-0.025648	1.38513e-05	
0.000671189	-0.0265845	-0.000162645	
0.000750155	-0.0256314	-0.000242676	
-0.000124952	-0.026984	-7.68065e-05	
0.000127645	-0.0264897	-1.99767e-05	
2.25044e-05	-0.0262885	-7.86937e-05	
0.00090941	-0.0228393	0.000141514	
0.000273291	-0.0257255	1.56062e-05	
0.000793056	-0.0246047	-0.000125366	
7.11601e-05	-0.0256208	7.18725e-05	
2.5709e-05	-0.0260893	7.5506e-06	
0.00179764	-0.021984	-4.71203e-05	
-8.02691e-06	-0.0253803	-1.18049e-06	
3.47845e-05	-0.0261639	-1.29293e-05	
0.00231099	-0.0159001	3.08342e-05	
-2.05216e-05	-0.0263666	3.0554e-05	
0.00205127	-0.0182249	0.00012169	
0.000735654	-0.0251906	-0.000208571	
3.67941e-05	-0.0269069	-2.35509e-05	
-1.69675e-05	-0.0258881	2.90706e-05	
-0.00010263	-0.0202543	0.000565383	
5.48377e-05	-0.0261986	7.75999e-05	
-0.00349915	-0.0199885	0.000385035	
9.21655e-05	-0.025701	-0.000179195	
0.000608073	-0.0266488	-8.06242e-05	
-0.00596594	-0.0160661	0.000753189	
0.000531545	-0.0264001	-0.000102788	
1.0409e-05	-0.026103	-5.19033e-05	
-0.00054853	-0.0268858	0.000107581	
0.000413081	-0.0263325	-7.2786e-05	
0.00056108	-0.0267678	-8.12073e-05	
-0.000475801	-0.0250927	0.000111078	
-0.00012	-0.0257377	8.50718e-06	
-0.000951278	-0.0267298	0.000221665	
-0.000540625	-0.0257266	0.000227073	
-0.000530113	-0.0263576	0.000110878	
0.000405624	-0.0262884	-8.85346e-06	
-0.00225964	-0.0227478	0.000169622	
-0.000706647	-0.025127	0.000161832	
-0.000449613	-0.0240064	8.75767e-05	
2.25344e-05	-0.0262956	-1.91619e-05	
3.85688e-05	-0.0240898	-0.000226454	
-2.2698e-05	-0.0261885	-3.2264e-05	
3.815e-05	-0.0217751	-0.000421331	
-3.24908e-05	-0.0272854	9.74479e-06	
9.70678e-05	-0.0245599	-7.75461e-05	
3.109e-05	-0.0267865	6.75214e-05	
-0.0127163	-0.0123602	0.00185291	
-0.000716717	-0.0262709	0.00016582	
7.25096e-05	-0.0184181	-0.000622345	
-9.13694e-06	-0.0255784	-1.8119e-05	
0.0181504	-0.00129383	-0.00367521	
0.00229294	-0.00410857	-0.00070579	
0.000323796	-0.00490912	-9.54257e-05	
-0.000372454	-0.00496917	0.000118705	
-0.000188506	-0.00525019	4.41717e-05	
-2.48726e-06	-0.00493798	8.4043e-06	
0.00124811	-0.00514887	-0.000410759	
-0.00151958	-0.00517198	0.000500937	
-0.000375261	-0.0047175	0.000125385	
-9.63786e-05	-0.00514896	3.62235e-05	
0.000674049	-0.00510616	-0.000228944	
0.000766361	-0.00510144	-0.000270474	
-9.59946e-05	-0.00508609	2.26375e-05	
0.000121756	-0.00513638	-3.0649e-05	
9.68841e-07	-0.00510923	-8.77683e-06	
0.00120279	-0.00386351	-0.000343769	
0.000251174	-0.00459201	-6.46688e-05	
0.000920483	-0.00426259	-0.000301491	
1.94672e-05	-0.00453447	9.83991e-06	
1.66977e-06	-0.00499591	-3.40764e-06	
0.00211578	-0.00353307	-0.00061277	
-3.97046e-06	-0.00507284	-2.72218e-06	
6.89195e-05	-0.00526969	-2.16077e-05	
0.00279395	-0.00218892	-0.000650739	
-3.73598e-06	-0.0051718	1.48147e-06	
0.00259407	-0.00262606	-0.00066511	
0.000728899	-0.00477137	-0.000253342	
4.00945e-06	-0.00513423	-2.91822e-06	
-2.54799e-06	-0.00486373	2.15193e-06	
5.45322e-06	-0.00316924	5.50813e-05	
9.72069e-06	-0.00530407	1.60559e-05	
-0.0042506	-0.00310656	0.00121712	
3.15516e-05	-0.00494751	-3.17859e-05	
0.000414732	-0.00499828	-0.000129312	
-0.00701665	-0.0021442	0.00172083	
0.000465585	-0.0052881	-0.000148444	
6.86103e-07	-0.00495154	-9.40199e-06	
-0.000536943	-0.00524543	0.00016583	
0.000388736	-0.00520604	-0.00012732	
0.000486489	-0.0052252	-0.000154988	
-0.000712888	-0.00462968	0.000242341	
-0.000134112	-0.00515477	4.25847e-05	
-0.000900539	-0.00521739	0.000308135	
-0.000617942	-0.00506513	0.000229066	
-0.000449315	-0.0051191	0.000137945	
0.000387903	-0.00508221	-0.000114945	
-0.00263329	-0.00386666	0.000788423	
-0.000876191	-0.0045414	0.000288453	
-0.000771388	-0.0043364	0.000260275	
5.36123e-06	-0.00516592	3.20805e-07	
-5.92904e-06	-0.00409207	-2.33338e-05	
-2.26038e-06	-0.00508705	2.01077e-06	
-1.04871e-05	-0.00354604	-4.11273e-05	
-5.64334e-06	-0.00519678	-2.44443e-07	
7.11141e-06	-0.00440015	-1.24266e-05	
1.30599e-06	-0.00509308	2.65063e-06	
-0.0140787	-0.00134096	0.00285009	
-0.000722862	-0.00490309	0.00024756	
-9.3792e-06	-0.00265156	-5.70419e-05	
-7.36533e-06	-0.00478494	-5.11245e-06	
				</DataArray>
				<DataArray type="Float64" Name="Time Step Shed" NumberOfComponents="1" Format="ascii">
3	
3	
3	
3	
3	
3	
3	
3	
3	
3	
3	
3	
3	
3	
3	
3	
3	
3	
3	
3	
3	
3	
3	
3	
3	
3	
3	
3	
3	
3	
3	
3	
3	
3	
3	
3	
3	
3	
3	
3	
3	
3	
3	
3	
3	
3	
3	
3	
3	
3	
3	
3	
3	
3	
3	
3	
3	
3	
3	
3	
4	
4	
4	
4	
4	
4	
4	
4	
4	
4	
4	
4	
4	
4	
4	
4	
4	
4	
4	
4	
4	
4	
4	
4	
4	
4	
4	
4	
4	
4	
4	
4	
4	
4	
4	
4	
4	
4	
4	
4	
4	
4	
4	
4	
4	
4	
4	
4	
4	
4	
4	
4	
4	
4	
4	
4	
4	
4	
4	
4	
				</DataArray>
			</CellData>
			<Points>
				<DataArray type="Float64" Name="Position" NumberOfComponents="3" Format="ascii">
1.36781	2.94564	0.00297115	
1.36169	2.34982	0.00918307	
1.35667	1.65005	0.0152467	
1.35994	1.45048	0.0134097	
1.35672	0.149879	0.0162549	
1.35935	1.54977	0.0144425	
1.3589	0.249806	0.0152475	
1.35792	0.450242	0.0169389	
1.35913	1.95019	0.0128226	
1.35651	0.850064	0.0171033	
1.35837	0.650446	0.0152036	
1.35846	1.34988	0.01645	
1.35966	1.04987	0.0139112	
1.36002	1.14993	0.0150347	
1.35961	0.950021	0.0151504	
1.3622	2.44998	0.00808456	
1.36189	2.05038	0.0108648	
1.36267	2.25052	0.00952039	
1.36389	2.15067	0.00953707	
1.36074	0.750413	0.0155047	
1.36382	2.54971	0.00552091	
1.3585	0.349897	0.017886	
1.35832	0.049666	0.0160211	
1.36578	2.84823	0.00162871	
1.36187	1.24981	0.0148904	
1.36479	2.74882	0.00293609	
1.36043	1.85034	0.0136206	
1.36193	0.550737	0.0145406	
1.36237	1.75066	0.0127352	
1.36499	2.64925	0.00392083	
1.35852	-0.0499803	0.0161252	
1.36176	-2.64903	0.0059839	
1.35696	-1.65023	0.0148029	
1.35972	-1.45059	0.0137047	
1.36513	-2.84784	0.0023247	
1.35827	-0.15002	0.016293	
1.35954	-1.54973	0.0144921	
1.35933	-0.24966	0.0150097	
1.35841	-0.350003	0.0162723	
1.3597	-0.449718	0.0155446	
1.35868	-1.94984	0.0129516	
1.3567	-0.849898	0.017038	
1.35882	-0.650232	0.0155032	
1.35828	-1.3509	0.0162235	
1.35898	-1.15023	0.0154005	
1.35903	-0.949885	0.0154575	
1.36165	-2.44984	0.00787296	
1.36111	-2.05027	0.0114404	
1.36143	-2.25009	0.0102542	
1.36095	-1.25038	0.014971	
1.36395	-2.34959	0.00818063	
1.36072	-0.750449	0.0157083	
1.36392	-2.54993	0.00547665	
1.3621	-0.550399	0.014406	
1.36221	-2.15002	0.0112911	
1.36179	-1.05006	0.0145222	
1.36836	-2.94577	0.00268328	
1.36222	-1.75056	0.0120347	
1.36504	-2.74892	0.00233454	
1.36198	-1.85031	0.0125084	
1.27605	2.95025	-0.0208234	
1.27984	2.35061	-0.029249	
1.28028	1.64996	-0.0270966	
1.28111	1.45048	-0.0296209	
1.28091	0.149835	-0.0275689	
1.28074	1.55001	-0.0282843	
1.28123	0.249872	-0.0284468	
1.28146	0.449889	-0.0268671	
1.2804	1.95017	-0.0285634	
1.28117	0.850008	-0.0264915	
1.28094	0.650409	-0.0281989	
1.2811	1.35021	-0.0266352	
1.28086	1.0499	-0.0294033	
1.28106	1.15006	-0.0283377	
1.28082	0.949926	-0.02815	
1.27891	2.45079	-0.0283933	
1.28062	2.05038	-0.030064	
1.2799	2.25091	-0.0297407	
1.28048	2.15084	-0.0306211	
1.28127	0.750287	-0.0279198	
1.27814	2.55074	-0.0285538	
1.28112	0.349961	-0.0253116	
1.28113	0.0498951	-0.0279142	
1.2762	2.85117	-0.0251134	
1.28124	1.25004	-0.0284965	
1.27667	2.75068	-0.026042	
1.28026	1.85036	-0.0276938	
1.28131	0.550379	-0.0293193	
1.28039	1.75029	-0.0290539	
1.27738	2.65055	-0.027315	
1.2811	-0.0498973	-0.027882	
1.2774	-2.65084	-0.0269296	
1.28034	-1.65001	-0.0277224	
1.28124	-1.45039	-0.0295573	
1.27612	-2.85109	-0.0250961	
1.28096	-0.149817	-0.027613	
1.28081	-1.55	-0.0283989	
1.28112	-0.249653	-0.0288812	
1.28131	-0.349933	-0.0275249	
1.28151	-0.44976	-0.0284494	
1.2801	-1.95034	-0.0281416	
1.28111	-0.849981	-0.0265027	
1.28117	-0.650451	-0.0282575	
1.28088	-1.35073	-0.0267574	
1.28099	-1.15021	-0.0279761	
1.28084	-0.949972	-0.02788	
1.27868	-2.45075	-0.0284777	
1.28029	-2.05054	-0.0291267	
1.27957	-2.25039	-0.0287455	
1.28105	-1.2504	-0.0282901	
1.27943	-2.3502	-0.0294732	
1.28137	-0.750443	-0.0280021	
1.27802	-2.55081	-0.028596	
1.28137	-0.550313	-0.0296869	
1.27993	-2.15058	-0.0280855	
1.28082	-1.04995	-0.028761	
1.27596	-2.94993	-0.0207651	
1.28058	-1.75038	-0.0299899	
1.2766	-2.75083	-0.0264046	
1.28039	-1.85048	-0.0288648	
				</DataArray>
			</Points>
			<Cells>
				<DataArray type="Int32" Name="connectivity" Format="ascii">
0	
1	
2	
3	
4	
5	
6	
7	
8	
9	
10	
11	
12	
13	
14	
15	
16	
17	
18	
19	
20	
21	
22	
23	
24	
25	
26	
27	
28	
29	
30	
31	
32	
33	
34	
35	
36	
37	
38	
39	
40	
41	
42	
43	
44	
45	
46	
47	
48	
49	
50	
51	
52	
53	
54	
55	
56	
57	
58	
59	
60	
61	
62	
63	
64	
65	
66	
67	
68	
69	
70	
71	
72	
73	
74	
75	
76	
77	
78	
79	
80	
81	
82	
83	
84	
85	
86	
87	
88	
89	
90	
91	
92	
93	
94	
95	
96	
97	
98	
99	
100	
101	
102	
103	
104	
105	
106	
107	
108	
109	
110	
111	
112	
113	
114	
115	
116	
117	
118	
119	
				</DataArray>
				<DataArray type="Int32" Name="offsets" Format="ascii">
1	
2	
3	
4	
5	
6	
7	
8	
9	
10	
11	
12	
13	
14	
15	
16	
17	
18	
19	
20	
21	
22	
23	
24	
25	
26	
27	
28	
29	
30	
31	
32	
33	
34	
35	
36	
37	
38	
39	
40	
41	
42	
43	
44	
45	
46	
47	
48	
49	
50	
51	
52	
53	
54	
55	
56	
57	
58	
59	
60	
61	
62	
63	
64	
65	
66	
67	
68	
69	
70	
71	
72	
73	
74	
75	
76	
77	
78	
79	
80	
81	
82	
83	
84	
85	
86	
87	
88	
89	
90	
91	
92	
93	
94	
95	
96	
97	
98	
99	
100	
101	
102	
103	
104	
105	
106	
107	
108	
109	
110	
111	
112	
113	
114	
115	
116	
117	
118	
119	
120	
				</DataArray>
				<DataArray type="Int32" Name="types" Format="ascii">
1	
1	
1	
1	
1	
1	
1	
1	
1	
1	
1	
1	
1	
1	
1	
1	
1	
1	
1	
1	
1	
1	
1	
1	
1	
1	
1	
1	
1	
1	
1	
1	
1	
1	
1	
1	
1	
1	
1	
1	
1	
1	
1	
1	
1	
1	
1	
1	
1	
1	
1	
1	
1	
1	
1	
1	
1	
1	
1	
1	
1	
1	
1	
1	
1	
1	
1	
1	
1	
1	
1	
1	
1	
1	
1	
1	
1	
1	
1	
1	
1	
1	
1	
1	
1	
1	
1	
1	
1	
1	
1	
1	
1	
1	
1	
1	
1	
1	
1	
1	
1	
1	
1	
1	
1	
1	
1	
1	
1	
1	
1	
1	
1	
1	
1	
1	
1	
1	
1	
1	
				</DataArray>
			</Cells>
		</Piece>
	</UnstructuredGrid>
</VTKFile>
