<VTKFile type="UnstructuredGrid" version="0.1" byte_order="LittleEndian">
	<UnstructuredGrid>
		<Piece NumberOfPoints="1920" NumberOfCells="1920">
			<CellData Scalars="scalars">
				<DataArray type="Float64" Name="Strength" NumberOfComponents="3" Format="ascii">
0.0163227	-0.0117514	0.00307298	
-0.0010171	-0.0232837	0.0056403	
0.000266897	-0.0251426	0.00235572	
-0.000281579	-0.0263814	0.00243419	
-0.000880311	-0.0260627	0.000490635	
9.32849e-05	-0.0257315	0.00221803	
0.000519775	-0.0264716	-0.000696062	
-0.00109738	-0.0257094	0.00157127	
-0.00079501	-0.0247987	0.0043685	
0.000136933	-0.0254676	0.000679476	
0.000737535	-0.0264193	-0.000267658	
0.00069921	-0.0254403	0.00107845	
8.36973e-05	-0.0267762	0.00127649	
0.000327577	-0.0262752	0.00131621	
0.000201288	-0.0260922	0.000978434	
-0.00278402	-0.0209822	0.00818887	
-0.000581901	-0.0251156	0.00458958	
-0.00105742	-0.0237434	0.00569445	
-0.00105496	-0.0247832	0.00559236	
0.000229994	-0.0259194	0.000395183	
-0.00279097	-0.0193333	0.00989902	
-0.00017232	-0.0252157	0.000311711	
-0.000631681	-0.025987	0.00018546	
0.000472589	-0.012292	0.0101693	
0.000292513	-0.0261267	0.00163288	
-0.00203876	-0.0144728	0.0108697	
0.000330637	-0.0248557	0.00271714	
0.000142828	-0.0267219	0.000191003	
8.80295e-06	-0.025507	0.00298737	
-0.00471345	-0.0158597	0.0114433	
-0.000233638	-0.0260297	0.000294584	
0.000835175	-0.0171388	-0.0105513	
0.00011087	-0.0253586	-0.00283919	
0.000205492	-0.0263537	-0.0025078	
-0.00435742	-0.0134668	-0.00949478	
8.98743e-05	-0.0262286	-0.00028451	
-2.55404e-05	-0.0258188	-0.00232584	
-0.000681309	-0.0267056	0.000321007	
0.000281336	-0.026159	-0.000484178	
0.000589511	-0.0265872	-0.000668874	
0.00041154	-0.0246287	-0.00375481	
0.000305704	-0.0255559	-0.000620741	
-0.000405521	-0.026575	0.000380525	
-0.000659556	-0.0255216	-0.00135168	
-0.000592531	-0.0261615	-0.00111649	
0.000572575	-0.0260741	-0.00129568	
0.00142968	-0.0212801	-0.00774924	
0.000382548	-0.0245939	-0.00425894	
0.00124563	-0.0231485	-0.00557755	
-0.000313404	-0.0260464	-0.00176533	
0.00257124	-0.0227065	-0.0071044	
0.000276291	-0.0260157	-0.000516559	
0.00365337	-0.018098	-0.0112559	
0.000268595	-0.0270958	-0.000286624	
0.00119532	-0.0237418	-0.00543204	
5.42435e-05	-0.0265797	-0.0013221	
-0.0130135	-0.011552	-0.00365834	
1.20797e-05	-0.0259558	-0.00267582	
0.00326991	-0.0131737	-0.0122723	
0.000623791	-0.0251152	-0.00370413	
0.0185242	-0.00155681	-0.00311422	
0.00146247	-0.00448162	-0.000700602	
0.000257709	-0.00487335	0.000147994	
-0.000169808	-0.00490259	0.000661743	
-0.000172396	-0.00520743	0.000235835	
4.42199e-05	-0.00488718	0.00037017	
0.00068058	-0.00513518	-0.00106773	
-0.000876581	-0.00512444	0.00143427	
-0.000253411	-0.00457827	0.00102082	
-6.49786e-05	-0.00511166	0.000160056	
0.000417622	-0.00506856	-0.000622541	
0.000492927	-0.00509567	-0.000414329	
-4.66722e-05	-0.00504725	0.000255705	
9.47268e-05	-0.00510421	0.000111223	
2.08279e-05	-0.00507276	0.000132315	
0.000849252	-0.00390522	0.000583414	
0.000106122	-0.00452334	0.000596324	
0.000609846	-0.00429252	0.000289982	
4.78563e-05	-0.00438916	0.000986049	
8.25104e-06	-0.00496274	1.1605e-05	
0.00164466	-0.00381107	0.000310557	
-3.8447e-05	-0.00503754	5.41387e-05	
-4.54936e-05	-0.00523614	1.65381e-05	
0.00288364	-0.00207916	0.000692708	
5.36178e-05	-0.00513437	0.000268188	
0.00251364	-0.00272139	0.000680613	
0.000448274	-0.00477748	-7.67361e-05	
2.39541e-06	-0.00509973	-2.91625e-06	
3.32713e-05	-0.0047991	0.000496746	
-5.18539e-05	-0.00267208	0.00165331	
-1.14965e-05	-0.00526643	0.0001254	
-0.00390463	-0.00381424	0.00038667	
-2.29482e-06	-0.00488178	-0.000512654	
0.000211148	-0.00492858	-0.000709048	
-0.00716145	-0.00259763	0.000623796	
0.000248255	-0.00525527	-0.000343176	
-2.12881e-05	-0.00490114	-0.000394636	
-0.000314374	-0.00520663	0.000520465	
0.000235065	-0.00517015	-0.000345542	
0.000295425	-0.00518642	-0.000468299	
-0.000436146	-0.00463777	-0.000132796	
-3.75367e-05	-0.00512143	1.09578e-05	
-0.000499516	-0.00519276	0.000772695	
-0.000410023	-0.00505366	0.00026547	
-0.000294243	-0.00509999	0.000155524	
0.00025466	-0.00503222	-0.000505412	
-0.00180748	-0.00438035	0.000484411	
-0.000552293	-0.00457232	-0.000104759	
-0.000488578	-0.00433786	-0.000415289	
-5.86678e-05	-0.00512838	-0.000291607	
2.51377e-05	-0.00387388	-0.00122592	
2.17225e-05	-0.00505174	-8.40144e-05	
-7.50731e-05	-0.00305716	-0.00173579	
8.1072e-06	-0.00516237	-4.45486e-05	
-3.60482e-05	-0.00425736	-0.000986906	
6.97777e-06	-0.00505512	-0.000199258	
-0.014217	-0.0018928	0.00296969	
-0.000423996	-0.00491072	9.29563e-05	
-3.80751e-05	-0.00210905	-0.00157147	
1.68133e-06	-0.00470176	-0.000661878	
0.0194072	0.00317156	-0.00239449	
0.0020274	-0.00156779	-0.00185687	
0.000304113	-0.00212211	-0.000187994	
-0.000103089	-0.00215998	0.000380069	
-4.83211e-05	-0.00235204	0.000147725	
6.33073e-05	-0.00213414	0.000127469	
0.000778092	-0.00232952	-0.00111862	
-0.00092209	-0.00230489	0.00141081	
-8.93942e-05	-0.00195233	0.000499449	
-5.52362e-05	-0.00230361	0.000145573	
0.000401993	-0.00231637	-0.000633466	
0.000539556	-0.00224822	-0.000644471	
-7.19023e-06	-0.00226478	0.000149026	
0.000115616	-0.00227905	-2.99398e-05	
3.52281e-05	-0.00229239	7.3783e-05	
0.00142942	-0.00143545	-0.000703229	
0.000305927	-0.00192684	4.12177e-05	
0.0009997	-0.00172911	-0.00059631	
0.000284292	-0.00184456	0.00032315	
7.02996e-06	-0.00226449	1.99781e-05	
0.0023023	-0.00120262	-0.00114929	
-7.84172e-06	-0.00230233	2.1231e-05	
8.08541e-05	-0.00236354	-4.15635e-05	
0.00320736	-0.000354862	-6.65813e-06	
6.94418e-05	-0.00227559	0.000102887	
0.0030531	-0.000726664	-0.000234516	
0.000520378	-0.00208082	-0.000506018	
-2.53142e-05	-0.00231314	1.09992e-05	
5.31121e-05	-0.00208357	0.00017103	
0.000324596	-0.00112891	0.000496091	
5.12482e-05	-0.00237236	5.63751e-05	
-0.00474328	-0.000542457	0.00168808	
-9.21739e-05	-0.00212364	-0.000168126	
0.000162572	-0.00216166	-0.000437259	
-0.00780149	0.000564495	0.000894791	
0.000300141	-0.00236939	-0.000393313	
-5.59387e-05	-0.00214279	-0.000141923	
-0.000268266	-0.00236315	0.000500919	
0.000232963	-0.00235659	-0.000365553	
0.000266602	-0.0023543	-0.000457144	
-0.000695227	-0.00201011	0.000494982	
-0.000121225	-0.00232045	7.3532e-05	
-0.000563978	-0.00234961	0.000831204	
-0.00043704	-0.00224497	0.000509416	
-0.000309619	-0.00228597	0.000318401	
0.000165183	-0.00228712	-0.000412209	
-0.00243131	-0.00146344	0.0019897	
-0.000791673	-0.00195607	0.000542169	
-0.000874095	-0.00178416	0.000504043	
-5.41672e-05	-0.00227559	-0.000105669	
-0.000358686	-0.00160706	-0.00032067	
-5.67608e-05	-0.00229561	-4.6156e-05	
-0.000467507	-0.00124569	-0.000489247	
-2.6521e-05	-0.0023412	-2.30022e-05	
-0.00023306	-0.00180284	-0.00032606	
-4.48569e-05	-0.00227211	-0.000100232	
-0.01505	0.00213394	0.00197152	
-0.00057475	-0.00214331	0.000496224	
-0.00023611	-0.000911418	-0.000509727	
-0.000139444	-0.00203993	-0.000231835	
0.0201084	0.00573456	-0.000371981	
0.00249912	-0.00113118	-0.0021725	
0.000511696	-0.00236453	-0.000296505	
4.51992e-05	-0.0024468	0.000283141	
3.65275e-06	-0.00261306	6.90542e-05	
0.0001931	-0.00240615	9.48731e-05	
0.000915918	-0.00257108	-0.00110228	
-0.00104306	-0.00256656	0.00135047	
9.95029e-05	-0.0022187	0.000322195	
-5.06734e-05	-0.00259396	0.000138715	
0.000475342	-0.00259707	-0.000597076	
0.000721668	-0.00248247	-0.000669593	
5.57321e-05	-0.00255789	9.43992e-05	
0.000193988	-0.00255203	-5.50858e-05	
7.41175e-05	-0.00257946	6.33876e-05	
0.00174242	-0.00124678	-0.00110404	
0.000505292	-0.00212152	-0.000133583	
0.00133114	-0.00170989	-0.000867712	
0.000479276	-0.00205197	0.000144421	
1.22895e-05	-0.00255355	1.58831e-05	
0.00261541	-0.000933384	-0.00140399	
1.26307e-05	-0.00257596	1.50259e-05	
0.00013724	-0.00260853	-8.11411e-05	
0.00346907	-0.00014952	7.74025e-05	
0.000145692	-0.00253781	8.45437e-05	
0.00336563	-0.000618383	-0.000278707	
0.00064627	-0.00229606	-0.000601277	
-2.14654e-05	-0.00258091	2.30252e-05	
0.00016283	-0.00233749	9.29496e-05	
0.000468567	-0.00126091	0.000489759	
8.94614e-05	-0.00261386	3.83943e-05	
-0.00522067	-9.78444e-05	0.0018432	
-0.000268172	-0.00237804	-3.20135e-05	
1.60064e-05	-0.0024446	-0.000345603	
-0.00831324	0.00142856	0.000724975	
0.000371302	-0.00261297	-0.000384293	
-0.000198743	-0.00240731	-0.000108103	
-0.000303214	-0.00262245	0.000455544	
0.000262825	-0.0026122	-0.0003429	
0.00028911	-0.0026113	-0.000417779	
-0.000943447	-0.00215841	0.000752936	
-0.000192382	-0.00259822	0.000104988	
-0.000696116	-0.00259089	0.00081764	
-0.000612475	-0.00249028	0.000536447	
-0.000434114	-0.00254784	0.000333361	
0.000110266	-0.00258197	-0.000343698	
-0.00291276	-0.000994834	0.002298	
-0.00104463	-0.00204111	0.000781926	
-0.00122357	-0.00179922	0.000845326	
-0.000143582	-0.00253727	-9.4426e-05	
-0.000557695	-0.0018133	-6.9912e-05	
-0.000103556	-0.00256978	-9.58501e-06	
-0.000653438	-0.00141301	-0.000388708	
-5.39399e-05	-0.00259833	-9.16821e-07	
-0.000402334	-0.00203057	-0.000144889	
-0.000107855	-0.00255873	-7.44102e-05	
-0.0154959	0.00432257	0.000653748	
-0.000746685	-0.00232149	0.000629271	
-0.000351902	-0.00102474	-0.000557476	
-0.000261793	-0.00226659	-0.000151586	
0.0209315	0.00623804	0.000242234	
0.0027824	-0.000941336	-0.00203606	
0.000568015	-0.00206248	-0.000433207	
5.18656e-05	-0.00216495	0.000142782	
-3.41433e-06	-0.00234251	2.2741e-05	
0.000167206	-0.00212338	1.83518e-05	
0.00093133	-0.00229571	-0.00112697	
-0.00107024	-0.00230569	0.00133287	
0.000171723	-0.00194976	5.24904e-05	
-3.77504e-05	-0.00230289	0.000102369	
0.000528187	-0.00231509	-0.000614668	
0.00076864	-0.00216805	-0.000750536	
8.53131e-05	-0.00226447	1.5245e-05	
0.000215549	-0.00225333	-0.000123773	
7.16719e-05	-0.00228427	1.97298e-05	
0.00178608	-0.00110082	-0.00107187	
0.000521153	-0.00183437	-0.00022846	
0.00137641	-0.00144489	-0.000865325	
0.000356028	-0.0017958	6.12442e-05	
2.77213e-05	-0.00227554	-8.33262e-06	
0.00271464	-0.000837036	-0.00140494	
1.34454e-05	-0.00230798	2.78553e-06	
0.000120687	-0.00233806	-9.56256e-05	
0.00362858	5.74933e-05	9.73357e-05	
0.000139968	-0.00224375	1.11306e-05	
0.00355148	-0.000433581	-0.000346033	
0.000841925	-0.00192545	-0.000763911	
-8.28485e-07	-0.00231201	1.57841e-05	
0.000178783	-0.00205215	2.71125e-06	
0.000371129	-0.00105013	0.000493769	
5.37827e-05	-0.00234508	3.61864e-05	
-0.00558497	-0.000110641	0.00183557	
-0.000324739	-0.00208222	0.000110008	
2.49133e-06	-0.0021639	-0.000202172	
-0.00875586	0.00183673	0.000534937	
0.000363616	-0.00234291	-0.000375492	
-0.000170901	-0.00212191	-2.64181e-05	
-0.000335317	-0.00234978	0.000451015	
0.000265936	-0.00233812	-0.0003241	
0.000306352	-0.00233783	-0.000391449	
-0.0011535	-0.00175438	0.000974632	
-0.000203583	-0.00230172	0.000152462	
-0.000722257	-0.0023094	0.000835436	
-0.000662289	-0.00217424	0.000624987	
-0.000471058	-0.0022392	0.000415317	
0.000116186	-0.00229076	-0.000269826	
-0.00324979	-0.00090295	0.00216072	
-0.00111949	-0.00171358	0.000895075	
-0.00133081	-0.00151565	0.000943944	
-0.000132908	-0.00224338	-1.86106e-05	
-0.000370365	-0.00159795	-6.61116e-05	
-8.47412e-05	-0.0022906	1.61858e-05	
-0.000482879	-0.0012227	-0.000409745	
-4.43975e-05	-0.0023263	7.9572e-06	
-0.000313162	-0.00177627	-5.43562e-05	
-0.000106955	-0.00226702	-1.69397e-05	
-0.0160112	0.00491721	-0.000105517	
-0.000882253	-0.00196746	0.00073575	
-0.000291146	-0.000840263	-0.000532661	
-0.000284707	-0.00198037	1.75756e-05	
0.0216975	0.00627803	0.00145413	
0.00330933	-0.000884535	-0.00128852	
0.000664132	-0.00176715	-0.000379812	
6.79122e-05	-0.00187262	7.71538e-05	
-1.55049e-05	-0.00207882	2.40327e-05	
0.000109826	-0.00182773	5.10791e-05	
0.00109332	-0.00204836	-0.000972506	
-0.00128372	-0.00205235	0.0011369	
0.000231753	-0.00164471	2.8e-06	
-6.87623e-05	-0.00205035	8.78946e-05	
0.000648666	-0.00205373	-0.000531664	
0.000917711	-0.00189856	-0.000663192	
7.86515e-05	-0.00202529	6.22398e-06	
0.000227325	-0.00201697	-0.000111196	
4.88079e-05	-0.00203719	2.05066e-05	
0.00202971	-0.00096581	-0.000591287	
0.000564961	-0.00154068	-0.0001446	
0.00154175	-0.00124392	-0.000453392	
0.000238688	-0.00150957	0.000174175	
2.61184e-05	-0.0020259	-5.29308e-06	
0.00303922	-0.000712017	-0.000831424	
6.70927e-06	-0.00205921	6.99372e-07	
0.000108448	-0.00207343	-6.87568e-05	
0.00375383	0.000212784	0.000294235	
0.000101966	-0.00200083	2.48104e-05	
0.00372736	-0.000326652	-6.90217e-05	
0.000982897	-0.00163986	-0.000612468	
1.09575e-07	-0.00205343	6.53281e-06	
0.000123125	-0.00174792	3.5496e-05	
0.000236061	-0.000827187	0.000543175	
1.7911e-05	-0.00207924	4.76388e-05	
-0.0060684	-2.4298e-05	0.0011645	
-0.000349197	-0.00177761	9.05051e-05	
-6.28086e-06	-0.00186895	-0.000122685	
-0.00917688	0.0019638	0.00010532	
0.000408082	-0.00208205	-0.000302784	
-0.000114014	-0.00182236	-6.72498e-05	
-0.000422293	-0.00208663	0.000390109	
0.000306934	-0.00208109	-0.000259588	
0.000372052	-0.00207402	-0.000323441	
-0.00134283	-0.00150749	0.000797648	
-0.000209089	-0.00204425	0.000121971	
-0.000858307	-0.00205067	0.000697301	
-0.000800907	-0.00189356	0.000566493	
-0.000540254	-0.00199805	0.000360436	
0.000184379	-0.00203351	-0.000231957	
-0.0038338	-0.000831929	0.00138944	
-0.00128759	-0.00142512	0.000718376	
-0.00160807	-0.00127949	0.000587901	
-0.000113424	-0.00199245	-1.69703e-05	
-0.000248199	-0.00133117	-0.000225218	
-5.87275e-05	-0.00203317	-5.41909e-06	
-0.000304204	-0.000975305	-0.000523317	
-2.93312e-05	-0.00206037	-1.86276e-06	
-0.000222886	-0.00149526	-0.000127169	
-7.03355e-05	-0.0020213	-2.43837e-05	
-0.0165765	0.0048964	-0.000796211	
-0.000973661	-0.00168529	0.000590084	
-0.000178196	-0.000678059	-0.000512354	
-0.000187018	-0.00168366	-6.70427e-05	
0.022398	0.00607956	0.0024769	
0.0034965	-0.000727849	-0.00126057	
0.000795551	-0.0015548	-0.000310709	
0.000135758	-0.00165684	4.17044e-05	
-2.91972e-05	-0.00188197	2.95245e-05	
9.70976e-05	-0.00161726	7.3338e-05	
0.0012661	-0.00187144	-0.000744806	
-0.00146118	-0.0018729	0.000889554	
0.000319878	-0.00144462	5.73472e-06	
-7.25201e-05	-0.00183901	6.52664e-05	
0.000754062	-0.0018555	-0.000431038	
0.00107006	-0.00168659	-0.000526454	
9.68359e-05	-0.00181701	5.84587e-06	
0.000263168	-0.00180221	-8.00338e-05	
4.30463e-05	-0.0018251	2.99185e-05	
0.00212821	-0.000816395	-0.000579563	
0.00060938	-0.00134849	-9.98009e-05	
0.00160792	-0.00107131	-0.000456575	
0.000207343	-0.00132282	0.000189089	
2.07003e-05	-0.00182845	3.44705e-08	
0.00316518	-0.000566733	-0.000836209	
4.63893e-06	-0.00187387	1.13281e-05	
0.000111897	-0.00187426	-4.02173e-05	
0.00387925	0.000227808	0.000417098	
8.31715e-05	-0.00178188	5.17126e-05	
0.00388611	-0.000202842	-2.62562e-05	
0.00110325	-0.00144709	-0.000488086	
5.27755e-06	-0.00186023	6.12707e-06	
0.000104322	-0.00154315	7.17452e-05	
0.000205243	-0.000719895	0.000494829	
-2.59459e-06	-0.001878	6.17577e-05	
-0.00634841	0.000148101	0.00117948	
-0.000427399	-0.00157157	7.25295e-05	
-7.01913e-05	-0.00165882	-7.81253e-05	
-0.00958211	0.00185917	-0.000333857	
0.000460454	-0.00188503	-0.000225875	
-0.000104363	-0.00161689	-8.31472e-05	
-0.000493884	-0.00189428	0.000314887	
0.00034012	-0.00188948	-0.000202776	
0.000402739	-0.00188544	-0.000256186	
-0.00154974	-0.00133459	0.000642935	
-0.000247183	-0.00183629	9.33402e-05	
-0.000976308	-0.0018574	0.000547248	
-0.000943651	-0.00168355	0.000450735	
-0.000627341	-0.00178927	0.000287696	
0.000219396	-0.00182448	-0.000201905	
-0.00404036	-0.000683477	0.00141428	
-0.00142249	-0.00126449	0.000521659	
-0.00173883	-0.00110098	0.000612105	
-9.21027e-05	-0.00178019	-5.07058e-05	
-0.000214409	-0.00116342	-0.000231417	
-4.1556e-05	-0.00183563	-2.82462e-05	
-0.000267805	-0.000847709	-0.000487348	
-2.31574e-05	-0.00186484	-1.57793e-05	
-0.000191041	-0.00131299	-0.000164815	
-5.60943e-05	-0.00181846	-4.48752e-05	
-0.0170752	0.00471457	-0.00165276	
-0.00108238	-0.00149614	0.000435188	
-0.000134347	-0.000585596	-0.000477688	
-0.000153159	-0.00149358	-0.000111102	
0.0231401	0.00595308	0.00267871	
0.00389236	-0.00085679	-0.00135029	
0.000870346	-0.00169998	-0.000318579	
0.000240466	-0.0018039	5.51032e-06	
-1.18583e-05	-0.00194552	2.2115e-05	
0.000112248	-0.00175572	9.12303e-05	
0.00126893	-0.00193046	-0.000736928	
-0.00150545	-0.00196582	0.000916583	
0.00039129	-0.00166059	1.9784e-05	
-7.44037e-05	-0.00195729	7.11988e-05	
0.000796522	-0.00196406	-0.000451126	
0.00112166	-0.00182163	-0.000532571	
0.000159436	-0.00192782	-2.05531e-05	
0.000279644	-0.00189323	-7.80949e-05	
4.87185e-05	-0.00194727	3.63839e-05	
0.00233177	-0.000897414	-0.000584164	
0.000675315	-0.00160131	-6.33761e-05	
0.00174116	-0.00133867	-0.00042057	
0.000260221	-0.00159047	0.000252713	
2.48454e-05	-0.00192979	2.5386e-06	
0.0033528	-0.000576658	-0.000849461	
5.50044e-06	-0.00194178	1.29314e-05	
0.000108089	-0.00194339	-3.51428e-05	
0.00403869	0.000233526	0.000446313	
9.34462e-05	-0.00189104	6.3288e-05	
0.00407308	-0.000148194	-6.8306e-06	
0.00115831	-0.00163317	-0.000476744	
7.45455e-06	-0.00197863	7.94391e-06	
0.000124751	-0.00170811	9.59833e-05	
0.000220373	-0.00074283	0.000524895	
-1.24149e-05	-0.00193951	7.29814e-05	
-0.00668107	0.000260378	0.00123917	
-0.000493666	-0.00173213	7.02802e-05	
-0.000172741	-0.00182477	-4.61111e-05	
-0.00996961	0.00189236	-0.00045655	
0.000462776	-0.00193929	-0.00022264	
-0.000122398	-0.00177008	-0.000106456	
-0.000489899	-0.00194045	0.000312866	
0.000370445	-0.00194198	-0.000222874	
0.000410566	-0.00197596	-0.000263966	
-0.00164601	-0.00157869	0.000631326	
-0.000258586	-0.00196679	8.97756e-05	
-0.00100856	-0.00197727	0.000557333	
-0.000991995	-0.00183273	0.000450534	
-0.000685841	-0.00188965	0.000307105	
0.000197089	-0.0019556	-0.000199019	
-0.00436948	-0.000734718	0.00148449	
-0.00153842	-0.0015324	0.000497424	
-0.00205505	-0.00125664	0.000698185	
-0.000104736	-0.00189635	-6.45349e-05	
-0.000249638	-0.00129955	-0.000283985	
-4.56189e-05	-0.00194499	-3.38833e-05	
-0.000290527	-0.000883158	-0.000522461	
-2.5812e-05	-0.00198161	-1.9619e-05	
-0.000243247	-0.00158896	-0.000221752	
-6.35397e-05	-0.00194125	-5.57467e-05	
-0.0176041	0.00454419	-0.00185352	
-0.00113408	-0.00167969	0.000418851	
-0.000138756	-0.000593953	-0.000487749	
-0.000183688	-0.00169623	-0.000150975	
0.0237226	0.00613926	0.00304471	
0.00412588	-0.000680704	-0.00146139	
0.00103482	-0.00180339	-0.000373986	
0.000315615	-0.0019346	-1.12384e-05	
4.21996e-05	-0.0021994	-2.90675e-06	
0.000130902	-0.00190179	0.000113988	
0.00127285	-0.00219312	-0.000722774	
-0.00142896	-0.00218566	0.000860775	
0.000600364	-0.0016343	-7.65365e-05	
-3.49556e-05	-0.00211335	5.27955e-05	
0.000800865	-0.00211413	-0.00044614	
0.00115587	-0.00193588	-0.000526963	
0.000211106	-0.0020607	-4.02218e-05	
0.00034573	-0.00204202	-0.000102163	
5.58007e-05	-0.00208456	4.13362e-05	
0.00247982	-0.000769543	-0.000652457	
0.000733372	-0.00147223	-9.848e-05	
0.00180827	-0.00114319	-0.00048512	
0.000245016	-0.00142984	0.000239833	
2.9287e-05	-0.00210481	5.31968e-06	
0.00349567	-0.000445877	-0.000924804	
7.84513e-06	-0.00219934	1.76826e-05	
0.000119209	-0.00223584	-3.32182e-05	
0.00416781	0.000373231	0.000443142	
0.000102702	-0.00199389	7.26063e-05	
0.00424326	1.57294e-05	-4.12155e-05	
0.0012257	-0.00166257	-0.000478479	
9.13577e-06	-0.00212123	1.08897e-05	
0.000139004	-0.00176414	0.000116202	
0.000211487	-0.000685376	0.000488062	
-5.15505e-05	-0.00224123	0.000110982	
-0.00698228	0.000457766	0.00133061	
-0.000664581	-0.00182131	0.00013247	
-0.000294908	-0.00196751	-4.59273e-06	
-0.0102953	0.00210146	-0.00053095	
0.000461478	-0.00220687	-0.000212389	
-0.000143118	-0.00192298	-0.000131769	
-0.000461504	-0.0022028	0.000296389	
0.000358387	-0.00222318	-0.000213532	
0.000351602	-0.00221582	-0.000229452	
-0.00188232	-0.00151913	0.000731781	
-0.000305993	-0.00213764	0.000105011	
-0.00101708	-0.00214583	0.000549383	
-0.00100386	-0.0020049	0.00042266	
-0.00076169	-0.00206166	0.000332147	
0.000162642	-0.00211575	-0.000190142	
-0.00464057	-0.00056176	0.00162908	
-0.00163428	-0.00138173	0.000549679	
-0.00223089	-0.00112494	0.000789997	
-0.000117232	-0.00203425	-7.69307e-05	
-0.000247145	-0.00121601	-0.000275462	
-5.31799e-05	-0.00213739	-4.19131e-05	
-0.000281596	-0.000820543	-0.000491934	
-3.04359e-05	-0.00215578	-2.408e-05	
-0.000226936	-0.00141191	-0.000210233	
-7.35899e-05	-0.00209496	-6.61876e-05	
-0.0179871	0.00466816	-0.00226552	
-0.0011912	-0.00172372	0.000418246	
-0.000133209	-0.000543978	-0.000446059	
-0.000199453	-0.00172441	-0.000174035	
0.0241609	0.00657417	0.00316825	
0.00425563	-0.000325487	-0.00159747	
0.00104671	-0.00139085	-0.000411357	
0.000351451	-0.00142587	-6.91247e-05	
5.23295e-05	-0.00160069	-1.31303e-05	
0.000105079	-0.0014302	9.30553e-05	
0.00131052	-0.001551	-0.000753753	
-0.00146198	-0.00151701	0.000880451	
0.000653329	-0.0012069	-0.000160894	
-1.99932e-05	-0.00148678	3.74588e-05	
0.000853196	-0.00155055	-0.000485393	
0.00112828	-0.00146469	-0.000538289	
0.0002089	-0.00145393	-6.18781e-05	
0.000289705	-0.00145228	-9.48419e-05	
4.09563e-05	-0.00146543	3.30576e-05	
0.00255097	-0.000495386	-0.000771295	
0.00074023	-0.00115226	-0.000156696	
0.00186322	-0.000813971	-0.000594791	
0.000203895	-0.00113923	0.000192075	
2.22693e-05	-0.00148025	3.53666e-06	
0.00356004	-0.000207177	-0.00104423	
6.48237e-06	-0.00152044	1.27096e-05	
0.000129358	-0.00156318	-4.9309e-05	
0.00426416	0.00056012	0.0003945	
8.01336e-05	-0.00149708	5.75714e-05	
0.00435624	0.000233706	-0.000116053	
0.00132528	-0.00122027	-0.000569292	
6.65022e-06	-0.00154841	8.40032e-06	
0.00011981	-0.00140552	9.93197e-05	
0.00017371	-0.000548628	0.000392193	
-1.72691e-05	-0.00157971	6.55409e-05	
-0.00720951	0.000724661	0.00142498	
-0.000726355	-0.00151285	0.000192774	
-0.000349831	-0.00159397	5.07629e-05	
-0.0105449	0.00244061	-0.000618324	
0.000458188	-0.00163118	-0.000227939	
-0.000123045	-0.00154995	-0.000112022	
-0.000492095	-0.00163647	0.000310241	
0.0003535	-0.00160424	-0.000213017	
0.00039466	-0.0016057	-0.000252901	
-0.00193172	-0.00116426	0.000806292	
-0.000307423	-0.00162072	0.000120291	
-0.00103289	-0.00166221	0.000571184	
-0.00101519	-0.00159703	0.000452512	
-0.000697736	-0.0016104	0.000314883	
0.0001759	-0.00161532	-0.000180541	
-0.0048734	-0.000313776	0.00180688	
-0.00163934	-0.0011504	0.000593218	
-0.00241519	-0.00103491	0.000891118	
-9.90911e-05	-0.00167104	-6.61413e-05	
-0.000227272	-0.00106673	-0.000244018	
-4.3672e-05	-0.0016107	-3.16187e-05	
-0.000248038	-0.000703704	-0.000418947	
-2.45519e-05	-0.00164548	-1.83714e-05	
-0.000211512	-0.00126534	-0.000188968	
-6.03966e-05	-0.00162016	-5.30398e-05	
-0.0183104	0.00492614	-0.00245747	
-0.00128059	-0.00141533	0.000499834	
-0.000123449	-0.000475244	-0.000389926	
-0.000168136	-0.00136249	-0.000140928	
0.0246795	0.00690191	0.00336466	
0.00438879	-0.000427663	-0.00158517	
0.00124492	-0.00135036	-0.000509131	
0.000398391	-0.00153969	-7.31377e-05	
6.4202e-05	-0.00135465	-2.07922e-05	
0.000117741	-0.00150671	0.000108703	
0.00130017	-0.00134651	-0.000737014	
-0.00153204	-0.00140264	0.000905377	
0.000774744	-0.00121154	-0.000215309	
-4.28557e-05	-0.00151131	5.68325e-05	
0.000800973	-0.00148097	-0.000445173	
0.00114379	-0.00150931	-0.000531421	
0.000183023	-0.00152828	-3.7321e-05	
0.000299959	-0.00155	-8.93702e-05	
4.53477e-05	-0.00151712	3.74276e-05	
0.00270757	-0.000563206	-0.00076662	
0.000783972	-0.00113022	-0.000177392	
0.00193692	-0.000819063	-0.00061527	
0.00020697	-0.00112398	0.000190069	
2.47266e-05	-0.00148319	7.03943e-06	
0.00373273	-0.000249617	-0.00102752	
6.72886e-06	-0.00138093	1.11902e-05	
0.000135039	-0.00135838	-5.87327e-05	
0.004398	0.000618646	0.000459569	
8.60994e-05	-0.00155471	6.37394e-05	
0.00452917	0.000287143	-8.27039e-05	
0.00137293	-0.00121957	-0.000580718	
5.47544e-06	-0.00143563	8.53302e-06	
0.0001201	-0.00132699	9.96648e-05	
0.000212655	-0.000641093	0.000448952	
-2.51219e-05	-0.00136539	5.51618e-05	
-0.00743573	0.000930346	0.00148123	
-0.000835887	-0.00116185	0.00029127	
-0.000400954	-0.00125162	0.000102584	
-0.0108015	0.00272579	-0.000668961	
0.000464685	-0.00136565	-0.000239753	
-0.000106603	-0.00125918	-9.75026e-05	
-0.000486099	-0.00137529	0.000297308	
0.000383535	-0.00138404	-0.000229718	
0.000431045	-0.00141628	-0.000271817	
-0.00202253	-0.000883577	0.000883465	
-0.000361344	-0.00151891	0.000149759	
-0.000944188	-0.00149177	0.000514069	
-0.00105367	-0.00129561	0.000490369	
-0.000768666	-0.00142232	0.000361409	
0.000144337	-0.00149269	-0.000158498	
-0.00499455	-0.000166201	0.00187946	
-0.00166506	-0.00084661	0.000660105	
-0.00238999	-0.000638085	0.000971524	
-8.33571e-05	-0.00139083	-5.59907e-05	
-0.000196843	-0.00089372	-0.000203064	
-4.4859e-05	-0.0015293	-3.09693e-05	
-0.00024566	-0.000671507	-0.000393044	
-2.25964e-05	-0.00144861	-1.72951e-05	
-0.000161193	-0.000943415	-0.000141284	
-5.72508e-05	-0.00146337	-5.00935e-05	
-0.0186019	0.00518999	-0.00261444	
-0.00128866	-0.00106482	0.00054303	
-0.000125783	-0.000459985	-0.000371256	
-0.000142579	-0.00109912	-0.000115889	
0.0250992	0.00729803	0.00341497	
0.00453581	-0.000189144	-0.00168804	
0.00134291	-0.00131085	-0.000549665	
0.000455414	-0.00138942	-0.000108738	
0.000162884	-0.00185739	-6.95742e-05	
0.000111965	-0.00137801	0.000104742	
0.00132863	-0.00178748	-0.000724833	
-0.00150042	-0.00173565	0.000868566	
0.000916846	-0.00109737	-0.000300534	
0.000114904	-0.00161729	-2.57568e-05	
0.000839932	-0.00172865	-0.000451788	
0.00115895	-0.00141069	-0.000526634	
0.000232821	-0.00152892	-5.67717e-05	
0.00036167	-0.0015173	-0.000119488	
4.94424e-05	-0.0015636	4.15902e-05	
0.00278334	-0.000366407	-0.000862383	
0.000786	-0.00102901	-0.000191471	
0.00198352	-0.000736923	-0.000647414	
0.000197171	-0.00105263	0.000179874	
2.9096e-05	-0.00169973	1.54124e-05	
0.00378075	-5.73791e-05	-0.00113027	
9.80867e-06	-0.00178302	1.54896e-05	
0.000140714	-0.00187236	-5.30752e-05	
0.00447897	0.000795468	0.00041282	
8.27721e-05	-0.00146593	6.87502e-05	
0.00463103	0.000500006	-0.000159823	
0.00144517	-0.00114552	-0.000608934	
7.18307e-06	-0.00174423	1.20692e-05	
0.000121938	-0.00129165	0.000101338	
0.000180907	-0.000527765	0.0003601	
-6.16786e-05	-0.00186912	9.23536e-05	
-0.0076514	0.00113381	0.00153549	
-0.000989481	-0.00141234	0.000327666	
-0.000384308	-0.00147334	6.18752e-05	
-0.0110326	0.00296758	-0.000728135	
0.000403364	-0.00183175	-0.000188703	
-0.000129486	-0.00147912	-0.000119911	
-0.000503314	-0.00176815	0.000298465	
0.000303165	-0.00174602	-0.000179509	
0.00041698	-0.00166917	-0.000262586	
-0.00220295	-0.00103304	0.000923339	
-0.000504309	-0.00146429	0.000224604	
-0.00104171	-0.00160963	0.000553079	
-0.0010412	-0.00141329	0.000455748	
-0.000779087	-0.00142702	0.000356009	
0.000137954	-0.00143586	-0.000154171	
-0.0053424	-0.000109021	0.00199425	
-0.00172376	-0.000999772	0.000636965	
-0.00248607	-0.000818034	0.000954412	
-8.62091e-05	-0.00143002	-6.44752e-05	
-0.000240149	-0.00106877	-0.000242176	
-4.98861e-05	-0.00155554	-3.45149e-05	
-0.000244455	-0.000658736	-0.000376425	
-2.73226e-05	-0.00165368	-2.22475e-05	
-0.000196805	-0.001139	-0.000171774	
-5.81345e-05	-0.00143311	-5.08292e-05	
-0.0189202	0.00542513	-0.00271804	
-0.00139063	-0.00128392	0.00054724	
-0.000129537	-0.000447655	-0.000354182	
-0.000172565	-0.00129095	-0.000137899	
0.0254074	0.00770609	0.00337112	
0.00444983	0.000189548	-0.00173685	
0.00132742	-0.000781037	-0.00058821	
0.000598143	-0.000888044	-0.000227279	
7.13469e-05	-0.00118818	-2.49597e-05	
7.08628e-05	-0.00086248	6.73848e-05	
0.00136995	-0.00123526	-0.000738311	
-0.00152599	-0.00127546	0.000859097	
0.000906564	-0.000736014	-0.000341079	
0.000112692	-0.00116327	-3.12947e-05	
0.00091434	-0.00118201	-0.000491569	
0.00124828	-0.000990587	-0.000587575	
0.000262055	-0.0011409	-8.87873e-05	
0.000334393	-0.00111218	-0.000122335	
3.80151e-05	-0.00115346	3.27125e-05	
0.00283516	-0.000140448	-0.000954822	
0.000829892	-0.000706841	-0.000271651	
0.0019911	-0.000325538	-0.00074744	
0.000125477	-0.000672677	0.000115292	
2.12183e-05	-0.00115138	1.31953e-05	
0.00380697	0.00014393	-0.00124208	
7.43038e-06	-0.00121737	1.13869e-05	
0.000137134	-0.00116251	-5.89364e-05	
0.00452471	0.000996413	0.000353599	
6.45648e-05	-0.00113395	5.60544e-05	
0.00468871	0.000710835	-0.00025923	
0.00149216	-0.00069556	-0.000666777	
5.91048e-06	-0.00122535	1.23017e-05	
8.16981e-05	-0.000853412	6.83572e-05	
0.000136528	-0.000389075	0.000258036	
-4.90097e-05	-0.00116998	6.41952e-05	
-0.00773203	0.00144614	0.0016838	
-0.000946737	-0.000813568	0.000380702	
-0.000506534	-0.000902369	0.000180861	
-0.0111673	0.00329492	-0.00066703	
0.000477744	-0.00119928	-0.000239721	
-7.75937e-05	-0.000875226	-7.18276e-05	
-0.000542361	-0.00127844	0.000312667	
0.000352429	-0.00124345	-0.00020359	
0.000364012	-0.00129467	-0.000223431	
-0.00221958	-0.000584318	0.000982055	
-0.000522733	-0.00114817	0.000238494	
-0.00112701	-0.0011733	0.000596328	
-0.00111975	-0.000991723	0.000520074	
-0.000768881	-0.00109308	0.000359037	
0.000130473	-0.00114445	-0.000134328	
-0.00531539	0.000247437	0.00212406	
-0.00177338	-0.000582644	0.000727828	
-0.0025102	-0.000309421	0.00107904	
-6.78342e-05	-0.00113237	-5.40558e-05	
-0.000126397	-0.000558601	-0.000126431	
-3.90064e-05	-0.00115071	-2.75138e-05	
-0.00016784	-0.000449114	-0.000249319	
-2.22109e-05	-0.00123544	-1.75676e-05	
-0.00011494	-0.000664518	-0.00010062	
-4.68282e-05	-0.00112864	-4.18529e-05	
-0.0191632	0.00568637	-0.00264735	
-0.00141828	-0.000784375	0.000617031	
-9.85425e-05	-0.000322137	-0.000241692	
-0.000108753	-0.00080219	-8.80226e-05	
0.0259074	0.00802208	0.00334028	
0.00463172	-6.49938e-05	-0.00168166	
0.0014317	-0.00118883	-0.000567666	
0.000679337	-0.00126927	-0.000220703	
-1.03984e-05	-0.00148759	2.26554e-05	
0.000105417	-0.00127457	0.000100698	
0.00137086	-0.00152642	-0.000705439	
-0.00144207	-0.00150874	0.000789014	
0.00119913	-0.00110288	-0.00041738	
8.72194e-05	-0.00147407	-6.53185e-06	
0.000961891	-0.00144764	-0.000494447	
0.00132051	-0.0012793	-0.000578398	
0.000274201	-0.00148477	-7.54527e-05	
0.00046449	-0.00146271	-0.000165801	
4.90872e-05	-0.00146327	4.13695e-05	
0.00291935	-0.000304413	-0.000890348	
0.000924653	-0.000955695	-0.00025823	
0.00213378	-0.000600762	-0.000710603	
0.000176798	-0.000956152	0.000163497	