<VTKFile type="UnstructuredGrid" version="0.1" byte_order="LittleEndian">
	<UnstructuredGrid>
		<Piece NumberOfPoints="1620" NumberOfCells="1620">
			<CellData Scalars="scalars">
				<DataArray type="Float64" Name="Strength" NumberOfComponents="3" Format="ascii">
0.0167409	-0.0113185	0.00234209	
0.000377679	-0.0234179	0.00513491	
0.000519082	-0.0251802	0.00183475	
-0.000151726	-0.0264213	0.00193729	
-0.000743932	-0.0260643	0.000524092	
0.000280623	-0.0257656	0.00172778	
0.000745898	-0.0264672	-0.000554023	
-0.00120681	-0.0257153	0.00133975	
-0.000369003	-0.0249267	0.00362618	
0.00018726	-0.0254693	0.000491829	
0.000800489	-0.0264134	-0.000334579	
0.000915629	-0.0254439	0.000729824	
0.000135196	-0.0267859	0.000987651	
0.000403169	-0.0262858	0.000992919	
0.000246588	-0.0260974	0.000755599	
-0.0011484	-0.0214147	0.00742541	
4.62239e-05	-0.0252387	0.00389347	
-4.95221e-05	-0.0239046	0.00508113	
-0.000299714	-0.0249508	0.00489387	
0.000250793	-0.0259185	0.000237446	
-0.000763357	-0.0199831	0.00892495	
-0.000101856	-0.0252138	0.000271175	
-0.00046365	-0.0259876	0.0002668	
0.00171241	-0.0131276	0.00891732	
0.000379407	-0.026145	0.00125179	
-7.6672e-05	-0.0153487	0.00980847	
0.000747687	-0.0249051	0.0021055	
0.000168207	-0.02672	7.13233e-05	
0.000296006	-0.0255686	0.00237191	
-0.00261722	-0.0169916	0.010448	
-0.000146895	-0.0260267	0.000396936	
-0.00120861	-0.0178123	-0.00933055	
-0.000138824	-0.0254059	-0.00235658	
8.21398e-05	-0.0263971	-0.00198098	
-0.00559737	-0.0138817	-0.00815502	
0.000211178	-0.0262268	-0.000149975	
-0.000230187	-0.0258543	-0.00184357	
-0.000663555	-0.0267035	0.000343604	
0.000305955	-0.0261575	-0.000393941	
0.00057774	-0.0265868	-0.000578511	
-0.000223039	-0.0247106	-0.00318031	
0.000126545	-0.0255564	-0.000560322	
-0.000597642	-0.0265691	0.000295765	
-0.000853536	-0.0255322	-0.000947399	
-0.000756034	-0.0261655	-0.000819621	
0.000432747	-0.0260832	-0.0011176	
-0.000267921	-0.0216343	-0.00684041	
-0.000377651	-0.0246921	-0.00364188	
0.000238812	-0.0233384	-0.00487201	
-0.000456487	-0.0260674	-0.00135001	
0.0012227	-0.0230498	-0.00630892	
0.000139	-0.0260142	-0.000502281	
0.00190266	-0.0190169	-0.0101169	
0.000160743	-0.0270946	-0.000272577	
0.000393222	-0.023921	-0.00471392	
-9.39559e-05	-0.0265886	-0.00107203	
-0.0133888	-0.011323	-0.00293889	
-0.000460141	-0.0259944	-0.00220841	
0.00157155	-0.0144867	-0.011072	
0.00013731	-0.0251985	-0.00314096	
0.018555	-0.000370645	-0.00326071	
0.00188672	-0.00431152	-0.000747079	
0.000327371	-0.00487044	8.16001e-05	
-0.000177644	-0.00491445	0.000561469	
-0.000159753	-0.00520797	0.000223605	
8.02876e-05	-0.00489176	0.000290293	
0.000836921	-0.00512975	-0.000977327	
-0.00103617	-0.00512628	0.00131531	
-0.000215761	-0.00460865	0.000882988	
-6.51709e-05	-0.00511195	0.000134799	
0.000487561	-0.00506719	-0.000575877	
0.000600784	-0.00508278	-0.000425216	
-4.81057e-05	-0.00504872	0.000214392	
0.000120677	-0.00510387	7.05749e-05	
2.69987e-05	-0.00507285	0.000108966	
0.00115064	-0.00384934	0.000409573	
0.000233965	-0.00453027	0.000497953	
0.000857645	-0.00425472	0.000201436	
0.000164458	-0.00441474	0.000849868	
1.57486e-05	-0.00496219	2.30621e-06	
0.00198061	-0.0036586	0.000113758	
-2.29073e-05	-0.00503726	4.67277e-05	
6.01664e-06	-0.00523597	1.23904e-05	
0.00302314	-0.00193813	0.000467679	
7.32655e-05	-0.0051365	0.000209428	
0.00273002	-0.00255613	0.000444587	
0.000577128	-0.00476214	-0.000133082	
1.47597e-06	-0.00509919	7.26525e-07	
7.96263e-05	-0.00480764	0.000396755	
0.000187759	-0.00277087	0.0014707	
1.07124e-05	-0.00526624	0.000117268	
-0.00420311	-0.00343953	0.000659583	
-4.70827e-05	-0.00488904	-0.000432163	
0.000229919	-0.00494108	-0.000606222	
-0.00729639	-0.00206475	0.000945785	
0.000313912	-0.00525308	-0.000315401	
-5.35191e-05	-0.00490595	-0.000320267	
-0.000358327	-0.00520803	0.000472367	
0.000279582	-0.00516855	-0.000329224	
0.000344582	-0.00518477	-0.00044757	
-0.000608392	-0.00461955	-6.49654e-05	
-8.12541e-05	-0.00512048	8.69435e-06	
-0.000614444	-0.0051886	0.000711436	
-0.000496069	-0.00504432	0.00028771	
-0.000363638	-0.00509442	0.000172856	
0.000264326	-0.00503572	-0.000459372	
-0.00222797	-0.00416652	0.000598637	
-0.000754507	-0.00454419	-3.10826e-05	
-0.000714268	-0.00431545	-0.00030373	
-7.90469e-05	-0.00513089	-0.000229516	
-0.000179011	-0.00392022	-0.00105267	
-1.11201e-05	-0.00505143	-7.30243e-05	
-0.00028771	-0.00316076	-0.00151391	
-2.89066e-06	-0.00516169	-5.38502e-05	
-0.000156422	-0.00428656	-0.000837209	
-1.75605e-05	-0.00505585	-0.000166103	
-0.0143246	-0.000865027	0.00290766	
-0.000570771	-0.00489476	0.000128682	
-0.000235861	-0.00221228	-0.0014035	
-8.14966e-05	-0.00471455	-0.000556575	
0.0192569	0.00375282	-0.00269237	
0.00219959	-0.00147602	-0.00173157	
0.000351012	-0.00211418	-0.000193937	
-0.000122778	-0.00216618	0.000335442	
-6.16462e-05	-0.00235271	0.000127886	
7.39374e-05	-0.00213515	9.89172e-05	
0.000906104	-0.00232335	-0.00103156	
-0.00107446	-0.00230733	0.00129413	
-0.000101276	-0.00196794	0.000431086	
-6.30905e-05	-0.00230432	0.000126073	
0.000482795	-0.00231389	-0.000583128	
0.000628569	-0.00223517	-0.000607482	
-1.38692e-05	-0.002266	0.000124938	
0.000136284	-0.0022776	-3.29911e-05	
3.46458e-05	-0.00229261	5.93805e-05	
0.00146377	-0.0014066	-0.000690259	
0.000341109	-0.00192126	4.65573e-06	
0.00106216	-0.00169509	-0.000585446	
0.000262859	-0.00185816	0.000256253	
1.19279e-05	-0.00226426	1.31981e-05	
0.00233255	-0.00117063	-0.00112051	
-3.36345e-06	-0.00230217	1.72073e-05	
8.91634e-05	-0.00236301	-4.46007e-05	
0.00321079	-0.000266852	-0.000164653	
7.61974e-05	-0.00227582	8.85043e-05	
0.00305731	-0.000618369	-0.000412735	
0.000618585	-0.00205729	-0.000490846	
-1.86155e-05	-0.00231293	8.71239e-06	
7.04004e-05	-0.00208564	0.000134283	
0.00032918	-0.00115379	0.000431758	
4.29433e-05	-0.00237252	4.86028e-05	
-0.00469339	-0.000512623	0.00182828	
-0.00010341	-0.00212524	-0.000136662	
0.000186424	-0.00216847	-0.000390859	
-0.00773456	0.000783287	0.00122901	
0.000345605	-0.00236806	-0.000361652	
-6.73485e-05	-0.00214384	-0.000116444	
-0.000332867	-0.00236382	0.000456319	
0.000273481	-0.00235645	-0.00033564	
0.000318596	-0.00235509	-0.000416926	
-0.000783047	-0.0019778	0.000493406	
-0.000140043	-0.00231901	7.82541e-05	
-0.000669434	-0.00234261	0.000769659	
-0.000515033	-0.0022347	0.000480064	
-0.000364976	-0.00228026	0.000298037	
0.000201544	-0.00229183	-0.000366273	
-0.00258988	-0.00135464	0.00186238	
-0.000885567	-0.00191645	0.000537891	
-0.000946226	-0.00174658	0.000504808	
-6.41508e-05	-0.00227577	-9.18229e-05	
-0.000329261	-0.00162354	-0.00026415	
-5.67359e-05	-0.00229558	-3.30937e-05	
-0.00042196	-0.0012869	-0.000419085	
-2.69026e-05	-0.00234096	-1.53222e-05	
-0.000223476	-0.00181546	-0.000254817	
-4.70485e-05	-0.00227271	-7.8783e-05	
-0.0149321	0.00261639	0.00222752	
-0.000661888	-0.00212132	0.000481287	
-0.000273079	-0.000935626	-0.000443096	
-0.000146763	-0.00204464	-0.000179016	
0.0200536	0.00580645	-0.00107755	
0.00259879	-0.00130329	-0.00194744	
0.000523875	-0.00236227	-0.000292001	
-1.22092e-05	-0.00245216	0.000234196	
-2.26607e-05	-0.00261304	5.64759e-05	
0.000154705	-0.00240982	6.17143e-05	
0.00101712	-0.00257166	-0.00100787	
-0.00117427	-0.00257005	0.00123064	
5.82342e-05	-0.00222591	0.000278896	
-6.49462e-05	-0.00259446	0.000116797	
0.00054285	-0.00259403	-0.000549362	
0.000769845	-0.00247757	-0.000632406	
3.83418e-05	-0.0025587	7.20725e-05	
0.000189277	-0.00255185	-6.75223e-05	
6.17339e-05	-0.00257991	4.65747e-05	
0.00171389	-0.00137311	-0.00099324	
0.000483938	-0.00212659	-0.000130649	
0.00130585	-0.0017731	-0.000773978	
0.000379867	-0.00207325	0.000135733	
1.47226e-05	-0.00255328	6.13706e-06	
0.00262013	-0.00105109	-0.00130833	
1.02194e-05	-0.00257569	1.16374e-05	
0.000124175	-0.00260907	-7.77453e-05	
0.00346881	-0.000105712	-0.0001106	
0.000119045	-0.00253976	5.69556e-05	
0.00335762	-0.000537865	-0.00046756	
0.000725967	-0.00228018	-0.00056952	
-1.49852e-05	-0.00258073	1.76112e-05	
0.000176277	-0.00233723	6.85907e-05	
0.000439158	-0.00129612	0.000420322	
6.31728e-05	-0.00261445	3.56239e-05	
-0.00517065	-0.000210149	0.00196765	
-0.000252331	-0.00237977	-1.61219e-05	
7.45385e-05	-0.0024503	-0.000292078	
-0.00826021	0.00147056	0.00111136	
0.000395114	-0.00261422	-0.000348937	
-0.000161075	-0.00241109	-7.82942e-05	
-0.000365627	-0.00262141	0.000412523	
0.000293781	-0.00261244	-0.000312179	
0.000334939	-0.00261142	-0.000379661	
-0.000992369	-0.00215355	0.000702011	
-0.000188187	-0.00259823	0.000105946	
-0.00076582	-0.00259118	0.000750653	
-0.000653121	-0.00248507	0.000511218	
-0.000456981	-0.00254505	0.000321741	
0.000161851	-0.00258434	-0.000301067	
-0.00301232	-0.00113671	0.00209492	
-0.00108328	-0.00204342	0.000720798	
-0.00122532	-0.0018386	0.000752733	
-0.000119171	-0.00253923	-6.53112e-05	
-0.000436348	-0.0018451	-9.29475e-05	
-8.34808e-05	-0.00257022	-3.88973e-07	
-0.000551944	-0.0014646	-0.000353606	
-4.31725e-05	-0.00259825	3.39721e-06	
-0.00031919	-0.00204632	-0.000128707	
-8.72277e-05	-0.00255982	-5.27301e-05	
-0.0154587	0.00435018	0.00106691	
-0.000799567	-0.00231457	0.000588021	
-0.000371348	-0.00106245	-0.000466976	
-0.000224566	-0.00227236	-0.000121293	
0.0209132	0.00622587	-0.000750885	
0.00285422	-0.0010899	-0.00185448	
0.000578143	-0.00206745	-0.000393945	
1.03546e-05	-0.00216633	0.000128434	
-2.25146e-05	-0.00234218	2.56246e-05	
0.000134748	-0.0021256	1.58123e-05	
0.00103819	-0.00230217	-0.0010147	
-0.00120637	-0.00230839	0.00120589	
0.000142002	-0.00195213	4.91103e-05	
-5.8241e-05	-0.00230274	9.06193e-05	
0.00058595	-0.00231472	-0.000560582	
0.000814917	-0.00217316	-0.000683728	
6.41248e-05	-0.002265	1.01159e-05	
0.000201995	-0.00225491	-0.000113769	
5.65387e-05	-0.0022845	1.59454e-05	
0.00179411	-0.00118274	-0.00096594	
0.000501879	-0.00184314	-0.000198735	
0.00135638	-0.00151385	-0.000774007	
0.000285052	-0.00180787	7.5891e-05	
2.04533e-05	-0.00227541	-7.6734e-06	
0.00273112	-0.000910032	-0.00132481	
8.91297e-06	-0.00230775	3.0285e-06	
0.000113512	-0.00233874	-8.22669e-05	
0.00362537	0.000102254	-0.000128579	
0.000104472	-0.00224553	1.17267e-05	
0.00353419	-0.000356587	-0.000543668	
0.000876819	-0.00193709	-0.000691893	
1.65047e-07	-0.00231185	1.1082e-05	
0.000147108	-0.00205457	2.55151e-06	
0.000343591	-0.00109653	0.000404824	
3.47659e-05	-0.00234521	3.86354e-05	
-0.00554014	-0.000115763	0.00196275	
-0.000293582	-0.0020875	9.47791e-05	
4.33355e-05	-0.0021653	-0.000180075	
-0.00871255	0.00183557	0.000993176	
0.000391191	-0.00234429	-0.000335896	
-0.000137417	-0.00212428	-2.51962e-05	
-0.000388402	-0.00234907	0.000409213	
0.000295835	-0.00233831	-0.000293599	
0.000348205	-0.00233743	-0.000356306	
-0.0011795	-0.00178981	0.000873951	
-0.000197459	-0.00230311	0.000135517	
-0.000790799	-0.00231431	0.000755441	
-0.000705797	-0.00217438	0.000574427	
-0.00049076	-0.00224134	0.000378212	
0.000166035	-0.00229013	-0.000246189	
-0.00332639	-0.00101729	0.00198607	
-0.00115193	-0.00173905	0.000799707	
-0.00134658	-0.00156512	0.00083431	
-0.000112469	-0.00224439	-1.44115e-05	
-0.000310429	-0.00160985	-8.25364e-05	
-6.43468e-05	-0.0022911	9.78874e-06	
-0.000413981	-0.0012644	-0.000354979	
-3.59223e-05	-0.00232627	5.5056e-06	
-0.000247703	-0.00178599	-7.00456e-05	
-8.06101e-05	-0.00226794	-1.43064e-05	
-0.016024	0.00481479	0.000599593	
-0.000901353	-0.00198425	0.000664017	
-0.000307139	-0.000888301	-0.00043726	
-0.000228517	-0.00198771	5.48945e-06	
0.0217302	0.00629308	8.51065e-05	
0.00328942	-0.000971633	-0.00127523	
0.000666591	-0.00177263	-0.000349005	
3.14024e-05	-0.00187359	7.63165e-05	
-2.3417e-05	-0.00207864	2.39315e-05	
8.29873e-05	-0.00182918	4.7941e-05	
0.00116452	-0.00205131	-0.000879219	
-0.00136811	-0.00205346	0.00103172	
0.000203673	-0.00164837	4.88406e-06	
-8.47441e-05	-0.00204983	8.19634e-05	
0.000680599	-0.00205548	-0.000482508	
0.000932462	-0.00191313	-0.000597386	
6.0308e-05	-0.00202577	7.81694e-06	
0.000210712	-0.00201936	-9.61849e-05	
3.35627e-05	-0.00203733	2.09547e-05	
0.00199962	-0.00102053	-0.000600675	
0.000539494	-0.00155025	-0.000139464	
0.00150613	-0.00128247	-0.000464725	
0.000197111	-0.00151849	0.000146875	
1.86852e-05	-0.00202583	-3.84758e-06	
0.00302399	-0.000759649	-0.00084216	
5.02724e-06	-0.00205904	1.18203e-06	
0.000107499	-0.00207364	-6.11751e-05	
0.00376123	0.000252688	2.70623e-05	
7.07484e-05	-0.00200196	3.04887e-05	
0.00372112	-0.000222344	-0.000313798	
0.00099576	-0.0016507	-0.000560488	
-1.79413e-06	-0.00205335	5.46539e-06	
9.75395e-05	-0.00174961	3.16252e-05	
0.000229455	-0.000883672	0.000449018	
7.91334e-06	-0.00207921	4.74602e-05	
-0.00602432	-5.32805e-05	0.00136521	
-0.000330659	-0.00178156	8.25655e-05	
2.85061e-05	-0.00186927	-0.000113672	
-0.00914491	0.0019871	0.000655066	
0.000424651	-0.00208269	-0.00027357	
-8.92663e-05	-0.001824	-5.97644e-05	
-0.000454164	-0.00208601	0.000355572	
0.00032337	-0.00208125	-0.000236127	
0.000396145	-0.00207378	-0.000294305	
-0.00135304	-0.00153322	0.000728356	
-0.000206752	-0.00204517	0.000107373	
-0.000899028	-0.00205465	0.00063101	
-0.00080707	-0.001907	0.000509661	
-0.000540449	-0.0020043	0.000322527	
0.000215771	-0.00203228	-0.000213565	
-0.00382354	-0.000884277	0.00138342	
-0.00128912	-0.00145392	0.000655163	
-0.00158858	-0.00130951	0.000574164	
-8.15387e-05	-0.0019938	-2.259e-05	
-0.000206337	-0.0013431	-0.000194653	
-4.69359e-05	-0.00203331	-8.32557e-06	
-0.000267174	-0.00102988	-0.000430943	
-2.48048e-05	-0.00206031	-3.71802e-06	
-0.000177086	-0.00150233	-0.000115622	
-4.931e-05	-0.00202175	-2.62394e-05	
-0.0166131	0.00480364	0.000167408	
-0.000979352	-0.00169764	0.000543672	
-0.000209259	-0.000726138	-0.000427925	
-0.000149848	-0.00168745	-6.41834e-05	
0.0225006	0.00611192	0.000723677	
0.00348077	-0.000814207	-0.00124942	
0.000784107	-0.00156254	-0.000301223	
0.000114462	-0.00165869	3.15733e-05	
-3.23849e-05	-0.0018819	2.67836e-05	
7.46464e-05	-0.00161901	6.15142e-05	
0.00129176	-0.00187237	-0.000696783	
-0.00149439	-0.00187377	0.000830569	
0.000295404	-0.00144983	-6.20657e-06	
-8.06781e-05	-0.00183871	6.03692e-05	
0.000765519	-0.00185645	-0.000405613	
0.00106807	-0.00169514	-0.000502451	
8.56002e-05	-0.00181744	-6.37932e-09	
0.000251579	-0.00180378	-8.00521e-05	
3.30714e-05	-0.00182527	2.44048e-05	
0.00210338	-0.00086874	-0.000592576	
0.000585474	-0.00135814	-0.000111618	
0.0015771	-0.00111011	-0.000470344	
0.000170196	-0.00133234	0.000157179	
1.65795e-05	-0.00182839	-1.74524e-07	
0.00314986	-0.000624588	-0.000849945	
3.36041e-06	-0.0018738	9.28852e-06	
0.000111032	-0.00187428	-3.90655e-05	
0.00389413	0.000292984	9.99967e-05	
6.35345e-05	-0.00178287	4.34714e-05	
0.003877	-9.15026e-05	-0.000302604	
0.00109679	-0.00145854	-0.000468261	
3.07367e-06	-0.00186021	5.30882e-06	
8.06408e-05	-0.00154512	6.02462e-05	
0.000198126	-0.000774928	0.000406948	
-8.1923e-06	-0.00187812	5.58766e-05	
-0.00630202	0.000105755	0.00140045	
-0.00040689	-0.00157684	7.77468e-05	
-4.60881e-05	-0.00166017	-6.63438e-05	
-0.00956403	0.00192041	0.000360357	
0.000465529	-0.00188497	-0.00021507	
-8.0206e-05	-0.00161898	-6.95703e-05	
-0.000506643	-0.00189412	0.000294757	
0.00034625	-0.00188963	-0.000189822	
0.000412103	-0.00188563	-0.000238936	
-0.00153875	-0.00135753	0.000620701	
-0.00024448	-0.00183666	9.09137e-05	
-0.000991486	-0.00185832	0.000515706	
-0.000936864	-0.00169265	0.000430378	
-0.000621363	-0.00179314	0.000275857	
0.000234683	-0.00182436	-0.000183982	
-0.00403568	-0.000735943	0.00139916	
-0.00140671	-0.00128738	0.000508102	
-0.00172472	-0.00113136	0.000595912	
-7.03908e-05	-0.00178134	-4.30641e-05	
-0.000177697	-0.00117618	-0.000195502	
-3.50735e-05	-0.00183573	-2.44423e-05	
-0.000228882	-0.000903424	-0.000399285	
-1.9612e-05	-0.00186487	-1.43304e-05	
-0.000153131	-0.00132114	-0.000137519	
-4.33636e-05	-0.00181884	-3.65133e-05	
-0.0171567	0.00465351	-0.000402101	
-0.00107171	-0.00150728	0.000423247	
-0.000170939	-0.000635429	-0.000395273	
-0.000122513	-0.00149759	-9.41284e-05	
0.0232165	0.00614479	0.000779029	
0.00386925	-0.000953851	-0.00134957	
0.000855465	-0.00170949	-0.000308538	
0.000216371	-0.001807	-3.64584e-06	
-1.47938e-05	-0.0019455	2.04521e-05	
8.55648e-05	-0.00175798	7.72127e-05	
0.00129544	-0.00193107	-0.000687903	
-0.00154214	-0.00196637	0.000852329	
0.000359667	-0.00166791	-3.83517e-08	
-8.3711e-05	-0.00195706	6.53497e-05	
0.000807791	-0.00196548	-0.000424106	
0.00111744	-0.00183117	-0.000508358	
0.000147349	-0.00192864	-2.65533e-05	
0.000266296	-0.00189502	-7.97607e-05	
3.68602e-05	-0.0019476	2.90916e-05	
0.00229981	-0.000960866	-0.00060764	
0.000642417	-0.0016139	-8.4655e-05	
0.00169854	-0.00138327	-0.000448733	
0.000210672	-0.00160431	0.000208429	
1.89475e-05	-0.00192975	2.49013e-06	
0.00333256	-0.000657345	-0.000866945	
4.11608e-06	-0.00194172	1.00213e-05	
0.00010812	-0.00194336	-3.40759e-05	
0.00405418	0.000319822	9.15717e-05	
6.9878e-05	-0.00189243	5.19612e-05	
0.00406089	-4.47973e-05	-0.000322574	
0.00114658	-0.00164634	-0.000459934	
4.88256e-06	-0.00197865	6.18787e-06	
9.46554e-05	-0.00171096	8.00092e-05	
0.000209693	-0.000804379	0.000430275	
-1.8164e-05	-0.00193973	6.46563e-05	
-0.0066297	0.000173972	0.00149182	
-0.000469508	-0.0017386	7.8515e-05	
-0.000145295	-0.00182749	-3.42124e-05	
-0.00995186	0.00197823	0.000337722	
0.000468133	-0.00193918	-0.000212187	
-9.31419e-05	-0.00177286	-8.99467e-05	
-0.000503183	-0.00194034	0.00029207	
0.000377847	-0.00194228	-0.000206469	
0.000421568	-0.0019761	-0.000244852	
-0.0016283	-0.0016032	0.00061531	
-0.00025539	-0.0019672	8.85364e-05	
-0.00102374	-0.00197857	0.000524177	
-0.000981358	-0.00184307	0.000431438	
-0.00067895	-0.00189407	0.000294437	
0.000213848	-0.00195576	-0.000178491	
-0.00435887	-0.000797056	0.0014809	
-0.0015119	-0.00156023	0.000492202	
-0.00203531	-0.00129499	0.000685264	
-7.77976e-05	-0.00189801	-5.33792e-05	
-0.000204997	-0.00131699	-0.000235737	
-3.77785e-05	-0.00194514	-2.86411e-05	
-0.000245483	-0.000946555	-0.000425867	
-2.19355e-05	-0.0019817	-1.67873e-05	
-0.000191915	-0.00160092	-0.00018378	
-4.85182e-05	-0.00194191	-4.4116e-05	
-0.0176764	0.00457353	-0.000458168	
-0.00111808	-0.00169298	0.000408867	
-0.000178655	-0.000646614	-0.000399982	
-0.000144904	-0.00170214	-0.000125559	
0.0238301	0.00634418	0.000895258	
0.00410477	-0.000789375	-0.00146388	
0.00101723	-0.00181538	-0.00036486	
0.000287584	-0.00193898	-2.30048e-05	
3.9253e-05	-0.00219948	-5.425e-06	
9.80765e-05	-0.001905	9.37966e-05	
0.0012994	-0.00219304	-0.000674489	
-0.00146444	-0.00218564	0.000799405	
0.000568322	-0.00164487	-9.47352e-05	
-4.55019e-05	-0.00211325	4.75249e-05	
0.000811752	-0.00211542	-0.000419696	
0.00114796	-0.00194639	-0.000505533	
0.000197099	-0.0020619	-4.71643e-05	
0.000330184	-0.00204448	-0.000104054	
4.13835e-05	-0.00208503	3.27605e-05	
0.00244931	-0.000844826	-0.000672108	
0.000699759	-0.00148715	-0.000118399	
0.0017686	-0.00119163	-0.000513149	
0.000196181	-0.00144443	0.000193997	
2.19645e-05	-0.00210487	3.50804e-06	
0.00347865	-0.000550931	-0.000928782	
5.58963e-06	-0.00219932	1.28522e-05	
0.000117525	-0.00223593	-3.35901e-05	
0.0041805	0.000454029	5.26187e-05	
7.61239e-05	-0.0019956	5.76117e-05	
0.00422241	0.000102921	-0.000387175	
0.0012094	-0.00167783	-0.000467236	
5.87412e-06	-0.0021213	6.62552e-06	
0.000104175	-0.00176805	9.29372e-05	
0.000198763	-0.000746534	0.0003952	
-5.94687e-05	-0.00224165	9.81704e-05	
-0.00692274	0.000372036	0.00162257	
-0.000637799	-0.0018303	0.000141847	
-0.000263202	-0.00197211	9.04509e-06	
-0.0102731	0.00221317	0.000352392	
0.00046616	-0.00220684	-0.000202314	
-0.000107305	-0.00192697	-0.000107606	
-0.000475469	-0.0022026	0.000275227	
0.000365519	-0.00222347	-0.000197142	
0.0003624	-0.00221587	-0.000211495	
-0.00186362	-0.00154918	0.000716613	
-0.000301379	-0.00213831	0.000104268	
-0.00103104	-0.00214717	0.000517357	
-0.000986862	-0.00201636	0.000408418	
-0.000752695	-0.00206694	0.000319161	
0.000181982	-0.00211601	-0.000168014	
-0.00463383	-0.000644788	0.00161467	
-0.00160904	-0.00141273	0.000545273	
-0.00221081	-0.00117014	0.000780162	
-8.66595e-05	-0.00203631	-6.18534e-05	
-0.000200383	-0.00123506	-0.000224511	
-4.34545e-05	-0.00213772	-3.34412e-05	
-0.000237051	-0.000884858	-0.000394582	
-2.51816e-05	-0.00215592	-1.81e-05	
-0.000176482	-0.00142454	-0.000170849	
-5.48894e-05	-0.00209593	-5.0614e-05	
-0.01809	0.00471823	-0.000702485	
-0.00117182	-0.00173809	0.000414137	
-0.000170627	-0.00059353	-0.000362452	
-0.000155233	-0.00173224	-0.000139384	
0.0243057	0.00668475	0.000808848	
0.00424567	-0.000459467	-0.00158892	
0.00103413	-0.00140358	-0.000400367	
0.000331406	-0.00143044	-7.53619e-05	
4.94679e-05	-0.00160079	-1.51796e-05	
7.77723e-05	-0.00143312	7.52761e-05	
0.00133947	-0.00155148	-0.000700542	
-0.00149957	-0.00151731	0.000814756	
0.000629794	-0.00121842	-0.000168542	
-2.78642e-05	-0.00148678	3.28108e-05	
0.000867328	-0.00155235	-0.000454067	
0.00112657	-0.00147497	-0.000513632	
0.000199378	-0.00145511	-6.49706e-05	
0.000278596	-0.0014544	-9.58953e-05	
3.02539e-05	-0.00146584	2.47407e-05	
0.00253102	-0.000579315	-0.000776495	
0.000713533	-0.00116719	-0.000170074	
0.00183319	-0.000870064	-0.000607701	
0.000160643	-0.0011521	0.0001534	
1.67548e-05	-0.00148033	2.53989e-06	
0.00355441	-0.000329073	-0.00102851	
4.49555e-06	-0.00152045	9.25332e-06	
0.000128458	-0.00156333	-4.84908e-05	
0.00427067	0.000624453	-2.57339e-05	
5.87469e-05	-0.00149854	4.45492e-05	
0.00432468	0.00029908	-0.000481986	
0.00131783	-0.00123814	-0.000548124	
3.95415e-06	-0.00154842	6.47074e-06	
8.85062e-05	-0.0014093	7.82764e-05	
0.000164782	-0.000601245	0.000310677	
-2.33857e-05	-0.00158001	5.68596e-05	
-0.00714717	0.000603496	0.00174457	
-0.000702943	-0.00152308	0.000200016	
-0.000324131	-0.00159921	5.95248e-05	
-0.0105354	0.00249886	0.000378519	
0.00046383	-0.00163133	-0.00021539	
-9.13144e-05	-0.00155371	-9.00732e-05	
-0.000506557	-0.00163631	0.000287263	
0.000361432	-0.00160458	-0.000196408	
0.000406253	-0.00160582	-0.000233067	
-0.00192078	-0.00120048	0.000778983	
-0.000304043	-0.00162158	0.000117505	
-0.00104898	-0.00166404	0.000535908	
-0.00100462	-0.00160863	0.000435083	
-0.000691427	-0.00161553	0.000302122	
0.000193099	-0.0016156	-0.000159292	
-0.00488078	-0.000427365	0.00176029	
-0.00161907	-0.00118505	0.000580525	
-0.00239625	-0.00109158	0.000873992	
-7.23393e-05	-0.00167293	-5.20834e-05	
-0.000181176	-0.00108528	-0.000196823	
-3.50464e-05	-0.00161103	-2.47909e-05	
-0.000209777	-0.000761015	-0.00033067	
-1.98583e-05	-0.00164557	-1.41512e-05	
-0.000161941	-0.00127773	-0.000152126	
-4.43414e-05	-0.00162103	-4.01018e-05	
-0.018443	0.00494011	-0.000709097	
-0.00126576	-0.00143218	0.000490079	
-0.00015589	-0.000520434	-0.000313218	
-0.00012903	-0.00136961	-0.000111582	
0.0248761	0.00690234	0.000735851	
0.00436847	-0.000588129	-0.00158766	
0.00123384	-0.00136654	-0.000493404	
0.000374405	-0.00154551	-8.01726e-05	
6.07589e-05	-0.00135484	-2.16511e-05	
8.55519e-05	-0.0015105	8.65872e-05	
0.00132829	-0.00134777	-0.000683339	
-0.00157064	-0.00140362	0.000836003	
0.000749992	-0.00122603	-0.000221812	
-5.21355e-05	-0.00151135	4.87842e-05	
0.000814013	-0.00148256	-0.000416023	
0.00114004	-0.00152116	-0.000505608	
0.00017088	-0.00152955	-4.35984e-05	
0.000286491	-0.00155247	-9.18726e-05	
3.30041e-05	-0.00151769	2.72086e-05	
0.00267717	-0.000668291	-0.000786464	
0.000755826	-0.00114734	-0.000190012	
0.00190255	-0.000884547	-0.000630862	
0.00016057	-0.00113757	0.000151115	
1.83448e-05	-0.00148336	5.2693e-06	
0.00371735	-0.000403633	-0.00103018	
4.51588e-06	-0.00138102	7.93693e-06	
0.000133991	-0.00135873	-5.62057e-05	
0.00441453	0.00064859	-2.04027e-05	
6.20313e-05	-0.00155644	5.01592e-05	
0.00449777	0.000310779	-0.000502896	
0.00136288	-0.00124046	-0.000560584	
3.5446e-06	-0.00143567	6.15691e-06	
8.72624e-05	-0.00133115	7.83473e-05	
0.000197392	-0.00070376	0.000351956	
-3.13296e-05	-0.0013656	4.93997e-05	
-0.00737156	0.00074842	0.00184473	
-0.000820119	-0.00117354	0.00028995	
-0.000381354	-0.00125761	0.000105687	
-0.0108096	0.00270894	0.000436667	
0.00047136	-0.00136604	-0.000224408	
-7.77572e-05	-0.00126291	-7.65442e-05	
-0.000500145	-0.00137496	0.000275176	
0.000392286	-0.00138454	-0.000211601	
0.00044337	-0.00141656	-0.000250173	
-0.00201887	-0.000924971	0.000849129	
-0.00035849	-0.00152006	0.000145548	
-0.000958158	-0.00149415	0.000481054	
-0.00104897	-0.00130847	0.000466198	
-0.000765245	-0.0014285	0.000344258	
0.000161664	-0.00149298	-0.000138174	
-0.00500646	-0.000301588	0.00182744	
-0.00165423	-0.000884397	0.000637482	
-0.00238484	-0.00069782	0.000942175	
-5.96426e-05	-0.00139254	-4.47016e-05	
-0.000154599	-0.000910534	-0.000161287	
-3.4926e-05	-0.00152974	-2.46501e-05	
-0.000203844	-0.0007285	-0.000306172	
-1.79798e-05	-0.00144873	-1.39859e-05	
-0.000121405	-0.000953317	-0.000112556	
-4.13206e-05	-0.00146433	-3.72991e-05	
-0.0187737	0.00512905	-0.000670745	
-0.00127974	-0.0010844	0.000525663	
-0.00015619	-0.000504535	-0.000293996	
-0.000107172	-0.00110563	-9.10495e-05	
0.0253569	0.00710243	0.000499882	
0.00452365	-0.000375562	-0.00168753	
0.00133105	-0.00133027	-0.000532616	
0.000433325	-0.00139624	-0.000114311	
0.000158494	-0.00185797	-6.80553e-05	
8.02672e-05	-0.001382	8.21074e-05	
0.00135276	-0.0017893	-0.0006752	
-0.00153648	-0.00173607	0.000803676	
0.000895833	-0.00111463	-0.000301223	
0.000106511	-0.00161794	-2.69982e-05	
0.000852032	-0.00173015	-0.000423741	
0.00115452	-0.00142286	-0.000503998	
0.0002202	-0.00153062	-6.33191e-05	
0.00034849	-0.00152033	-0.000121361	
3.5575e-05	-0.00156432	3.01381e-05	
0.00276272	-0.000484559	-0.000868229	
0.000758838	-0.00104722	-0.000202773	
0.00194933	-0.000809613	-0.000663499	
0.000150608	-0.00106634	0.000141234	
2.13172e-05	-0.0017	1.19048e-05	
0.00377325	-0.000213521	-0.00113282	
6.52012e-06	-0.00178319	1.06506e-05	
0.000136632	-0.00187293	-5.11333e-05	
0.00449402	0.000791064	-0.000105422	
5.88534e-05	-0.00146786	5.31393e-05	
0.00459236	0.000484851	-0.00060858	
0.00143446	-0.00117013	-0.000588064	
4.96692e-06	-0.00174432	9.13152e-06	
8.73419e-05	-0.00129621	7.91021e-05	
0.000164226	-0.000580451	0.000278063	
-7.16577e-05	-0.00186942	8.28253e-05	
-0.00758781	0.000878639	0.00194591	
-0.00096634	-0.0014282	0.000329259	
-0.000357314	-0.00147988	7.1956e-05	
-0.0110657	0.00285371	0.000507382	
0.000406466	-0.00183228	-0.000178151	
-9.30038e-05	-0.00148409	-9.21984e-05	
-0.000517209	-0.00176764	0.000278133	
0.000309237	-0.00174656	-0.000164428	
0.000429315	-0.00166936	-0.000241765	
-0.00219087	-0.00108368	0.000894265	
-0.000503146	-0.00146623	0.000215159	
-0.00105451	-0.0016132	0.000518464	
-0.00103152	-0.00142642	0.000437223	
-0.000774289	-0.00143359	0.000340454	
0.000155877	-0.00143613	-0.000134121	
-0.00534951	-0.000278242	0.00195564	
-0.0017028	-0.00104388	0.000622736	
-0.00246995	-0.000888347	0.000932758	
-6.07834e-05	-0.00143199	-5.06608e-05	
-0.000185097	-0.0010903	-0.000190008	
-3.81303e-05	-0.00155614	-2.70643e-05	
-0.000199926	-0.000714908	-0.000291031	
-2.15287e-05	-0.00165388	-1.76978e-05	
-0.000145999	-0.00115173	-0.000135112	
-4.13095e-05	-0.00143419	-3.76446e-05	
-0.0191347	0.0052557	-0.000577462	
-0.0013724	-0.00130857	0.000535663	
-0.000156278	-0.000492013	-0.000276203	
-0.000127786	-0.00129928	-0.000107395	
0.0257136	0.00732278	0.000290074	
0.00445543	-9.92488e-07	-0.00173145	
0.00132614	-0.00080037	-0.000565668	
0.000587711	-0.000896059	-0.000223921	
6.74553e-05	-0.00118855	-2.55753e-05	
5.02098e-05	-0.000865215	5.13279e-05	
0.00139365	-0.00123819	-0.000688933	
-0.00155941	-0.00127627	0.000797516	
0.000894738	-0.000753082	-0.000335715	
0.000106878	-0.0011639	-3.29677e-05	
0.000928493	-0.00118367	-0.000461418	
0.00125047	-0.00100372	-0.000561063	
0.000253607	-0.00114269	-9.16947e-05	
0.000325402	-0.00111501	-0.000122059	
2.71032e-05	-0.00115409	2.32742e-05	
0.00282712	-0.000263672	-0.000950963	
0.000813287	-0.000725488	-0.000273253	
0.00197656	-0.000399896	-0.000749603	
9.44317e-05	-0.000681903	8.86499e-05	
1.5505e-05	-0.00115161	9.75149e-06	
0.00381199	-1.04242e-05	-0.00123212	
4.96558e-06	-0.00121756	7.62294e-06	
0.000134842	-0.00116308	-5.60223e-05	
0.00454154	0.000941781	-0.000205891	
4.52615e-05	-0.00113563	4.23843e-05	
0.00464411	0.000651494	-0.000731167	
0.00149201	-0.000721533	-0.000639922	
4.17283e-06	-0.00122547	8.99498e-06	
5.77739e-05	-0.000856686	5.2244e-05	
0.000120682	-0.000428696	0.000196068	
-5.55451e-05	-0.00117023	5.69809e-05	
-0.00767908	0.00112555	0.00210249	
-0.000937554	-0.000828334	0.000372337	
-0.000493526	-0.000909784	0.000180698	
-0.0112233	0.00305984	0.000675656	
0.000483553	-0.00119993	-0.000225497	
-5.49177e-05	-0.000878386	-5.43309e-05	
-0.000555672	-0.00127789	0.000291912	
0.000359471	-0.00124412	-0.000187869	
0.000374198	-0.00129486	-0.00020619	
-0.00222073	-0.000638469	0.000946061	
-0.000522559	-0.00115053	0.000228226	
-0.00114165	-0.00117768	0.000560177	
-0.00111818	-0.00100569	0.000497101	
-0.000767307	-0.00109961	0.000342983	
0.000145884	-0.00114467	-0.000116499	
-0.00534065	7.19913e-05	0.00207178	
-0.00176679	-0.000630003	0.000704573	
-0.00251475	-0.000380691	0.00104518	
-4.70695e-05	-0.0011341	-4.13044e-05	
-9.56219e-05	-0.000570587	-9.73181e-05	
-2.93975e-05	-0.00115123	-2.09138e-05	
-0.000134271	-0.000488479	-0.000188637	
-1.725e-05	-0.00123566	-1.35619e-05	
-8.39153e-05	-0.000672438	-7.69076e-05	
-3.29178e-05	-0.00112961	-3.05515e-05	
-0.0194029	0.00540075	-0.000369837	
-0.00141249	-0.000809937	0.000597927	
-0.000114195	-0.000353262	-0.000184859	
-7.94571e-05	-0.000807805	-6.73625e-05	
0.0262804	0.00737759	5.00746e-05	
0.00461427	-0.000281838	-0.00170566	
0.00141682	-0.0012127	-0.000555966	
0.000659425	-0.00127912	-0.000226215	
-1.77572e-05	-0.00148778	1.91751e-05	
7.34969e-05	-0.0012789	7.49522e-05	
0.00138932	-0.0015293	-0.000664085	
-0.00147064	-0.00150986	0.000734843	
0.00117589	-0.00112766	-0.000418764	
7.78931e-05	-0.00147476	-1.11123e-05	
0.000973565	-0.0014492	-0.000468087	
0.00131418	-0.00129488	-0.0005594	
0.000260946	-0.00148698	-8.28949e-05	
0.00045165	-0.00146691	-0.000166593	
3.45453e-05	-0.00146417	2.89555e-05	
0.00289522	-0.000448045	-0.000906335	
0.000897186	-0.000978541	-0.000270304	
0.00209887	-0.000689655	-0.000733273	