<VTKFile type="UnstructuredGrid" version="0.1" byte_order="LittleEndian">
	<UnstructuredGrid>
		<Piece NumberOfPoints="1980" NumberOfCells="1980">
			<CellData Scalars="scalars">
				<DataArray type="Float64" Name="Strength" NumberOfComponents="3" Format="ascii">
0.016202	-0.0118744	0.00324565	
-0.00132536	-0.0232538	0.00570399	
0.00019892	-0.0251344	0.00245582	
-0.000320249	-0.0263728	0.00253074	
-0.000904178	-0.0260628	0.00047735	
3.36478e-05	-0.025724	0.00231549	
0.000476027	-0.0264721	-0.000729861	
-0.0010784	-0.0257081	0.00161416	
-0.000890605	-0.0247733	0.00449665	
0.000120619	-0.0254675	0.000717321	
0.0007197	-0.026421	-0.000252812	
0.000647015	-0.0254398	0.0011453	
6.66366e-05	-0.0267745	0.00133369	
0.000302358	-0.0262737	0.00138152	
0.000186387	-0.0260918	0.00101905	
-0.00311556	-0.0209065	0.00826393	
-0.000707878	-0.0250916	0.00470532	
-0.00125023	-0.0237159	0.00577227	
-0.00120355	-0.0247538	0.00569384	
0.000219512	-0.02592	0.000427468	
-0.00321845	-0.0192156	0.00999888	
-0.000189079	-0.0252161	0.000315157	
-0.000660452	-0.025987	0.000162396	
0.000217347	-0.0121331	0.010367	
0.000264871	-0.0261233	0.0017091	
-0.00245492	-0.0143113	0.010997	
0.000236659	-0.0248447	0.00283226	
0.000132314	-0.0267225	0.000216153	
-6.22564e-05	-0.0254935	0.0031054	
-0.00515734	-0.015646	0.0115461	
-0.000244656	-0.0260305	0.00026605	
0.00127421	-0.0170172	-0.0107037	
0.000172179	-0.0253489	-0.00292879	
0.000254311	-0.0263442	-0.00261152	
-0.00409743	-0.0133945	-0.00971077	
7.14916e-05	-0.026229	-0.000317186	
3.32797e-05	-0.0258114	-0.00241545	
-0.000681066	-0.0267063	0.000313433	
0.000277004	-0.0261593	-0.000502206	
0.000590184	-0.0265875	-0.000684933	
0.000539961	-0.0246121	-0.00385121	
0.000339934	-0.0255562	-0.000627483	
-0.000371362	-0.0265762	0.000401133	
-0.000605213	-0.0255196	-0.00143238	
-0.000549289	-0.0261615	-0.00117352	
0.000600652	-0.0260731	-0.00132488	
0.00179524	-0.0212183	-0.00784439	
0.000541922	-0.0245746	-0.00435632	
0.00145033	-0.0231134	-0.00567539	
-0.000276843	-0.0260427	-0.00184362	
0.00285707	-0.0226406	-0.00720735	
0.000298848	-0.0260163	-0.000514567	
0.00402897	-0.0179328	-0.0113919	
0.000287495	-0.0270964	-0.000286434	
0.00135721	-0.0237084	-0.00554128	
8.85387e-05	-0.0265784	-0.00136647	
-0.0129288	-0.0116057	-0.00379059	
0.000112837	-0.0259478	-0.00275845	
0.00361559	-0.0129264	-0.0124372	
0.000722108	-0.0250985	-0.00380231	
0.0185021	-0.00183204	-0.00310505	
0.00136714	-0.00451211	-0.000698668	
0.000241104	-0.00487395	0.000160081	
-0.000169688	-0.00490025	0.000680069	
-0.000174769	-0.00520745	0.000235613	
3.46691e-05	-0.00488629	0.000384788	
0.000649329	-0.00513568	-0.00108523	
-0.000845599	-0.00512473	0.00145209	
-0.000260937	-0.00457273	0.00104412	
-6.49109e-05	-0.00511167	0.000165089	
0.000403558	-0.00506893	-0.000629999	
0.000468673	-0.00509836	-0.000411923	
-4.77642e-05	-0.00504706	0.000263254	
8.70283e-05	-0.00510442	0.000118878	
1.97839e-05	-0.0050728	0.000136893	
0.000776119	-0.00391717	0.000606114	
7.92933e-05	-0.00452209	0.000610701	
0.000553175	-0.00429973	0.000298656	
2.06192e-05	-0.00438536	0.00100432	
6.97691e-06	-0.00496289	1.39565e-05	
0.0015634	-0.00384295	0.000338586	
-4.21821e-05	-0.00503761	5.48715e-05	
-5.66941e-05	-0.00523614	1.49188e-05	
0.00285017	-0.00211324	0.000728026	
4.79366e-05	-0.00513405	0.000279065	
0.00246036	-0.00276181	0.000712592	
0.000419209	-0.00478036	-6.83276e-05	
3.04761e-06	-0.00509991	-2.51204e-06	
2.20664e-05	-0.0047974	0.000514562	
-0.000110423	-0.00265624	0.00167596	
-1.59561e-05	-0.00526656	0.000123835	
-0.00382727	-0.00389643	0.000342071	
8.11261e-06	-0.00488045	-0.000526261	
0.000209169	-0.00492603	-0.000728181	
-0.00712145	-0.00271763	0.00057443	
0.000234189	-0.00525555	-0.000350363	
-1.29927e-05	-0.00490021	-0.000408295	
-0.000306035	-0.00520653	0.000527572	
0.000225147	-0.00517045	-0.000349066	
0.000283963	-0.00518683	-0.000472206	
-0.000398691	-0.004641	-0.000142365	
-2.99859e-05	-0.0051216	1.27118e-05	
-0.000476097	-0.00519365	0.000782557	
-0.000390462	-0.00505564	0.000260675	
-0.000278752	-0.0051012	0.000152371	
0.000253644	-0.00503176	-0.000512085	
-0.00171044	-0.00442089	0.000470496	
-0.000507679	-0.0045774	-0.000114221	
-0.000436923	-0.00434198	-0.000430803	
-5.31669e-05	-0.00512797	-0.000303335	
7.61201e-05	-0.00386547	-0.00125055	
2.88943e-05	-0.00505185	-8.52683e-05	
-1.92614e-05	-0.00304058	-0.0017663	
9.71241e-06	-0.00516257	-4.1009e-05	
-8.37317e-06	-0.00425232	-0.00100952	
1.25457e-05	-0.00505511	-0.000204603	
-0.0141791	-0.0021311	0.00299476	
-0.000392125	-0.00491357	8.87845e-05	
7.08019e-06	-0.00209132	-0.00159547	
2.00366e-05	-0.0046995	-0.000678334	
0.01944	0.00299845	-0.00236347	
0.00198664	-0.00159567	-0.00187727	
0.000293123	-0.00212379	-0.000187223	
-0.000100272	-0.00215878	0.000387907	
-4.6387e-05	-0.00235191	0.000151031	
5.98281e-05	-0.002134	0.000132413	
0.00075148	-0.00233081	-0.00113411	
-0.000890805	-0.00230475	0.00143102	
-8.83871e-05	-0.00194947	0.000510898	
-5.39935e-05	-0.00230349	0.000148886	
0.000385286	-0.0023168	-0.000642481	
0.000520282	-0.00225083	-0.000651482	
-6.5176e-06	-0.00226461	0.000153061	
0.000110722	-0.00227938	-3.06705e-05	
3.47907e-05	-0.00229244	7.59552e-05	
0.00141804	-0.00144625	-0.000704385	
0.000295739	-0.00192834	4.77097e-05	
0.00098251	-0.00173879	-0.000597034	
0.000285571	-0.00184222	0.000335385	
5.81187e-06	-0.00226455	2.10775e-05	
0.00229455	-0.00121555	-0.00115147	
-9.06689e-06	-0.00230238	2.1768e-05	
7.83697e-05	-0.00236367	-4.12152e-05	
0.00320423	-0.000383484	1.71623e-05	
6.72787e-05	-0.00227569	0.000104454	
0.00304717	-0.00075969	-0.000208267	
0.000498693	-0.00208536	-0.000509414	
-2.64485e-05	-0.0023132	1.12548e-05	
4.79498e-05	-0.00208323	0.000177177	
0.000319314	-0.00112585	0.00050644	
5.23772e-05	-0.00237235	5.73911e-05	
-0.00475324	-0.000560002	0.00165492	
-8.84057e-05	-0.00212345	-0.000173182	
0.000158752	-0.00216044	-0.000444933	
-0.00781107	0.000498106	0.000854648	
0.000290306	-0.0023697	-0.00039908	
-5.23648e-05	-0.00214267	-0.000145956	
-0.000255188	-0.002363	0.000508681	
0.000224447	-0.00235664	-0.000370853	
0.000255738	-0.00235419	-0.000464149	
-0.000674357	-0.00201722	0.000495344	
-0.000116527	-0.00232078	7.29131e-05	
-0.000541498	-0.00235109	0.000842085	
-0.000420193	-0.00224698	0.000515037	
-0.000297787	-0.00228699	0.000323019	
0.0001585	-0.00228626	-0.000419982	
-0.00239683	-0.00149328	0.00200946	
-0.000769296	-0.00196497	0.000542495	
-0.000854724	-0.00179381	0.000503314	
-5.12089e-05	-0.00227568	-0.000107631	
-0.000360995	-0.00160439	-0.000331563	
-5.60233e-05	-0.00229565	-4.82597e-05	
-0.000472535	-0.0012388	-0.000501806	
-2.61477e-05	-0.00234126	-2.43277e-05	
-0.000231544	-0.00180061	-0.000339441	
-4.35405e-05	-0.00227208	-0.00010374	
-0.0150736	0.00199108	0.00194972	
-0.0005546	-0.00214793	0.000499464	
-0.00022532	-0.000907917	-0.000520794	
-0.000135161	-0.00203923	-0.000240825	
0.0201328	0.00566015	-0.000274542	
0.00247632	-0.00109803	-0.00221532	
0.000504812	-0.00236607	-0.000296641	
5.55936e-05	-0.00244549	0.000293141	
8.71768e-06	-0.00261305	7.08347e-05	
0.000197881	-0.00240555	0.000101554	
0.000894369	-0.00257163	-0.00111868	
-0.0010159	-0.00256552	0.00137302	
0.000107028	-0.00221721	0.000330423	
-4.82638e-05	-0.00259388	0.000142604	
0.000460547	-0.00259801	-0.000604853	
0.00071001	-0.00248432	-0.000675568	
5.75752e-05	-0.00255775	9.98626e-05	
0.000193809	-0.00255224	-5.20741e-05	
7.54927e-05	-0.00257942	6.73038e-05	
0.0017466	-0.00122288	-0.00112415	
0.000508061	-0.00212094	-0.000133179	
0.00133483	-0.00169786	-0.000885671	
0.000498159	-0.00204744	0.0001457	
1.11846e-05	-0.00255362	1.8051e-05	
0.00261454	-0.000911244	-0.00142032	
1.27648e-05	-0.00257603	1.56803e-05	
0.000139681	-0.00260845	-8.1155e-05	
0.00346774	-0.000165891	0.000107249	
0.000150029	-0.00253746	9.01545e-05	
0.00336307	-0.000646311	-0.000246882	
0.000627817	-0.00229973	-0.000607034	
-2.30276e-05	-0.00258098	2.45251e-05	
0.000159544	-0.00233757	9.80409e-05	
0.000469928	-0.00125527	0.000502817	
9.46767e-05	-0.00261372	3.88938e-05	
-0.00522734	-0.000105579	0.00182441	
-0.000263881	-0.00237857	-3.34666e-05	
6.83007e-06	-0.00244325	-0.000355768	
-0.00832438	0.00139695	0.000663156	
0.000366176	-0.00261278	-0.000390873	
-0.000204325	-0.0024066	-0.000114848	
-0.000290199	-0.0026226	0.000463424	
0.000256705	-0.00261205	-0.000349148	
0.000279316	-0.00261127	-0.000424953	
-0.000931353	-0.00216077	0.000761363	
-0.000192584	-0.00259831	0.000104574	
-0.000680679	-0.00259139	0.000829231	
-0.000602554	-0.00249197	0.000540291	
-0.000427833	-0.00254893	0.000334122	
0.000100741	-0.00258133	-0.000351995	
-0.00288862	-0.00097406	0.00233724	
-0.00103489	-0.00204216	0.00079223	
-0.00122156	-0.00179241	0.000862656	
-0.000147466	-0.0025369	-0.00010046	
-0.000575168	-0.0018081	-6.31348e-05	
-0.000107116	-0.0025697	-1.17478e-05	
-0.000670974	-0.00140315	-0.000394596	
-5.60186e-05	-0.00259836	-1.87669e-06	
-0.000418431	-0.00202715	-0.000148085	
-0.000110625	-0.00255856	-7.96297e-05	
-0.0155127	0.00427614	0.000594337	
-0.000732074	-0.00232442	0.000635851	
-0.000343937	-0.00101782	-0.000574919	
-0.000268034	-0.00226551	-0.000157769	
0.0209485	0.00617917	0.000399584	
0.00276591	-0.000915608	-0.00207023	
0.000565444	-0.0020617	-0.000440623	
5.91784e-05	-0.00216465	0.000145883	
5.10964e-07	-0.00234258	2.21887e-05	
0.000172578	-0.00212303	1.90525e-05	
0.000909303	-0.00229447	-0.00114742	
-0.00104172	-0.00230525	0.0013561	
0.000178149	-0.00194926	5.22512e-05	
-3.40871e-05	-0.0023029	0.000105058	
0.000515413	-0.00231541	-0.000624612	
0.000756843	-0.00216829	-0.000762079	
8.95388e-05	-0.00226439	1.62827e-05	
0.00021839	-0.00225307	-0.000125464	
7.4769e-05	-0.00228423	2.07105e-05	
0.00178412	-0.00108404	-0.00109223	
0.000525679	-0.00183217	-0.000236193	
0.00137887	-0.00143109	-0.000884259	
0.000369799	-0.00179315	5.79367e-05	
2.74825e-05	-0.00227562	-7.50719e-06	
0.00271113	-0.000829399	-0.00141638	
1.45383e-05	-0.00230806	2.65919e-06	
0.000122153	-0.00233795	-9.79712e-05	
0.00362785	4.19774e-05	0.00013421	
0.000139929	-0.00224384	1.25855e-05	
0.00355198	-0.000459985	-0.000307202	
0.000834279	-0.00192332	-0.000777676	
-1.42542e-06	-0.00231209	1.67898e-05	
0.000185759	-0.0020516	2.51714e-06	
0.000372839	-0.00104022	0.000513157	
5.76465e-05	-0.00234507	3.56525e-05	
-0.00559459	-0.000125323	0.00180618	
-0.000329766	-0.00208137	0.000112576	
-5.59031e-06	-0.00216359	-0.000206378	
-0.00876619	0.00181178	0.000456664	
0.000356389	-0.00234288	-0.000382961	
-0.000175944	-0.00212159	-2.72325e-05	
-0.000323486	-0.00235001	0.00045875	
0.000259349	-0.00233818	-0.000329654	
0.000297543	-0.00233799	-0.000397661	
-0.00114787	-0.00174717	0.0009942	
-0.000205026	-0.00230146	0.000155561	
-0.000707335	-0.00230894	0.000849577	
-0.000652883	-0.00217457	0.000634009	
-0.000463732	-0.00223977	0.000421141	
0.000106213	-0.00229078	-0.000274512	
-0.00323454	-0.000881826	0.00219233	
-0.0011124	-0.00170822	0.000914122	
-0.00132696	-0.00150519	0.000965964	
-0.000135672	-0.00224332	-2.00332e-05	
-0.000382172	-0.00159543	-6.12416e-05	
-8.88686e-05	-0.00229053	1.69765e-05	
-0.00049363	-0.00121407	-0.000422516	
-4.65985e-05	-0.00232634	8.61237e-06	
-0.000326467	-0.00177404	-5.01622e-05	
-0.00011239	-0.00226685	-1.78301e-05	
-0.0160155	0.00490463	-0.000216908	
-0.000877655	-0.00196465	0.000748839	
-0.000284699	-0.000830324	-0.000551438	
-0.000296531	-0.00197868	2.016e-05	
0.0217066	0.00619248	0.00170122	
0.00331385	-0.000867706	-0.00128892	
0.000663435	-0.00176617	-0.000385702	
7.58723e-05	-0.0018724	7.67935e-05	
-1.37674e-05	-0.0020789	2.28413e-05	
0.000117281	-0.00182734	5.05538e-05	
0.00107847	-0.00204771	-0.000990405	
-0.0012658	-0.00205295	0.00115585	
0.000237402	-0.00164393	2.18698e-06	
-6.59487e-05	-0.00205042	8.95516e-05	
0.000641655	-0.00205387	-0.000539773	
0.000914151	-0.00189628	-0.000674718	
8.21056e-05	-0.00202522	5.16883e-06	
0.000230701	-0.00201649	-0.000114316	
5.15504e-05	-0.0020372	1.96334e-05	
0.00203529	-0.000955409	-0.000589427	
0.000570048	-0.00153876	-0.00014528	
0.00154891	-0.00123602	-0.000450889	
0.000246764	-0.00150771	0.000179029	
2.76389e-05	-0.00202593	-4.56213e-06	
0.00304087	-0.000702692	-0.000834019	
6.86005e-06	-0.00205927	1.19906e-06	
0.000108546	-0.0020734	-7.09378e-05	
0.00375121	0.00019274	0.000341996	
0.000108123	-0.00200059	2.37134e-05	
0.00372603	-0.000349522	-2.57811e-05	
0.000980387	-0.00163756	-0.000622673	
1.9538e-07	-0.00205349	6.778e-06	
0.000128509	-0.00174756	3.56258e-05	
0.000234675	-0.000815023	0.000561874	
2.00884e-05	-0.00207926	4.70408e-05	
-0.00607699	-3.27511e-05	0.00112096	
-0.000352704	-0.00177688	9.16362e-05	
-1.46293e-05	-0.00186891	-0.000123775	
-0.00918575	0.00192902	7.09124e-06	
0.000404513	-0.00208209	-0.000307684	
-0.000118919	-0.00182204	-6.89878e-05	
-0.000415277	-0.00208711	0.000395342	
0.000303433	-0.00208112	-0.000263969	
0.000366924	-0.0020741	-0.000329032	
-0.00134088	-0.00150227	0.000810765	
-0.000209632	-0.00204406	0.000124925	
-0.000850052	-0.00204984	0.000709845	
-0.000799095	-0.00189145	0.000576235	
-0.000540515	-0.00199664	0.000368189	
0.000178105	-0.00203378	-0.000235049	
-0.00383653	-0.000820724	0.00138928	
-0.00128652	-0.00142013	0.000730144	
-0.00161205	-0.00127366	0.000589938	
-0.00011988	-0.00199214	-1.6215e-05	
-0.000255691	-0.00132891	-0.000230357	
-6.13007e-05	-0.00203314	-4.5639e-06	
-0.000309592	-0.000963598	-0.000541578	
-3.03343e-05	-0.0020604	-8.36411e-07	
-0.000232146	-0.00149376	-0.000128346	
-7.46392e-05	-0.00202123	-2.35017e-05	
-0.0165791	0.0048631	-0.000964931	
-0.000972372	-0.00168283	0.000599264	
-0.000169811	-0.000668297	-0.000527819	
-0.000194737	-0.0016828	-6.75178e-05	
0.0223945	0.00596692	0.00278506	
0.00349972	-0.000711703	-0.00126135	
0.000797833	-0.00155319	-0.000313038	
0.000139965	-0.00165648	4.34976e-05	
-2.86151e-05	-0.001882	3.00576e-05	
0.000101601	-0.00161694	7.52563e-05	
0.00126121	-0.00187128	-0.000753581	
-0.00145514	-0.00187271	0.000899938	
0.000324497	-0.00144359	8.03314e-06	
-7.12367e-05	-0.00183909	6.64163e-05	
0.00075205	-0.00185531	-0.000435534	
0.00107052	-0.00168494	-0.000530898	
9.90345e-05	-0.00181696	6.88121e-06	
0.000265333	-0.00180198	-7.9668e-05	
4.47606e-05	-0.00182511	3.10038e-05	
0.00213288	-0.000806763	-0.000576412	
0.000614037	-0.00134654	-9.77508e-05	
0.00161344	-0.00106464	-0.00045295	
0.000214288	-0.00132083	0.000195217	
2.13557e-05	-0.00182849	2.19063e-07	
0.00316775	-0.000558414	-0.000832935	
4.99649e-06	-0.00187389	1.1701e-05	
0.000111968	-0.00187429	-4.02488e-05	
0.00387466	0.000201348	0.00047283	
8.69996e-05	-0.00178171	5.34315e-05	
0.0038844	-0.000238669	2.46373e-05	
0.00110465	-0.00144482	-0.000491763	
5.73104e-06	-0.00186026	6.41068e-06	
0.000109113	-0.00154275	7.3709e-05	
0.0002038	-0.000707857	0.000512507	
-1.4978e-06	-0.00187801	6.28027e-05	
-0.00635791	0.000143948	0.00113048	
-0.00043127	-0.00157058	7.16407e-05	
-7.48889e-05	-0.00165854	-8.04552e-05	
-0.00958692	0.00181102	-0.000463909	
0.000459425	-0.00188507	-0.000227947	
-0.00010888	-0.00161648	-8.56658e-05	
-0.000491392	-0.00189432	0.000318829	
0.000338733	-0.00188952	-0.000205064	
0.00040087	-0.00188544	-0.000259236	
-0.00155207	-0.00133008	0.000646822	
-0.000247683	-0.00183628	9.35823e-05	
-0.00097371	-0.00185715	0.000552901	
-0.000945128	-0.00168189	0.000453971	
-0.000628602	-0.00178861	0.000289555	
0.000216488	-0.00182453	-0.000205221	
-0.00404114	-0.00067426	0.00141702	
-0.00142541	-0.00126019	0.000524232	
-0.00174157	-0.00109534	0.000614669	
-9.63352e-05	-0.00177997	-5.22774e-05	
-0.000220995	-0.00116086	-0.00023804	
-4.28588e-05	-0.00183564	-2.89839e-05	
-0.000273888	-0.000835536	-0.000504719	
-2.39433e-05	-0.00186488	-1.61219e-05	
-0.000198358	-0.00131128	-0.000169803	
-5.8696e-05	-0.00181841	-4.64552e-05	
-0.0170669	0.00466483	-0.00188374	
-0.00108443	-0.00149406	0.000437299	
-0.000123979	-0.000574935	-0.000493206	
-0.000159034	-0.00149271	-0.000114818	
0.0231347	0.00581562	0.00302973	
0.00389724	-0.000838717	-0.00134819	
0.000873334	-0.00169815	-0.000320342	
0.000245276	-0.00180327	7.3082e-06	
-1.17206e-05	-0.00194554	2.29534e-05	
0.000117617	-0.00175523	9.39434e-05	
0.00126357	-0.00193045	-0.000746207	
-0.00149864	-0.00196563	0.000928107	
0.000397454	-0.00165911	2.33818e-05	
-7.2906e-05	-0.00195736	7.27489e-05	
0.000794348	-0.00196392	-0.00045562	
0.00112259	-0.00181979	-0.000537053	
0.000161712	-0.00192773	-1.90728e-05	
0.000282332	-0.00189293	-7.72156e-05	
5.08681e-05	-0.00194725	3.85328e-05	
0.00233788	-0.000884972	-0.000579222	
0.000681502	-0.00159886	-5.92151e-05	
0.00174931	-0.00133012	-0.000414177	
0.000269609	-0.00158756	0.000260983	
2.58619e-05	-0.00192983	2.76499e-06	
0.0033561	-0.000563361	-0.00084614	
5.80982e-06	-0.00194181	1.30077e-05	
0.000107865	-0.00194343	-3.49017e-05	
0.00403317	0.000201558	0.000510768	
9.82052e-05	-0.00189078	6.5508e-05	
0.00407163	-0.000184429	5.09579e-05	
0.00116063	-0.00163065	-0.000479827	
8.03607e-06	-0.00197864	8.99733e-06	
0.000130932	-0.00170749	9.91049e-05	
0.000219606	-0.000729628	0.000543427	
-1.14095e-05	-0.00193949	7.43815e-05	
-0.00669125	0.00026421	0.00118528	
-0.000498402	-0.00173088	6.78463e-05	
-0.000178171	-0.0018242	-4.87446e-05	
-0.00997457	0.00182922	-0.000606265	
0.000461677	-0.0019393	-0.000225187	
-0.000127986	-0.00176947	-0.000110066	
-0.000487483	-0.00194053	0.000316206	
0.000368907	-0.00194198	-0.000225717	
0.000408421	-0.00197596	-0.000267427	
-0.00164946	-0.00157398	0.000634322	
-0.000259165	-0.0019668	8.95043e-05	
-0.00100601	-0.0019769	0.000563328	
-0.000994298	-0.00183076	0.000453614	
-0.000687557	-0.00188887	0.000308447	
0.000193906	-0.00195557	-0.000203133	
-0.00437081	-0.000727188	0.00148498	
-0.00154329	-0.00152705	0.000499007	
-0.00205865	-0.00124992	0.000699967	
-0.000109976	-0.00189602	-6.6766e-05	
-0.000257616	-0.00129592	-0.000293366	
-4.69647e-05	-0.00194499	-3.52144e-05	
-0.000297423	-0.000869048	-0.000541906	
-2.66333e-05	-0.00198164	-2.0466e-05	
-0.000252902	-0.00158632	-0.000229727	
-6.66359e-05	-0.00194114	-5.82259e-05	
-0.0175954	0.0044717	-0.00211494	
-0.00113683	-0.00167755	0.00042013	
-0.000126978	-0.000582853	-0.000504086	
-0.000191371	-0.00169491	-0.000156352	
0.0237085	0.00599592	0.00344011	
0.00413051	-0.000660191	-0.00145836	
0.00103846	-0.00180105	-0.000375158	
0.000321278	-0.00193371	-8.19295e-06	
4.26792e-05	-0.00219942	-2.72727e-06	
0.000137613	-0.00190105	0.000118271	
0.00126775	-0.00219325	-0.00073133	
-0.00142224	-0.00218562	0.000871989	
0.000606962	-0.00163203	-7.29985e-05	
-3.30697e-05	-0.00211343	5.4053e-05	
0.000799	-0.00211396	-0.00045033	
0.00115746	-0.00193399	-0.000530597	
0.000213887	-0.00206049	-3.87531e-05	
0.000348902	-0.00204155	-0.00010166	
5.83456e-05	-0.00208451	4.36228e-05	
0.00248557	-0.00075473	-0.000648431	
0.00073977	-0.00146927	-9.48352e-05	
0.00181588	-0.00113381	-0.000479094	
0.000254297	-0.0014267	0.000248706	
3.06731e-05	-0.00210483	5.54829e-06	
0.00349848	-0.000426803	-0.000924018	
8.27508e-06	-0.00219937	1.87533e-05	
0.000119305	-0.00223586	-3.31638e-05	
0.00416325	0.000340541	0.000510978	
0.000108155	-0.00199354	7.56211e-05	
0.00424379	-2.07302e-05	2.3722e-05	
0.00122887	-0.00165963	-0.000480659	
9.80381e-06	-0.00212126	1.19137e-05	
0.000146217	-0.00176327	0.000120876	
0.000210945	-0.000672484	0.000505888	
-5.02284e-05	-0.00224114	0.000113695	
-0.00699684	0.000444521	0.00125999	
-0.000669781	-0.0018196	0.000129762	
-0.000301236	-0.00196655	-8.07925e-06	
-0.0103	0.00203246	-0.000709504	
0.000460443	-0.00220695	-0.00021401	
-0.000150247	-0.00192206	-0.0001372	
-0.00045913	-0.00220279	0.000300241	
0.000356905	-0.00222315	-0.000216546	
0.000349411	-0.00221583	-0.000232757	
-0.0018863	-0.00151303	0.000734341	
-0.000306938	-0.00213755	0.000104851	
-0.00101475	-0.00214555	0.000554803	
-0.00100742	-0.00200276	0.000424549	
-0.000763648	-0.00206067	0.00033411	
0.000159167	-0.00211563	-0.000195154	
-0.00464272	-0.000552665	0.00162676	
-0.00163886	-0.00137597	0.000550663	
-0.0022346	-0.00111684	0.000791362	
-0.000123465	-0.00203379	-8.03011e-05	
-0.000255451	-0.00121197	-0.000285568	
-5.51396e-05	-0.00213735	-4.33127e-05	
-0.000288231	-0.0008067	-0.000510624	
-3.1562e-05	-0.00215578	-2.52329e-05	
-0.000236742	-0.00140912	-0.000218023	
-7.73039e-05	-0.00209477	-6.93511e-05	
-0.017973	0.00458056	-0.00255796	
-0.00119515	-0.00172095	0.000418583	
-0.00012166	-0.000533686	-0.000461539	
-0.0002083	-0.00172262	-0.000181359	
0.02414	0.00643571	0.00360725	
0.00425793	-0.000300531	-0.0015969	
0.00104939	-0.00138834	-0.000413056	
0.000355592	-0.00142492	-6.75471e-05	
5.26993e-05	-0.0016007	-1.25886e-05	
0.000110634	-0.00142954	9.67785e-05	
0.00130507	-0.00155108	-0.000762968	
-0.00145509	-0.00151687	0.000892	
0.000658065	-0.00120456	-0.000159213	
-1.85395e-05	-0.00148679	3.86172e-05	
0.000850713	-0.00155035	-0.000490418	
0.00112898	-0.00146274	-0.000542141	
0.00021095	-0.0014537	-6.1064e-05	
0.000292103	-0.00145187	-9.4376e-05	
4.31793e-05	-0.00146536	3.4767e-05	
0.00255433	-0.000478336	-0.000771477	
0.000745453	-0.00114926	-0.000153988	
0.00186906	-0.000803334	-0.000591292	
0.000212045	-0.00113645	0.000199445	
2.32977e-05	-0.00148025	4.00306e-06	
0.00356046	-0.000184904	-0.00104781	
6.83302e-06	-0.00152046	1.34284e-05	
0.000129319	-0.00156321	-4.94019e-05	
0.0042613	0.000525017	0.000471642	
8.45415e-05	-0.00149675	6.02515e-05	
0.00435972	0.000199096	-4.42474e-05	
0.00132724	-0.00121658	-0.000572666	
7.14484e-06	-0.00154841	9.07659e-06	
0.000126216	-0.00140467	0.000103479	
0.00017424	-0.000537822	0.000406578	
-1.62701e-05	-0.00157966	6.72301e-05	
-0.00722431	0.000724849	0.00135105	
-0.000731069	-0.00151088	0.000190494	
-0.000355093	-0.00159289	4.82371e-05	
-0.0105498	0.00236866	-0.000810156	
0.000457164	-0.0016312	-0.000229918	
-0.000129342	-0.00154908	-0.000116904	
-0.000489709	-0.00163644	0.000314138	
0.00035198	-0.00160423	-0.000215775	
0.000392519	-0.00160568	-0.000256325	
-0.00193415	-0.00115763	0.000810138	
-0.000308184	-0.00162058	0.000120391	
-0.00103026	-0.00166195	0.000576719	
-0.00101776	-0.00159483	0.000454524	
-0.000699358	-0.00160942	0.000316571	
0.000172509	-0.00161527	-0.000184543	
-0.00487404	-0.000300378	0.0018081	
-0.00164357	-0.00114374	0.000594522	
-0.00241907	-0.00102461	0.000892891	
-0.000104563	-0.0016706	-6.93369e-05	
-0.000235742	-0.00106275	-0.000253192	
-4.53436e-05	-0.00161064	-3.30909e-05	
-0.000253527	-0.000691148	-0.000436197	
-2.54909e-05	-0.00164546	-1.93307e-05	
-0.000221161	-0.00126256	-0.000196312	
-6.36647e-05	-0.00161998	-5.57014e-05	
-0.0182903	0.00483383	-0.00278726	
-0.00128383	-0.00141207	0.0005008	
-0.0001133	-0.00046581	-0.000404129	
-0.000175974	-0.00136085	-0.000147148	
0.0246489	0.00676274	0.00386187	
0.00439279	-0.000397096	-0.00158287	
0.00124744	-0.00134706	-0.00051176	
0.000403324	-0.00153849	-7.12355e-05	
6.48172e-05	-0.00135463	-2.05515e-05	
0.000124224	-0.00150589	0.000112797	
0.00129498	-0.0013463	-0.000746419	
-0.00152495	-0.00140221	0.000917879	
0.000779708	-0.00120855	-0.000214204	
-4.09252e-05	-0.00151135	5.83064e-05	
0.000798655	-0.00148073	-0.000450048	
0.00114494	-0.00150707	-0.000535328	
0.000185621	-0.00152803	-3.59484e-05	
0.000302818	-0.00154953	-8.86159e-05	
4.79143e-05	-0.00151702	3.94185e-05	
0.0027126	-0.00054381	-0.000763441	
0.000789434	-0.0011268	-0.000174942	
0.00194363	-0.000806282	-0.000611353	
0.00021577	-0.00112101	0.000197605	
2.59377e-05	-0.00148319	7.58709e-06	
0.00373445	-0.000219132	-0.00102917	
7.11187e-06	-0.00138094	1.19427e-05	
0.000135234	-0.00135839	-5.85641e-05	
0.00439263	0.000587361	0.000548648	
9.10653e-05	-0.00155432	6.66678e-05	
0.00453218	0.000257983	-2.85041e-07	
0.00137518	-0.00121536	-0.0005843	
5.78198e-06	-0.00143565	9.16215e-06	
0.000126844	-0.00132604	0.00010386	
0.000212051	-0.000627641	0.000467823	
-2.40517e-05	-0.00136538	5.62602e-05	
-0.00745102	0.000937211	0.00140137	
-0.000839241	-0.00115951	0.000291011	
-0.000405023	-0.00125042	0.000101175	
-0.0108036	0.00266115	-0.00088854	
0.000463384	-0.00136569	-0.000242071	
-0.000112313	-0.00125833	-0.000102076	
-0.000483659	-0.00137529	0.000301259	
0.000381891	-0.00138399	-0.000232789	
0.000428808	-0.00141622	-0.000275637	
-0.00202334	-0.000875847	0.000889415	
-0.000362034	-0.00151875	0.000150103	
-0.000941868	-0.00149136	0.000519431	
-0.00105519	-0.00129329	0.000493233	
-0.000769703	-0.00142115	0.000363994	
0.000140898	-0.00149261	-0.000162479	
-0.00499298	-0.000144313	0.00188611	
-0.00166754	-0.000839303	0.000663263	
-0.00239096	-0.000626811	0.000976738	
-8.82145e-05	-0.00139045	-5.86322e-05	
-0.000204517	-0.000890135	-0.000211079	
-4.68283e-05	-0.00152924	-3.2261e-05	
-0.000252025	-0.000658709	-0.000410282	
-2.3497e-05	-0.0014486	-1.80505e-05	
-0.000168967	-0.000941164	-0.000147087	
-6.05163e-05	-0.00146318	-5.27007e-05	
-0.0185733	0.00510377	-0.00298155	
-0.00129066	-0.00106101	0.000545764	
-0.000115909	-0.000450644	-0.000385645	
-0.000149659	-0.00109763	-0.000121076	
0.0250577	0.00717229	0.00397256	
0.00453806	-0.000155555	-0.00168614	
0.00134551	-0.00130694	-0.000552649	
0.000459962	-0.00138804	-0.000107294	
0.000163693	-0.00185732	-6.95887e-05	
0.000118438	-0.00137713	0.00010897	
0.0013241	-0.00178734	-0.00073341	
-0.00149381	-0.0017354	0.000880302	
0.000921103	-0.00109387	-0.000300278	
0.000116684	-0.00161719	-2.54302e-05	
0.000837674	-0.00172854	-0.000456312	
0.00116018	-0.00140831	-0.000530347	
0.000235528	-0.00152859	-5.52416e-05	
0.000364479	-0.00151669	-0.000118834	
5.23385e-05	-0.00156347	4.39492e-05	
0.00278726	-0.000345354	-0.000858977	
0.000791188	-0.00102546	-0.000189159	
0.00198997	-0.000722981	-0.00064367	
0.000205952	-0.00104965	0.000187233	
3.05775e-05	-0.00169972	1.65309e-05	
0.00378029	-2.25065e-05	-0.00113381	
1.03566e-05	-0.00178301	1.66094e-05	
0.000141454	-0.00187229	-5.33577e-05	
0.00447439	0.000767686	0.000510237	
8.7684e-05	-0.00146551	7.19583e-05	
0.00463651	0.000474951	-6.85393e-05	
0.00144746	-0.00114058	-0.000612762	
7.51211e-06	-0.00174422	1.29023e-05	
0.000128913	-0.00129062	0.000105533	
0.000181391	-0.000516341	0.000376034	
-6.00111e-05	-0.00186907	9.4429e-05	
-0.00766565	0.00115758	0.00144754	
-0.000994255	-0.00140919	0.000326881	
-0.000389785	-0.00147201	5.91923e-05	
-0.0110303	0.00291284	-0.000970364	
0.000402681	-0.00183175	-0.000190274	
-0.000136898	-0.00147797	-0.000125617	
-0.000500899	-0.00176823	0.000302093	
0.000301998	-0.00174594	-0.000182161	
0.000414729	-0.00166916	-0.000266222	
-0.00220552	-0.00102335	0.000928122	
-0.000504752	-0.00146393	0.00022605	
-0.00103945	-0.00160909	0.000558773	
-0.00104355	-0.0014107	0.000458399	
-0.000780355	-0.00142579	0.000358193	
0.000134386	-0.00143579	-0.000158054	
-0.00533929	-7.64075e-05	0.00200492	
-0.00172774	-0.000991671	0.000638989	
-0.00248899	-0.000804657	0.000958466	
-9.13778e-05	-0.00142958	-6.7541e-05	
-0.000249947	-0.00106411	-0.000252523	
-5.21877e-05	-0.00155544	-3.61223e-05	
-0.000251571	-0.000645633	-0.000394053	
-2.84148e-05	-0.00165364	-2.323e-05	
-0.000206675	-0.00113617	-0.000178834	
-6.15642e-05	-0.00143288	-5.35647e-05	
-0.0188817	0.0053499	-0.00312678	
-0.00139447	-0.0012791	0.000548775	
-0.00011964	-0.000438665	-0.000368606	
-0.000181481	-0.00128903	-0.000144219	
0.0253522	0.00761078	0.00398262	
0.00444861	0.000226606	-0.00173619	
0.00132783	-0.000777186	-0.000592384	
0.000600401	-0.000886471	-0.000227475	
7.20956e-05	-0.00118815	-2.46063e-05	
7.50392e-05	-0.000861871	7.04783e-05	
0.00136558	-0.00123491	-0.000746862	
-0.00151993	-0.001275	0.000870281	
0.00090888	-0.000732685	-0.000342105	
0.000113938	-0.00116317	-3.08582e-05	
0.000911708	-0.00118188	-0.000496642	
0.00124809	-0.000988048	-0.000592281	
0.000263822	-0.00114055	-8.81667e-05	
0.000336305	-0.00111164	-0.00012205	
4.02497e-05	-0.00115335	3.4493e-05	
0.00283598	-0.000116964	-0.000956192	
0.000832986	-0.000703341	-0.000271286	
0.0019937	-0.000311538	-0.000746784	
0.000131322	-0.000670689	0.000120218	
2.23874e-05	-0.00115137	1.39498e-05	
0.00380488	0.000172273	-0.00124566	
7.85017e-06	-0.00121736	1.22744e-05	
0.000137492	-0.00116244	-5.92898e-05	
0.00452057	0.00097279	0.000464803	
6.84837e-05	-0.00113358	5.88843e-05	
0.0046964	0.000693371	-0.000160356	
0.00149235	-0.000690401	-0.000671691	
6.17676e-06	-0.00122534	1.3188e-05	
8.6475e-05	-0.000852688	7.13302e-05	
0.000137586	-0.000380487	0.000269975	
-4.7844e-05	-0.00116994	6.56241e-05	
-0.00774596	0.0014848	0.00158681	
-0.000948672	-0.000810723	0.000381942	
-0.0005093	-0.000900953	0.000180158	
-0.0111602	0.00326036	-0.000933529	
0.000476601	-0.00119926	-0.000242075	
-8.21673e-05	-0.0008745	-7.5393e-05	
-0.000540019	-0.00127851	0.000316366	
0.000351152	-0.00124336	-0.000206327	
0.00036218	-0.00129464	-0.000226454	
-0.00221914	-0.000574555	0.000988886	
-0.00052305	-0.00114775	0.000239862	
-0.00112447	-0.00117264	0.000602341	
-0.00112039	-0.000989127	0.000523642	
-0.000769599	-0.00109188	0.00036117	
0.000127413	-0.00114439	-0.000137812	
-0.00530869	0.000281562	0.00213741	
-0.0017746	-0.000573783	0.000731971	
-0.002509	-0.000295942	0.00108584	
-7.19942e-05	-0.00113198	-5.68165e-05	
-0.000131777	-0.000556048	-0.000132013	
-4.08868e-05	-0.00115062	-2.88957e-05	
-0.000173257	-0.000440313	-0.000261006	
-2.31211e-05	-0.00123541	-1.842e-05	
-0.000120967	-0.000662738	-0.00010517	
-4.96453e-05	-0.00112844	-4.42015e-05	
-0.0191175	0.00562501	-0.00309494	
-0.00141959	-0.000779492	0.00062021	
-9.16051e-05	-0.000315988	-0.000252299	
-0.000114568	-0.000800895	-9.22457e-05	
0.0258301	0.00797328	0.00402172	
0.00463485	-2.18382e-05	-0.00167498	
0.00143478	-0.001184	-0.000569941	
0.000683437	-0.00126727	-0.000219555	
-9.08742e-06	-0.00148759	2.37427e-05	
0.000111744	-0.0012736	0.000105728	
0.00136756	-0.00152605	-0.00071245	
-0.00143684	-0.0015084	0.000798921	
0.00120363	-0.00109803	-0.000417217	
8.91199e-05	-0.00147397	-5.61096e-06	
0.000959933	-0.00144737	-0.000498957	
0.00132192	-0.00127617	-0.000582044	
0.000276996	-0.00148434	-7.37196e-05	
0.000467192	-0.00146191	-0.000165375	
5.2126e-05	-0.00146311	4.38624e-05	
0.00292348	-0.000276937	-0.000886282	
0.000929772	-0.000951289	-0.00025617	
0.0021402	-0.000583652	-0.000705844	
0.000185463	-0.000953192	0.000170924	
2.93091e-05	-0.00142085	1.95303e-05	