<VTKFile type="UnstructuredGrid" version="0.1" byte_order="LittleEndian">
	<UnstructuredGrid>
		<Piece NumberOfPoints="1680" NumberOfCells="1680">
			<CellData Scalars="scalars">
				<DataArray type="Float64" Name="Strength" NumberOfComponents="3" Format="ascii">
0.0166622	-0.0114011	0.00250212	
0.000102325	-0.0233891	0.00527725	
0.000475514	-0.0251733	0.00194036	
-0.000172818	-0.0264139	0.00203535	
-0.000772212	-0.0260637	0.000522604	
0.000247993	-0.0257591	0.00182574	
0.000701088	-0.0264682	-0.000579575	
-0.00118233	-0.0257142	0.00138719	
-0.000445998	-0.0249021	0.00378391	
0.000181265	-0.0254689	0.000527135	
0.000791561	-0.0264143	-0.000323422	
0.000883826	-0.0254431	0.000797796	
0.00013037	-0.0267842	0.00104259	
0.000395873	-0.0262839	0.00105441	
0.000242973	-0.0260964	0.000799775	
-0.00146735	-0.0213236	0.0076286	
-6.93051e-05	-0.0252142	0.00404839	
-0.000247545	-0.0238699	0.00523625	
-0.000444166	-0.0249157	0.00505843	
0.000247884	-0.0259186	0.000263887	
-0.00114702	-0.0198496	0.00917774	
-0.000113345	-0.0252141	0.000281237	
-0.000498866	-0.0259872	0.00025565	
0.00147479	-0.0129573	0.00920386	
0.0003668	-0.0261417	0.0013262	
-0.000448166	-0.0151699	0.0100727	
0.000673054	-0.0248963	0.00223173	
0.000167328	-0.0267201	9.32663e-05	
0.00024632	-0.0255571	0.00249795	
-0.00300842	-0.0167626	0.0107088	
-0.000167109	-0.0260271	0.000382092	
-0.00082699	-0.0176735	-0.00963081	
-9.44612e-05	-0.025397	-0.00245675	
0.000101673	-0.0263891	-0.00208656	
-0.00536606	-0.0137827	-0.00847186	
0.000185074	-0.0262272	-0.000173442	
-0.000195259	-0.0258476	-0.00194071	
-0.000668289	-0.0267037	0.000341354	
0.000301457	-0.0261577	-0.000411855	
0.000580056	-0.0265866	-0.000599519	
-0.000102577	-0.0246946	-0.00330869	
0.000162151	-0.0255563	-0.000575877	
-0.000557801	-0.0265703	0.000309382	
-0.000821688	-0.0255303	-0.00102694	
-0.000731442	-0.0261647	-0.00087801	
0.000459427	-0.0260813	-0.00115708	
5.08037e-05	-0.0215611	-0.00707256	
-0.000234812	-0.0246726	-0.00378363	
0.000429533	-0.0232989	-0.00504428	
-0.000434627	-0.0260636	-0.00143277	
0.00146548	-0.0229827	-0.00649955	
0.000168061	-0.0260143	-0.000509387	
0.00222831	-0.0188267	-0.0104015	
0.000182791	-0.0270946	-0.000278764	
0.000544463	-0.0238845	-0.00488051	
-6.73592e-05	-0.0265866	-0.0011284	
-0.0133304	-0.0113544	-0.00308112	
-0.000371021	-0.0259874	-0.00230638	
0.00189817	-0.0142204	-0.0113615	
0.000228672	-0.0251821	-0.00326433	
0.0185585	-0.000577106	-0.00321729	
0.00181199	-0.00434508	-0.000738419	
0.000314564	-0.00487105	9.54343e-05	
-0.000175428	-0.00491211	0.000582172	
-0.000161942	-0.00520777	0.000227614	
7.45034e-05	-0.00489087	0.000306963	
0.000807262	-0.00513092	-0.000996071	
-0.00100402	-0.00512581	0.001342	
-0.000222992	-0.00460229	0.000913756	
-6.52552e-05	-0.00511187	0.000139441	
0.000474544	-0.00506724	-0.000586731	
0.000581662	-0.00508515	-0.000423733	
-4.78803e-05	-0.00504842	0.000222522	
0.000116238	-0.00510393	7.83097e-05	
2.56897e-05	-0.0050728	0.000113385	
0.00109902	-0.0038598	0.000451286	
0.000210322	-0.00452887	0.000520697	
0.000814221	-0.00426214	0.000224207	
0.000144328	-0.00440898	0.000882594	
1.41869e-05	-0.00496225	3.50455e-06	
0.0019235	-0.00368739	0.00015842	
-2.53225e-05	-0.0050373	4.83627e-05	
-2.03014e-06	-0.005236	1.13022e-05	
0.00300003	-0.00196119	0.000518306	
7.098e-05	-0.00513606	0.000221104	
0.00269459	-0.00258314	0.000501589	
0.000552983	-0.00476532	-0.00012102	
1.93113e-06	-0.0050992	-1.1339e-06	
7.1234e-05	-0.00480598	0.00041789	
0.000148927	-0.00274932	0.00151482	
6.54314e-06	-0.00526619	0.000121038	
-0.00415526	-0.00350798	0.000601491	
-3.86709e-05	-0.00488754	-0.000449778	
0.000225938	-0.00493859	-0.000627609	
-0.00727809	-0.00216035	0.000873687	
0.00030102	-0.00525363	-0.000319527	
-4.75372e-05	-0.00490504	-0.000335741	
-0.000348526	-0.00520775	0.000483108	
0.000271417	-0.00516884	-0.000332485	
0.000335969	-0.005185	-0.000452249	
-0.00057718	-0.00462332	-8.14015e-05	
-7.16272e-05	-0.00512068	8.0626e-06	
-0.000591324	-0.00518933	0.000726048	
-0.000479887	-0.00504614	0.000283676	
-0.000351413	-0.00509547	0.000169287	
0.000262649	-0.0050349	-0.000469694	
-0.00215387	-0.00420913	0.000572209	
-0.000718279	-0.00454991	-4.94534e-05	
-0.000674366	-0.00431993	-0.000330446	
-7.5301e-05	-0.00513039	-0.000242129	
-0.000143447	-0.00391026	-0.00109464	
-5.64918e-06	-0.00505149	-7.36246e-05	
-0.000254673	-0.00313798	-0.00156621	
6.55052e-07	-0.0051617	-5.59496e-05	
-0.000136633	-0.00428016	-0.00087252	
-1.30247e-05	-0.00505566	-0.000173435	
-0.0143138	-0.00104479	0.00290617	
-0.000543145	-0.00489814	0.000119816	
-0.000201575	-0.00219003	-0.00144309	
-6.64703e-05	-0.00471184	-0.000580836	
0.0192831	0.00367911	-0.00261514	
0.00216901	-0.00148812	-0.00175955	
0.000342892	-0.00211561	-0.000192879	
-0.00011832	-0.00216494	0.00034493	
-5.81139e-05	-0.0023526	0.000131869	
7.26052e-05	-0.00213494	0.000104794	
0.0008816	-0.00232425	-0.00105056	
-0.00104497	-0.00230647	0.00131952	
-9.78807e-05	-0.00196478	0.000445966	
-6.12473e-05	-0.00230417	0.000130076	
0.000467301	-0.00231435	-0.000593918	
0.000611908	-0.00223769	-0.000615152	
-1.21119e-05	-0.00226576	0.00013001	
0.000133518	-0.00227783	-3.05867e-05	
3.51867e-05	-0.00229255	6.23163e-05	
0.00146178	-0.0014081	-0.000691436	
0.000335986	-0.00192213	1.23407e-05	
0.0010526	-0.00169995	-0.00058863	
0.000269111	-0.00185528	0.000270115	
1.11732e-05	-0.00226428	1.45017e-05	
0.00232734	-0.00117264	-0.00112925	
-4.11966e-06	-0.00230219	1.80892e-05	
8.81483e-05	-0.00236307	-4.39902e-05	
0.00321166	-0.00027816	-0.000128629	
7.70556e-05	-0.00227557	9.40689e-05	
0.00305976	-0.000632096	-0.000373136	
0.000600479	-0.00206194	-0.000493811	
-2.03856e-05	-0.00231292	9.34468e-06	
6.7938e-05	-0.0020852	0.00014209	
0.000331219	-0.00114778	0.000445929	
4.49267e-05	-0.00237246	5.0477e-05	
-0.00470296	-0.000511101	0.00180446	
-0.000102218	-0.00212487	-0.000143516	
0.000181335	-0.00216704	-0.00040101	
-0.00775002	0.000757386	0.00114831	
0.000337185	-0.00236824	-0.000368507	
-6.57816e-05	-0.0021436	-0.000122071	
-0.00032014	-0.00236373	0.000465876	
0.000265807	-0.00235643	-0.000342085	
0.000308559	-0.00235491	-0.000425608	
-0.000767971	-0.00198366	0.000493644	
-0.00013707	-0.00231925	7.73156e-05	
-0.000649615	-0.00234385	0.00078281	
-0.00050021	-0.00223677	0.000486099	
-0.000354518	-0.00228143	0.000301923	
0.000193881	-0.00229092	-0.000376099	
-0.00256047	-0.00137011	0.00189146	
-0.000869216	-0.00192362	0.000539036	
-0.000934684	-0.00175255	0.000505642	
-6.24673e-05	-0.00227569	-9.51569e-05	
-0.000336667	-0.00162025	-0.000274518	
-5.73133e-05	-0.00229555	-3.59807e-05	
-0.000433696	-0.0012781	-0.000433731	
-2.71599e-05	-0.00234096	-1.70023e-05	
-0.0002274	-0.00181282	-0.00026959	
-4.73045e-05	-0.00227256	-8.33659e-05	
-0.014954	0.00255908	0.00215397	
-0.000646437	-0.00212543	0.000484197	
-0.000268267	-0.0009299	-0.000457814	
-0.000146974	-0.00204362	-0.000190074	
0.0200553	0.00583581	-0.000909431	
0.00258001	-0.00126987	-0.00199388	
0.000525157	-0.00236178	-0.000293726	
-2.14397e-07	-0.00245132	0.000243295	
-1.74562e-05	-0.00261307	5.86067e-05	
0.000163289	-0.0024091	6.75566e-05	
0.0009977	-0.00257147	-0.00102758	
-0.00114899	-0.00256943	0.0012555	
6.66867e-05	-0.0022245	0.000288216	
-6.18023e-05	-0.00259439	0.000120833	
0.000529941	-0.00259464	-0.000559144	
0.000761447	-0.00247789	-0.000641248	
4.21863e-05	-0.00255854	7.64245e-05	
0.000190802	-0.00255182	-6.56314e-05	
6.45695e-05	-0.00257982	4.97325e-05	
0.00172155	-0.00134626	-0.0010165	
0.000488915	-0.0021254	-0.000131639	
0.00131364	-0.00175837	-0.000794158	
0.000402498	-0.00206885	0.000137625	
1.45251e-05	-0.00255331	7.88003e-06	
0.00262063	-0.00102844	-0.00132527	
1.07878e-05	-0.00257574	1.21737e-05	
0.000126925	-0.00260893	-7.87848e-05	
0.00347014	-0.000108279	-6.37072e-05	
0.000124936	-0.00253938	6.18444e-05	
0.00336185	-0.000546025	-0.000427434	
0.000711535	-0.00228299	-0.000576392	
-1.61379e-05	-0.00258074	1.8539e-05	
0.000170165	-0.00233755	7.31264e-05	
0.000447987	-0.00128833	0.000434631	
6.83938e-05	-0.00261433	3.60981e-05	
-0.00518013	-0.000180419	0.00194611	
-0.00025566	-0.00237942	-1.91872e-05	
6.23231e-05	-0.00244941	-0.0003024	
-0.00827027	0.00147986	0.00102557	
0.000390579	-0.00261395	-0.000356251	
-0.000169936	-0.0024103	-8.39223e-05	
-0.000353594	-0.00262169	0.000421325	
0.000287857	-0.00261237	-0.000318692	
0.000326013	-0.00261138	-0.000387749	
-0.00098449	-0.00215329	0.000713795	
-0.000189545	-0.00259816	0.000106279	
-0.000752802	-0.00259099	0.000764464	
-0.000646193	-0.00248563	0.000517342	
-0.00045339	-0.00254535	0.000324671	
0.000151404	-0.002584	-0.000309622	
-0.00299309	-0.00110719	0.00213782	
-0.00107659	-0.00204215	0.000734259	
-0.00122583	-0.00183046	0.000771497	
-0.000124738	-0.00253884	-7.07293e-05	
-0.000461103	-0.0018393	-8.8962e-05	
-8.77442e-05	-0.00257011	-2.14575e-06	
-0.000573878	-0.00145419	-0.000361519	
-4.54453e-05	-0.00259823	2.50272e-06	
-0.000335865	-0.00204345	-0.000131772	
-9.19539e-05	-0.0025596	-5.6856e-05	
-0.015461	0.00437201	0.000958862	
-0.000791902	-0.00231487	0.000597102	
-0.000370239	-0.00105442	-0.000485649	
-0.00023058	-0.00227139	-0.00012752	
0.0209063	0.00627818	-0.000532572	
0.00284	-0.00105954	-0.00189351	
0.000579777	-0.00206506	-0.00040386	
2.15077e-05	-0.00216615	0.00013011	
-1.88301e-05	-0.00234223	2.51254e-05	
0.000144052	-0.00212499	1.47492e-05	
0.00101751	-0.00230093	-0.00103816	
-0.00118009	-0.00230803	0.00123221	
0.000147627	-0.00195169	5.01446e-05	
-5.37382e-05	-0.00230279	9.26412e-05	
0.000574953	-0.00231465	-0.000572197	
0.000808023	-0.00217087	-0.000698929	
6.82016e-05	-0.00226489	1.08893e-05	
0.000204539	-0.00225457	-0.000116181	
5.90979e-05	-0.00228445	1.6579e-05	
0.00179457	-0.00116271	-0.000989131	
0.000504825	-0.00184171	-0.000204179	
0.00136144	-0.00150007	-0.000791796	
0.000300513	-0.00180543	7.3706e-05	
2.18151e-05	-0.00227542	-8.01401e-06	
0.00272857	-0.000894774	-0.00134043	
9.79197e-06	-0.00230777	3.02557e-06	
0.000115024	-0.00233857	-8.52337e-05	
0.00362707	0.000100148	-8.02491e-05	
0.000111201	-0.00224521	1.13849e-05	
0.00353957	-0.000364272	-0.000503506	
0.00087019	-0.00193457	-0.000707096	
4.19722e-07	-0.00231184	1.18905e-05	
0.000151605	-0.00205423	3.39011e-06	
0.000351786	-0.00108769	0.000421257	
3.8442e-05	-0.00234517	3.82769e-05	
-0.00554935	-0.000101798	0.00193808	
-0.000302456	-0.00208604	9.87727e-05	
3.13126e-05	-0.00216524	-0.000183291	
-0.00871987	0.00185587	0.000893196	
0.000385851	-0.00234401	-0.000344	
-0.000146898	-0.00212366	-2.41516e-05	
-0.000377632	-0.00234933	0.000417865	
0.000290076	-0.0023382	-0.000300295	
0.00033877	-0.00233781	-0.000362937	
-0.00117348	-0.00178406	0.00089347	
-0.000198762	-0.00230279	0.000139119	
-0.000777994	-0.00231311	0.000772225	
-0.000701291	-0.00217241	0.000587234	
-0.000488053	-0.00224058	0.00038624	
0.000155902	-0.00229037	-0.000250758	
-0.00331212	-0.000994482	0.00202113	
-0.00114645	-0.00173401	0.000818255	
-0.00134326	-0.00155611	0.000856285	
-0.00011977	-0.00224402	-1.41363e-05	
-0.000321284	-0.00160773	-8.18224e-05	
-6.83137e-05	-0.002291	1.10768e-05	
-0.000429783	-0.00125625	-0.000364921	
-3.65645e-05	-0.00232627	5.3714e-06	
-0.000260841	-0.00178421	-6.74831e-05	
-8.57504e-05	-0.00226776	-1.46459e-05	
-0.0160135	0.0048718	0.000438398	
-0.000901139	-0.00197884	0.000680218	
-0.000306308	-0.000878743	-0.000456679	
-0.000238031	-0.00198655	7.3252e-06	
0.0217162	0.00633875	0.000380587	
0.00329334	-0.000952783	-0.0012796	
0.000666149	-0.00177143	-0.000355734	
3.58195e-05	-0.00187341	7.84576e-05	
-2.19329e-05	-0.00207867	2.37315e-05	
8.73165e-05	-0.00182894	4.89291e-05	
0.00115094	-0.00205046	-0.000898747	
-0.00135145	-0.00205297	0.0010543	
0.000210535	-0.00164751	4.15505e-06	
-8.15626e-05	-0.00204993	8.30651e-05	
0.000674434	-0.00205503	-0.000492889	
0.000930478	-0.00190938	-0.000612272	
6.39532e-05	-0.00202567	7.13232e-06	
0.000214987	-0.00201872	-0.000100281	
3.6529e-05	-0.00203729	2.08113e-05	
0.00200584	-0.00100935	-0.000598964	
0.00054471	-0.00154832	-0.00014052	
0.00151359	-0.00127462	-0.000462106	
0.000205564	-0.00151677	0.000152738	
2.01224e-05	-0.00202582	-4.37273e-06	
0.00302784	-0.000749117	-0.000838155	
5.26877e-06	-0.00205906	1.33882e-06	
0.000107691	-0.00207359	-6.2658e-05	
0.00376072	0.000252672	8.47451e-05	
7.79796e-05	-0.00200174	2.8268e-05	
0.00372459	-0.000235408	-0.00026242	
0.000993159	-0.00164856	-0.000571214	
-1.35747e-06	-0.00205334	5.70634e-06	
0.000102531	-0.0017493	3.18153e-05	
0.000232252	-0.000872579	0.00046879	
9.84599e-06	-0.00207921	4.75212e-05	
-0.00603376	-4.31457e-05	0.00132485	
-0.000334305	-0.00178078	8.43665e-05	
2.32128e-05	-0.00186917	-0.000116342	
-0.00914994	0.00200336	0.000537323	
0.000421496	-0.00208248	-0.000279929	
-9.40029e-05	-0.0018237	-6.11729e-05	
-0.000448147	-0.00208607	0.000362752	
0.000320103	-0.00208118	-0.000241219	
0.0003914	-0.00207376	-0.000300804	
-0.00135139	-0.0015281	0.00074201	
-0.000207338	-0.00204496	0.000110333	
-0.000891294	-0.00205368	0.00064494	
-0.000806937	-0.00190356	0.00052259	
-0.000540475	-0.00200301	0.000330406	
0.000209642	-0.00203252	-0.000217492	
-0.00382524	-0.000869276	0.00138859	
-0.00129077	-0.00144719	0.000666692	
-0.00159299	-0.00130314	0.000576459	
-8.77651e-05	-0.00199357	-2.13128e-05	
-0.000215437	-0.00134067	-0.000201319	
-4.92772e-05	-0.00203327	-7.76245e-06	
-0.000275258	-0.00101958	-0.000449837	
-2.59346e-05	-0.00206029	-2.959e-06	
-0.000186276	-0.00150095	-0.000118778	
-5.35525e-05	-0.00202166	-2.56302e-05	
-0.0165993	0.00486036	-3.94545e-05	
-0.000978249	-0.00169516	0.000553164	
-0.000204985	-0.00071665	-0.000445579	
-0.000157306	-0.00168675	-6.45581e-05	
0.0224789	0.00614957	0.00108334	
0.0034839	-0.000796024	-0.00125276	
0.000786335	-0.00156095	-0.000303443	
0.000118643	-0.00165833	3.35386e-05	
-3.17662e-05	-0.0018819	2.76585e-05	
7.90972e-05	-0.00161868	6.39794e-05	
0.00128637	-0.00187228	-0.000706789	
-0.00148772	-0.00187355	0.000842813	
0.00030041	-0.00144879	-3.32073e-06	
-7.89892e-05	-0.00183877	6.10185e-05	
0.000763199	-0.00185617	-0.000411217	
0.00106847	-0.00169336	-0.000507447	
8.78017e-05	-0.00181733	1.15881e-06	
0.000253859	-0.00180344	-8.02567e-05	
3.50973e-05	-0.00182522	2.51531e-05	
0.00210838	-0.000856639	-0.000592676	
0.000590473	-0.00135618	-0.00010888	
0.00158333	-0.00110224	-0.000468014	
0.000178069	-0.00133051	0.000163582	
1.73979e-05	-0.00182838	-3.91235e-07	
0.00315332	-0.000611321	-0.000847265	
3.635e-06	-0.0018738	9.67976e-06	
0.000111276	-0.00187427	-3.93037e-05	
0.00389246	0.00028941	0.000168217	
6.73798e-05	-0.00178267	4.49645e-05	
0.00388095	-0.000103554	-0.000247106	
0.00109819	-0.00145622	-0.000472024	
3.58148e-06	-0.00186019	5.31049e-06	
8.53526e-05	-0.00154474	6.24958e-05	
0.000201227	-0.000764412	0.000424854	
-7.13423e-06	-0.00187808	5.71083e-05	
-0.00631147	0.000122188	0.00135786	
-0.000410867	-0.00157582	7.67349e-05	
-5.08509e-05	-0.00165992	-6.88191e-05	
-0.00956729	0.00193118	0.000216705	
0.000464559	-0.00188492	-0.000217526	
-8.501e-05	-0.00161859	-7.21784e-05	
-0.000504075	-0.00189414	0.000298845	
0.000345027	-0.00188958	-0.000192592	
0.000410077	-0.0018856	-0.000242451	
-0.00154089	-0.00135306	0.000625131	
-0.000245175	-0.00183654	9.1631e-05	
-0.000988546	-0.00185799	0.000522457	
-0.000938367	-0.00169073	0.000434493	
-0.000622655	-0.00179228	0.000278503	
0.000231585	-0.00182441	-0.000187404	
-0.00403754	-0.000723876	0.00140047	
-0.00141022	-0.00128229	0.00051118	
-0.0017276	-0.00112537	0.000598998	
-7.47886e-05	-0.0017811	-4.50857e-05	
-0.000185796	-0.00117364	-0.000202974	
-3.6389e-05	-0.00183569	-2.51936e-05	
-0.000237611	-0.000892968	-0.000417242	
-2.0386e-05	-0.00186485	-1.47103e-05	
-0.000161121	-0.00131959	-0.000142861	
-4.5933e-05	-0.00181874	-3.82804e-05	
-0.0171323	0.00472193	-0.000662607	
-0.00107391	-0.00150495	0.000425775	
-0.000165436	-0.00062596	-0.000412312	
-0.00012871	-0.00149679	-9.80158e-05	
0.0231955	0.00617354	0.00117231	
0.00387369	-0.00093407	-0.00135105	
0.000858314	-0.00170758	-0.000310933	
0.000221135	-0.00180639	-1.93966e-06	
-1.40822e-05	-0.00194548	2.08898e-05	
9.08515e-05	-0.00175756	7.99603e-05	
0.00129001	-0.00193095	-0.000698184	
-0.00153455	-0.00196648	0.000865574	
0.000366166	-0.00166647	3.88547e-06	
-8.17465e-05	-0.0019571	6.62668e-05	
0.000805287	-0.00196523	-0.000429869	
0.00111816	-0.0018292	-0.000513666	
0.000149722	-0.00192846	-2.53998e-05	
0.000269009	-0.00189464	-7.95467e-05	
3.92963e-05	-0.00194752	3.03747e-05	
0.00230665	-0.000947124	-0.00060365	
0.000649427	-0.00161126	-8.06606e-05	
0.00170723	-0.00137433	-0.00044329	
0.000220895	-0.00160172	0.000217192	
2.01339e-05	-0.00192975	2.3631e-06	
0.00333697	-0.000639583	-0.000863945	
4.42124e-06	-0.00194172	1.05693e-05	
0.000108369	-0.00194334	-3.4227e-05	
0.00405279	0.000313402	0.000165876	
7.44911e-05	-0.00189217	5.41392e-05	
0.00406572	-5.36268e-05	-0.000258636	
0.00114885	-0.00164366	-0.000463603	
5.37249e-06	-0.00197862	6.62233e-06	
0.000100628	-0.00171043	8.30701e-05	
0.000213826	-0.000792578	0.000449617	
-1.69907e-05	-0.00193968	6.63477e-05	
-0.00664075	0.000193251	0.0014417	
-0.000474194	-0.00173736	7.69072e-05	
-0.000150749	-0.00182696	-3.65502e-05	
-0.00995426	0.00199375	0.000173203	
0.00046709	-0.00193915	-0.000214486	
-9.8977e-05	-0.00177234	-9.31738e-05	
-0.000500415	-0.00194034	0.000296555	
0.000376374	-0.0019422	-0.000209914	
0.000419181	-0.00197609	-0.000248804	
-0.0016322	-0.00159803	0.000618306	
-0.000256233	-0.00196706	8.90581e-05	
-0.00102069	-0.00197824	0.000531179	
-0.00098347	-0.00184092	0.000435626	
-0.000680312	-0.00189313	0.000297386	
0.000210313	-0.00195576	-0.000182499	
-0.00436125	-0.000781805	0.00148249	
-0.00151742	-0.00155456	0.000493112	
-0.00203971	-0.00128679	0.000687674	
-8.31515e-05	-0.0018977	-5.55796e-05	
-0.00021436	-0.00131361	-0.000245869	
-3.94583e-05	-0.00194511	-2.96729e-05	
-0.000255396	-0.000934717	-0.000445625	
-2.27802e-05	-0.00198166	-1.75916e-05	
-0.000202606	-0.00159863	-0.000191702	
-5.15625e-05	-0.00194177	-4.64582e-05	
-0.0176586	0.00461357	-0.000747432	
-0.00112136	-0.00169029	0.000410781	
-0.000173101	-0.000636611	-0.000418026	
-0.000152619	-0.00170102	-0.000130851	
0.0238033	0.00638024	0.00133977	
0.00410905	-0.000765563	-0.00146494	
0.00102083	-0.00181294	-0.000366657	
0.000293055	-0.00193814	-2.0671e-05	
3.98625e-05	-0.00219944	-4.8989e-06	
0.000104479	-0.00190441	9.77119e-05	
0.00129417	-0.00219297	-0.000684503	
-0.00145736	-0.00218569	0.000811952	
0.000574776	-0.00164278	-9.11798e-05	
-4.33836e-05	-0.00211326	4.83686e-05	
0.000809486	-0.00211511	-0.000425475	
0.00114958	-0.00194422	-0.000509956	
0.000199867	-0.00206165	-4.60647e-05	
0.000333215	-0.00204397	-0.000103835	
4.42785e-05	-0.00208493	3.41591e-05	
0.00245571	-0.000831357	-0.000665922	
0.000706544	-0.0014842	-0.000114505	
0.00177677	-0.00118198	-0.000507252	
0.000206163	-0.00144168	0.000203525	
2.33427e-05	-0.00210484	3.59422e-06	
0.00348262	-0.00052901	-0.000927347	
6.09535e-06	-0.00219929	1.36159e-05	
0.000117922	-0.00223587	-3.35819e-05	
0.00417956	0.000450966	0.00013413	
8.13033e-05	-0.00199528	6.04553e-05	
0.00422879	9.83061e-05	-0.000317625	
0.00121272	-0.00167477	-0.000469329	
6.56434e-06	-0.00212126	7.04057e-06	
0.000110956	-0.00176735	9.75062e-05	
0.000201974	-0.00073464	0.000415257	
-5.77038e-05	-0.00224154	0.000100824	
-0.00693341	0.000400919	0.00157156	
-0.000643282	-0.00182849	0.000139738	
-0.000269428	-0.00197123	6.44263e-06	
-0.0102773	0.00222152	0.000174585	
0.000465245	-0.00220682	-0.000204384	
-0.000114334	-0.00192624	-0.000112329	
-0.000472576	-0.00220263	0.000279711	
0.000364062	-0.0022234	-0.000200427	
0.000360261	-0.00221585	-0.000215218	
-0.00186754	-0.00154292	0.000719808	
-0.000302421	-0.00213813	0.000104675	
-0.00102828	-0.00214682	0.000524133	
-0.000990286	-0.00201405	0.00041124	
-0.000754573	-0.00206584	0.000321803	
0.000178008	-0.002116	-0.000172218	
-0.00463586	-0.000628743	0.00161571	
-0.00161423	-0.00140644	0.000546158	
-0.00221554	-0.00116079	0.000780745	
-9.27413e-05	-0.00203593	-6.49916e-05	
-0.000210294	-0.00123139	-0.000235138	
-4.55047e-05	-0.00213764	-3.49796e-05	
-0.000246227	-0.000872866	-0.000415067	
-2.6323e-05	-0.00215587	-1.90761e-05	
-0.000186752	-0.00142217	-0.000179077	
-5.86542e-05	-0.00209575	-5.35349e-05	
-0.0180663	0.00476013	-0.0010266	
-0.00117585	-0.00173522	0.000414531	
-0.000165779	-0.000583865	-0.000379918	
-0.000164067	-0.00173078	-0.000146643	
0.0242713	0.00674797	0.00129379	
0.00424778	-0.000432213	-0.00159126	
0.00103653	-0.00140108	-0.000402684	
0.000335312	-0.00142954	-7.43768e-05	
5.00671e-05	-0.00160076	-1.46843e-05	
8.31605e-05	-0.00143258	7.87982e-05	
0.00133349	-0.00155119	-0.000712296	
-0.00149189	-0.00151713	0.000828873	
0.000634497	-0.00121614	-0.000167037	
-2.62223e-05	-0.00148677	3.36361e-05	
0.000864335	-0.0015519	-0.000461053	
0.00112681	-0.00147272	-0.000519321	
0.00020119	-0.00145487	-6.45867e-05	
0.000280699	-0.00145397	-9.59787e-05	
3.23339e-05	-0.00146576	2.61716e-05	
0.00253559	-0.000563633	-0.000773495	
0.000718781	-0.00116435	-0.000167233	
0.00183932	-0.000858717	-0.00060544	
0.000169588	-0.0011497	0.00016125	
1.78753e-05	-0.0014803	2.49963e-06	
0.0035565	-0.000309227	-0.00102814	
4.78903e-06	-0.00152042	1.03334e-05	
0.000128654	-0.00156327	-4.88155e-05	
0.00427042	0.000627737	6.08471e-05	
6.29649e-05	-0.00149827	4.68225e-05	
0.00433277	0.000299706	-0.000407746	
0.00131938	-0.00123456	-0.00055228	
4.39923e-06	-0.00154839	6.76579e-06	
9.46327e-05	-0.00140863	8.22561e-05	
0.000168276	-0.000591413	0.000327152	
-2.20692e-05	-0.00157994	5.84609e-05	
-0.00715872	0.000642081	0.00168487	
-0.000707585	-0.00152107	0.000198581	
-0.000329134	-0.0015982	5.80621e-05	
-0.0105359	0.00252595	0.000174256	
0.000462737	-0.00163124	-0.000218173	
-9.75836e-05	-0.00155301	-9.45649e-05	
-0.000503583	-0.00163636	0.000292	
0.0003599	-0.00160444	-0.000200181	
0.000403933	-0.00160578	-0.000237175	
-0.00192312	-0.00119319	0.00078426	
-0.00030474	-0.00162138	0.000118104	
-0.00104571	-0.00166349	0.000543749	
-0.00100654	-0.00160617	0.000439502	
-0.000692573	-0.00161446	0.000305136	
0.000189659	-0.00161556	-0.000163559	
-0.0048799	-0.000402223	0.00176921	
-0.00162269	-0.00117853	0.000583595	
-0.00240047	-0.00107996	0.000876881	
-7.76565e-05	-0.00167259	-5.45842e-05	
-0.000190875	-0.00108176	-0.000206523	
-3.69118e-05	-0.00161096	-2.58655e-05	
-0.000218883	-0.000750395	-0.000348442	
-2.07722e-05	-0.00164552	-1.48759e-05	
-0.000172041	-0.00127544	-0.000159674	
-4.75178e-05	-0.00162087	-4.25536e-05	
-0.0184135	0.0049974	-0.00106713	
-0.00126862	-0.00142884	0.000492252	
-0.00015196	-0.000511618	-0.000329208	
-0.00013689	-0.00136831	-0.000117518	
0.0248311	0.00700188	0.00127355	
0.00437275	-0.000554541	-0.00158821	
0.00123591	-0.00136329	-0.000496872	
0.000379038	-0.00154438	-7.90094e-05	
6.14331e-05	-0.00135477	-2.16239e-05	
9.18541e-05	-0.00150981	9.08357e-05	
0.00132266	-0.00134745	-0.000694536	
-0.00156282	-0.00140363	0.000850184	
0.000754857	-0.00122318	-0.000220645	
-5.03387e-05	-0.00151133	5.02172e-05	
0.000811212	-0.00148226	-0.000422242	
0.00114072	-0.00151879	-0.000510882	
0.000173224	-0.00152929	-4.2574e-05	
0.000289108	-0.00155196	-9.17088e-05	
3.54153e-05	-0.00151758	2.90796e-05	
0.00268375	-0.000648098	-0.000781234	
0.000761579	-0.00114387	-0.000187553	
0.00190959	-0.000871364	-0.000628006	
0.000170125	-0.00113502	0.000159166	
1.9598e-05	-0.00148331	5.24393e-06	
0.00372219	-0.000376575	-0.00102369	
4.96018e-06	-0.00138098	8.53076e-06	
0.000134358	-0.00135862	-5.67945e-05	
0.00441281	0.000660321	7.86617e-05	
6.67058e-05	-0.00155611	5.27626e-05	
0.00450621	0.000322658	-0.000417616	
0.00136484	-0.00123624	-0.000564862	
3.91482e-06	-0.00143565	6.54085e-06	
9.36694e-05	-0.00133041	8.25659e-05	
0.000202477	-0.000692012	0.000371671	
-3.00495e-05	-0.00136553	5.06772e-05	
-0.00738325	0.000801536	0.00177683	
-0.000823218	-0.00117127	0.000290056	
-0.000385152	-0.00125644	0.000105267	
-0.010806	0.00275715	0.000210823	
0.000470062	-0.00136592	-0.000227595	
-8.34391e-05	-0.00126224	-8.05996e-05	
-0.000497284	-0.00137503	0.000279788	
0.000390535	-0.00138442	-0.000215404	
0.000440816	-0.00141652	-0.000254578	
-0.00201976	-0.000916515	0.000855952	
-0.000359016	-0.00151978	0.00014671	
-0.000955349	-0.00149358	0.000488058	
-0.00104983	-0.00130587	0.000471348	
-0.000765843	-0.00142722	0.000348078	
0.000158218	-0.00149295	-0.000142178	
-0.00500563	-0.000272908	0.00183455	
-0.00165645	-0.000876678	0.000642223	
-0.00238624	-0.00068537	0.000947776	
-6.4277e-05	-0.00139222	-4.69219e-05	
-0.000163443	-0.000907389	-0.000169773	
-3.6957e-05	-0.00152965	-2.58022e-05	
-0.000213662	-0.000718148	-0.000323319	
-1.89024e-05	-0.0014487	-1.46504e-05	
-0.000129475	-0.00095151	-0.000118334	
-4.44736e-05	-0.00146415	-3.96901e-05	
-0.018736	0.00521203	-0.00106452	
-0.0012815	-0.00108049	0.000529184	
-0.000153123	-0.000495709	-0.000310098	
-0.000114158	-0.00110447	-9.58981e-05	
0.0253009	0.00725571	0.00110694	
0.00452606	-0.000337721	-0.00168924	
0.00133329	-0.00132641	-0.000536261	
0.0004377	-0.00139489	-0.000113058	
0.000159372	-0.0018578	-6.84846e-05	
8.64873e-05	-0.00138126	8.67116e-05	
0.00134794	-0.00178883	-0.000685539	
-0.0015293	-0.001736	0.000816942	
0.000900028	-0.00111121	-0.000301034	
0.000108127	-0.00161778	-2.68318e-05	
0.000849558	-0.00172979	-0.000429691	
0.00115529	-0.00142038	-0.000508866	
0.00022264	-0.00153027	-6.21424e-05	
0.000351052	-0.00151973	-0.000120953	
3.82677e-05	-0.00156417	3.23449e-05	
0.00276745	-0.000461302	-0.000866124	
0.000764399	-0.00104354	-0.000200534	
0.00195653	-0.000794692	-0.000660338	
0.000160213	-0.00106377	0.000149303	
2.2834e-05	-0.00169992	1.24989e-05	
0.00377594	-0.000183352	-0.00112973	
7.17678e-06	-0.00178313	1.15264e-05	
0.000137485	-0.00187278	-5.15455e-05	
0.0044924	0.000811387	-6.4606e-07	
6.34994e-05	-0.00146751	5.61257e-05	
0.00460159	0.000505681	-0.000520261	
0.0014365	-0.00116528	-0.000592345	
5.40905e-06	-0.00174428	9.63985e-06	
9.40683e-05	-0.00129538	8.3539e-05	
0.000169438	-0.000570582	0.000294723	
-6.95923e-05	-0.00186933	8.46941e-05	
-0.00759859	0.000947651	0.00187303	
-0.000970965	-0.0014251	0.00032867	
-0.00036268	-0.0014786	6.97198e-05	
-0.0110579	0.00292407	0.000261336	
0.000405939	-0.0018321	-0.000180259	
-0.000100121	-0.00148318	-9.782e-05	
-0.000514386	-0.00176772	0.000282323	
0.000308046	-0.00174642	-0.000167517	
0.000426813	-0.0016693	-0.000246146	
-0.00219345	-0.00107358	0.000899827	
-0.000503393	-0.0014658	0.000217147	
-0.00105199	-0.00161239	0.00052564	
-0.00103337	-0.00142378	0.000441146	
-0.000775288	-0.00143223	0.000343571	
0.000152314	-0.00143609	-0.000138149	
-0.00534871	-0.000241772	0.00196299	
-0.00170758	-0.00103459	0.000624964	
-0.00247332	-0.000873062	0.000938175	
-6.57427e-05	-0.00143164	-5.337e-05	
-0.000196527	-0.00108627	-0.000200875	
-4.05164e-05	-0.001556	-2.8449e-05	
-0.000210532	-0.000704594	-0.00030797	
-2.27322e-05	-0.00165381	-1.86016e-05	
-0.000156335	-0.00114938	-0.000142787	
-4.4625e-05	-0.00143397	-4.02266e-05	
-0.0190924	0.00536189	-0.000985562	
-0.00137605	-0.00130371	0.000537801	
-0.000154303	-0.000483143	-0.000292395	
-0.000136622	-0.00129777	-0.000113656	
0.025654	0.00750294	0.000874692	
0.00445462	3.7162e-05	-0.00173317	
0.00132634	-0.000796581	-0.000570202	
0.000589752	-0.000894474	-0.000224582	
6.82431e-05	-0.00118845	-2.54882e-05	
5.42514e-05	-0.000864716	5.45929e-05	
0.00138888	-0.00123751	-0.000699204	
-0.00155273	-0.00127617	0.000809951	
0.000897197	-0.000749695	-0.000336466	
0.000107998	-0.00116376	-3.26989e-05	
0.000925633	-0.00118328	-0.000467695	
0.00124998	-0.00100106	-0.000566531	
0.000255221	-0.00114232	-9.12355e-05	
0.000327151	-0.00111444	-0.000122112	
2.92046e-05	-0.00115396	2.50221e-05	
0.00282926	-0.000239099	-0.000951311	
0.000816778	-0.000721692	-0.00027263	
0.00197955	-0.000384936	-0.000749451	
0.000100831	-0.000680185	9.42487e-05	
1.6601e-05	-0.00115154	1.03841e-05	
0.00381184	2.07155e-05	-0.00123287	
5.45217e-06	-0.00121751	8.35699e-06	
0.000135339	-0.00116294	-5.66516e-05	
0.00453936	0.000973563	-9.56393e-05	
4.90458e-05	-0.00113532	4.50257e-05	
0.00465382	0.000681741	-0.000640608	
0.00149205	-0.000716433	-0.000645203	
4.51783e-06	-0.00122543	9.44328e-06	
6.24544e-05	-0.000856093	5.55004e-05	
0.000125361	-0.000421343	0.000208539	
-5.42154e-05	-0.00117016	5.84327e-05	
-0.00768685	0.0012068	0.00203022	
-0.000939448	-0.000825449	0.0003737	
-0.000496097	-0.000908329	0.000180645	
-0.0112112	0.00315737	0.000413111	
0.000482418	-0.00119975	-0.000228414	
-5.93607e-05	-0.000877813	-5.79042e-05	
-0.000552968	-0.001278	0.00029618	
0.000358057	-0.00124397	-0.000191094	
0.000372133	-0.0012948	-0.000209767	
-0.00222081	-0.00062739	0.000952833	
-0.00052258	-0.00115004	0.000230327	
-0.00113875	-0.00117672	0.000567614	
-0.00111849	-0.0010029	0.000501694	
-0.000767595	-0.00109823	0.000346446	
0.000142857	-0.00114465	-0.000119917	
-0.00533645	0.000111453	0.00208089	
-0.00176857	-0.000620283	0.000708405	
-0.00251426	-0.000366436	0.00105125	
-5.1147e-05	-0.00113378	-4.38232e-05	
-0.000101977	-0.000568371	-0.000103371	
-3.13021e-05	-0.00115112	-2.22132e-05	
-0.00014217	-0.000481073	-0.000201376	
-1.82826e-05	-0.00123559	-1.43733e-05	
-9.01936e-05	-0.000671004	-8.17738e-05	
-3.56389e-05	-0.00112942	-3.27519e-05	
-0.0193548	0.00553998	-0.000807845	
-0.00141369	-0.000804923	0.000601504	
-0.000113674	-0.000347029	-0.000196516	
-8.52544e-05	-0.000806795	-7.15628e-05	
0.0262077	0.00762397	0.000683251	
0.00461832	-0.000237878	-0.00170131	
0.00141975	-0.00120798	-0.000558198	
0.000663307	-0.00127722	-0.000224971	
-1.61716e-05	-0.00148772	1.97018e-05	
7.97391e-05	-0.00127812	8.01192e-05	
0.00138561	-0.00152862	-0.000672477	
-0.001465	-0.00150949	0.000745879	
0.00118069	-0.00112269	-0.000418083	
7.97104e-05	-0.00147459	-1.04286e-05	
0.000971224	-0.00144881	-0.000473518	
0.0013155	-0.00129176	-0.000562888	
0.000263526	-0.0014865	-8.16386e-05	
0.000454158	-0.00146604	-0.000166501	
3.72727e-05	-0.00146399	3.14209e-05	
0.00290092	-0.000419184	-0.000902149	
0.000902799	-0.000974011	-0.000267536	
0.00210648	-0.000671088	-0.000728536	
0.000140162	-0.000967363	0.000131063	