<VTKFile type="UnstructuredGrid" version="0.1" byte_order="LittleEndian">
	<UnstructuredGrid>
		<Piece NumberOfPoints="1740" NumberOfCells="1740">
			<CellData Scalars="scalars">
				<DataArray type="Float64" Name="Strength" NumberOfComponents="3" Format="ascii">
0.0165858	-0.0114792	0.00265261	
-0.000175377	-0.0233608	0.00540044	
0.000432663	-0.0251659	0.00204716	
-0.000194529	-0.026406	0.00213537	
-0.000800995	-0.0260632	0.000519355	
0.000216619	-0.0257527	0.00192389	
0.000655681	-0.0264691	-0.000605355	
-0.00115986	-0.025713	0.00143471	
-0.000525437	-0.0248769	0.00393677	
0.000174292	-0.0254686	0.000565351	
0.000781661	-0.0264152	-0.000309068	
0.000841716	-0.0254425	0.000865822	
0.000121784	-0.0267822	0.00110093	
0.000383145	-0.0262818	0.00111824	
0.000236031	-0.0260953	0.000846811	
-0.00178962	-0.0212338	0.00780807	
-0.00019424	-0.0251888	0.00420018	
-0.00045054	-0.023836	0.00537573	
-0.000591976	-0.0248805	0.00521389	
0.000248428	-0.0259186	0.000296719	
-0.00153999	-0.0197176	0.00940148	
-0.000125446	-0.0252143	0.000292067	
-0.000533942	-0.025987	0.000241841	
0.00123174	-0.0127885	0.00947102	
0.000350329	-0.0261382	0.00140269	
-0.000824433	-0.0149908	0.0103136	
0.000596813	-0.0248868	0.00235554	
0.000164995	-0.0267202	0.000118066	
0.000194347	-0.0255455	0.00261858	
-0.00341964	-0.0165328	0.0109398	
-0.000187009	-0.0260274	0.000364751	
-0.000430683	-0.017535	-0.00990533	
-5.09794e-05	-0.0253876	-0.0025555	
0.000121609	-0.0263805	-0.00219346	
-0.00511643	-0.0137045	-0.0087474	
0.000158694	-0.0262275	-0.000198813	
-0.000161135	-0.0258409	-0.0020366	
-0.000673633	-0.0267039	0.000337541	
0.000295891	-0.0261579	-0.0004303	
0.000584309	-0.0265866	-0.000617564	
1.94237e-05	-0.0246783	-0.00343068	
0.000197819	-0.0255561	-0.000589724	
-0.000517774	-0.0265714	0.000324745	
-0.000787681	-0.0255282	-0.00110773	
-0.000700739	-0.026164	-0.000937496	
0.000487083	-0.0260794	-0.00119457	
0.000378875	-0.0214874	-0.0072838	
-8.82557e-05	-0.024653	-0.00391567	
0.000623006	-0.0232602	-0.00520077	
-0.000409222	-0.0260596	-0.00151562	
0.00171095	-0.0229166	-0.00667154	
0.000196861	-0.0260145	-0.000513206	
0.002565	-0.018638	-0.0106599	
0.000205859	-0.0270945	-0.000282289	
0.000703069	-0.0238473	-0.0050395	
-3.87469e-05	-0.0265849	-0.00117683	
-0.01327	-0.0113876	-0.00321865	
-0.000274775	-0.0259796	-0.00240588	
0.00223365	-0.0139538	-0.0116273	
0.000328641	-0.0251652	-0.00338447	
0.0185575	-0.000800984	-0.00318193	
0.00172993	-0.00438107	-0.000723787	
0.000301814	-0.00487159	0.000109323	
-0.00017315	-0.00490983	0.000602447	
-0.000164463	-0.00520758	0.000231018	
6.77948e-05	-0.00488999	0.000323151	
0.000777024	-0.00513206	-0.00101423	
-0.000971465	-0.00512517	0.0013683	
-0.00023037	-0.00459601	0.000943036	
-6.50595e-05	-0.00511179	0.000144533	
0.00046043	-0.00506752	-0.000596298	
0.000560296	-0.00508775	-0.000421712	
-4.75509e-05	-0.00504812	0.000230762	
0.000111346	-0.005104	8.63684e-05	
2.45466e-05	-0.00507276	0.000118096	
0.00104306	-0.00387071	0.000489587	
0.000185561	-0.00452744	0.000542168	
0.000767956	-0.00426965	0.000244807	
0.000122532	-0.00440341	0.000913059	
1.28127e-05	-0.00496235	5.43835e-06	
0.00186131	-0.00371722	0.00020096	
-2.78734e-05	-0.00503734	5.01506e-05	
-1.28366e-05	-0.00523605	1.55485e-05	
0.00297415	-0.00198736	0.000566341	
6.81978e-05	-0.00513561	0.000233016	
0.00265476	-0.0026132	0.000556019	
0.000528298	-0.00476843	-0.000109451	
2.59555e-06	-0.00509932	-2.43084e-06	
6.28363e-05	-0.00480425	0.000438806	
0.000104366	-0.00272818	0.00155626	
1.80543e-06	-0.0052662	0.000123836	
-0.00410156	-0.0035801	0.000544394	
-2.99766e-05	-0.00488607	-0.000466594	
0.000221613	-0.00493617	-0.000648468	
-0.00725515	-0.00226323	0.000804843	
0.000288747	-0.00525403	-0.000324901	
-4.1638e-05	-0.00490407	-0.000351024	
-0.00033979	-0.00520739	0.000493442	
0.000262542	-0.00516916	-0.000335671	
0.000326882	-0.00518528	-0.000456498	
-0.00054433	-0.00462703	-9.6432e-05	
-6.25025e-05	-0.00512086	8.07227e-06	
-0.000567923	-0.00518993	0.000740793	
-0.000463467	-0.00504795	0.000279231	
-0.000338583	-0.00509655	0.000165851	
0.000260864	-0.00503414	-0.000479322	
-0.00207476	-0.00425214	0.000547065	
-0.000680114	-0.00455558	-6.63863e-05	
-0.000631926	-0.00432444	-0.000355232	
-7.16563e-05	-0.00512988	-0.000254757	
-0.000107052	-0.00390044	-0.00113322	
-4.75814e-07	-0.00505159	-7.35803e-05	
-0.000216915	-0.00311597	-0.00161501	
4.79555e-06	-0.00516181	-5.73652e-05	
-0.000113892	-0.00427411	-0.000904748	
-8.39125e-06	-0.00505551	-0.000180207	
-0.0142974	-0.00123977	0.00291515	
-0.000514749	-0.0049014	0.000111714	
-0.000164218	-0.00216843	-0.00147992	
-5.05316e-05	-0.00470921	-0.000603479	
0.0193118	0.00358149	-0.00254883	
0.00213574	-0.0015041	-0.00178652	
0.000334223	-0.00211712	-0.000191684	
-0.00011399	-0.00216374	0.000354013	
-5.54898e-05	-0.00235244	0.000136219	
7.10568e-05	-0.00213472	0.000110634	
0.00085657	-0.0023255	-0.00106831	
-0.00101505	-0.00230586	0.00134368	
-9.48393e-05	-0.00196161	0.000460367	
-5.95421e-05	-0.00230402	0.000134183	
0.00045147	-0.00231484	-0.000604292	
0.000594484	-0.00224029	-0.000622865	
-1.05792e-05	-0.0022655	0.000135006	
0.0001304	-0.00227808	-2.80179e-05	
3.54717e-05	-0.00229249	6.53449e-05	
0.00145889	-0.00141065	-0.000692383	
0.000330068	-0.0019231	1.99718e-05	
0.00104167	-0.00170573	-0.000591427	
0.000274423	-0.00185244	0.000283853	
1.03562e-05	-0.00226432	1.59845e-05	
0.00232174	-0.00117683	-0.00113647	
-4.7375e-06	-0.00230221	1.92471e-05	
8.6733e-05	-0.00236317	-4.32488e-05	
0.00321162	-0.000293275	-9.58983e-05	
7.47111e-05	-0.00227559	9.57052e-05	
0.00306056	-0.000649961	-0.000335188	
0.000581785	-0.00206659	-0.000496792	
-2.15168e-05	-0.00231296	9.7136e-06	
6.48007e-05	-0.00208476	0.000150007	
0.000331682	-0.00114226	0.000459502	
4.67435e-05	-0.00237242	5.21702e-05	
-0.00471265	-0.000513227	0.00177888	
-0.000100643	-0.0021245	-0.000150056	
0.000176227	-0.0021657	-0.000410568	
-0.00776475	0.000721384	0.00107283	
0.000328282	-0.0023685	-0.00037488	
-6.40056e-05	-0.00214336	-0.000127391	
-0.000307335	-0.0023636	0.000475116	
0.000257918	-0.00235644	-0.000348319	
0.000298439	-0.00235472	-0.000433951	
-0.000752036	-0.0019897	0.000493896	
-0.000133513	-0.00231952	7.6372e-05	
-0.000629097	-0.00234518	0.000795581	
-0.000485135	-0.0022388	0.000492015	
-0.000343525	-0.00228262	0.000305923	
0.000186452	-0.00228999	-0.000385572	
-0.00253061	-0.00138835	0.00191817	
-0.000851955	-0.00193111	0.000539846	
-0.000922095	-0.00175914	0.000505987	
-6.0545e-05	-0.00227563	-9.82451e-05	
-0.000343931	-0.00161668	-0.000286385	
-5.75925e-05	-0.00229554	-3.86771e-05	
-0.000444084	-0.00126955	-0.00044803	
-2.7074e-05	-0.00234101	-1.85345e-05	
-0.000230518	-0.00181019	-0.000284218	
-4.70798e-05	-0.00227243	-8.77712e-05	
-0.0149768	0.00247839	0.0020967	
-0.000630146	-0.00212965	0.000487174	
-0.000262021	-0.000924598	-0.000471938	
-0.000146164	-0.00204262	-0.000201183	
0.0200629	0.00583823	-0.000750436	
0.00256134	-0.00123452	-0.00203967	
0.000525835	-0.00236149	-0.000294996	
1.16e-05	-0.00245037	0.000252753	
-1.21714e-05	-0.00261308	6.08018e-05	
0.000171538	-0.00240838	7.35763e-05	
0.000977855	-0.00257135	-0.00104678	
-0.00112329	-0.00256865	0.00128013	
7.53693e-05	-0.00222307	0.000297087	
-5.87949e-05	-0.0025943	0.000125096	
0.000516661	-0.00259532	-0.000568587	
0.000752516	-0.00247849	-0.000649483	
4.58013e-05	-0.00255837	8.11137e-05	
0.00019208	-0.00255181	-6.34044e-05	
6.71936e-05	-0.00257972	5.30953e-05	
0.00172877	-0.00131912	-0.00103958	
0.000493339	-0.00212437	-0.000131991	
0.00131763	-0.00174731	-0.000811648	
0.000420225	-0.00206513	0.000139839	
1.42402e-05	-0.00255334	9.55759e-06	
0.00261881	-0.00100366	-0.00134786	
1.12895e-05	-0.00257579	1.28769e-05	
0.000129651	-0.00260881	-7.96148e-05	
0.00347054	-0.000114655	-2.64405e-05	
0.000130691	-0.00253898	6.69829e-05	
0.00336496	-0.000557502	-0.00038767	
0.000696377	-0.00228601	-0.000582901	
-1.73583e-05	-0.00258075	1.9698e-05	
0.00016899	-0.00233749	7.79898e-05	
0.00045542	-0.00128089	0.000448615	
7.36204e-05	-0.00261421	3.68376e-05	
-0.00518955	-0.000153755	0.0019237	
-0.000259458	-0.002379	-2.20889e-05	
5.0274e-05	-0.00244839	-0.000312823	
-0.00828047	0.0014802	0.000944257	
0.00038595	-0.00261369	-0.000363278	
-0.000178484	-0.00240953	-8.95182e-05	
-0.000341252	-0.00262195	0.00042996	
0.000281789	-0.0026123	-0.000325028	
0.000317074	-0.00261137	-0.000395462	
-0.000975411	-0.00215393	0.00072427	
-0.000190542	-0.00259811	0.000106564	
-0.000739235	-0.0025909	0.000778037	
-0.000638749	-0.00248637	0.000523049	
-0.0004492	-0.00254579	0.000327444	
0.000141124	-0.00258358	-0.000318137	
-0.00297289	-0.00108018	0.00217938	
-0.00106955	-0.00204125	0.000746942	
-0.00122553	-0.00182283	0.000789811	
-0.000129981	-0.00253844	-7.6169e-05	
-0.000485309	-0.00183323	-8.60471e-05	
-9.17882e-05	-0.00257002	-3.73797e-06	
-0.000595087	-0.00144376	-0.000368945	
-4.76413e-05	-0.00259824	1.72818e-06	
-0.000352466	-0.00204042	-0.000135435	
-9.62456e-05	-0.00255937	-6.1175e-05	
-0.0154632	0.00438821	0.000866451	
-0.000783748	-0.00231533	0.000605992	
-0.000367599	-0.00104669	-0.000504007	
-0.000238821	-0.00227021	-0.000133335	
0.020904	0.00630645	-0.000323412	
0.0028268	-0.00102859	-0.00192994	
0.000575341	-0.0020649	-0.000410941	
3.28871e-05	-0.00216591	0.000131921	
-1.50994e-05	-0.0023423	2.46489e-05	
0.000153495	-0.00212434	1.40598e-05	
0.000996401	-0.0022998	-0.00106089	
-0.00115334	-0.00230764	0.00125792	
0.000153369	-0.00195123	5.14493e-05	
-4.92459e-05	-0.00230283	9.49184e-05	
0.000563781	-0.00231468	-0.00058321	
0.000800908	-0.00216874	-0.000713645	
7.22892e-05	-0.0022648	1.18713e-05	
0.000207183	-0.00225426	-0.000118381	
6.20846e-05	-0.00228442	1.74333e-05	
0.00179151	-0.00114908	-0.00101028	
0.000509023	-0.00183987	-0.000210383	
0.00136672	-0.00148556	-0.000809878	
0.000316316	-0.00180288	7.0112e-05	
2.31633e-05	-0.00227544	-8.18783e-06	
0.0027247	-0.000879027	-0.00135875	
1.06242e-05	-0.00230782	2.9984e-06	
0.000116535	-0.00233841	-8.80291e-05	
0.00362823	9.43074e-05	-3.27612e-05	
0.000118132	-0.00224489	1.12387e-05	
0.0035441	-0.000375659	-0.000463139	
0.000863608	-0.00193221	-0.000721419	
6.61425e-07	-0.00231187	1.28591e-05	
0.000158174	-0.00205375	2.91502e-06	
0.000358699	-0.00107904	0.000437282	
4.21865e-05	-0.00234514	3.78531e-05	
-0.00555811	-9.0802e-05	0.00191407	
-0.00031154	-0.00208451	0.000103134	
2.61638e-05	-0.00216485	-0.000188671	
-0.00872781	0.0018644	0.000799317	
0.000380523	-0.00234372	-0.000352076	
-0.000156656	-0.00212298	-2.32932e-05	
-0.000366641	-0.00234959	0.000426241	
0.000284281	-0.00233815	-0.00030645	
0.000331149	-0.00233773	-0.000370375	
-0.00116894	-0.00177676	0.000913728	
-0.000199805	-0.00230253	0.000142614	
-0.000764709	-0.00231201	0.00078871	
-0.000689999	-0.00217357	0.000596332	
-0.000485541	-0.00223975	0.000394384	
0.000145827	-0.00229056	-0.000255518	
-0.00329751	-0.00097165	0.00205589	
-0.0011402	-0.0017289	0.00083757	
-0.00134066	-0.00154656	0.000877387	
-0.00012708	-0.00224365	-1.39082e-05	
-0.000333581	-0.00160539	-7.89338e-05	
-7.21336e-05	-0.00229091	1.2367e-05	
-0.000444804	-0.00124815	-0.000374566	
-3.76056e-05	-0.00232627	5.56734e-06	
-0.000273809	-0.00178237	-6.4876e-05	
-9.07483e-05	-0.00226761	-1.50473e-05	
-0.0160072	0.0049085	0.000289417	
-0.000895313	-0.00197665	0.000694077	
-0.000304336	-0.000869236	-0.000475752	
-0.000249545	-0.00198514	9.5281e-06	
0.0217044	0.00636414	0.000659942	
0.00329709	-0.000935782	-0.00128273	
0.000665721	-0.00177027	-0.000362053	
4.46357e-05	-0.00187328	7.74248e-05	
-2.04683e-05	-0.00207869	2.41354e-05	
9.16949e-05	-0.00182867	5.02772e-05	
0.00113699	-0.00204985	-0.00091761	
-0.0013352	-0.00205247	0.00107572	
0.000215259	-0.0016469	4.04053e-06	
-7.84503e-05	-0.00205002	8.44623e-05	
0.000668137	-0.00205469	-0.000502806	
0.000927421	-0.00190656	-0.000625512	
6.75741e-05	-0.00202557	6.89086e-06	
0.000217982	-0.0020183	-0.00010296	
3.94693e-05	-0.00203725	2.0873e-05	
0.00201194	-0.000998061	-0.000597646	
0.000549672	-0.00154647	-0.000141515	
0.00152045	-0.00126737	-0.000459691	
0.000213861	-0.00151504	0.000158253	
2.14879e-05	-0.00202582	-4.58218e-06	
0.00303024	-0.000739707	-0.000838386	
5.6901e-06	-0.00205908	1.30213e-06	
0.00010783	-0.00207353	-6.41632e-05	
0.00375966	0.000248047	0.000140883	
8.37128e-05	-0.00200153	2.76243e-05	
0.00372689	-0.000251856	-0.000213413	
0.000990597	-0.00164626	-0.000582121	
-9.56218e-07	-0.00205334	5.80595e-06	
0.000107502	-0.00174897	3.28973e-05	
0.000234996	-0.000861687	0.000487122	
1.18642e-05	-0.0020792	4.78224e-05	
-0.00604312	-3.71127e-05	0.00128373	
-0.000337972	-0.00177999	8.5761e-05	
1.78729e-05	-0.00186904	-0.000119398	
-0.00915585	0.00200754	0.000423542	
0.000418325	-0.00208238	-0.000285414	
-9.88321e-05	-0.00182337	-6.28228e-05	
-0.00044185	-0.00208621	0.000369617	
0.000316841	-0.00208114	-0.000245998	
0.000386816	-0.00207374	-0.000306927	
-0.00134922	-0.00152312	0.000756052	
-0.000207695	-0.00204478	0.000113192	
-0.000883152	-0.00205298	0.000658209	
-0.000805474	-0.00190104	0.000533843	
-0.000540362	-0.0020018	0.000338005	
0.000203622	-0.00203271	-0.000221466	
-0.00382708	-0.000858943	0.00139024	
-0.00128952	-0.00144222	0.000679721	
-0.00159669	-0.00129712	0.00057982	
-9.38098e-05	-0.00199332	-2.05625e-05	
-0.000223847	-0.00133828	-0.000207878	
-5.14041e-05	-0.00203323	-7.35979e-06	
-0.000282768	-0.00100898	-0.000468651	
-2.67657e-05	-0.00206028	-2.8115e-06	
-0.000195454	-0.00149962	-0.000120729	
-5.75439e-05	-0.00202157	-2.56345e-05	
-0.0165888	0.00489624	-0.000237137	
-0.000977213	-0.00169261	0.00056266	
-0.00019953	-0.000707063	-0.000463006	
-0.000164606	-0.00168604	-6.48903e-05	
0.0224529	0.00618062	0.00144474	
0.00348709	-0.000778145	-0.00125544	
0.000788556	-0.00155948	-0.000305102	
0.000122908	-0.00165796	3.63028e-05	
-3.10948e-05	-0.0018819	2.80563e-05	
8.3529e-05	-0.00161833	6.6425e-05	
0.00128144	-0.00187208	-0.000716209	
-0.00148094	-0.00187364	0.000854411	
0.00030553	-0.00144771	-9.12154e-07	
-7.73508e-05	-0.00183882	6.19907e-05	
0.000760848	-0.00185611	-0.00041579	
0.00106882	-0.00169172	-0.000512194	
9.00313e-05	-0.00181724	2.323e-06	
0.000256154	-0.00180313	-8.01608e-05	
3.70207e-05	-0.00182518	2.63722e-05	
0.00211326	-0.000845351	-0.000591772	
0.000595285	-0.00135427	-0.000106225	
0.0015896	-0.0010943	-0.000465503	
0.000185836	-0.00132867	0.000169645	
1.82053e-05	-0.00182838	-2.77441e-07	
0.0031567	-0.00059888	-0.000844118	
3.89754e-06	-0.00187379	1.01195e-05	
0.000111505	-0.00187424	-3.96451e-05	
0.00389006	0.000281256	0.000233427	
7.13335e-05	-0.00178247	4.65218e-05	
0.00388404	-0.000121788	-0.000189601	
0.00109966	-0.00145384	-0.000475901	
4.00701e-06	-0.0018602	5.34894e-06	
8.99901e-05	-0.00154435	6.5151e-05	
0.000203729	-0.000753706	0.00044236	
-6.00441e-06	-0.00187804	5.85259e-05	
-0.00632024	0.000134718	0.00131714	
-0.000414927	-0.00157479	7.56139e-05	
-5.55482e-05	-0.00165964	-7.18564e-05	
-0.00957089	0.00192895	7.71896e-05	
0.000463527	-0.00188494	-0.000219548	
-8.97528e-05	-0.00161818	-7.51845e-05	
-0.000501497	-0.00189417	0.000302948	
0.000343824	-0.00188952	-0.000195267	
0.000408256	-0.00188555	-0.000245915	
-0.00154325	-0.00134836	0.00062944	
-0.000245606	-0.00183646	9.21076e-05	
-0.000985355	-0.00185804	0.00052829	
-0.000939497	-0.00168906	0.000438519	
-0.000623703	-0.00179155	0.000280857	
0.000228655	-0.0018244	-0.000191199	
-0.00403807	-0.000713547	0.00140469	
-0.00141337	-0.00127784	0.000513604	
-0.00173033	-0.00111913	0.000602836	
-7.90575e-05	-0.00178089	-4.61796e-05	
-0.000193128	-0.00117111	-0.000210532	
-3.75959e-05	-0.00183566	-2.61567e-05	
-0.000245909	-0.000882253	-0.000434784	
-2.10377e-05	-0.00186483	-1.49359e-05	
-0.00016868	-0.00131795	-0.00014906	
-4.83458e-05	-0.00181866	-4.0014e-05	
-0.017116	0.00474567	-0.000916082	
-0.00107606	-0.00150291	0.000427475	
-0.000159126	-0.000616285	-0.000429003	
-0.000134779	-0.00149601	-0.000101651	
0.0231787	0.00616266	0.00156344	
0.00387828	-0.000914348	-0.00135178	
0.000861193	-0.0017057	-0.000313091	
0.000225955	-0.00180578	-2.69857e-07	
-1.34742e-05	-0.00194546	2.13948e-05	
9.61831e-05	-0.00175712	8.27281e-05	
0.00128451	-0.00193092	-0.000708175	
-0.00152705	-0.00196651	0.000878572	
0.000372369	-0.00166506	7.99371e-06	
-7.98735e-05	-0.00195714	6.74068e-05	
0.000802819	-0.00196503	-0.000435295	
0.00111899	-0.00182727	-0.000518616	
0.000152111	-0.00192829	-2.41208e-05	
0.000271643	-0.00189428	-7.94768e-05	
4.16749e-05	-0.00194745	3.18744e-05	
0.00231295	-0.000934291	-0.000599832	
0.000656359	-0.00160861	-7.6784e-05	
0.00171588	-0.00136519	-0.000438161	
0.00023103	-0.001599	0.000226237	
2.12721e-05	-0.00192976	2.45012e-06	
0.00334129	-0.00062307	-0.000859883	
4.6911e-06	-0.00194173	1.12048e-05	
0.000108474	-0.00194334	-3.45577e-05	
0.00405058	0.000300711	0.000238577	
7.9193e-05	-0.0018919	5.64068e-05	
0.00406945	-6.83912e-05	-0.000194471	
0.00115149	-0.00164086	-0.000466771	
5.85776e-06	-0.00197861	7.20659e-06	
0.000106486	-0.0017099	8.59361e-05	
0.000216948	-0.000780593	0.000468603	
-1.58827e-05	-0.00193961	6.80584e-05	
-0.00665101	0.000208283	0.00139354	
-0.000478956	-0.00173609	7.52058e-05	
-0.000156136	-0.00182644	-3.9002e-05	
-0.00995775	0.00198952	1.18552e-05	
0.000466041	-0.00193914	-0.000216739	
-0.000104777	-0.00177181	-9.65318e-05	
-0.000497668	-0.00194042	0.000300466	
0.000374929	-0.00194213	-0.000213229	
0.000416851	-0.00197609	-0.000252641	
-0.00163541	-0.00159333	0.00062192	
-0.000256769	-0.00196698	8.93543e-05	
-0.00101749	-0.00197807	0.000537846	
-0.000985422	-0.00183889	0.000439686	
-0.000681466	-0.00189227	0.000300193	
0.000207019	-0.00195573	-0.000186656	
-0.00436306	-0.000767456	0.00148523	
-0.00152275	-0.00154886	0.000494547	
-0.0020437	-0.00127878	0.000690841	
-8.83774e-05	-0.00189738	-5.7953e-05	
-0.00022361	-0.0013102	-0.000255516	
-4.09113e-05	-0.00194507	-3.08951e-05	
-0.000265012	-0.000922505	-0.000464969	
-2.34371e-05	-0.00198164	-1.8464e-05	
-0.000213063	-0.00159633	-0.000199103	
-5.44296e-05	-0.00194163	-4.88608e-05	
-0.0176424	0.00462988	-0.00102863	
-0.00112444	-0.00168764	0.000413076	
-0.000166388	-0.000626221	-0.000436029	
-0.000160437	-0.00169987	-0.000135857	
0.0237793	0.00637571	0.0017777	
0.00411339	-0.000743394	-0.00146459	
0.00102426	-0.00181052	-0.000368837	
0.000298631	-0.00193727	-1.82514e-05	
4.03991e-05	-0.00219942	-4.28587e-06	
0.000110952	-0.00190379	0.000101652	
0.00128891	-0.00219299	-0.000694175	
-0.00145036	-0.00218565	0.000824333	
0.000581231	-0.00164067	-8.76968e-05	
-4.13371e-05	-0.00211328	4.94329e-05	
0.000807259	-0.00211486	-0.000430826	
0.00115127	-0.00194209	-0.000514101	
0.000202638	-0.00206141	-4.47829e-05	
0.000336294	-0.00204348	-0.00010334	
4.7129e-05	-0.00208484	3.58978e-05	
0.00246204	-0.00081515	-0.000663028	
0.000713298	-0.00148124	-0.000110587	
0.00178486	-0.00117224	-0.000501501	
0.000216062	-0.0014389	0.000212427	
2.46603e-05	-0.00210482	3.90081e-06	
0.00348606	-0.000507215	-0.000927314	
6.54493e-06	-0.0021993	1.44844e-05	
0.000118302	-0.00223584	-3.32725e-05	
0.00417776	0.000441223	0.000214702	
8.65702e-05	-0.00199496	6.35414e-05	
0.0042341	8.77823e-05	-0.000248112	
0.00121584	-0.00167184	-0.000471486	
7.25592e-06	-0.00212125	7.7196e-06	
0.000117804	-0.00176661	0.000101986	
0.000206507	-0.000722664	0.000433501	
-5.60534e-05	-0.00224145	0.000103297	
-0.00694588	0.00042236	0.00151233	
-0.000648485	-0.00182675	0.000138084	
-0.000275574	-0.00197035	3.71157e-06	
-0.0102814	0.00221598	-9.26195e-06	
0.000464354	-0.00220681	-0.000206293	
-0.000121324	-0.00192548	-0.00011715	
-0.000469739	-0.00220266	0.000284127	
0.000362617	-0.00222335	-0.000203637	
0.000358171	-0.00221581	-0.000218849	
-0.0018714	-0.0015368	0.000722736	
-0.000303204	-0.00213802	0.000104797	
-0.00102537	-0.00214664	0.000530435	
-0.000993548	-0.00201186	0.000413952	
-0.000756233	-0.00206485	0.000324291	
0.000174277	-0.00211594	-0.000176714	
-0.00463609	-0.000607448	0.00162381	
-0.00161926	-0.00140015	0.000547368	
-0.00221961	-0.00115132	0.000783245	
-9.85986e-05	-0.00203554	-6.81348e-05	
-0.000219842	-0.00122772	-0.000245258	
-4.72619e-05	-0.00213757	-3.67237e-05	
-0.000254987	-0.000860569	-0.000434873	
-2.73042e-05	-0.00215583	-2.0265e-05	
-0.000196835	-0.00141976	-0.000186881	
-6.22112e-05	-0.00209556	-5.65732e-05	
-0.018044	0.00477567	-0.0013435	
-0.00117948	-0.00173238	0.000415908	
-0.000159575	-0.000574135	-0.000396968	
-0.000172624	-0.00172932	-0.000153283	
0.0242396	0.00676664	0.00177507	
0.00424952	-0.000404708	-0.00159424	
0.00103899	-0.00139855	-0.000404982	
0.000339334	-0.00142863	-7.32242e-05	
5.06363e-05	-0.00160073	-1.42712e-05	
8.85199e-05	-0.00143203	8.22226e-05	
0.00132784	-0.00155098	-0.000723064	
-0.0014846	-0.00151687	0.000842178	
0.000639196	-0.00121382	-0.00016571	
-2.47683e-05	-0.00148676	3.46561e-05	
0.000861556	-0.00155154	-0.000467282	
0.00112726	-0.00147059	-0.000524252	
0.000203058	-0.00145464	-6.38694e-05	
0.000282903	-0.00145356	-9.56881e-05	
3.44253e-05	-0.00146568	2.80865e-05	
0.00253999	-0.000548026	-0.00077067	
0.000724238	-0.00116132	-0.000164582	
0.0018454	-0.000847422	-0.000602962	
0.00017825	-0.0011472	0.000169248	
1.88835e-05	-0.00148028	2.96187e-06	
0.00355754	-0.000279587	-0.00103396	
5.22621e-06	-0.00152042	1.08227e-05	
0.000128848	-0.00156322	-4.89914e-05	
0.00426985	0.000621419	0.000146599	
6.71293e-05	-0.00149799	4.95838e-05	
0.00433972	0.000293953	-0.000336521	
0.00132084	-0.00123095	-0.000556652	
4.94424e-06	-0.00154838	7.12377e-06	
0.000100833	-0.0014079	8.6625e-05	
0.000171067	-0.000580992	0.000343912	
-2.08346e-05	-0.00157986	6.04453e-05	
-0.00716983	0.000675559	0.00162596	
-0.000712057	-0.00151911	0.000197218	
-0.000334113	-0.00159719	5.63988e-05	
-0.0105369	0.0025336	-2.91221e-05	
0.000461649	-0.00163121	-0.000220545	
-0.000103744	-0.0015523	-9.89926e-05	
-0.000500736	-0.00163638	0.000296616	
0.000358346	-0.00160438	-0.000203418	
0.000401663	-0.00160574	-0.000241239	
-0.00192505	-0.00118587	0.000790538	
-0.000305306	-0.00162122	0.000118727	
-0.00104248	-0.00166318	0.000550754	
-0.00100845	-0.00160399	0.00044295	
-0.000693637	-0.00161352	0.000307667	
0.000186351	-0.00161547	-0.000168155	
-0.00487843	-0.000377758	0.00177915	
-0.00162685	-0.00117132	0.000586515	
-0.00240423	-0.00106849	0.000880646	
-8.27526e-05	-0.00167223	-5.77003e-05	
-0.000200372	-0.00107819	-0.000215817	
-3.84986e-05	-0.00161088	-2.75674e-05	
-0.000227649	-0.000739265	-0.000366082	
-2.16938e-05	-0.00164551	-1.57873e-05	
-0.000181988	-0.00127307	-0.000167033	
-5.06162e-05	-0.0016207	-4.53027e-05	
-0.0183853	0.00502384	-0.00142143	
-0.00127135	-0.00142553	0.000494629	
-0.000146548	-0.000502796	-0.00034483	
-0.000144613	-0.00136695	-0.000123398	
0.0247893	0.00704762	0.0018088	
0.00437716	-0.000521527	-0.00158772	
0.00123809	-0.00136012	-0.000499919	
0.000383782	-0.00154323	-7.76925e-05	
6.2145e-05	-0.00135473	-2.1445e-05	
9.82178e-05	-0.0015091	9.51296e-05	
0.00131712	-0.00134722	-0.000705199	
-0.00155513	-0.00140358	0.000863999	
0.000759831	-0.00122032	-0.00021914	
-4.85469e-05	-0.00151132	5.20946e-05	
0.000808467	-0.00148204	-0.000428041	
0.00114135	-0.00151647	-0.000516176	
0.000175603	-0.00152904	-4.13577e-05	
0.000291775	-0.00155146	-9.13398e-05	
3.7829e-05	-0.00151747	3.10852e-05	
0.00269002	-0.000628093	-0.000776444	
0.000767326	-0.00114038	-0.000185147	
0.00191655	-0.000858378	-0.000624818	
0.00017947	-0.00113241	0.000166978	
2.08042e-05	-0.00148328	5.69022e-06	
0.00372643	-0.000349947	-0.00101843	
5.39449e-06	-0.00138095	9.23192e-06	
0.00013452	-0.00135853	-5.75509e-05	
0.00441028	0.000662696	0.000177021	
7.14635e-05	-0.00155578	5.55655e-05	
0.00451339	0.00032634	-0.000334077	
0.00136681	-0.00123216	-0.000568797	
4.25999e-06	-0.00143564	7.01732e-06	
0.000100022	-0.00132964	8.66779e-05	
0.000206528	-0.000679789	0.00039137	
-2.88058e-05	-0.00136549	5.17259e-05	
-0.007395	0.000849458	0.00170695	
-0.000826194	-0.00116901	0.000290545	
-0.000388926	-0.00125528	0.000104712	
-0.0108034	0.00278184	-1.39376e-05	
0.000468753	-0.0013658	-0.000230852	
-8.91102e-05	-0.00126155	-8.46403e-05	
-0.000494476	-0.00137509	0.000284256	
0.000388829	-0.00138428	-0.000219176	
0.000438315	-0.0014165	-0.000258812	
-0.00202035	-0.000908012	0.000863457	
-0.000359424	-0.00151958	0.00014772	
-0.00095244	-0.0014932	0.000494658	
-0.00105055	-0.00130347	0.000476176	
-0.000766328	-0.00142603	0.000351765	
0.000154885	-0.0014929	-0.000146237	
-0.0050054	-0.000249671	0.00183891	
-0.0016586	-0.000868869	0.000647248	
-0.00238709	-0.000673616	0.000954141	
-6.88868e-05	-0.00139189	-4.93332e-05	
-0.000172118	-0.000904129	-0.000178207	
-3.88215e-05	-0.00152956	-2.71392e-05	
-0.000223086	-0.000707364	-0.00034017	
-1.98031e-05	-0.00144867	-1.53737e-05	
-0.00013749	-0.000949639	-0.000123889	
-4.75408e-05	-0.00146397	-4.22458e-05	
-0.0187001	0.00525845	-0.00145528	
-0.00128313	-0.00107665	0.000532904	
-0.000148478	-0.0004869	-0.000325843	
-0.000121212	-0.00110325	-0.000100755	
0.0252467	0.00734601	0.00169527	
0.00452901	-0.000300111	-0.00168874	
0.00133568	-0.00132247	-0.000539715	
0.000442037	-0.00139354	-0.00011219	
0.000160234	-0.00185766	-6.88247e-05	
9.28023e-05	-0.00138048	9.13537e-05	
0.00134322	-0.00178844	-0.000695418	
-0.00152223	-0.00173587	0.000829905	
0.000904279	-0.00110775	-0.000300815	
0.000109779	-0.00161764	-2.65447e-05	
0.000847125	-0.0017295	-0.000435282	
0.00115615	-0.00141797	-0.000513367	
0.000225117	-0.00152994	-6.08077e-05	
0.000353653	-0.00151912	-0.000120775	
4.10032e-05	-0.00156402	3.47231e-05	
0.00277221	-0.000438868	-0.000862898	
0.000769933	-0.00103989	-0.000198116	
0.00196361	-0.000779815	-0.000657148	
0.000169712	-0.00106111	0.000157223	
2.43809e-05	-0.00169986	1.30987e-05	
0.0037783	-0.000153795	-0.00112694	
7.82365e-06	-0.00178309	1.25427e-05	
0.000138325	-0.00187265	-5.19077e-05	
0.00449	0.000821911	0.000104588	
6.82245e-05	-0.00146715	5.93002e-05	
0.00460996	0.00051816	-0.000431314	
0.00143866	-0.00116036	-0.000596475	
5.80724e-06	-0.00174425	1.02794e-05	
0.000100904	-0.00129453	8.79105e-05	
0.000173686	-0.000560352	0.000311298	
-6.7601e-05	-0.00186926	8.66416e-05	
-0.00760953	0.00100953	0.00179747	
-0.000975546	-0.00142194	0.000328419	
-0.000367939	-0.00147733	6.78236e-05	
-0.0110502	0.00297153	1.33062e-05	
0.000405373	-0.00183197	-0.000182248	
-0.000107321	-0.00148224	-0.000103305	
-0.000511612	-0.00176781	0.000286417	
0.000306876	-0.00174631	-0.000170472	
0.000424355	-0.00166925	-0.000250365	
-0.0021957	-0.00106339	0.000906204	
-0.000503541	-0.00146543	0.000219008	
-0.00104946	-0.00161165	0.000532595	
-0.00103512	-0.00142129	0.000444829	
-0.000776046	-0.00143098	0.000346895	
0.000148836	-0.00143602	-0.000142287	
-0.00534732	-0.000205491	0.00197132	
-0.00171151	-0.00102553	0.000629002	
-0.00247674	-0.00085922	0.000941916	
-7.06904e-05	-0.00143126	-5.62674e-05	
-0.000207807	-0.00108211	-0.000211357	
-4.2791e-05	-0.00155588	-3.00703e-05	
-0.000220796	-0.000693711	-0.000324899	
-2.38795e-05	-0.00165377	-1.95397e-05	
-0.000166604	-0.00114695	-0.000150127	
-4.78726e-05	-0.00143376	-4.29499e-05	
-0.0190472	0.00543695	-0.00143674	
-0.00137953	-0.00129878	0.000540511	
-0.000150581	-0.000474305	-0.000308292	
-0.000145539	-0.00129621	-0.000119569	
0.0255957	0.00762766	0.0014643	
0.00445309	7.60477e-05	-0.00173602	
0.00132661	-0.000792631	-0.000574787	
0.000591857	-0.000892871	-0.000225161	
6.90304e-05	-0.00118837	-2.53363e-05	
5.8367e-05	-0.000864194	5.78042e-05	
0.00138421	-0.00123693	-0.000709021	
-0.00154613	-0.00127602	0.000822305	
0.000899562	-0.00074629	-0.000337545	
0.00010914	-0.00116363	-3.23444e-05	
0.000922807	-0.00118296	-0.000473706	
0.00124956	-0.000998447	-0.000571762	
0.000256885	-0.00114197	-9.06179e-05	
0.000328918	-0.00111389	-0.000122069	
3.1335e-05	-0.00115383	2.68786e-05	
0.00283154	-0.000215161	-0.000950502	
0.000820237	-0.000717882	-0.000272117	
0.0019826	-0.000369855	-0.000749005	
0.000107192	-0.00067839	9.97112e-05	
1.77225e-05	-0.00115149	1.10881e-05	
0.0038113	5.17844e-05	-0.00123419	
5.92558e-06	-0.00121746	9.12156e-06	
0.000135811	-0.00116281	-5.72283e-05	
0.0045365	0.000995172	1.63446e-05	
5.2892e-05	-0.001135	4.78262e-05	
0.0046634	0.000701768	-0.000547259	
0.00149215	-0.000711182	-0.000650484	
4.8397e-06	-0.00122539	1.02099e-05	
6.72231e-05	-0.000855466	5.88118e-05	
0.000129345	-0.000413476	0.000221391	
-5.28987e-05	-0.0011701	5.99063e-05	
-0.0076952	0.00127705	0.00195667	
-0.000941146	-0.000822501	0.000375687	
-0.000498627	-0.000906876	0.000180687	
-0.0111989	0.00323156	0.000146335	
0.000481295	-0.00119961	-0.000231195	
-6.38502e-05	-0.000877216	-6.13744e-05	
-0.000550315	-0.0012781	0.000300352	
0.000356681	-0.00124383	-0.000194206	
0.000370097	-0.00129475	-0.000213239	
-0.00222036	-0.000616321	0.000960828	
-0.000522549	-0.00114956	0.000232504	
-0.00113585	-0.00117582	0.00057487	
-0.00111872	-0.0010002	0.000506271	
-0.000767807	-0.00109703	0.000349496	
0.000139834	-0.00114458	-0.000123665	
-0.00533055	0.000149849	0.00209381	
-0.00177009	-0.000610462	0.000712975	
-0.00251371	-0.000352277	0.0010573	
-5.5237e-05	-0.00113344	-4.65227e-05	
-0.000108275	-0.00056606	-0.000109258	
-3.32209e-05	-0.00115101	-2.35358e-05	
-0.000149844	-0.000473331	-0.000213662	
-1.92804e-05	-0.00123553	-1.5162e-05	
-9.64853e-05	-0.000669493	-8.65174e-05	
-3.83509e-05	-0.00112923	-3.50977e-05	
-0.0193076	0.00563495	-0.00125643	
-0.0014147	-0.000799791	0.000605701	
-0.000111863	-0.000340746	-0.000208145	
-9.11048e-05	-0.000805733	-7.56549e-05	
0.0261343	0.00781017	0.00132672	
0.00462218	-0.000194174	-0.00169652	
0.00142275	-0.00120321	-0.000560477	
0.000667234	-0.00127526	-0.000224015	
-1.47166e-05	-0.00148766	2.06236e-05	
8.60968e-05	-0.0012773	8.52678e-05	
0.00138193	-0.00152801	-0.000680798	
-0.00145939	-0.00150909	0.000756919	
0.00118551	-0.00111767	-0.000417506	
8.15485e-05	-0.00147445	-9.28965e-06	
0.000968793	-0.00144855	-0.000478816	
0.00131667	-0.00128857	-0.000567102	
0.000266176	-0.00148606	-8.00978e-05	
0.000456737	-0.0014652	-0.000166213	
4.02004e-05	-0.0014638	3.39348e-05	
0.00290594	-0.000391264	-0.000898795	
0.000908451	-0.000969302	-0.000265187	
0.00211398	-0.000652551	-0.000723608	
0.000149524	-0.000964729	0.000139319	