<VTKFile type="UnstructuredGrid" version="0.1" byte_order="LittleEndian">
	<UnstructuredGrid>
		<Piece NumberOfPoints="720" NumberOfCells="720">
			<CellData Scalars="scalars">
				<DataArray type="Float64" Name="Strength" NumberOfComponents="3" Format="ascii">
0.0170178	-0.0111169	-0.000646003	
0.00262509	-0.0237962	0.00155157	
0.000548074	-0.0252613	0.000410958	
-0.00028371	-0.0265027	0.000569019	
-0.000377656	-0.0260913	0.000244784	
0.000259548	-0.0258385	0.000411606	
0.00126119	-0.026465	-0.000385304	
-0.00152472	-0.0257385	0.000680139	
-9.14695e-05	-0.025184	0.00109715	
0.000133915	-0.0254867	7.75054e-05	
0.000751705	-0.0264285	-0.00032294	
0.000956604	-0.0254682	-0.000116636	
5.45482e-05	-0.026817	0.000191731	
0.000329323	-0.0263174	0.000195784	
0.000183773	-0.0261214	0.000134463	
0.00145546	-0.0225137	0.00260278	
0.000756476	-0.0255185	0.00112725	
0.00140427	-0.024365	0.00157914	
0.000655614	-0.0253884	0.00158798	
0.000148715	-0.0259332	6.76913e-06	
0.00237195	-0.0215568	0.00315436	
-2.95795e-06	-0.025228	7.09329e-05	
-6.44828e-06	-0.0260078	0.000145258	
0.00330795	-0.0152261	0.00353094	
0.000227451	-0.0261899	0.000277456	
0.00279373	-0.0175926	0.00387844	
0.00106077	-0.0249984	0.000276901	
7.27405e-05	-0.0267357	-8.0642e-05	
0.000350551	-0.0256893	0.000589043	
0.000517104	-0.019664	0.00429845	
8.96529e-05	-0.0260435	0.000282441	
-0.00422478	-0.0194626	-0.00312385	
-0.000289724	-0.0255221	-0.000737546	
0.000248016	-0.0264827	-0.000510506	
-0.00708769	-0.0153025	-0.00254756	
0.000506201	-0.0262379	-3.4439e-05	
-0.000312732	-0.0259332	-0.000440989	
-0.000578196	-0.0267209	0.000247893	
0.000383501	-0.0261719	-0.000153765	
0.000541212	-0.0266069	-0.000247803	
-0.000946531	-0.0249019	-0.000769188	
-0.000197187	-0.0255741	-0.000158228	
-0.000981745	-0.0265717	0.000250447	
-0.000822309	-0.025566	7.68118e-05	
-0.000773224	-0.0261901	-1.23137e-05	
0.000271272	-0.0261202	-0.000357797	
-0.00277496	-0.0224362	-0.00211338	
-0.00123945	-0.024932	-0.000902704	
-0.00101579	-0.0237938	-0.00144858	
-0.000292863	-0.026118	-0.000244202	
-0.000518155	-0.0238325	-0.00223677	
-0.000113703	-0.0260305	-0.000206617	
-0.000636477	-0.021269	-0.00395476	
-4.14322e-05	-0.0271122	-8.16473e-05	
-0.000479213	-0.0243523	-0.00147151	
-0.000158449	-0.0266221	-0.000237582	
-0.0135842	-0.0114701	1.43139e-05	
-0.00106035	-0.0260853	-0.000463899	
-0.000883712	-0.0176519	-0.00481929	
-0.000423319	-0.0253928	-0.000907229	
0.018378	0.000318664	-0.00405554	
0.00240575	-0.00403218	-0.000825421	
0.00038158	-0.00486963	-9.05331e-05	
-0.000289109	-0.00493797	0.000253544	
-0.000165768	-0.00521424	0.000110744	
6.15651e-05	-0.00490351	6.27628e-05	
0.00118628	-0.00511628	-0.000650582	
-0.00142878	-0.00513812	0.000828516	
-0.000272265	-0.004679	0.000358249	
-6.71111e-05	-0.00511571	6.61873e-05	
0.000650504	-0.00507052	-0.000373297	
0.000772595	-0.00506523	-0.000394694	
-6.2586e-05	-0.00505478	8.89865e-05	
0.0001541	-0.0051058	-2.30051e-05	
3.01917e-05	-0.0050763	3.55327e-05	
0.00137935	-0.00379412	-0.000163096	
0.000342243	-0.00455297	7.61706e-05	
0.00106767	-0.00421015	-0.000188608	
0.0001702	-0.00449141	0.000257142	
2.67187e-05	-0.00496448	-4.1375e-06	
0.00227838	-0.00345332	-0.000466662	
4.54415e-07	-0.00504002	1.10565e-05	
7.50194e-05	-0.00523834	-1.25143e-05	
0.00304323	-0.0019314	-0.000337129	
5.33943e-05	-0.0051436	4.93306e-05	
0.00282517	-0.00245914	-0.000391565	
0.000761972	-0.00473269	-0.000283647	
2.71659e-06	-0.00510195	-8.14131e-06	
7.11291e-05	-0.00482659	9.2286e-05	
0.000246159	-0.00307845	0.000597147	
2.09955e-05	-0.00527017	5.49256e-05	
-0.00443316	-0.00296283	0.00122499	
-5.21355e-05	-0.00490959	-0.000136186	
0.000341978	-0.00496727	-0.000276907	
-0.00724783	-0.00159422	0.00180161	
0.000447913	-0.00525128	-0.000216808	
-5.93197e-05	-0.00491895	-7.79584e-05	
-0.000499974	-0.00521242	0.000293566	
0.000370389	-0.00517154	-0.000213725	
0.000461082	-0.00519096	-0.000269553	
-0.000792717	-0.00459002	0.000210213	
-0.000155023	-0.00512098	4.13959e-05	
-0.000874898	-0.00518089	0.000478507	
-0.000629354	-0.00503136	0.000306457	
-0.000468836	-0.00508742	0.000194879	
0.000334734	-0.00504896	-0.000248848	
-0.00274137	-0.00380129	0.000857746	
-0.000964196	-0.0044998	0.000261378	
-0.000900422	-0.0042918	0.000134399	
-5.06806e-05	-0.00513892	-5.19649e-05	
-0.000188033	-0.00404732	-0.000334689	
-4.0729e-05	-0.00505402	-2.65659e-05	
-0.000259097	-0.003462	-0.000578395	
-1.74882e-05	-0.00516485	-1.33686e-05	
-0.000144156	-0.00436418	-0.000244705	
-3.66249e-05	-0.00506078	-4.74559e-05	
-0.0142709	-0.000105591	0.00321146	
-0.000778304	-0.00486372	0.000269006	
-0.000289735	-0.00254504	-0.000611218	
-0.000106995	-0.00474798	-0.000141898	
0.0192477	0.00213261	-0.0040054	
0.0024893	-0.00156804	-0.00117621	
0.000402003	-0.00210818	-0.000177527	
-0.000242947	-0.00217654	0.000175899	
-0.000120336	-0.00235427	6.90026e-05	
3.25393e-05	-0.00213991	1.8888e-05	
0.00120825	-0.00232049	-0.000675341	
-0.0014492	-0.00232308	0.000824587	
-0.000210676	-0.00199824	0.000194209	
-9.80008e-05	-0.00230681	6.55203e-05	
0.000670454	-0.00231093	-0.000381923	
0.000793047	-0.00222542	-0.000434337	
-5.25614e-05	-0.00226953	5.06119e-05	
0.000137454	-0.00227835	-5.2104e-05	
1.45839e-05	-0.00229471	1.42182e-05	
0.00142196	-0.00150983	-0.000551382	
0.000326837	-0.00192308	-8.93652e-05	
0.00107942	-0.00172456	-0.000461708	
0.000100965	-0.00189153	7.02706e-05	
9.87227e-06	-0.00226545	-8.37539e-07	
0.00235031	-0.00131154	-0.000913517	
1.30821e-06	-0.00230339	2.69652e-06	
8.34411e-05	-0.00236475	-3.7592e-05	
0.00310726	-0.000500473	-0.000693834	
2.50638e-05	-0.00227993	1.97435e-05	
0.00293365	-0.000779136	-0.000822439	
0.000782099	-0.00202301	-0.000400799	
-1.65918e-06	-0.00231433	-3.72684e-07	
4.01553e-05	-0.00209213	2.6175e-05	
0.000146406	-0.00125409	0.000187888	
4.68095e-06	-0.00237465	2.70789e-05	
-0.00466308	-0.000879569	0.00176747	
-5.39846e-05	-0.00213271	-3.65228e-05	
0.000299766	-0.00218259	-0.000209192	
-0.00757995	0.00013681	0.00208694	
0.000440831	-0.00236995	-0.000234081	
-3.36653e-05	-0.00214914	-2.63417e-05	
-0.000498561	-0.00236274	0.000289403	
0.000364148	-0.00236005	-0.000210549	
0.000445002	-0.00235889	-0.000259563	
-0.000883424	-0.00195373	0.000423369	
-0.000154843	-0.00231951	7.01054e-05	
-0.000889749	-0.00234366	0.000505585	
-0.000658961	-0.00222217	0.000354609	
-0.000450102	-0.00227481	0.000224198	
0.000320687	-0.00229967	-0.000206256	
-0.002882	-0.00142407	0.00130466	
-0.00098927	-0.00188883	0.000456902	
-0.000992139	-0.00174564	0.000420322	
-2.60133e-05	-0.00227962	-2.27657e-05	
-0.000107773	-0.0016731	-8.29462e-05	
-2.29802e-05	-0.00229751	-5.90092e-06	
-0.000150151	-0.00139931	-0.00018207	
-1.09775e-05	-0.00234252	-1.47808e-06	
-8.0392e-05	-0.00184544	-6.11114e-05	
-1.84819e-05	-0.00227563	-1.73501e-05	
-0.0148958	0.00150926	0.00316195	
-0.000784099	-0.00210184	0.000382657	
-0.000161408	-0.00104184	-0.000194175	
-6.47582e-05	-0.00205794	-3.51596e-05	
0.0203685	0.00257661	-0.00372697	
0.00275721	-0.00176896	-0.00124399	
0.000490702	-0.00238034	-0.000211593	
-0.000178081	-0.00245579	0.000126395	
-9.05431e-05	-0.00261374	4.03448e-05	
3.3716e-05	-0.00241741	1.48198e-05	
0.00125468	-0.00258724	-0.000647005	
-0.00149326	-0.00258594	0.000782131	
-0.000108411	-0.0022393	0.000137755	
-0.00011014	-0.00259643	6.49835e-05	
0.000696095	-0.00259214	-0.000366739	
0.000854785	-0.00249547	-0.000433193	
-1.78279e-05	-0.00256155	2.26781e-05	
0.000156298	-0.0025559	-6.29269e-05	
1.75249e-05	-0.00258262	9.38869e-06	
0.00160536	-0.0016896	-0.000624687	
0.000377894	-0.00215094	-0.000114411	
0.00119461	-0.00194669	-0.000493885	
9.72619e-05	-0.00211054	7.4541e-05	
9.02579e-06	-0.00255493	-4.29006e-06	
0.00257144	-0.00145672	-0.00098293	
1.59555e-06	-0.00257727	3.97938e-06	
9.14525e-05	-0.00261317	-4.29087e-05	
0.00334738	-0.000528219	-0.00073876	
2.64407e-05	-0.00254486	1.61916e-05	
0.00319875	-0.000853167	-0.000900859	
0.000848864	-0.00227587	-0.00040534	
-1.60966e-06	-0.0025827	6.60017e-07	
4.16097e-05	-0.00234657	1.79244e-05	
0.000167137	-0.00141051	0.000193204	
-1.11774e-06	-0.00261721	3.05572e-05	
-0.00510901	-0.000958997	0.00191001	
-0.000129889	-0.00239182	7.87493e-06	
0.000241382	-0.00245414	-0.00015618	
-0.00817228	0.000231482	0.00215225	
0.000451271	-0.00262122	-0.000221475	
-3.598e-05	-0.00241949	-2.2906e-05	
-0.000510233	-0.00261828	0.000267597	
0.000367155	-0.00261635	-0.000194903	
0.000446205	-0.00261339	-0.000241853	
-0.00104184	-0.00219441	0.000478361	
-0.000167785	-0.00260241	7.38922e-05	
-0.000921657	-0.00260708	0.000483892	
-0.000717182	-0.00249623	0.000361701	
-0.000484952	-0.00255176	0.000229548	
0.000296416	-0.00258584	-0.000175336	
-0.00319987	-0.00161371	0.00139654	
-0.00110047	-0.00210617	0.000485446	
-0.00117754	-0.00195867	0.000488247	
-2.70716e-05	-0.00254452	-1.66621e-05	
-0.000107753	-0.00189496	-8.2156e-05	
-2.46307e-05	-0.00257305	8.53071e-09	
-0.000170501	-0.00158612	-0.000189896	
-1.21067e-05	-0.00260044	5.11961e-07	
-7.37198e-05	-0.00207465	-6.58337e-05	
-2.05732e-05	-0.00256346	-1.04369e-05	
-0.0157023	0.00183186	0.00286096	
-0.000862492	-0.00233407	0.000406142	
-0.000189393	-0.00118923	-0.00019763	
-5.49315e-05	-0.00228768	-4.69817e-05	
0.0212861	0.00257837	-0.00386799	
0.00298425	-0.00151507	-0.00127198	
0.00056513	-0.00209654	-0.000248379	
-0.000123502	-0.00216725	8.81834e-05	
-6.52454e-05	-0.0023436	2.67238e-05	
2.54742e-05	-0.00213211	1.64512e-05	
0.00128223	-0.00232011	-0.000639552	
-0.00152086	-0.0023185	0.000766087	
7.36557e-06	-0.00195982	3.46587e-05	
-0.00010813	-0.00230402	5.73281e-05	
0.000724609	-0.00231736	-0.000368074	
0.000898287	-0.00220619	-0.000444401	
1.22052e-05	-0.00226792	1.03552e-06	
0.00016996	-0.00226128	-7.25443e-05	
1.29423e-05	-0.0022872	3.77449e-06	
0.00174924	-0.00144441	-0.000648305	
0.000415845	-0.00187201	-0.000142145	
0.0012864	-0.00167694	-0.000527586	
7.66074e-05	-0.0018317	5.1629e-05	
7.26595e-06	-0.00227742	-2.46436e-06	
0.00274457	-0.00123185	-0.00100813	
1.76851e-07	-0.00230968	3.61301e-07	
9.61525e-05	-0.00234286	-4.27395e-05	
0.0035165	-0.000378935	-0.000791692	
1.94504e-05	-0.00225006	1.23567e-05	
0.00339064	-0.000673279	-0.000975847	
0.000932214	-0.00198662	-0.000448489	
-1.97392e-07	-0.00231405	-1.11945e-08	
2.88251e-05	-0.00206201	1.22116e-05	
0.000129564	-0.00120233	0.000163732	
-1.25901e-05	-0.0023478	3.30098e-05	
-0.0054817	-0.000755069	0.00199133	
-0.000191295	-0.00210333	5.29536e-05	
0.000187705	-0.00216444	-0.000115621	
-0.00866455	0.000376956	0.00219954	
0.000451014	-0.00235078	-0.000211342	
-2.67904e-05	-0.00213102	-1.94118e-05	
-0.000517825	-0.00234756	0.000265646	
0.000365201	-0.00234197	-0.000184553	
0.00044743	-0.00233915	-0.000229006	
-0.00119727	-0.00190674	0.000555404	
-0.000186977	-0.00230848	8.35113e-05	
-0.000949703	-0.00233219	0.000480391	
-0.000761415	-0.00220253	0.000374363	
-0.000513617	-0.00225756	0.000240953	
0.000282116	-0.00228904	-0.000154329	
-0.0034829	-0.00138688	0.00142846	
-0.00117244	-0.00183438	0.000518211	
-0.00134118	-0.00169318	0.000556013	
-2.08049e-05	-0.00224927	-1.2605e-05	
-8.11395e-05	-0.00163987	-7.1986e-05	
-1.93859e-05	-0.00229383	-3.83053e-06	
-0.000125928	-0.00136412	-0.000159655	
-1.06149e-05	-0.00232871	-7.68813e-07	
-5.64747e-05	-0.00180512	-4.88694e-05	
-1.58215e-05	-0.00227136	-7.54941e-06	
-0.0163525	0.00185809	0.00287718	
-0.0009151	-0.00204645	0.000426714	
-0.000149912	-0.00101436	-0.000164693	
-5.1908e-05	-0.00200246	-1.5827e-05	
0.022118	0.00240327	-0.00377993	
0.00322932	-0.0012595	-0.00118899	
0.000661333	-0.0017939	-0.000256512	
-3.66579e-05	-0.00187727	3.85537e-05	
-4.87737e-05	-0.00208081	1.84282e-05	
1.55666e-05	-0.00183413	2.47299e-05	
0.00132649	-0.00206437	-0.000589157	
-0.00156533	-0.00206426	0.000694027	
0.000110674	-0.00165963	-1.51282e-05	
-0.000113596	-0.00205165	5.58907e-05	
0.000763643	-0.00205898	-0.000338748	
0.000985167	-0.0019357	-0.000433788	
3.10468e-05	-0.00202878	-6.29682e-06	
0.000193613	-0.00202432	-7.77472e-05	
9.19467e-06	-0.00203998	2.90086e-06	
0.00189987	-0.00119581	-0.000611301	
0.000464676	-0.00157608	-0.000150267	
0.00139112	-0.00140164	-0.000492494	
5.64561e-05	-0.00153898	4.94709e-05	
7.66673e-06	-0.00202811	-2.80303e-06	
0.00293049	-0.00102013	-0.00090127	
-7.21685e-07	-0.00206129	8.48345e-07	
9.88702e-05	-0.00207721	-3.8793e-05	
0.00367215	-0.000297338	-0.000766714	
1.42361e-05	-0.00200589	1.26372e-05	
0.00357682	-0.000541374	-0.000939217	
0.00100979	-0.0016909	-0.000410722	
-6.44727e-07	-0.0020558	6.96723e-07	
2.04334e-05	-0.00175509	1.45654e-05	
8.71468e-05	-0.00100485	0.000149422	
-2.31778e-05	-0.00208197	3.24873e-05	
-0.00586125	-0.00060839	0.00184868	
-0.000267171	-0.00179555	6.81963e-05	
0.000105965	-0.00187147	-6.4407e-05	
-0.0091196	0.000380549	0.0020948	
0.00046054	-0.00208714	-0.000193396	
-1.52801e-05	-0.00182951	-3.16492e-05	
-0.000534195	-0.00208635	0.000244867	
0.000364227	-0.00208418	-0.000162807	
0.000451094	-0.00207693	-0.000198952	
-0.00134904	-0.00161894	0.000540302	
-0.000204405	-0.00204912	7.68209e-05	
-0.000993123	-0.00206697	0.000436164	
-0.000843097	-0.00192725	0.000373309	
-0.000556047	-0.00201542	0.000232823	
0.000279626	-0.00203407	-0.00013121	
-0.00377741	-0.00113804	0.00133703	
-0.001258	-0.00154677	0.000497931	
-0.0015138	-0.00141216	0.00054589	
-1.58977e-05	-0.00199799	-9.06041e-06	
-5.65238e-05	-0.00137188	-7.21103e-05	
-1.62376e-05	-0.00203602	-6.01015e-06	
-8.67527e-05	-0.00113832	-0.000141305	
-8.31963e-06	-0.0020629	-3.35863e-06	
-3.92104e-05	-0.00151844	-4.50091e-05	
-1.06519e-05	-0.00202485	-5.54858e-06	
-0.0169322	0.00170708	0.00283185	
-0.000979651	-0.00173968	0.000409564	
-0.000106376	-0.000850718	-0.000151022	
-3.30492e-05	-0.00169739	-3.34879e-05	
0.0228518	0.00204919	-0.00382993	
0.00342556	-0.00110327	-0.00119963	
0.000755881	-0.0015857	-0.000274115	
5.56457e-05	-0.00166488	-1.56943e-06	
-4.73872e-05	-0.00188457	1.71873e-05	
1.27529e-05	-0.00162466	2.14263e-05	
0.00136434	-0.00187956	-0.000547262	
-0.00159062	-0.00187942	0.0006444	
0.000221466	-0.00146472	-5.71135e-05	
-0.000101115	-0.00184086	4.39717e-05	
0.000801664	-0.00186121	-0.000328558	
0.00106973	-0.00172148	-0.000424321	
5.69e-05	-0.00182106	-2.02374e-05	
0.000223636	-0.00181022	-8.01081e-05	
7.36486e-06	-0.00182832	2.9219e-06	
0.0020137	-0.00104729	-0.000626907	
0.000506755	-0.00138822	-0.000157253	
0.00147725	-0.00123023	-0.000511279	
4.34692e-05	-0.00135374	4.58194e-05	
5.55569e-06	-0.00183101	-4.39682e-07	
0.00306266	-0.000900095	-0.000926147	
-2.36265e-07	-0.00187639	7.45361e-07	
0.000102978	-0.00187774	-3.65701e-05	
0.00380308	-0.000258144	-0.000818609	
9.98604e-06	-0.00178728	1.46561e-05	
0.00372589	-0.000471728	-0.000999664	
0.00108006	-0.00149363	-0.000413402	
1.10389e-06	-0.00186295	-6.85715e-08	
1.46012e-05	-0.00155117	1.80039e-05	
6.65048e-05	-0.000888727	0.00012486	
-2.8958e-05	-0.00188145	3.09181e-05	
-0.00614011	-0.000542019	0.00192122	
-0.000350802	-0.00159184	0.000104867	
1.84205e-05	-0.00166476	-2.47906e-05	
-0.00949074	0.000331712	0.00217506	
0.000477176	-0.00188901	-0.000182608	
-1.40586e-05	-0.00162522	-2.12195e-05	
-0.000548038	-0.00189568	0.000228566	
0.000363294	-0.00189334	-0.000146522	
0.000442807	-0.00188843	-0.000183107	
-0.0015015	-0.00143134	0.000563593	
-0.000235786	-0.00184079	8.53579e-05	
-0.00103105	-0.00186763	0.000417538	
-0.000925349	-0.00171881	0.000368149	
-0.000609	-0.00180652	0.000236519	
0.00028	-0.00182612	-0.000122405	
-0.0039981	-0.00100031	0.0013612	
-0.00134604	-0.00136675	0.00048306	
-0.00165856	-0.00123994	0.00058464	
-1.04805e-05	-0.00178598	-1.37144e-05	
-4.30915e-05	-0.00120563	-6.27712e-05	
-1.20421e-05	-0.00183873	-7.99057e-06	
-6.58966e-05	-0.00100742	-0.000119028	
-7.00732e-06	-0.00186776	-4.13185e-06	
-2.87195e-05	-0.00133892	-4.17445e-05	
-6.972e-06	-0.00182233	-6.64381e-06	
-0.0174457	0.0014309	0.00282256	
-0.00104022	-0.00154312	0.00039278	
-8.12368e-05	-0.000755214	-0.000125858	
-2.7482e-05	-0.00150802	-2.62009e-05	
0.0235662	0.00164434	-0.00409447	
0.00379258	-0.00129752	-0.00135552	
0.000818244	-0.00173613	-0.000301962	
0.000151252	-0.00181665	-4.14996e-05	
-2.96125e-05	-0.00194859	1.00876e-05	
1.14264e-05	-0.00176515	2.26535e-05	
0.0013716	-0.00193721	-0.0005569	
-0.00164788	-0.00197194	0.000675743	
0.000266267	-0.00168754	-7.49152e-05	
-0.000108077	-0.0019595	4.83744e-05	
0.000847801	-0.00197099	-0.000351808	
0.00111399	-0.00186004	-0.000448838	
0.000117256	-0.00193339	-4.71972e-05	
0.000233735	-0.00190235	-8.6379e-05	
7.15337e-06	-0.00195117	2.74761e-06	
0.00218538	-0.00117351	-0.000695566	
0.000537053	-0.0016503	-0.000168164	
0.00155714	-0.00152399	-0.000545399	
4.50389e-05	-0.00163404	5.19804e-05	
5.8652e-06	-0.00193278	1.46975e-06	
0.0032244	-0.000980826	-0.00100999	
-3.61062e-08	-0.00194458	7.01661e-07	
9.88385e-05	-0.00194717	-3.60756e-05	
0.00395091	-0.000320905	-0.000903111	
8.2792e-06	-0.00189764	1.52939e-05	
0.00389111	-0.000533576	-0.00110303	
0.00111687	-0.00168542	-0.00043197	
1.9469e-06	-0.00198176	7.79801e-08	
1.3387e-05	-0.00171897	2.01185e-05	
5.69329e-05	-0.000929949	0.000118429	
-4.10931e-05	-0.00194347	3.4941e-05	
-0.0064559	-0.000615551	0.00210496	
-0.00040097	-0.00175712	0.000126765	
-7.20332e-05	-0.00183562	1.2795e-05	
-0.00987197	0.000198818	0.00233724	
0.000480769	-0.00194326	-0.000188298	
-1.28002e-05	-0.00178103	-2.29504e-05	
-0.000546787	-0.00194218	0.000230873	
0.000398516	-0.00194633	-0.000163109	
0.00045556	-0.00197912	-0.000190342	
-0.00156883	-0.00168615	0.000596412	
-0.000243597	-0.00197197	8.96997e-05	
-0.00106597	-0.00198824	0.000437744	
-0.000961869	-0.00187201	0.000388377	
-0.000664737	-0.00190931	0.000263281	
0.00026307	-0.00195821	-0.000115133	
-0.00430563	-0.00111713	0.00150485	
-0.00142091	-0.00165071	0.000514455	
-0.00195122	-0.00143175	0.000706755	
-8.48638e-06	-0.00190354	-1.4804e-05	
-3.92959e-05	-0.00135473	-6.72931e-05	
-1.16494e-05	-0.00194864	-8.25836e-06	
-5.73695e-05	-0.00106234	-0.000113714	
-7.17668e-06	-0.00198502	-4.235e-06	
-2.77822e-05	-0.00162582	-4.77154e-05	
-5.86998e-06	-0.00194606	-6.34765e-06	
-0.017939	0.00114856	0.002996	
-0.00107175	-0.0017328	0.000410176	
-6.85549e-05	-0.000772152	-0.000116548	
-2.69146e-05	-0.00171626	-2.91956e-05	
0.0241753	0.00132336	-0.00435157	
0.00402979	-0.00120158	-0.00148075	
0.000971234	-0.00185042	-0.000369537	
0.000212346	-0.00195321	-6.94712e-05	
2.34278e-05	-0.00220538	-1.31959e-05	
8.70513e-06	-0.00191535	2.28828e-05	
0.00136857	-0.00220242	-0.000558587	
-0.00156138	-0.00219409	0.000643073	
0.000475281	-0.00167512	-0.000167376	
-7.1539e-05	-0.00211807	3.37515e-05	
0.000849619	-0.00212322	-0.00035401	
0.00113268	-0.00198009	-0.000462547	
0.000163515	-0.00206957	-6.94745e-05	
0.00029287	-0.00205535	-0.00011326	
6.58454e-06	-0.00209077	1.5197e-06	
0.00232918	-0.00109988	-0.000770753	
0.000595723	-0.00152965	-0.000204239	
0.00163514	-0.00135261	-0.000604498	
3.35329e-05	-0.00147468	4.09448e-05	
6.35576e-06	-0.00211003	2.03093e-06	
0.00336165	-0.000922145	-0.00110098	
-4.23012e-07	-0.00220471	4.48429e-07	
0.00010369	-0.00224241	-3.88768e-05	
0.00407052	-0.000317574	-0.000981077	
5.67804e-06	-0.00200305	1.37046e-05	
0.00403986	-0.000500505	-0.00120138	
0.00116775	-0.00172413	-0.000458021	
2.56336e-06	-0.00212646	2.54738e-07	
1.03052e-05	-0.00177874	1.96651e-05	
4.02212e-05	-0.000865805	9.38959e-05	
-9.07276e-05	-0.00224804	5.66013e-05	
-0.00674376	-0.000595153	0.00226954	
-0.000560814	-0.00185708	0.000198387	
-0.00018117	-0.00198617	6.10175e-05	
-0.0101983	0.000111402	0.00249111	
0.000473809	-0.0022138	-0.000186638	
-1.01651e-05	-0.00193862	-2.28366e-05	
-0.000518113	-0.00220706	0.000219364	
0.00038435	-0.00223011	-0.000157771	
0.000392889	-0.00222151	-0.000163423	
-0.00180239	-0.00165225	0.000704851	
-0.000286019	-0.00214585	0.000108557	
-0.00106766	-0.00215997	0.000441645	
-0.000949564	-0.00204959	0.000388113	
-0.000732088	-0.0020867	0.000294374	
0.00023553	-0.00212055	-0.000102943	
-0.00457506	-0.00105826	0.00164906	
-0.00152081	-0.00151647	0.00057336	
-0.00212772	-0.0013348	0.000804703	
-6.24679e-06	-0.00204458	-1.46034e-05	
-2.82002e-05	-0.00127447	-5.60866e-05	
-1.15884e-05	-0.00214347	-9.19778e-06	
-4.14753e-05	-0.000996912	-9.07338e-05	
-7.24938e-06	-0.00216142	-3.92641e-06	
-1.72426e-05	-0.00145028	-3.72474e-05	
-4.59081e-06	-0.00210255	-5.27723e-06	
-0.0183567	0.000908014	0.00315263	
-0.00111151	-0.00178538	0.000434587	
-4.8544e-05	-0.000712255	-9.19109e-05	
-2.16952e-05	-0.00175001	-2.64361e-05	
0.0246426	0.00103637	-0.00463014	
0.00418976	-0.00092913	-0.00157384	
0.000997745	-0.00144291	-0.000393625	
0.000275623	-0.00144675	-0.000104987	
3.57394e-05	-0.0016073	-1.904e-05	
3.7472e-06	-0.0014435	1.439e-05	
0.00140644	-0.00156331	-0.000577902	
-0.00158935	-0.00152661	0.000659897	
0.000558877	-0.00125165	-0.000214511	
-4.74648e-05	-0.00149203	2.18012e-05	
0.000907727	-0.00156097	-0.000381726	
0.00111903	-0.00151115	-0.000464454	
0.000174984	-0.00146324	-7.79724e-05	
0.000249413	-0.00146531	-0.000101463	
2.69234e-06	-0.00147211	-5.68428e-07	
0.00243222	-0.000864259	-0.000845432	
0.00062566	-0.00121251	-0.000233888	
0.00172586	-0.00104845	-0.000665576	
2.01318e-05	-0.00117892	2.383e-05	
4.22835e-06	-0.00148625	1.57364e-06	
0.00345167	-0.000723716	-0.0011787	
1.27289e-07	-0.00152604	-3.23836e-07	
0.000117945	-0.00157032	-4.89628e-05	
0.00416055	-0.000266375	-0.00105301	
1.75612e-06	-0.00150701	8.54183e-06	
0.00414207	-0.000409453	-0.00127202	
0.00129119	-0.0012929	-0.000518861	
2.25965e-06	-0.00155484	3.45481e-07	
4.88196e-06	-0.00142027	1.23902e-05	
2.15027e-05	-0.000697967	5.72415e-05	
-4.51973e-05	-0.00158696	2.96929e-05	
-0.006964	-0.000525273	0.00238537	
-0.000634093	-0.00155491	0.000243149	
-0.000255865	-0.00161647	9.9754e-05	
-0.0104687	4.21275e-05	0.00261901	
0.000473386	-0.0016391	-0.000191919	
-4.48769e-06	-0.00156543	-1.37715e-05	
-0.000546171	-0.00164061	0.000231104	
0.000379397	-0.00161146	-0.000157445	
0.000436049	-0.00161187	-0.000182942	
-0.00187069	-0.00131737	0.000749566	
-0.000291973	-0.00163043	0.000115817	
-0.0010857	-0.0016797	0.000454913	
-0.00097662	-0.00164531	0.000406922	
-0.000673342	-0.00163604	0.000277031	
0.000240813	-0.0016212	-0.000101357	
-0.00482356	-0.000911431	0.00176906	
-0.00153444	-0.00130035	0.000597393	
-0.00230364	-0.00128784	0.00088724	
-1.79284e-06	-0.00168229	-1.02943e-05	
-1.69451e-05	-0.00112271	-3.8367e-05	
-7.71689e-06	-0.001618	-5.70476e-06	
-2.44941e-05	-0.000858436	-5.89406e-05	
-4.74391e-06	-0.0016525	-1.74729e-06	
-8.63213e-06	-0.0013031	-2.52184e-05	
-5.46093e-07	-0.00162868	-1.69776e-06	
-0.0186943	0.000686308	0.00335917	
-0.00121455	-0.00148922	0.000491255	
-2.93555e-05	-0.000627672	-6.06913e-05	
-1.23753e-05	-0.00138607	-1.56836e-05	
0.025111	0.000665531	-0.00488096	
0.00424222	-0.00111734	-0.00158877	
0.00118902	-0.00141897	-0.000478084	
0.000305756	-0.00156644	-0.00012095	
4.67344e-05	-0.00136255	-2.36235e-05	
1.44901e-06	-0.0015248	1.04658e-05	
0.00137667	-0.00136157	-0.000573047	
-0.00164539	-0.00141385	0.000680441	
0.000670026	-0.00126918	-0.000266283	
-7.53141e-05	-0.00151965	3.42397e-05	
0.000842043	-0.00149229	-0.000353471	
0.00111657	-0.00155987	-0.000463233	
0.000138767	-0.00154017	-6.55083e-05	
0.000248768	-0.00156793	-0.000104854	
1.64557e-06	-0.00152702	-2.32666e-06	
0.00252482	-0.00100201	-0.000888007	
0.000657905	-0.00119923	-0.000253027	
0.0017689	-0.00108414	-0.000686789	
1.33719e-05	-0.001166	1.31882e-05	
3.99967e-06	-0.00149195	1.74633e-06	
0.00355187	-0.000874157	-0.00122358	
-3.50327e-07	-0.00138811	-1.1722e-06	
0.000124249	-0.00136765	-5.09077e-05	
0.00427341	-0.000386305	-0.00110118	
-3.35235e-08	-0.00156816	5.33132e-06	
0.00427925	-0.000540545	-0.00130822	
0.00131769	-0.00130569	-0.000535093	
2.55185e-06	-0.00144376	7.91562e-07	
2.15646e-06	-0.00134575	7.13212e-06	
1.39963e-05	-0.000816197	4.27616e-05	
-5.16667e-05	-0.00137243	2.77461e-05	
-0.0071608	-0.000558467	0.0024425	
-0.000767495	-0.00121157	0.000305169	
-0.000326332	-0.00127677	0.000136641	
-0.0107216	-7.56494e-05	0.00273253	
0.000479347	-0.00137544	-0.000199672	
-1.95599e-06	-0.00127605	-8.83917e-06	
-0.000530165	-0.00138029	0.000227581	
0.000408017	-0.00139317	-0.000170766	
0.000471188	-0.00142386	-0.000198044	
-0.00197444	-0.00105699	0.000790157	
-0.000342196	-0.00153285	0.000140512	
-0.000978308	-0.00151133	0.000411043	
-0.00102506	-0.00134669	0.000429218	
-0.000746711	-0.00145388	0.000314114	
0.000205807	-0.00150053	-8.43371e-05	
-0.00492227	-0.00084558	0.00180964	
-0.00158488	-0.00100743	0.000618621	
-0.00231906	-0.000906142	0.000905233	
3.8853e-07	-0.0014028	-5.25824e-06	
-7.69228e-06	-0.00094319	-1.98526e-05	
-5.13395e-06	-0.00153899	-3.6601e-06	
-1.3358e-05	-0.000821033	-3.44696e-05	
-4.81955e-06	-0.00145678	-2.1246e-06	
-1.87529e-06	-0.000973447	-1.07706e-05	
1.41005e-06	-0.00147333	1.98437e-06	
-0.0189692	0.00044967	0.0035565	
-0.00123684	-0.0011485	0.000505502	
-1.6472e-05	-0.000607827	-3.66811e-05	
-6.61599e-06	-0.00112143	-7.6887e-06	
0.0252378	0.000297136	-0.00539273	
0.00421399	-0.000953413	-0.00171631	
0.00120041	-0.00139015	-0.000545577	
0.000346145	-0.00141985	-0.000163103	
0.000130104	-0.00187311	-6.94734e-05	
-1.45315e-06	-0.00139743	5.41666e-06	
0.00129465	-0.0018106	-0.0006084	
-0.0014958	-0.00175141	0.000690861	
0.000775514	-0.00116677	-0.00034308	
7.97381e-05	-0.00163068	-3.47963e-05	
0.000811538	-0.00174315	-0.000388608	
0.00105822	-0.00146242	-0.000490195	
0.000176679	-0.00154311	-8.84238e-05	
0.000293638	-0.00153662	-0.000135808	
2.2762e-06	-0.00157474	-4.44764e-07	
0.00252065	-0.000846185	-0.0009732	
0.000630554	-0.00110311	-0.000268515	
0.00172748	-0.00102624	-0.000736428	
8.61454e-06	-0.00109461	7.25043e-06	
1.51276e-06	-0.00171288	-3.2929e-07	
0.00350561	-0.000722529	-0.0012983	
-5.81475e-07	-0.00179664	-1.6057e-06	
0.000110323	-0.00188733	-5.23712e-05	
0.0042878	-0.00036688	-0.00119321	
-1.35898e-06	-0.00147767	2.58918e-06	
0.00429452	-0.000476047	-0.00138246	
0.00130314	-0.00124351	-0.000585066	
3.08312e-06	-0.00175588	-2.86564e-07	
-5.08392e-07	-0.00131244	3.90946e-06	
4.65477e-06	-0.000670423	2.02802e-05	
-9.17286e-05	-0.00188215	5.23105e-05	
-0.00717869	-0.000602357	0.00253953	
-0.00083531	-0.00147821	0.000376269	
-0.00026792	-0.00150206	0.00012841	
-0.0107616	-0.000261991	0.00298818	
0.000376965	-0.00184753	-0.0001768	
-5.84838e-07	-0.0015012	-7.41838e-06	
-0.000510288	-0.00177818	0.000240534	
0.000296297	-0.0017607	-0.000139867	
0.000423933	-0.00168024	-0.000200111	
-0.00200002	-0.00123857	0.000883103	
-0.000455492	-0.00148286	0.000211134	
-0.00099179	-0.00163441	0.0004774	
-0.000929527	-0.00146664	0.000439034	
-0.000702694	-0.00145981	0.000328584	
0.000185689	-0.00144421	-8.67299e-05	
-0.00504214	-0.000910153	0.00198226	
-0.00151812	-0.00117812	0.000657633	
-0.00225223	-0.00111847	0.000956402	
2.30697e-06	-0.00144163	-2.0118e-06	
-4.55374e-06	-0.00113045	-1.34737e-05	
-1.87902e-06	-0.00156819	-5.7715e-07	
-6.01729e-06	-0.000804535	-1.759e-05	
-3.94487e-06	-0.0016649	-7.1664e-07	
7.28595e-07	-0.00117645	-7.69545e-06	
-3.52168e-07	-0.00144455	-8.17438e-08	
-0.0190266	0.000123943	0.00400643	
-0.0012208	-0.00138438	0.000560176	
-6.90178e-06	-0.000590584	-1.89878e-05	
-4.91451e-06	-0.00132053	-5.23333e-06	
				</DataArray>
				<DataArray type="Float64" Name="Time Step Shed" NumberOfComponents="1" Format="ascii">
3	
3	
3	
3	
3	
3	
3	
3	
3	
3	
3	
3	
3	
3	
3	
3	
3	
3	
3	
3	
3	
3	
3	
3	
3	
3	
3	
3	
3	
3	
3	
3	
3	
3	
3	
3	
3	
3	
3	
3	
3	
3	
3	
3	
3	
3	
3	
3	
3	
3	
3	
3	
3	
3	
3	
3	
3	
3	
3	
3	
4	
4	
4	
4	
4	
4	
4	
4	
4	
4	
4	
4	
4	
4	
4	
4	
4	
4	
4	
4	
4	
4	
4	
4	
4	
4	
4	
4	
4	
4	
4	
4	
4	
4	
4	
4	
4	
4	
4	
4	
4	
4	
4	
4	
4	
4	
4	
4	
4	
4	
4	
4	
4	
4	
4	
4	
4	
4	
4	
4	
5	
5	
5	
5	
5	
5	
5	
5	
5	
5	
5	
5	
5	
5	
5	
5	
5	
5	
5	
5	
5	
5	
5	
5	
5	
5	
5	
5	
5	
5	
5	
5	
5	
5	
5	
5	
5	
5	
5	
5	
5	
5	
5	
5	
5	
5	
5	
5	
5	
5	
5	
5	
5	
5	
5	
5	
5	
5	
5	
5	
6	
6	
6	
6	
6	
6	
6	
6	
6	
6	
6	
6	
6	
6	
6	
6	
6	
6	
6	
6	
6	
6	
6	
6	
6	
6	
6	
6	
6	
6	
6	
6	
6	
6	
6	
6	
6	
6	
6	
6	
6	
6	
6	
6	
6	
6	
6	
6	
6	
6	
6	
6	
6	
6	
6	
6	
6	
6	
6	
6	
7	
7	
7	
7	
7	
7	
7	
7	
7	
7	
7	
7	
7	
7	
7	
7	
7	
7	
7	
7	
7	
7	
7	
7	
7	
7	
7	
7	
7	
7	
7	
7	
7	
7	
7	
7	
7	
7	
7	
7	
7	
7	
7	
7	
7	
7	
7	
7	
7	
7	
7	
7	
7	
7	
7	
7	
7	
7	
7	
7	
8	
8	
8	
8	
8	
8	
8	
8	
8	
8	
8	
8	
8	
8	
8	
8	
8	
8	
8	
8	
8	
8	
8	
8	
8	
8	
8	
8	
8	
8	
8	
8	
8	
8	
8	
8	
8	
8	
8	
8	
8	
8	
8	
8	
8	
8	
8	
8	
8	
8	
8	
8	
8	
8	
8	
8	
8	
8	
8	
8	
9	
9	
9	
9	
9	
9	
9	
9	
9	
9	
9	
9	
9	
9	
9	
9	
9	
9	
9	
9	
9	
9	
9	
9	
9	
9	
9	
9	
9	
9	
9	
9	
9	
9	
9	
9	
9	
9	
9	
9	
9	
9	
9	
9	
9	
9	
9	
9	
9	
9	
9	
9	
9	
9	
9	
9	
9	
9	
9	
9	
10	
10	
10	
10	
10	
10	
10	
10	
10	
10	
10	
10	
10	
10	
10	
10	
10	
10	
10	
10	
10	
10	
10	
10	
10	
10	
10	
10	
10	
10	
10	
10	
10	
10	
10	
10	
10	
10	
10	
10	
10	
10	
10	
10	
10	
10	
10	
10	
10	
10	
10	
10	
10	
10	
10	
10	
10	
10	
10	
10	
11	
11	
11	
11	
11	
11	
11	
11	
11	
11	
11	
11	
11	
11	
11	
11	
11	
11	
11	
11	
11	
11	
11	
11	
11	
11	
11	
11	
11	
11	
11	
11	
11	
11	
11	
11	
11	
11	
11	
11	
11	
11	
11	
11	
11	
11	
11	
11	
11	
11	
11	
11	
11	
11	
11	
11	
11	
11	
11	
11	
12	
12	
12	
12	
12	
12	
12	
12	
12	
12	
12	
12	
12	
12	
12	
12	
12	
12	
12	
12	
12	
12	
12	
12	
12	
12	
12	
12	
12	
12	
12	
12	
12	
12	
12	
12	
12	
12	
12	
12	
12	
12	
12	
12	
12	
12	
12	
12	
12	
12	
12	
12	
12	
12	
12	
12	
12	
12	
12	
12	
13	
13	
13	
13	
13	
13	
13	
13	
13	
13	
13	
13	
13	
13	
13	
13	
13	
13	
13	
13	
13	
13	
13	
13	
13	
13	
13	
13	
13	
13	
13	
13	
13	
13	
13	
13	
13	
13	
13	
13	
13	
13	
13	
13	
13	
13	
13	
13	
13	
13	
13	
13	
13	
13	
13	
13	
13	
13	
13	
13	
14	
14	
14	
14	
14	
14	
14	
14	
14	
14	
14	
14	
14	
14	
14	
14	
14	
14	
14	
14	
14	
14	
14	
14	
14	
14	
14	
14	
14	
14	
14	
14	
14	
14	
14	
14	
14	
14	
14	
14	
14	
14	
14	
14	
14	
14	
14	
14	
14	
14	
14	
14	
14	
14	
14	
14	
14	
14	
14	
14	
				</DataArray>
			</CellData>
			<Points>
				<DataArray type="Float64" Name="Position" NumberOfComponents="3" Format="ascii">
2.34252	2.9038	0.187962	
2.33396	2.3299	0.141189	
2.3242	1.64454	0.165967	
2.32741	1.44565	0.17285	
2.32351	0.148105	0.18083	
2.32641	1.54465	0.170676	
2.32507	0.248587	0.183925	
2.324	0.450302	0.181868	
2.32792	1.94219	0.157044	