<VTKFile type="UnstructuredGrid" version="0.1" byte_order="LittleEndian">
	<UnstructuredGrid>
		<Piece NumberOfPoints="1647" NumberOfCells="3046">
			<CellData Scalars="scalars">
				<DataArray type="Float64" Name="Doublet Strengths" NumberOfComponents="1" Format="ascii">
0.286262	
0.244419	
0.269944	
0.0574677	
0.0966027	
0.113671	
0.112016	
0.112548	
0.0591264	
0.0562727	
0.108784	
0.0995803	
0.0547688	
0.10638	
0.111769	
0.0861093	
0.227633	
0.109037	
0.273996	
0.20375	
0.222776	
0.141684	
0.195166	
0.222582	
0.17663	
0.196046	
0.14841	
0.181183	
0.124732	
0.218731	
0.222764	
0.168579	
0.221267	
0.247486	
0.125815	
0.219695	
0.221829	
0.156067	
0.177277	
0.154705	
0.168691	
0.180322	
0.177748	
0.205025	
0.209247	
0.175267	
0.221854	
0.144819	
0.142866	
0.157987	
0.239325	
0.22836	
0.215199	
0.208312	
0.212753	
0.202915	
0.236665	
0.16221	
0.177123	
0.178122	
0.174411	
0.141445	
0.099166	
0.130713	
0.193461	
0.195561	
0.200303	
0.203216	
0.261154	
0.264063	
0.254655	
0.112484	
0.0518744	
0.18983	
0.191836	
0.198664	
0.203371	
0.184676	
0.171759	
0.174512	
0.16519	
0.191994	
0.183671	
0.191496	
0.187978	
0.19462	
0.193144	
0.200578	
0.171813	
0.16033	
0.104269	
0.118216	
0.125137	
0.218396	
0.228972	
0.22352	
0.232357	
0.117143	
0.126427	
0.163614	
0.237646	
0.241045	
0.253471	
0.20519	
0.194462	
0.196153	
0.152635	
0.220801	
0.10717	
0.120338	
0.128933	
0.140221	
0.137622	
0.147968	
0.132475	
0.131602	
0.257364	
0.268683	
0.227729	
0.243031	
0.221204	
0.0546941	
0.148309	
0.0905725	
0.07934	
0.0856477	
0.186939	
0.204864	
0.0966576	
0.0726252	
0.138063	
0.138645	
0.131114	
0.131785	
0.104585	
0.253152	
0.243074	
0.162698	
0.14812	
0.164931	
0.151317	
0.113562	
0.149019	
0.151455	
0.158922	
0.157779	
0.118796	
0.105862	
0.285478	
0.271421	
0.250295	
0.264303	
0.225209	
0.195725	
0.196001	
0.203371	
0.098791	
0.0788045	
0.267279	
0.189108	
0.178166	
0.186748	
0.174208	
0.18357	
0.168483	
0.190374	
0.191719	
0.183516	
0.091831	
0.162279	
0.144696	
0.156014	
0.253709	
0.260868	
0.267143	
0.25046	
0.26131	
0.245738	
0.171011	
0.178779	
0.180239	
0.184025	
0.262842	
0.256491	
0.24917	
0.210284	
0.192768	
0.0595149	
0.0752565	
0.0975916	
0.0988749	
0.0925678	
0.288046	
0.282807	
0.178122	
0.167711	
0.262038	
0.20621	
0.202874	
0.190973	
0.162084	
0.162975	
0.205717	
0.200732	
0.216919	
0.206131	
0.246142	
0.240605	
0.236083	
0.230665	
0.234357	
0.249909	
0.241587	
0.241914	
0.208193	
0.217436	
0.219933	
0.145569	
0.14553	
0.163687	
0.16563	
0.173739	
0.180794	
0.103965	
0.109483	
0.0964301	
0.109344	
0.116766	
0.170157	
0.174157	
0.158871	
0.156264	
0.155313	
0.158583	
0.13883	
0.148947	
0.243834	
0.237327	
0.168691	
0.170495	
0.179006	
0.205616	
0.211902	
0.218273	
0.219606	
0.0884084	
0.0918453	
0.105341	
0.105454	
0.1178	
0.225908	
0.22806	
0.236193	
0.0954801	
0.106064	
0.155376	
0.164898	
0.154178	
0.169288	
0.213585	
0.217946	
0.225382	
0.230055	
0.190789	
0.195338	
0.205379	
0.210105	
0.247818	
0.254645	
0.258104	
0.26092	
0.146837	
0.108863	
0.253821	
0.24426	
0.254665	
0.211433	
0.196395	
0.199467	
0.113467	
0.153371	
0.152055	
0.250256	
0.25075	
0.214769	
0.204115	
0.201119	
0.213549	
0.202963	
0.208456	
0.203736	
0.203051	
0.188456	
0.192979	
0.256101	
0.266468	
0.248272	
0.244482	
0.255472	
0.248394	
0.285594	
0.180486	
0.195658	
0.176014	
0.190196	
0.208751	
0.216559	
0.20335	
0.125911	
0.180569	
0.187842	
0.171565	
0.174732	
0.0811512	
0.0870345	
0.0906431	
0.229816	
0.160808	
0.160245	
0.17225	
0.1936	
0.189854	
0.204074	
0.279941	
0.267541	
0.273834	
0.215372	
0.215895	
0.222763	
0.226925	
0.14194	
0.152795	
0.153264	
0.14125	
0.149931	
0.14342	
0.17284	
0.165211	
0.167875	
0.263918	
0.256643	
0.25141	
0.159573	
0.147822	
0.163866	
0.145268	
0.21602	
0.207843	
0.263883	
0.257781	
0.118849	
0.0732849	
0.0584676	
0.081703	
0.0536871	
0.165841	
0.158053	
0.140369	
0.140076	
0.226835	
0.223423	
0.234378	
0.206714	
0.199115	
0.211198	
0.179493	
0.169008	
0.137457	
0.130781	
0.148183	
0.137903	
0.163783	
0.154446	
0.156705	
0.168994	
0.169067	
0.178679	
0.17887	
0.228351	
0.236359	
0.204669	
0.212305	
0.171603	
0.148995	
0.165338	
0.283382	
0.28628	
0.273825	
0.280258	
0.241309	
0.276871	
0.273545	
0.284063	
0.279231	
0.266789	
0.275022	
0.2781	
0.27525	
0.23674	
0.23276	
0.241817	
0.23764	
0.22996	
0.227071	
0.216247	
0.221481	
0.208166	
0.213348	
0.268224	
0.198646	
0.198052	
0.188444	
0.186605	
0.23355	
0.236504	
0.136981	
0.135273	
0.14587	
0.148513	
0.143921	
0.141005	
0.153558	
0.155489	
0.220952	
0.222876	
0.128757	
0.116937	
0.128436	
0.121757	
0.198344	
0.208635	
0.222283	
0.233213	
0.217685	
0.221844	
0.217801	
0.207002	
0.214499	
0.183224	
0.191728	
0.182563	
0.190909	
0.138549	
0.143787	
0.138397	
0.162996	
0.173233	
0.184235	
0.196009	
0.183806	
0.189142	
0.273259	
0.269581	
0.257727	
0.261727	
0.151657	
0.13919	
0.139495	
0.132727	
0.13284	
0.145283	
0.13866	
0.130634	
0.207474	
0.20048	
0.214191	
0.211745	
0.271071	
0.141778	
0.148696	
0.152631	
0.156846	
0.17303	
0.163068	
0.217595	
0.209437	
0.259773	
0.247501	
0.153767	
0.0673284	
0.171947	
0.156398	
0.196341	
0.163366	
0.190194	
0.181685	
0.121029	
0.132257	
0.165339	
0.225929	
0.230232	
0.234091	
0.236226	
0.121669	
0.169374	
0.166992	
0.104096	
0.121094	
0.123741	
0.13205	
0.11084	
0.124004	
0.126686	
0.136372	
0.136955	
0.264883	
0.27194	
0.271505	
0.275463	
0.236852	
0.224725	
0.227041	
0.076954	
0.0820749	
0.0735126	
0.0703944	
0.243007	
0.244105	
0.233033	
0.237782	
0.235434	
0.233651	
0.132282	
0.203105	
0.208417	
0.215281	
0.0611955	
0.0610861	
0.0734171	
0.0739568	
0.15859	
0.264195	
0.249424	
0.25208	
0.162358	
0.213482	
0.206652	
0.275493	
0.281832	
0.182824	
0.184149	
0.169	
0.173413	
0.253752	
0.261529	
0.25417	
0.261199	
0.17625	
0.188497	
0.180602	
0.178377	
0.191559	
0.179361	
0.187223	
0.145821	
0.128456	
0.1396	
0.115524	
0.16002	
0.171467	
0.171511	
0.225114	
0.232681	
0.259429	
0.261786	
0.266302	
0.269805	
0.156097	
0.159367	
0.146452	
0.148398	
0.180904	
0.180088	
0.192051	
0.189201	
0.193186	
0.187652	
0.177087	
0.16927	
0.243033	
0.230565	
0.243563	
0.237098	
0.240713	
0.280571	
0.287834	
0.273217	
0.276168	
0.254641	
0.249241	
0.219168	
0.227698	
0.201602	
0.210063	
0.11719	
0.0990675	
0.122285	
0.109568	
0.179613	
0.187353	
0.282057	
0.275301	
0.282256	
0.276332	
0.266834	
0.278252	
0.269269	
0.261418	
0.26633	
0.260037	
0.247016	
0.245324	
0.237269	
0.159276	
0.14489	
0.14781	
0.133267	
0.105442	
0.0978058	
0.0851931	
0.0714537	
0.110874	
0.123881	
0.111246	
0.0985107	
0.0933522	
0.130467	
0.122234	
0.142444	
0.0541548	
0.0693689	
0.0863049	
0.127573	
0.117662	
0.125566	
0.127062	
0.115	
0.119515	
0.141646	
0.234669	
0.234408	
0.248112	
0.247527	
0.0864978	
0.0683497	
0.124407	
0.117118	
0.131601	
0.120843	
0.127535	
0.119564	
0.132006	
0.115159	
0.127767	
0.218581	
0.214947	
0.209564	
0.119745	
0.113175	
0.113573	
0.109996	
0.0944907	
0.181906	
0.182744	
0.192194	
0.11593	
0.131752	
0.123476	
0.134772	
0.12219	
0.127114	
0.108814	
0.198007	
0.200008	
0.235047	
0.238661	
0.22919	
0.231096	
0.0957866	
0.0900112	
0.107552	
0.0987923	
0.19069	
0.196108	
0.108789	
0.103845	
0.062084	
0.0525467	
0.0797497	
0.0670274	
0.127237	
0.108514	
0.137369	
0.119536	
0.264599	
0.258464	
0.215176	
0.221947	
0.158122	
0.147592	
0.144866	
0.133888	
0.133745	
0.148672	
0.119663	
0.154916	
0.142758	
0.132223	
0.13131	
0.14457	
0.115204	
0.138236	
0.150611	
0.158388	
0.139466	
0.148606	
0.250519	
0.253262	
0.25771	
0.143687	
0.15078	
0.123368	
0.129231	
0.244917	
0.247185	
0.23438	
0.236099	
0.242835	
0.250052	
0.237487	
0.239621	
0.10023	
0.105694	
0.100862	
0.106191	
0.0314684	
0.0433899	
0.0373733	
0.0419253	
0.0452352	
-0.34006	
-0.330627	
0.0403907	
0.0408893	
0.0438256	
0.0400474	
0.036271	
-0.289948	
0.0436005	
-0.0875988	
-0.0929755	
-0.226721	
-0.125707	
0.0386075	
0.0373738	
-0.145269	
-0.0872772	
-0.169452	
-0.0813505	
-0.0856318	
0.0111538	
-0.0185272	
-0.273981	
-0.279076	
-0.231754	
-0.105506	
-0.318861	
-0.268112	
-0.0879321	
-0.130024	
-0.0774007	
-0.238562	
-0.252353	
-0.267009	
-0.301624	
-0.318884	
-0.28823	
-0.0167165	
-0.0451492	
-0.179633	
-0.230048	
-0.199207	
-0.225748	
-0.221457	
-0.241442	
-0.155456	
-0.176843	
-0.128925	
-0.270392	
-0.14991	
-0.108075	
-0.115134	
-0.126825	
-0.11961	
-0.114962	
-0.147234	
-0.11316	
-0.307533	
-0.262551	
-0.133859	
-0.180142	
-0.281263	
-0.0835767	
-0.21698	
-0.126008	
-0.0991974	
-0.16816	
-0.169364	
-0.282816	
-0.342791	
0.0227918	
0.0218067	
-0.0307367	
-0.208775	
-0.0640478	
-0.0739301	
-0.25845	
-0.235834	
-0.233522	
-0.273305	
-0.291492	
-0.184858	
-0.178717	
-0.279136	
-0.261425	
-0.250699	
-0.0505283	
-0.295597	
-0.0148917	
-0.0568661	
-0.0442608	
-0.0869164	
-0.230725	
-0.159644	
-0.177349	
-0.292368	
-0.115874	
-0.171141	
-0.204515	
-0.157607	
-0.168154	
-0.0707725	
-0.24765	
-0.273326	
-0.219546	
-0.254714	
-0.194879	
-0.214011	
-0.073117	
-0.102534	
-0.242148	
-0.0355569	
-0.0512467	
-0.0832539	
-0.159156	
-0.276676	
-0.285733	
-0.30276	
-0.324438	
-0.224913	
-0.216517	
-0.294863	
-0.305513	
-0.164452	
0.0303198	
-0.0124833	
-0.333557	
-0.27683	
-0.188566	
-0.204937	
-0.202335	
0.0302637	
-0.0109184	
-0.313414	
-0.320296	
-0.319118	
0.0258571	
0.0371956	
-0.110754	
-0.142311	
-0.0607065	
-0.0690262	
-0.0516932	
0.0462743	
-0.247413	
-0.207654	
-0.18407	
-0.192049	
-0.142691	
-0.189366	
-0.138053	
-0.16466	
-0.145589	
-0.166091	
-0.332683	
-0.3412	
-0.129367	
-0.08617	
-0.239625	
-0.253905	
-0.269209	
-0.199604	
-0.163792	
-0.207785	
-0.187049	
0.0208575	
-0.279645	
-0.0985396	
-0.109825	
-0.173849	
-0.242807	
-0.191787	
-0.209638	
-0.233767	
-0.250233	
-0.330522	
-0.234017	
-0.241143	
-0.244144	
-0.258192	
-0.027049	
-0.23038	
-0.197518	
-0.219707	
-0.101022	
-0.101244	
-0.131486	
-0.127212	
-0.0147232	
-0.0302898	
-0.116841	
-0.0952801	
-0.216014	
-0.11171	
-0.32404	
-0.331573	
-0.0558697	
-0.286222	
-0.276248	
-0.270775	
-0.191199	
-0.236117	
-0.197122	
-0.23394	
-0.191252	
-0.130011	
-0.315678	
-0.309803	
-0.174253	
-0.182211	
-0.204705	
-0.210196	
-0.0900037	
-0.113257	
-0.312568	
-0.300101	
-0.155133	
-0.177377	
0.0111289	
-0.0348107	
-0.0231235	
-0.076704	
-0.0443001	
-0.0232898	
-0.26651	
-0.279808	
-0.342649	
-0.0991727	
-0.0872333	
-0.0668588	
-0.0678323	
-0.0873475	
-0.0544373	
-0.0837456	
-0.300516	
-0.317479	
-0.305174	
-0.340987	
-0.320766	
-0.0834316	
-0.11596	
-0.111634	
-0.152548	
-0.2004	
-0.24477	
-0.197401	
-0.122056	
-0.123452	
-0.139077	
-0.222877	
-0.235058	
-0.156506	
-0.173938	
-0.154129	
-0.172251	
-0.0209356	
-0.0337927	
-0.0491914	
-0.062272	
-0.306071	
-0.207463	
-0.138416	
-0.0821523	
-0.118003	
-0.205789	
-0.219543	
-0.191678	
-0.21131	
-0.25738	
-0.266185	
-0.244148	
-0.259277	
-0.307753	
-0.296627	
-0.304197	
-0.289583	
-0.154758	
-0.111257	
-0.199891	
-0.187773	
-0.076037	
-0.101759	
-0.0756902	
-0.103043	
-0.207668	
-0.214985	
-0.0612884	
-0.0649235	
-0.028573	
-0.249021	
-0.253606	
-0.26418	
-0.274845	
-0.058359	
-0.0800542	
-0.226161	
-0.226493	
-0.139655	
-0.172359	
-0.135829	
-0.170011	
-0.240297	
-0.198459	
-0.225056	
0.00200627	
-0.0260579	
-0.312976	
-0.322365	
-0.0970822	
-0.114937	
-0.1581	
-0.14448	
-0.146551	
-0.132173	
-0.236754	
-0.215562	
-0.24491	
-0.282222	
-0.269953	
-0.290366	
-0.168796	
-0.152164	
-0.139865	
-0.100871	
-0.107913	
-0.0393619	
-0.033754	
-0.0299492	
-0.0126052	
-0.0278655	
-0.00907511	
-0.0553051	
-0.0254582	
-0.0563053	
-0.0464413	
-0.0469661	
-0.120283	
-0.110874	
-0.0813601	
-0.147246	
-0.0264327	
-0.0541202	
-0.024438	
-0.0657406	
-0.152359	
-0.128233	
-0.168615	
-0.155507	
-0.0360879	
-0.033551	
-0.0831917	
-0.0629806	
-0.217314	
-0.2201	
-0.175702	
-0.175296	
-0.167446	
-0.189026	
-0.187954	
-0.209296	
-0.261575	
-0.263514	
-0.245059	
-0.250204	
-0.286372	
-0.27791	
-0.297293	
-0.293835	
-0.297412	
-0.293919	
-0.310746	
-0.304229	
-0.0817269	
-0.0274577	
-0.0488701	
-0.290858	
-0.279983	
-0.312118	
-0.301311	
-0.311728	
-0.29717	
-0.297675	
-0.0138735	
-0.0302686	
-0.207151	
-0.196227	
-0.184179	
-0.332144	
-0.333471	
-0.333948	
-0.165465	
-0.145112	
-0.152372	
-0.136601	
-0.336342	
-0.328521	
-0.321741	
-0.328644	
-0.324437	
-0.137711	
-0.200213	
-0.220623	
-0.194061	
-0.225315	
0.0318136	
0.0421787	
-0.0715049	
-0.0697551	
-0.0142968	
-0.039439	
-0.0155409	
0.028947	
0.0403632	
-0.0657599	
-0.121857	
-0.0625206	
-0.111814	
-0.134795	
-0.150518	
-0.18137	
-0.178279	
-0.193936	
-0.201431	
-0.233571	
-0.237222	
-0.00835101	
-0.0110185	
-0.329434	
-0.319317	
-0.0286878	
-0.00565975	
-0.272886	
-0.0242943	
0.0340621	
-0.253927	
-0.00656256	
-0.340332	
-0.281734	
-0.0260854	
-0.00227679	
0.0102068	
-0.189534	
-0.17707	
-0.295621	
-0.304865	
-0.307047	
-0.311343	
-0.321139	
-0.324192	
-0.199421	
-0.217889	
-0.126865	
-0.115663	
-0.124808	
-0.279999	
-0.237027	
-0.258497	
-0.261759	
-0.122793	
-0.153516	
-0.162761	
-0.181912	
-0.00790142	
0.00969391	
0.0394405	
-0.036161	
0.0248079	
0.0442484	
0.0227388	
-0.0136023	
-0.293034	
-0.32739	
-0.320525	
-0.327413	
0.0315076	
-0.321154	
-0.317431	
-0.153174	
-0.133713	
-0.147933	
0.0282395	
0.0415519	
-0.309293	
-0.311588	
-0.306094	
-0.267182	
0.00928324	
-0.272112	
-0.262726	
-0.25408	
0.0368992	
0.0412494	
0.0435978	
-0.203188	
-0.188518	
-0.182203	
-0.164318	
-0.327679	
-0.329531	
-0.332177	
0.044319	
0.0306337	
0.0377636	
0.00362341	
-0.293427	
-0.291606	
-0.28573	
-0.143206	
-0.144506	
0.0434437	
0.0272059	
-0.325384	
-0.3172	
-0.315496	
-0.155879	
-0.144624	
-0.312695	
-0.318811	
-0.257089	
-0.0304152	
-0.0267729	
-0.0650658	
-0.0629126	
0.0455712	
0.0393151	
-0.0723791	
-0.0827339	
-0.101165	
-0.103028	
-0.338513	
-0.338894	
-0.329155	
-0.338333	
-0.106467	
-0.0756851	
-0.0910394	
-0.0966285	
-0.117392	
0.0359509	
0.026263	
0.0214292	
-0.189507	
-0.200545	
-0.173459	
-0.198104	
0.0389271	
-0.109617	
-0.109223	
-0.0941302	
-0.334621	
-0.341485	
-0.259324	
-0.269325	
-0.101482	
-0.121647	
-0.2829	
-0.271961	
0.000654577	
0.00467812	
-0.253708	
-0.278171	
-0.268085	
-0.20435	
-0.225305	
-0.193062	
-0.208787	
-0.0402436	
-0.0907697	
-0.04941	
-0.0426521	
-0.0907218	
-0.0732936	
-0.336015	
-0.341151	
-0.336552	
-0.340557	
-0.0360018	
-0.0436262	
0.0236299	
-0.252073	
-0.232584	
-0.301493	
-0.294041	
-0.161138	
-0.156454	
-0.116376	
-0.100151	
-0.320213	
-0.312511	
-0.332707	
-0.328948	
-0.3216	
-0.313335	
-0.165153	
-0.16858	
-0.141912	
-0.145728	
-0.254924	
-0.270604	
-0.185398	
-0.199883	
-0.219463	
-0.221266	
-0.3307	
-0.332475	
-0.333912	
-0.333353	
-0.284669	
-0.298224	
-0.307775	
-0.300987	
-0.308892	
-0.261991	
-0.250882	
-0.271357	
-0.281062	
-0.0311019	
0.0129834	
0.037436	
-0.284553	
-0.280993	
-0.0856471	
-0.0692412	
-0.118435	
-0.212114	
-0.229378	
-0.211572	
-0.246562	
-0.243524	
-0.252412	
-0.254956	
-0.260828	
-0.337993	
-0.333121	
-0.331894	
-0.324319	
-0.290857	
-0.272422	
-0.285083	
-0.313822	
0.0178346	
-0.0427565	
0.032805	
0.00835	
-0.219498	
-0.245094	
-0.241322	
-0.217523	
-0.233221	
-0.0254173	
0.0325927	
0.0298215	
-0.0204908	
0.0413286	
0.0219561	
-0.278804	
-0.286151	
-0.284876	
-0.295208	
0.0345096	
0.0113307	
-0.229477	
-0.259919	
-0.23799	
-0.265174	
-0.255222	
-0.259978	
-0.271998	
-0.251328	
-0.244884	
-0.261031	
-0.119272	
-0.125237	
-0.138495	
-0.151097	
-0.322824	
-0.323165	
-0.325357	
-0.2278	
-0.216639	
-0.311663	
-0.307062	
-0.295241	
-0.296808	
-0.210655	
-0.228656	
-0.222494	
-0.239289	
-0.0980566	
-0.122416	
-0.304759	
-0.307119	
-0.330313	
-0.33499	
-0.0518597	
-0.0656131	
-0.0718628	
-0.0812076	
-0.234942	
-0.222557	
-0.218044	
-0.212648	
-0.123015	
-0.146888	
-0.155748	
-0.174674	
-0.282442	
-0.295341	
-0.295137	
-0.30592	
-0.159669	
-0.15147	
-0.196107	
-0.188281	
-0.243211	
-0.233368	
-0.0619449	
-0.0394202	
-0.0867108	
-0.0717729	
-0.276356	
-0.272879	
-0.339331	
-0.337143	
-0.340057	
-0.342015	
-0.317212	
-0.316315	
-0.143706	
-0.158098	
-0.186347	
-0.196407	
-0.0238472	
-0.011387	
0.033599	
0.0310145	
-0.195729	
-0.16078	
-0.18543	
-0.148392	
-0.0105911	
-0.00427904	
-0.00729723	
-0.000676817	
0.00240362	
0.0143739	
0.0205356	
0.0229218	
0.0170686	
-0.00902111	
-0.000397415	
0.0078417	
0.00353148	
0.00986786	
0.0186451	
0.0229643	
0.0100374	
0.0143763	
0.00634268	
-0.0046514	
0.00393719	
-0.0110087	
-0.014888	
-0.00391374	
-0.0226125	
-0.0225238	
-0.0165475	
-0.0236581	
-0.0204063	
0.0144738	
0.0123632	
-0.00125638	
0.00498957	
-0.00634801	
-0.0177906	
-0.017058	
-0.0163647	
-0.0143987	
-0.00993589	
0.0178584	
0.281587	
0.245467	
0.269989	
0.0573266	
0.102525	
0.0594561	
0.204964	
0.11356	
0.111366	
0.111871	
0.112678	
0.0841252	
0.0556686	
0.108912	
0.0994952	
0.0949341	
0.0547818	
0.10641	
0.0872783	
0.22925	
0.212831	
0.145082	
0.195228	
0.222105	
0.176708	
0.196495	
0.148161	
0.124904	
0.223696	
0.217362	
0.16864	
0.220775	
0.247459	
0.130069	
0.124724	
0.220044	
0.222394	
0.163764	
0.177217	
0.155154	
0.168376	
0.180455	
0.17796	
0.209771	
0.20894	
0.169398	
0.222292	
0.144931	
0.143117	
0.147465	
0.227854	
0.20854	
0.215528	
0.203132	
0.205912	
0.236467	
0.177562	
0.178728	
0.174995	
0.141641	
0.0987178	
0.130632	
0.207155	
0.202916	
0.193286	
0.190754	
0.254141	
0.260406	
0.268083	
0.111484	
0.0611158	
0.199556	
0.19903	
0.190656	
0.187319	
0.174396	
0.165107	
0.185106	
0.183857	
0.183683	
0.195954	
0.191508	
0.193372	
0.201047	
0.188157	
0.189359	
0.170586	
0.158824	
0.119509	
0.106067	
0.124919	
0.111562	
0.223018	
0.233781	
0.218007	
0.221528	
0.12629	
0.117064	
0.163869	
0.237612	
0.246653	
0.194199	
0.196994	
0.153729	
0.198242	
0.214994	
0.120376	
0.107103	
0.133007	
0.129871	
0.156883	
0.137881	
0.132908	
0.141266	
0.254513	
0.268598	
0.242612	
0.227309	
0.221652	
0.0672991	
0.054648	
0.11722	
0.148206	
0.0794696	
0.0915409	
0.199798	
0.187065	
0.0948236	
0.0720086	
0.131305	
0.131895	
0.138289	
0.13878	
0.103989	
0.251336	
0.243603	
0.16507	
0.145902	
0.162768	
0.155624	
0.126449	
0.159137	
0.157979	
0.152942	
0.15157	
0.0987954	
0.28415	
0.27011	
0.251458	
0.263562	
0.22322	
0.207518	
0.195674	
0.191963	
0.108484	
0.0987758	
0.173821	
0.188822	
0.174053	
0.189661	
0.168451	
0.174863	
0.18995	
0.171724	
0.191559	
0.0958872	
0.155067	
0.160951	
0.154382	
0.259399	
0.252695	
0.252803	
0.245615	
0.250294	
0.257712	
0.180258	
0.184054	
0.171634	
0.178827	
0.261777	
0.248002	
0.254153	
0.202115	
0.193997	
0.206497	
0.0621436	
0.0980997	
0.0870767	
0.0989584	
0.284417	
0.280975	
0.17825	
0.167694	
0.261294	
0.203424	
0.203747	
0.196393	
0.154142	
0.162056	
0.200943	
0.21311	
0.206628	
0.214228	
0.240016	
0.244176	
0.232817	
0.23588	
0.231823	
0.240851	
0.247037	
0.21702	
0.202763	
0.219538	
0.146042	
0.140315	
0.165917	
0.164209	
0.175881	
0.17383	
0.10962	
0.0919221	
0.10946	
0.0965237	
0.116621	
0.177838	
0.169895	
0.163031	
0.15865	
0.158573	
0.144328	
0.14886	
0.138696	
0.242937	
0.237261	
0.179381	
0.173529	
0.170831	
0.218022	
0.219498	
0.208352	
0.211887	
0.0925325	
0.0885117	
0.277972	
0.105573	
0.105439	
0.117935	
0.237631	
0.232287	
0.230367	
0.104263	
0.0945621	
0.16486	
0.155345	
0.169244	
0.162954	
0.226775	
0.227533	
0.217479	
0.218874	
0.205042	
0.204744	
0.195373	
0.195041	
0.257329	
0.259469	
0.249096	
0.253494	
0.14683	
0.248206	
0.25284	
0.245808	
0.211358	
0.199489	
0.191952	
0.118172	
0.153615	
0.15237	
0.252722	
0.250189	
0.216134	
0.202393	
0.205859	
0.209496	
0.214724	
0.206945	
0.192768	
0.203416	
0.207856	
0.255629	
0.263711	
0.255176	
0.24827	
0.25459	
0.24426	
0.190514	
0.180212	
0.189958	
0.180704	
0.216143	
0.208377	
0.203018	
0.125771	
0.188814	
0.183601	
0.170665	
0.0812188	
0.0787826	
0.0907103	
0.092656	
0.224431	
0.160403	
0.160898	
0.172456	
0.186512	
0.193307	
0.203781	
0.222629	
0.223315	
0.215407	
0.216029	
0.141835	
0.149114	
0.148591	
0.153393	
0.13956	
0.150048	
0.167848	
0.172683	
0.165076	
0.256198	
0.252657	
0.263524	
0.147723	
0.159219	
0.143746	
0.155397	
0.192952	
0.207484	
0.215614	
0.118634	
0.257633	
0.263543	
0.0576506	
0.0722398	
0.0817709	
0.0537418	
0.165799	
0.153804	
0.171035	
0.140776	
0.145874	
0.22691	
0.234264	
0.226804	
0.200097	
0.211264	
0.203434	
0.179523	
0.168859	
0.130826	
0.137426	
0.137976	
0.148418	
0.148175	
0.16909	
0.154476	
0.163795	
0.168965	
0.178872	
0.183188	
0.236326	
0.228395	
0.212032	
0.204419	
0.165379	
0.1493	
0.28086	
0.243419	
0.272209	
0.275821	
0.265635	
0.281549	
0.26665	
0.279299	
0.27546	
0.278755	
0.274497	
0.232845	
0.23664	
0.237632	
0.241745	
0.222872	
0.226042	
0.228189	
0.23134	
0.205798	
0.212566	
0.214353	
0.217412	
0.264424	
0.205024	
0.199824	
0.19286	
0.189936	
0.277487	
0.23582	
0.239496	
0.13527	
0.136969	
0.141305	
0.151373	
0.141724	
0.144806	
0.148237	
0.158182	
0.223881	
0.234978	
0.223526	
0.122253	
0.128763	
0.121735	
0.1284	
0.20551	
0.198285	
0.230331	
0.221997	
0.228635	
0.217372	
0.217514	
0.203254	
0.214098	
0.206759	
0.191662	
0.178635	
0.1954	
0.182494	
0.143135	
0.138094	
0.168987	
0.163211	
0.191297	
0.18448	
0.19478	
0.184118	
0.261863	
0.261422	
0.269911	
0.151657	
0.148667	
0.143496	
0.139094	
0.132873	
0.132636	
0.138293	
0.141473	
0.130742	
0.126096	
0.215718	
0.199588	
0.212121	
0.208165	
0.265652	
0.265325	
0.134681	
0.141381	
0.156676	
0.152193	
0.173712	
0.156613	
0.153501	
0.172598	
0.197089	
0.159904	
0.146806	
0.12314	
0.182405	
0.190995	
0.126404	
0.131768	
0.23962	
0.236542	
0.232484	
0.227261	
0.169889	
0.167405	
0.108563	
0.122094	
0.136696	
0.135176	
0.121587	
0.11593	
0.115525	
0.125626	
0.125621	
0.0857554	
0.110711	
0.13157	
0.270266	
0.258292	
0.274069	
0.270143	
0.2295	
0.236687	
0.227298	
0.233089	
0.237215	
0.237973	
0.242777	
0.137446	
0.215362	
0.20308	
0.208493	
0.158977	
0.260208	
0.247482	
0.263925	
0.232169	
0.23271	
0.258109	
0.250595	
0.263367	
0.162676	
0.0734015	
0.0739956	
0.0611463	
0.0518903	
0.206449	
0.213433	
0.279719	
0.273861	
0.0768891	
0.0734986	
0.0820411	
0.0704058	
0.113496	
0.174711	
0.184635	
0.185388	
0.1762	
0.180525	
0.188396	
0.180264	
0.188274	
0.17939	
0.187703	
0.126936	
0.138072	
0.118451	
0.138039	
0.171438	
0.159051	
0.171327	
0.232584	
0.225044	
0.269936	
0.268568	
0.258389	
0.260943	
0.163795	
0.155872	
0.148554	
0.14635	
0.196211	
0.189034	
0.18084	
0.179971	
0.177093	
0.175231	
0.188261	
0.187475	
0.238478	
0.269487	
0.265701	
0.271912	
0.248695	
0.25405	
0.276981	
0.278338	
0.226702	
0.220666	
0.210226	
0.202584	
0.237531	
0.242086	
0.219242	
0.229536	
0.215309	
0.222356	
0.116904	
0.109502	
0.117115	
0.0990579	
0.191782	
0.179557	
0.274113	
0.267262	
0.261395	
0.259972	
0.266164	
0.275196	
0.285831	
0.275179	
0.281469	
0.234282	
0.244706	
0.236816	
0.246545	
0.238191	
0.117606	
0.0713528	
0.0592507	
0.185515	
0.176137	
0.14463	
0.160056	
0.133277	
0.147954	
0.132315	
0.119632	
0.127386	
0.108714	
0.269333	
0.273602	
0.123608	
0.110878	
0.110862	
0.0925979	
0.0986677	
0.130535	
0.122285	
0.111252	
0.105479	
0.116937	
0.0692812	
0.0862692	
0.0541033	
0.128917	
0.125169	
0.127037	
0.116746	
0.111416	
0.098525	
0.114487	
0.11954	
0.248807	
0.15876	
0.151617	
0.148941	
0.140665	
0.2472	
0.240344	
0.241495	
0.233764	
0.0863952	
0.0682127	
0.131823	
0.124594	
0.117278	
0.103184	
0.103213	
0.119526	
0.112717	
0.142288	
0.192893	
0.182435	
0.183362	
0.131998	
0.123624	
0.116092	
0.245981	
0.12714	
0.108847	
0.138372	
0.12212	
0.228591	
0.230526	
0.234495	
0.240169	
0.0900616	
0.104088	
0.0988818	
0.107679	
0.191066	
0.196649	
0.0797947	
0.0670391	
0.075324	
0.0525748	
0.238924	
0.241333	
0.246507	
0.251417	
0.12516	
0.129156	
0.139085	
0.14309	
0.258096	
0.268355	
0.258637	
0.264804	
0.225943	
0.216671	
0.271148	
0.279463	
0.272705	
0.278287	
0.284927	
0.1578	
0.157558	
0.133617	
0.118203	
0.105609	
0.105217	
0.135041	
0.132275	
0.154029	
0.141549	
0.147703	
0.132583	
0.171435	
0.167109	
0.147298	
0.157299	
0.144507	
0.131526	
0.129723	
0.250858	
0.254347	
0.243616	
0.244942	
0.164549	
0.153334	
0.143488	
0.116211	
0.147353	
0.13464	
0.0406972	
0.0434676	
0.0259477	
0.0420046	
0.045252	
-0.340287	
-0.330296	
0.0436638	
0.0312632	
0.0362532	
-0.052781	
-0.289113	
0.043971	
0.0434237	
-0.0875435	
-0.092677	
-0.226628	
0.0461373	
-0.0997063	
0.0386778	
0.0373613	
-0.332848	
-0.145093	
-0.0958716	
-0.169243	
-0.0625378	
-0.0812836	
0.0112741	
-0.0184217	
-0.278593	
-0.277475	
-0.231435	
-0.105419	
-0.310158	
-0.267392	
-0.0880696	
-0.129855	
-0.0774173	
-0.25345	
-0.25195	
-0.266892	
-0.301326	
-0.318725	
-0.287917	
-0.0167154	
-0.0451485	
-0.181855	
-0.2299	
-0.244763	
-0.240977	
-0.204234	
-0.208496	
-0.155698	
-0.155622	
-0.122859	
-0.270167	
-0.135973	
-0.103209	
-0.108232	
-0.127009	
-0.119504	
-0.147078	
-0.114855	
-0.113326	
-0.307378	
-0.259428	
-0.132867	
-0.173244	
-0.280767	
-0.083618	
-0.217056	
-0.12583	
-0.0990266	
-0.164389	
-0.169725	
-0.294664	
-0.340336	
0.037293	
0.0228463	
-0.0306469	
-0.208741	
-0.0739758	
-0.0640736	
-0.236121	
-0.258635	
-0.233382	
-0.291198	
-0.272998	
-0.17451	
-0.179078	
-0.261008	
-0.278838	
-0.250307	
-0.0504725	
-0.293157	
-0.0277851	
-0.0203048	
-0.0821629	
-0.071749	
-0.230369	
-0.144383	
-0.177536	
-0.291532	
-0.115903	
-0.1574	
-0.188025	
-0.170915	
-0.198934	
-0.072286	
-0.273241	
-0.247799	
-0.254627	
-0.219424	
-0.202596	
-0.21525	
-0.102464	
-0.243208	
-0.0357804	
-0.0832347	
-0.143629	
-0.28607	
-0.276785	
-0.301915	
-0.323654	
-0.215264	
-0.216191	
-0.305321	
-0.294429	
-0.164094	
0.0302378	
-0.0124843	
-0.294331	
-0.293885	
-0.333824	
-0.278905	
-0.188743	
-0.188633	
0.0289901	
-0.0109168	
-0.311704	
-0.319406	
-0.3183	
0.0219407	
0.0375002	
-0.110604	
-0.142065	
-0.0618241	
-0.0521619	
-0.0701349	
-0.246943	
-0.207457	
-0.160572	
-0.19182	
-0.189387	
-0.189018	
-0.138081	
0.0400709	
-0.159698	
-0.164837	
-0.331763	
-0.33959	
-0.153465	
-0.0860103	
-0.268746	
-0.239361	
-0.238191	
-0.168693	
-0.199427	
-0.187011	
-0.207646	
0.0208494	
-0.279459	
-0.109727	
-0.173808	
-0.244233	
-0.192259	
-0.210152	
-0.236768	
-0.250464	
-0.331222	
-0.257246	
-0.258177	
-0.23411	
-0.233393	
-0.0267482	
-0.23031	
-0.219607	
-0.197439	
-0.10126	
-0.10105	
-0.1272	
-0.0148231	
-0.0306235	
-0.1173	
-0.0883734	
-0.124404	
-0.216382	
-0.10129	
-0.339931	
-0.331669	
-0.324094	
-0.0618884	
-0.289398	
-0.272179	
-0.270636	
-0.189545	
-0.23797	
-0.21704	
-0.233542	
-0.191074	
-0.155393	
-0.309101	
-0.314094	
-0.205017	
-0.198636	
-0.185193	
-0.182405	
-0.116298	
-0.253836	
-0.299486	
-0.311512	
-0.154999	
-0.138448	
-0.177424	
0.0111756	
-0.0230887	
-0.0907382	
-0.0766355	
-0.0232269	
-0.0442206	
-0.265705	
-0.278787	
-0.0993464	
-0.0669886	
-0.0873713	
-0.0625645	
-0.0840263	
-0.0679756	
-0.0875263	
-0.298661	
-0.303284	
-0.315838	
-0.328234	
-0.338874	
-0.0426796	
-0.111499	
-0.0582902	
-0.115824	
-0.152414	
-0.175089	
-0.245554	
-0.19727	
-0.119159	
-0.152648	
-0.23588	
-0.223806	
-0.188255	
-0.154403	
-0.178801	
-0.0339429	
-0.0262583	
-0.0546002	
-0.0495238	
-0.131498	
-0.193988	
-0.117943	
-0.0869111	
-0.219684	
-0.187873	
-0.211386	
-0.191719	
-0.266291	
-0.244071	
-0.259418	
-0.244241	
-0.142506	
-0.303877	
-0.286004	
-0.311114	
-0.29642	
-0.138614	
-0.125268	
-0.174284	
-0.200355	
-0.101938	
-0.0654077	
-0.115315	
-0.0759276	
-0.193607	
-0.217108	
-0.0764564	
-0.0616491	
-0.0289782	
-0.263682	
-0.269617	
-0.248588	
-0.252986	
-0.0799614	
-0.0833318	
-0.228215	
-0.217051	
-0.156824	
-0.139864	
-0.172544	
-0.170202	
-0.15009	
-0.228079	
-0.202563	
-0.225028	
-0.210252	
-0.021102	
0.00188081	
-0.322436	
-0.313067	
-0.114847	
-0.0970105	
-0.146746	
-0.132354	
-0.158336	
-0.144694	
-0.221169	
-0.244656	
-0.224603	
-0.281502	
-0.290144	
-0.274507	
-0.152073	
-0.163738	
-0.139843	
-0.107889	
-0.12181	
-0.0398884	
-0.0341658	
-0.0150719	
-0.0328547	
-0.00901797	
-0.0568771	
-0.0254656	
-0.0553291	
-0.0562763	
-0.0470898	
-0.0247196	
-0.110734	
-0.0812273	
-0.120138	
-0.0905935	
-0.147142	
-0.0465807	
-0.0658804	
-0.0264815	
-0.0540246	
-0.168472	
-0.129926	
-0.152209	
-0.128127	
-0.033532	
-0.0696606	
-0.0629149	
-0.0830949	
-0.175516	
-0.200138	
-0.196903	
-0.219786	
-0.205808	
-0.209307	
-0.167452	
-0.164684	
-0.236448	
-0.249957	
-0.261276	
-0.263318	
-0.27334	
-0.285664	
-0.293258	
-0.29656	
-0.293301	
-0.296857	
-0.303419	
-0.312456	
-0.0274097	
-0.0488516	
-0.081712	
-0.295167	
-0.2799	
-0.303952	
-0.309656	
-0.310553	
-0.296771	
-0.299311	
-0.0302832	
-0.0138857	
-0.208329	
-0.207389	
-0.180543	
-0.333125	
-0.333477	
-0.15947	
-0.165585	
-0.136575	
-0.139803	
-0.3345	
-0.325105	
-0.328631	
-0.328695	
-0.323893	
-0.122782	
-0.220475	
-0.200125	
-0.225112	
-0.207366	
0.0421037	
0.0318264	
-0.0713575	
-0.0144253	
-0.0360874	
-0.0392387	
-0.0153657	
0.0397125	
0.0287925	
-0.100854	
-0.0658245	
-0.111765	
-0.0856033	
-0.134481	
-0.15025	
-0.172531	
-0.181716	
-0.195398	
-0.195103	
-0.233308	
-0.236868	
-0.0112202	
-0.00852066	
-0.328007	
-0.318167	
-0.0288202	
-0.00576138	
-0.0270826	
-0.00351186	
0.0340143	
-0.023866	
-0.332728	
-0.254703	
-0.272697	
-0.280147	
-0.0359892	
0.00353355	
-0.254862	
-0.263767	
0.0100902	
-0.188509	
-0.188252	
-0.303796	
-0.290887	
-0.305736	
-0.320934	
-0.307572	
-0.323933	
-0.199481	
-0.219299	
-0.127042	
-0.125034	
-0.11584	
-0.283949	
-0.258504	
-0.252027	
-0.129342	
-0.137684	
-0.179573	
-0.162719	
-0.00502385	
0.0397394	
0.00986781	
0.0252881	
-0.0258712	
0.0228819	
0.0443312	
-0.0135447	
-0.237356	
-0.246537	
-0.243396	
-0.326459	
-0.327452	
-0.320559	
0.0294236	
-0.320421	
-0.316372	
-0.133749	
-0.15321	
-0.147959	
0.0441642	
0.0298063	
-0.310527	
-0.308336	
-0.311183	
0.00917249	
0.0411952	
0.0368042	
0.0336514	
-0.182276	
-0.168262	
-0.20326	
-0.205072	
-0.326392	
-0.336656	
-0.330462	
0.0305606	
0.0445969	
-0.00252261	
0.0377665	
-0.267812	
-0.261489	
-0.144746	
-0.143471	
0.0401847	
0.0332988	
0.02806	
-0.314695	
-0.294059	
-0.322862	
-0.316475	
-0.261771	
-0.254561	
-0.278493	
-0.264064	
-0.156152	
-0.144839	
-0.312493	
-0.317973	
-0.256999	
-0.0266522	
-0.0303008	
-0.062776	
-0.0649361	
0.039066	
0.0451324	
-0.111819	
-0.103094	
-0.0724785	
-0.0559005	
-0.336769	
-0.328348	
-0.336356	
-0.327837	
-0.106498	
-0.0965129	
-0.109739	
-0.0757383	
-0.088905	
0.0262598	
0.0359213	
0.021631	
-0.183529	
-0.197994	
-0.176646	
-0.199126	
0.0396056	
-0.112396	
-0.097127	
-0.337528	
-0.336459	
-0.121675	
-0.101515	
0.000564433	
0.00453948	
-0.271826	
-0.282487	