<VTKFile type="UnstructuredGrid" version="0.1" byte_order="LittleEndian">
	<UnstructuredGrid>
		<Piece NumberOfPoints="1647" NumberOfCells="3046">
			<CellData Scalars="scalars">
				<DataArray type="Float64" Name="Doublet Strengths" NumberOfComponents="1" Format="ascii">
0.207678	
0.180793	
0.196128	
0.0461074	
0.0885208	
0.0998444	
0.0995396	
0.0996719	
0.0467376	
0.0442362	
0.0976654	
0.0908893	
0.0516632	
0.095915	
0.0991625	
0.0800271	
0.17287	
0.0971677	
0.20176	
0.157794	
0.170848	
0.116351	
0.152368	
0.168242	
0.140557	
0.15136	
0.122286	
0.142748	
0.103104	
0.166901	
0.169256	
0.135319	
0.167339	
0.184295	
0.106841	
0.165998	
0.169125	
0.124561	
0.140585	
0.123946	
0.134505	
0.14291	
0.14124	
0.157528	
0.160273	
0.138609	
0.16912	
0.11824	
0.116085	
0.127675	
0.177747	
0.171662	
0.165031	
0.160738	
0.16346	
0.157347	
0.177224	
0.127732	
0.140523	
0.140819	
0.137868	
0.113278	
0.0799291	
0.111422	
0.150994	
0.15246	
0.155275	
0.157256	
0.191203	
0.192821	
0.187143	
0.0971208	
0.0453694	
0.14837	
0.149811	
0.154012	
0.157045	
0.144152	
0.136093	
0.137894	
0.132114	
0.150256	
0.144917	
0.150017	
0.147793	
0.152122	
0.151077	
0.155863	
0.136768	
0.129666	
0.0943352	
0.105	
0.109439	
0.165793	
0.172435	
0.168922	
0.174426	
0.103314	
0.110302	
0.131372	
0.177962	
0.179217	
0.186904	
0.158808	
0.150659	
0.15231	
0.124884	
0.166601	
0.0963223	
0.106429	
0.110392	
0.117292	
0.115791	
0.122002	
0.112673	
0.112241	
0.192463	
0.200935	
0.171012	
0.180066	
0.166863	
0.0493119	
0.122126	
0.083509	
0.0742248	
0.0787292	
0.145202	
0.156666	
0.0769857	
0.0581583	
0.112923	
0.113725	
0.107951	
0.108848	
0.0947136	
0.188041	
0.182064	
0.131465	
0.12197	
0.132817	
0.123926	
0.100513	
0.121813	
0.123286	
0.128547	
0.127582	
0.0947788	
0.0841413	
0.206806	
0.19708	
0.184182	
0.192648	
0.169307	
0.152581	
0.152904	
0.157401	
0.0807561	
0.0696336	
0.195764	
0.147413	
0.140452	
0.146027	
0.138022	
0.144082	
0.134417	
0.147512	
0.148434	
0.143321	
0.0771627	
0.130721	
0.120089	
0.126894	
0.186922	
0.191129	
0.195151	
0.186079	
0.192802	
0.182984	
0.136737	
0.141905	
0.14271	
0.145281	
0.196464	
0.191616	
0.186325	
0.162253	
0.15027	
0.049132	
0.063334	
0.0856601	
0.0851864	
0.079852	
0.209379	
0.205104	
0.13976	
0.133385	
0.195519	
0.159464	
0.157332	
0.149733	
0.130798	
0.131419	
0.159117	
0.155961	
0.166115	
0.159342	
0.182864	
0.179525	
0.176863	
0.17355	
0.175693	
0.184964	
0.180086	
0.179506	
0.159261	
0.164926	
0.166345	
0.116761	
0.11737	
0.131473	
0.132665	
0.137643	
0.142037	
0.0862742	
0.0910129	
0.0814431	
0.0919659	
0.102444	
0.13543	
0.137904	
0.128551	
0.126861	
0.126353	
0.128366	
0.1165	
0.122583	
0.182323	
0.178175	
0.135083	
0.136098	
0.141907	
0.158184	
0.162108	
0.16597	
0.16684	
0.0788019	
0.0819637	
0.0897224	
0.0884611	
0.0983224	
0.172157	
0.1738	
0.179844	
0.0765835	
0.0846938	
0.126673	
0.132661	
0.1259	
0.135425	
0.164044	
0.166924	
0.171574	
0.174736	
0.148431	
0.151349	
0.157655	
0.160658	
0.183733	
0.187884	
0.189908	
0.191711	
0.121391	
0.0929924	
0.187494	
0.181794	
0.188253	
0.160976	
0.151793	
0.153556	
0.0981734	
0.123984	
0.122709	
0.184166	
0.184599	
0.162942	
0.15635	
0.154416	
0.164106	
0.157354	
0.160928	
0.156508	
0.156027	
0.146843	
0.149685	
0.187891	
0.194186	
0.184288	
0.182051	
0.188967	
0.184526	
0.207206	
0.141866	
0.151492	
0.139081	
0.147993	
0.159725	
0.164518	
0.156315	
0.107162	
0.142287	
0.14692	
0.136477	
0.138421	
0.0693516	
0.0763359	
0.0774084	
0.173715	
0.130151	
0.129642	
0.137625	
0.150337	
0.148092	
0.157068	
0.203072	
0.195128	
0.198811	
0.164359	
0.164758	
0.168903	
0.171519	
0.117092	
0.124451	
0.124988	
0.117287	
0.122654	
0.11837	
0.137461	
0.132644	
0.134388	
0.195991	
0.190713	
0.187103	
0.1289	
0.121944	
0.131564	
0.120285	
0.164157	
0.159102	
0.192427	
0.188704	
0.104047	
0.058235	
0.0463778	
0.0690434	
0.0458847	
0.133421	
0.128347	
0.11323	
0.113685	
0.171584	
0.169453	
0.176055	
0.159308	
0.154434	
0.161911	
0.140698	
0.134372	
0.115703	
0.111547	
0.122123	
0.11591	
0.131978	
0.126081	
0.127481	
0.135299	
0.135414	
0.141607	
0.141809	
0.171298	
0.176101	
0.156974	
0.161603	
0.137078	
0.122714	
0.132976	
0.206655	
0.208636	
0.199283	
0.203418	
0.183467	
0.202003	
0.199749	
0.207303	
0.203409	
0.197309	
0.202865	
0.204274	
0.201427	
0.17758	
0.175226	
0.180772	
0.178252	
0.173653	
0.171929	
0.165321	
0.168397	
0.160281	
0.163355	
0.196664	
0.154279	
0.153438	
0.146445	
0.145209	
0.178381	
0.181292	
0.114947	
0.113687	
0.120447	
0.122003	
0.119612	
0.117707	
0.125478	
0.126697	
0.170102	
0.170711	
0.10951	
0.102246	
0.109113	
0.105124	
0.153598	
0.160018	
0.168392	
0.175053	
0.165522	
0.168035	
0.166452	
0.159667	
0.164307	
0.144616	
0.150075	
0.14408	
0.149445	
0.1163	
0.119783	
0.11638	
0.131358	
0.138162	
0.145372	
0.152986	
0.145103	
0.148591	
0.202101	
0.198597	
0.190697	
0.193183	
0.124395	
0.115449	
0.11602	
0.111483	
0.111741	
0.119017	
0.114728	
0.108861	
0.160384	
0.155567	
0.16517	
0.164068	
0.19792	
0.118605	
0.122475	
0.124896	
0.127505	
0.136494	
0.12935	
0.164665	
0.159611	
0.189884	
0.182612	
0.125449	
0.0622998	
0.134706	
0.123151	
0.152932	
0.128662	
0.148659	
0.142969	
0.0963884	
0.113968	
0.129724	
0.169739	
0.172344	
0.174645	
0.175966	
0.10755	
0.134891	
0.132939	
0.0940534	
0.106643	
0.109041	
0.113945	
0.0985245	
0.108482	
0.110465	
0.114852	
0.11527	
0.192913	
0.197453	
0.197143	
0.199711	
0.178197	
0.170754	
0.172282	
0.0694955	
0.0755876	
0.0679902	
0.066126	
0.182551	
0.183066	
0.176001	
0.178944	
0.175432	
0.174386	
0.112394	
0.157365	
0.160772	
0.164986	
0.0541385	
0.0526653	
0.0643751	
0.0637635	
0.127025	
0.192487	
0.183712	
0.185275	
0.130266	
0.16386	
0.159503	
0.20084	
0.205846	
0.143473	
0.143491	
0.132696	
0.13562	
0.186287	
0.191012	
0.186458	
0.190628	
0.139749	
0.147754	
0.142635	
0.139438	
0.148859	
0.140542	
0.146231	
0.115233	
0.102449	
0.110832	
0.101927	
0.12945	
0.13624	
0.136326	
0.170259	
0.174907	
0.19062	
0.192122	
0.194768	
0.197182	
0.123155	
0.12611	
0.116171	
0.118013	
0.142078	
0.141586	
0.14902	
0.147295	
0.149815	
0.146345	
0.139742	
0.134877	
0.179922	
0.172541	
0.180247	
0.176486	
0.17917	
0.204451	
0.210624	
0.199123	
0.201028	
0.189774	
0.186209	
0.168344	
0.17495	
0.155799	
0.161027	
0.103847	
0.0903749	
0.105892	
0.0988212	
0.141852	
0.146865	
0.204414	
0.199629	
0.204463	
0.200302	
0.196309	
0.20533	
0.198644	
0.193299	
0.196932	
0.192512	
0.183013	
0.182158	
0.177354	
0.129185	
0.122351	
0.12206	
0.114126	
0.0842085	
0.0778092	
0.0685385	
0.0564946	
0.089983	
0.0993193	
0.0896772	
0.0900108	
0.0859311	
0.10493	
0.0990017	
0.112582	
0.0440015	
0.0568734	
0.0705246	
0.11095	
0.099828	
0.10513	
0.105697	
0.0973833	
0.100114	
0.11815	
0.175271	
0.175248	
0.183288	
0.183116	
0.070156	
0.0553454	
0.102297	
0.0965916	
0.107316	
0.103045	
0.107114	
0.102743	
0.110358	
0.101711	
0.111127	
0.16523	
0.162988	
0.159646	
0.103867	
0.101513	
0.0994598	
0.0988844	
0.0868446	
0.143626	
0.144048	
0.150231	
0.0950221	
0.106941	
0.100454	
0.113981	
0.107384	
0.110553	
0.0970895	
0.152322	
0.153614	
0.175903	
0.177853	
0.172266	
0.173365	
0.0798513	
0.0746583	
0.0884953	
0.081261	
0.14947	
0.152916	
0.095861	
0.0943766	
0.0524922	
0.0440879	
0.0664157	
0.0557477	
0.110745	
0.0969456	
0.115767	
0.105678	
0.194483	
0.19054	
0.165242	
0.169874	
0.128015	
0.121585	
0.122046	
0.114328	
0.115052	
0.122552	
0.104443	
0.126589	
0.120863	
0.104855	
0.113351	
0.11991	
0.100847	
0.116531	
0.123542	
0.128284	
0.116914	
0.122452	
0.189392	
0.190159	
0.194886	
0.114066	
0.119138	
0.0979078	
0.102508	
0.184603	
0.185665	
0.177133	
0.178048	
0.183744	
0.189637	
0.179735	
0.180889	
0.0880708	
0.0915532	
0.0896403	
0.0927503	
0.0389266	
0.0489723	
0.044226	
0.0476821	
0.0499392	
-0.266361	
-0.260843	
0.0470087	
0.0462297	
0.0486645	
0.0449033	
0.0375513	
-0.230514	
0.0489583	
-0.0771282	
-0.0820368	
-0.178725	
-0.109674	
0.0449642	
0.0441026	
-0.10997	
-0.0732729	
-0.130741	
-0.0547171	
-0.0581913	
0.0234837	
-0.00237959	
-0.218708	
-0.223146	
-0.184718	
-0.0754487	
-0.254092	
-0.213022	
-0.0704202	
-0.0971182	
-0.054578	
-0.188897	
-0.200155	
-0.220418	
-0.241535	
-0.254974	
-0.233521	
-0.00185787	
-0.0263055	
-0.142407	
-0.185607	
-0.156344	
-0.178625	
-0.175337	
-0.19183	
-0.132986	
-0.138626	
-0.0970941	
-0.217062	
-0.122748	
-0.0882147	
-0.0934451	
-0.105448	
-0.0875962	
-0.0837365	
-0.111551	
-0.0906543	
-0.246591	
-0.217782	
-0.116559	
-0.15528	
-0.228423	
-0.0602402	
-0.178341	
-0.0937943	
-0.0707932	
-0.137005	
-0.143782	
-0.22484	
-0.268012	
0.0328388	
0.0321972	
-0.0130121	
-0.168746	
-0.0434234	
-0.052397	
-0.213255	
-0.195382	
-0.192534	
-0.219208	
-0.233639	
-0.154765	
-0.150007	
-0.226185	
-0.212011	
-0.202888	
-0.0284088	
-0.234838	
-0.00160196	
-0.0379826	
-0.0275189	
-0.0647311	
-0.182123	
-0.138058	
-0.152457	
-0.232772	
-0.0887407	
-0.132282	
-0.16092	
-0.120811	
-0.129948	
-0.0613422	
-0.199662	
-0.220462	
-0.175136	
-0.204353	
-0.166008	
-0.182133	
-0.0499637	
-0.0751172	
-0.203464	
-0.028919	
-0.0436444	
-0.05591	
-0.124225	
-0.227014	
-0.234278	
-0.240376	
-0.256434	
-0.178531	
-0.171662	
-0.238011	
-0.246218	
-0.142396	
0.0382134	
0.00152413	
-0.264268	
-0.227868	
-0.155696	
-0.168991	
-0.168043	
0.0391504	
0.00458828	
-0.251524	
-0.257394	
-0.255867	
0.0354002	
0.0440283	
-0.097205	
-0.124135	
-0.0500697	
-0.0568727	
-0.0406691	
0.0485636	
-0.19601	
-0.162627	
-0.144181	
-0.151201	
-0.108631	
-0.152282	
-0.107907	
-0.131368	
-0.126723	
-0.14281	
-0.262181	
-0.266185	
-0.0986593	
-0.0597798	
-0.189922	
-0.201536	
-0.214128	
-0.155778	
-0.125059	
-0.162684	
-0.145016	
0.0311846	
-0.225005	
-0.0711196	
-0.0811735	
-0.138107	
-0.204703	
-0.161746	
-0.176828	
-0.197131	
-0.208893	
-0.261857	
-0.191881	
-0.196475	
-0.200678	
-0.211582	
-0.00828599	
-0.185188	
-0.15758	
-0.176567	
-0.0750748	
-0.0749805	
-0.101865	
-0.0975216	
-0.00940861	
-0.0232238	
-0.0991261	
-0.079784	
-0.18168	
-0.0884912	
-0.25866	
-0.263419	
-0.0388077	
-0.230658	
-0.22557	
-0.221611	
-0.16295	
-0.198297	
-0.153852	
-0.184822	
-0.148795	
-0.0962497	
-0.254033	
-0.250542	
-0.145062	
-0.151363	
-0.171693	
-0.175807	
-0.0781471	
-0.0985978	
-0.248403	
-0.238869	
-0.134913	
-0.143849	
0.0236765	
-0.0152408	
-0.00540282	
-0.0528324	
-0.0246613	
-0.00684931	
-0.211703	
-0.222412	
-0.269151	
-0.0816873	
-0.0703175	
-0.0520848	
-0.0534316	
-0.0714702	
-0.041637	
-0.0688045	
-0.238658	
-0.251391	
-0.242186	
-0.267233	
-0.253765	
-0.0567904	
-0.084834	
-0.081314	
-0.115748	
-0.156931	
-0.204858	
-0.1564	
-0.105778	
-0.105665	
-0.119647	
-0.189189	
-0.198687	
-0.130751	
-0.147113	
-0.130348	
-0.147333	
-0.0114965	
-0.0227323	
-0.0378621	
-0.0492837	
-0.243107	
-0.167278	
-0.11019	
-0.0602954	
-0.0923943	
-0.167533	
-0.179652	
-0.156	
-0.173041	
-0.211359	
-0.218764	
-0.201077	
-0.213567	
-0.247531	
-0.239063	
-0.244343	
-0.233005	
-0.125972	
-0.0871304	
-0.169733	
-0.158916	
-0.0577197	
-0.0809078	
-0.0581767	
-0.0830688	
-0.176944	
-0.181793	
-0.0442448	
-0.0481374	
-0.0150017	
-0.199068	
-0.202604	
-0.211648	
-0.22014	
-0.0354781	
-0.0538037	
-0.191624	
-0.191378	
-0.115397	
-0.141785	
-0.109957	
-0.140288	
-0.200014	
-0.165325	
-0.188186	
0.00938894	
-0.0165875	
-0.248129	
-0.255029	
-0.0855345	
-0.100928	
-0.130898	
-0.11916	
-0.120233	
-0.107777	
-0.188172	
-0.170523	
-0.195288	
-0.225796	
-0.216077	
-0.232559	
-0.12934	
-0.115184	
-0.104384	
-0.0710924	
-0.076962	
-0.0306563	
-0.0248908	
-0.0167758	
-0.00126939	
-0.0126275	
0.00374706	
-0.0363115	
-0.0101517	
-0.040918	
-0.0329989	
-0.0338414	
-0.0899105	
-0.0815947	
-0.0560289	
-0.113397	
-0.0144471	
-0.0392816	
-0.0129843	
-0.0500971	
-0.115679	
-0.0948289	
-0.129393	
-0.118115	
-0.0166203	
-0.0144371	
-0.0568472	
-0.0394832	
-0.170987	
-0.173398	
-0.135723	
-0.135528	
-0.134131	
-0.152308	
-0.152238	
-0.170033	
-0.208687	
-0.210436	
-0.194969	
-0.199499	
-0.228686	
-0.22171	
-0.237153	
-0.234286	
-0.237892	
-0.235027	
-0.248109	
-0.242932	
-0.0578143	
-0.010672	
-0.0292456	
-0.237447	
-0.22917	
-0.252302	
-0.245525	
-0.251762	
-0.243033	
-0.242243	
-4.56926e-05	
-0.0138679	
-0.176969	
-0.167852	
-0.158724	
-0.260644	
-0.26304	
-0.26473	
-0.142624	
-0.125832	
-0.130915	
-0.118118	
-0.264025	
-0.260677	
-0.257552	
-0.261221	
-0.259965	
-0.106351	
-0.160519	
-0.177965	
-0.155589	
-0.182271	
0.039622	
0.0475228	
-0.0469905	
-0.0454283	
0.00163655	
-0.0195753	
0.000587231	
0.0382033	
0.0467977	
-0.0410945	
-0.0890749	
-0.0384475	
-0.0805743	
-0.117636	
-0.130923	
-0.155501	
-0.151982	
-0.165974	
-0.171841	
-0.196123	
-0.198619	
-0.000893414	
-0.00384937	
-0.260675	
-0.253337	
-0.017699	
0.00321948	
-0.22601	
-0.0119978	
0.0369542	
-0.212945	
0.00493918	
-0.267669	
-0.232487	
-0.00836841	
0.0068069	
0.0162927	
-0.162752	
-0.152886	
-0.240706	
-0.247411	
-0.249039	
-0.249977	
-0.256957	
-0.259	
-0.170658	
-0.185512	
-0.106198	
-0.0967108	
-0.105618	
-0.231739	
-0.200186	
-0.20828	
-0.210416	
-0.0932308	
-0.119597	
-0.128213	
-0.144597	
0.00237001	
0.022412	
0.04583	
-0.0168382	
0.0348638	
0.0484827	
0.0311812	
-0.000935836	
-0.240315	
-0.260202	
-0.255797	
-0.260409	
0.037981	
-0.255411	
-0.252207	
-0.122362	
-0.105593	
-0.117362	
0.0346815	
0.045712	
-0.246449	
-0.248321	
-0.247564	
-0.221517	
0.0162126	
-0.226328	
-0.219317	
-0.212963	
0.0406608	
0.043759	
0.0479808	
-0.166906	
-0.155087	
-0.148469	
-0.133183	
-0.25963	
-0.261136	
-0.262723	
0.0476033	
0.0364878	
0.0423767	
0.0117489	
-0.240624	
-0.238779	
-0.235594	
-0.121778	
-0.122272	
0.0474667	
0.0367686	
-0.257526	
-0.251614	
-0.250065	
-0.130767	
-0.121216	
-0.249932	
-0.254207	
-0.207774	
-0.012252	
-0.0089671	
-0.04199	
-0.040033	
0.0484907	
0.0433125	
-0.0537704	
-0.0621803	
-0.0794912	
-0.0804507	
-0.266322	
-0.265862	
-0.260996	
-0.266406	
-0.0814016	
-0.0663614	
-0.0794417	
-0.0847397	
-0.102469	
0.0429589	
0.0352544	
0.0324036	
-0.162935	
-0.171888	
-0.150034	
-0.169918	
0.0456777	
-0.0941045	
-0.0943763	
-0.0802565	
-0.264029	
-0.267437	
-0.217104	
-0.224237	
-0.0766945	
-0.0941289	
-0.228757	
-0.219762	
0.00499043	
0.00958795	
-0.201659	
-0.22159	
-0.213357	
-0.160359	
-0.178087	
-0.150906	
-0.16435	
-0.0214515	
-0.0653953	
-0.0287492	
-0.022914	
-0.0645642	
-0.0492446	
-0.264304	
-0.266209	
-0.264576	
-0.266513	
-0.0157496	
-0.0220641	
0.0344266	
-0.202712	
-0.186359	
-0.245559	
-0.240134	
-0.139597	
-0.135326	
-0.101968	
-0.0880144	
-0.256564	
-0.251175	
-0.263127	
-0.260955	
-0.255853	
-0.249899	
-0.130805	
-0.13408	
-0.110499	
-0.114092	
-0.20287	
-0.215735	
-0.146535	
-0.15873	
-0.175766	
-0.177032	
-0.262017	
-0.263012	
-0.263357	
-0.262489	
-0.228731	
-0.239275	
-0.24805	
-0.24331	
-0.249317	
-0.218421	
-0.208932	
-0.225277	
-0.23088	
-0.0118587	
0.0256166	
0.0443458	
-0.234469	
-0.232449	
-0.0594366	
-0.0452361	
-0.0876172	
-0.181003	
-0.194349	
-0.180384	
-0.207246	
-0.204659	
-0.20994	
-0.213404	
-0.217149	
-0.26581	
-0.26293	
-0.261751	
-0.256619	
-0.236938	
-0.222217	
-0.231759	
-0.248745	
0.0296154	
-0.0219134	
0.0407989	
0.0216516	
-0.181827	
-0.203392	
-0.199478	
-0.185131	
-0.197152	
-0.00724458	
0.0408228	
0.0374716	
-0.00655292	
0.0462433	
0.0306226	
-0.229626	
-0.234881	
-0.234528	
-0.241618	
0.0424271	
0.024374	
-0.186384	
-0.211921	
-0.193154	
-0.215735	
-0.207364	
-0.215327	
-0.225319	
-0.199212	
-0.193881	
-0.207275	
-0.0945624	
-0.0992111	
-0.111833	
-0.122281	
-0.258356	
-0.256673	
-0.259185	
-0.189892	
-0.180058	
-0.25161	
-0.248577	
-0.239649	
-0.24114	
-0.167198	
-0.18233	
-0.177409	
-0.191421	
-0.0698899	
-0.0909222	
-0.247215	
-0.249348	
-0.260613	
-0.263684	
-0.0434687	
-0.0551066	
-0.0617431	
-0.0693159	
-0.198389	
-0.188651	
-0.184228	
-0.18022	
-0.0918556	
-0.112379	
-0.120513	
-0.136469	
-0.224727	
-0.234706	
-0.234694	
-0.242868	
-0.122852	
-0.115743	
-0.153994	
-0.147224	
-0.199097	
-0.190525	
-0.0437832	
-0.0235944	
-0.065237	
-0.0517448	
-0.219742	
-0.216897	
-0.265788	
-0.265172	
-0.265295	
-0.267935	
-0.25495	
-0.254248	
-0.110696	
-0.122923	
-0.147769	
-0.156174	
-0.0103217	
0.000352312	
0.0401613	
0.0378537	
-0.153959	
-0.12408	
-0.145027	
-0.113301	
-0.0111278	
-0.00517328	
-0.00807479	
-0.00165272	
0.001483	
0.0122944	
0.0188096	
0.0215122	
0.0151857	
-0.00983891	
-0.00213948	
0.00569288	
0.00155011	
0.00796588	
0.0176455	
0.0219054	
0.00906312	
0.0133837	
0.00535913	
-0.00605649	
0.00514084	
-0.00899167	
-0.0128929	
-0.00226386	
-0.0205242	
-0.0207946	
-0.0161355	
-0.0220935	
-0.0181537	
0.0147858	
0.0125663	
-0.000368987	
0.0056052	
-0.00531089	
-0.01719	
-0.0162914	
-0.0153669	
-0.0132418	
-0.00892276	
0.0177872	
0.204076	
0.18137	
0.196142	
0.0460146	
0.0930904	
0.0491531	
0.15672	
0.0998151	
0.0988755	
0.0994332	
0.0997407	
0.0676473	
0.0437626	
0.0977688	
0.0908354	
0.0872129	
0.0516808	
0.0960493	
0.0809689	
0.173892	
0.165645	
0.119013	
0.152398	
0.16782	
0.140598	
0.15156	
0.122084	
0.103372	
0.169746	
0.165997	
0.135314	
0.16689	
0.184247	
0.108639	
0.106316	
0.166087	
0.169472	
0.13014	
0.140517	
0.124489	
0.134216	
0.143021	
0.14144	
0.160377	
0.160008	
0.134901	
0.169361	
0.118469	
0.116435	
0.121463	
0.171196	
0.16089	
0.165248	
0.157498	
0.15928	
0.177039	
0.140989	
0.141485	
0.138565	
0.113612	
0.0796636	
0.111262	
0.159608	
0.157026	
0.150848	
0.149312	
0.186447	
0.190379	
0.195108	
0.0966107	
0.05273	
0.154524	
0.154343	
0.148855	
0.146807	
0.137731	
0.13193	
0.144337	
0.143447	
0.144846	
0.152774	
0.149979	
0.151262	
0.156258	
0.147943	
0.148776	
0.135953	
0.128727	
0.105974	
0.0957549	
0.109285	
0.0990201	
0.168498	
0.175192	
0.165493	
0.167756	
0.110198	
0.103252	
0.131701	
0.177916	
0.182298	
0.150411	
0.152788	
0.125491	
0.152452	
0.163005	
0.106465	
0.096272	
0.112874	
0.110965	
0.127533	
0.115926	
0.112586	
0.117757	
0.190133	
0.200778	
0.179602	
0.17058	
0.167035	
0.0622811	
0.0492848	
0.103129	
0.122014	
0.0743393	
0.0843001	
0.153448	
0.145261	
0.0755889	
0.0576974	
0.108236	
0.109069	
0.113241	
0.113971	
0.0942552	
0.186969	
0.182053	
0.132961	
0.12044	
0.131502	
0.126743	
0.110281	
0.128803	
0.127852	
0.12465	
0.123493	
0.0786765	
0.205727	
0.19608	
0.18483	
0.191994	
0.168015	
0.15833	
0.152502	
0.150168	
0.0928561	
0.0808644	
0.137633	
0.147176	
0.137884	
0.147924	
0.134365	
0.1385	
0.147183	
0.135931	
0.14826	
0.0800445	
0.126173	
0.129877	
0.125886	
0.189896	
0.186017	
0.186304	
0.18289	
0.185955	
0.190695	
0.142656	
0.145206	
0.137046	
0.141858	
0.19556	
0.185437	
0.189756	
0.157305	
0.151582	
0.160188	
0.0526011	
0.086051	
0.0764263	
0.0853292	
0.206532	
0.203621	
0.139761	
0.13333	
0.194878	
0.157861	
0.158162	
0.153382	
0.125849	
0.130758	
0.156175	
0.163725	
0.159802	
0.164575	
0.179028	
0.18165	
0.1747	
0.176662	
0.173954	
0.179467	
0.183076	
0.164527	
0.155741	
0.165922	
0.117321	
0.114031	
0.132767	
0.131731	
0.138902	
0.137635	
0.0912453	
0.0773388	
0.0921701	
0.0816181	
0.102315	
0.140191	
0.135219	
0.130994	
0.128364	
0.128323	
0.119841	
0.122491	
0.116388	
0.181875	
0.178024	
0.142265	
0.138463	
0.136477	
0.165741	
0.16672	
0.159769	
0.16204	
0.0825334	
0.0789333	
0.200994	
0.0886664	
0.0898911	
0.0985517	
0.181317	
0.176293	
0.175712	
0.0833604	
0.0759237	
0.132605	
0.126619	
0.135366	
0.131367	
0.172476	
0.173441	
0.166524	
0.167732	
0.157362	
0.157288	
0.151234	
0.151095	
0.189219	
0.190568	
0.184268	
0.186993	
0.121367	
0.184181	
0.186696	
0.182531	
0.160815	
0.153479	
0.14888	
0.10177	
0.124322	
0.123115	
0.185423	
0.184015	
0.163699	
0.155152	
0.157354	
0.162062	
0.165195	
0.160143	
0.149457	
0.156198	
0.158934	
0.18724	
0.192089	
0.188771	
0.184432	
0.18819	
0.181858	
0.148174	
0.141621	
0.147766	
0.141906	
0.164142	
0.159395	
0.156012	
0.107203	
0.14752	
0.144094	
0.135893	
0.0694782	
0.0696544	
0.0775527	
0.0799966	
0.170512	
0.129818	
0.130231	
0.137832	
0.145835	
0.150098	
0.156817	
0.168765	
0.169333	
0.16433	
0.164804	
0.117128	
0.121988	
0.122095	
0.125137	
0.116128	
0.122814	
0.134362	
0.137337	
0.13254	
0.190258	
0.187639	
0.195538	
0.121816	
0.128622	
0.119328	
0.126262	
0.149581	
0.158763	
0.163783	
0.103904	
0.188522	
0.192085	
0.0457324	
0.0574182	
0.0691929	
0.0459718	
0.133409	
0.125547	
0.136716	
0.113723	
0.117812	
0.171568	
0.175943	
0.171396	
0.155106	
0.161914	
0.157045	
0.140629	
0.134103	
0.111569	
0.115671	
0.115937	
0.122264	
0.122072	
0.135375	
0.126061	
0.131945	
0.135244	
0.1417	
0.14454	
0.175898	
0.171156	
0.161304	
0.156711	
0.13295	
0.122831	
0.203399	
0.185276	
0.19866	
0.201086	
0.194489	
0.205244	
0.196809	
0.206442	
0.203347	
0.204762	
0.200803	
0.175221	
0.177474	
0.178171	
0.180685	
0.169365	
0.171185	
0.172579	
0.174446	
0.158696	
0.162834	
0.164098	
0.165898	
0.193956	
0.159355	
0.155772	
0.150327	
0.148015	
0.201877	
0.180926	
0.184566	
0.113694	
0.114904	
0.117385	
0.123976	
0.117942	
0.11993	
0.121977	
0.128382	
0.174135	
0.181996	
0.17145	
0.105867	
0.109523	
0.105154	
0.109169	
0.15805	
0.153492	
0.173251	
0.168137	
0.172131	
0.165247	
0.166258	
0.15729	
0.164002	
0.159473	
0.149991	
0.14154	
0.152321	
0.144002	
0.119363	
0.116007	
0.135401	
0.131603	
0.150093	
0.14564	
0.152305	
0.145396	
0.19331	
0.192916	
0.198918	
0.124377	
0.122444	
0.118499	
0.115478	
0.111834	
0.111515	
0.114607	
0.116347	
0.109689	
0.106357	
0.167581	
0.155154	
0.164197	
0.161581	
0.193899	
0.193886	
0.11392	
0.118339	
0.127383	
0.12462	
0.137315	
0.125198	
0.125148	
0.135501	
0.153817	
0.126765	
0.116081	
0.0978551	
0.143769	
0.149569	
0.100518	
0.11365	
0.177987	
0.176018	
0.173683	
0.170511	
0.135467	
0.133458	
0.096812	
0.107061	
0.115062	
0.114002	
0.107465	
0.103499	
0.10315	
0.108218	
0.10819	
0.0788481	
0.0984386	
0.113623	
0.196038	
0.188737	
0.198601	
0.196071	
0.17348	
0.178012	
0.172341	
0.176017	
0.178481	
0.179116	
0.18211	
0.115796	
0.164997	
0.15731	
0.160797	
0.12751	
0.189897	
0.182406	
0.192069	
0.173369	
0.173707	
0.188713	
0.184249	
0.191768	
0.130662	
0.0643979	
0.0638487	
0.0541175	
0.0454003	
0.15939	
0.163729	
0.204148	
0.199498	
0.0694637	
0.0679906	
0.0755758	
0.0661412	
0.100462	
0.136914	
0.14534	
0.144844	
0.139697	
0.142558	
0.147658	
0.141754	
0.14744	
0.140584	
0.146467	
0.101464	
0.109867	
0.0945384	
0.109544	
0.136154	
0.12897	
0.136123	
0.174807	
0.170173	
0.196897	
0.19611	
0.189707	
0.191354	
0.129247	
0.123194	
0.118331	
0.116277	
0.151587	
0.147097	
0.141942	
0.141427	
0.13968	
0.13852	
0.146644	
0.146153	
0.177132	
0.195747	
0.193277	
0.197027	
0.185719	
0.189239	
0.200352	
0.200644	
0.175492	
0.170261	
0.161074	
0.15634	
0.178999	
0.182857	
0.165615	
0.171876	
0.163157	
0.167494	
0.102237	
0.0987775	
0.103761	
0.0903692	
0.149741	
0.14181	
0.202093	
0.196719	
0.193252	
0.192393	
0.196671	
0.199538	
0.207372	
0.199413	
0.203834	
0.174863	
0.181603	
0.17694	
0.182581	
0.177409	
0.0937464	
0.0564615	
0.0468595	
0.145487	
0.139447	
0.122143	
0.129414	
0.114095	
0.122122	
0.112405	
0.105746	
0.110858	
0.0970966	
0.198719	
0.202379	
0.0992462	
0.0895013	
0.0901025	
0.08535	
0.0901163	
0.105146	
0.0991878	
0.0970491	
0.0955328	
0.101528	
0.0568825	
0.0705942	
0.0440134	
0.111868	
0.105017	
0.105822	
0.099363	
0.100022	
0.0899594	
0.0971749	
0.100268	
0.183285	
0.128479	
0.124155	
0.122649	
0.117709	
0.182426	
0.178573	
0.17904	
0.174659	
0.0701623	
0.0552977	
0.107642	
0.102584	
0.0968539	
0.0909345	
0.0901024	
0.10377	
0.101192	
0.113079	
0.150992	
0.144188	
0.144715	
0.107292	
0.100717	
0.095291	
0.186226	
0.110565	
0.0971151	
0.116367	
0.107338	
0.171748	
0.172858	
0.175431	
0.178678	
0.0748073	
0.0864948	
0.0814559	
0.0887288	
0.149904	
0.153519	
0.0665471	
0.055837	
0.063473	
0.0441765	
0.177413	
0.178863	
0.181874	
0.184795	
0.109193	
0.111997	
0.116442	
0.119008	
0.190053	
0.196829	
0.190628	
0.194705	
0.173497	
0.166721	
0.197339	
0.20299	
0.198158	
0.202444	
0.207935	
0.12743	
0.127267	
0.114239	
0.103362	
0.0843264	
0.0836914	
0.107185	
0.104916	
0.125978	
0.119948	
0.121848	
0.11421	
0.134911	
0.131309	
0.116465	
0.124046	
0.11966	
0.113516	
0.112114	
0.188109	
0.19178	
0.183202	
0.184491	
0.129883	
0.121389	
0.118926	
0.1019	
0.121325	
0.115165	
0.0472525	
0.0483677	
0.0354752	
0.0477485	
0.0499522	
-0.265577	
-0.260592	
0.0484259	
0.0387799	
0.0375244	
-0.044382	
-0.22986	
0.0494264	
0.0488203	
-0.0770993	
-0.0818416	
-0.178662	
0.0484285	
-0.0877119	
0.0450235	
0.0440924	
-0.26239	
-0.109791	
-0.0804489	
-0.130527	
-0.0383981	
-0.0546425	
0.0235829	
-0.00228076	
-0.222705	
-0.221273	
-0.184433	
-0.075353	
-0.247534	
-0.212423	
-0.0706386	
-0.096946	
-0.0545653	
-0.201134	
-0.199805	
-0.220419	
-0.241217	
-0.254736	
-0.233202	
-0.00184979	
-0.0262917	
-0.144521	
-0.185457	
-0.194668	
-0.191406	
-0.16065	
-0.16407	
-0.133369	
-0.120396	
-0.0917282	
-0.216834	
-0.110152	
-0.0833066	
-0.0884586	
-0.105733	
-0.0874712	
-0.111382	
-0.083606	
-0.0908754	
-0.246406	
-0.215022	
-0.115798	
-0.15	
-0.227957	
-0.0602346	
-0.178424	
-0.0936286	
-0.0706405	
-0.133276	
-0.144265	
-0.234129	
-0.266259	
0.0441032	
0.0328794	
-0.0129444	
-0.168681	
-0.0524064	
-0.0434236	
-0.195678	
-0.213479	
-0.192461	
-0.233332	
-0.21891	
-0.145382	
-0.150418	
-0.211633	
-0.225888	
-0.202539	
-0.0283358	
-0.232893	
-0.0125595	
-0.00640956	
-0.0603155	
-0.0517658	
-0.181818	
-0.125334	
-0.152914	
-0.23201	
-0.0887369	
-0.120611	
-0.146985	
-0.132062	
-0.156076	
-0.0628041	
-0.220344	
-0.199735	
-0.204239	
-0.175008	
-0.173147	
-0.183603	
-0.0750488	
-0.204666	
-0.0291744	
-0.0558858	
-0.110614	
-0.234571	
-0.227115	
-0.239708	
-0.255834	
-0.170248	
-0.171399	
-0.246015	
-0.237618	
-0.142242	
0.0381496	
0.00152788	
-0.24197	
-0.241883	
-0.264696	
-0.231631	
-0.155914	
-0.155241	
0.0382011	
0.00460137	
-0.249919	
-0.256623	
-0.255124	
0.0322979	
0.0443267	
-0.0971308	
-0.124027	
-0.0511919	
-0.0411724	
-0.0579971	
-0.195624	
-0.162439	
-0.123908	
-0.151026	
-0.15226	
-0.152254	
-0.107883	
0.0449025	
-0.138593	
-0.141735	
-0.261484	
-0.264918	
-0.119534	
-0.0596464	
-0.2137	
-0.189659	
-0.188559	
-0.129246	
-0.155627	
-0.144986	
-0.162575	
0.0311837	
-0.224811	
-0.0810901	
-0.138047	
-0.206325	
-0.162302	
-0.177465	
-0.200219	
-0.20879	
-0.262513	
-0.211258	
-0.211546	
-0.191906	
-0.190442	
-0.00803389	
-0.185096	
-0.176455	
-0.157488	
-0.074951	
-0.0750528	
-0.0974844	
-0.00953485	
-0.0235812	
-0.0996745	
-0.0743998	
-0.106634	
-0.182185	
-0.0796677	
-0.266625	
-0.263636	
-0.258677	
-0.0438457	
-0.232811	
-0.221988	
-0.221473	
-0.161782	
-0.200281	
-0.170742	
-0.184511	
-0.148615	
-0.117996	
-0.249875	
-0.252665	
-0.172098	
-0.165578	
-0.155143	
-0.151629	
-0.101591	
-0.211746	
-0.238244	
-0.247441	
-0.134913	
-0.110258	
-0.143837	
0.0237244	
-0.00535837	
-0.0653532	
-0.0527707	
-0.00680328	
-0.0246002	
-0.211033	
-0.221575	
-0.0819568	
-0.0522869	
-0.0705408	
-0.049636	
-0.0691667	
-0.0536484	
-0.0717379	
-0.237158	
-0.240703	
-0.250131	
-0.258992	
-0.265634	
-0.0218291	
-0.0811385	
-0.0353986	
-0.0846863	
-0.11561	
-0.135329	
-0.206035	
-0.156269	
-0.10324	
-0.131323	
-0.199931	
-0.19027	
-0.159503	
-0.130742	
-0.152635	
-0.0229185	
-0.0168166	
-0.0418595	
-0.0382352	
-0.101842	
-0.155502	
-0.0924614	
-0.0647644	
-0.179744	
-0.152234	
-0.173099	
-0.155985	
-0.218884	
-0.200626	
-0.213784	
-0.20118	
-0.108479	
-0.244048	
-0.230433	
-0.249761	
-0.238815	
-0.112003	
-0.0993059	
-0.147573	
-0.170353	
-0.0811379	
-0.048584	
-0.0936955	
-0.058452	
-0.165909	
-0.183849	
-0.0581418	
-0.0446044	
-0.0153653	
-0.211207	
-0.215742	
-0.198686	
-0.202089	
-0.0537001	
-0.0566812	
-0.193141	
-0.185079	
-0.131144	
-0.115684	
-0.142015	
-0.140536	
-0.122985	
-0.190236	
-0.168293	
-0.188312	
-0.175991	
-0.011681	
0.00924519	
-0.255066	
-0.24819	
-0.100915	
-0.0855207	
-0.120488	
-0.108021	
-0.131198	
-0.119444	
-0.17504	
-0.195021	
-0.178251	
-0.225157	
-0.232291	
-0.219801	
-0.115092	
-0.125011	
-0.104362	
-0.076928	
-0.0890083	
-0.0312024	
-0.0253259	
-0.00336926	
-0.0193082	
0.00380544	
-0.0379801	
-0.0101452	
-0.0363182	
-0.0409437	
-0.0340219	
-0.0132936	
-0.0814849	
-0.0559269	
-0.089805	
-0.0644805	
-0.113295	
-0.0331933	
-0.0503006	
-0.0145476	
-0.0392557	
-0.129249	
-0.0961403	
-0.115526	
-0.0947133	
-0.014402	
-0.0453282	
-0.0394027	
-0.0567332	
-0.135542	
-0.156696	
-0.153647	
-0.173113	
-0.167532	
-0.169993	
-0.134111	
-0.131291	
-0.187863	
-0.199231	
-0.208377	
-0.210193	
-0.218127	
-0.228046	
-0.233702	
-0.236475	
-0.234446	
-0.23736	
-0.242189	
-0.249093	
-0.0106441	
-0.0292215	
-0.0577824	
-0.240297	
-0.229094	
-0.246354	
-0.249882	
-0.250546	
-0.243375	
-0.243912	
-0.0138686	
-4.62467e-05	
-0.177758	
-0.177388	
-0.155742	
-0.262617	
-0.264148	
-0.138055	
-0.142928	
-0.11821	
-0.120412	
-0.262507	
-0.258835	
-0.260751	
-0.261282	
-0.259472	
-0.0931935	
-0.177816	
-0.160418	
-0.182077	
-0.167169	
0.0474615	
0.039628	
-0.0468566	
0.00155339	
-0.0166008	
-0.019409	
0.000741711	
0.0462824	
0.0380824	
-0.0710436	
-0.0410464	
-0.0804972	
-0.0581215	
-0.117454	
-0.130805	
-0.147789	
-0.156042	
-0.166692	
-0.16725	
-0.19614	
-0.198526	
-0.00407278	
-0.00108533	
-0.259338	
-0.252269	
-0.0178571	
0.00309524	
-0.014473	
0.00637912	
0.0368946	
-0.0103716	
-0.2623	
-0.213921	
-0.227435	
-0.232463	
-0.0166887	
0.0116377	
-0.214498	
-0.221095	
0.0161593	
-0.162165	
-0.162131	
-0.246549	
-0.237424	
-0.247981	
-0.25679	
-0.247346	
-0.258795	
-0.171005	
-0.186898	
-0.106485	
-0.105957	
-0.0969954	
-0.234094	
-0.208241	
-0.202635	
-0.0986005	
-0.106304	
-0.14233	
-0.128153	
0.00482299	
0.0460745	
0.0225553	
0.0352483	
-0.00818825	
0.031288	
0.0485451	
-0.00091317	
-0.200915	
-0.207798	
-0.205105	
-0.259392	
-0.260302	
-0.255729	
0.0362798	
-0.254692	
-0.251265	
-0.105634	
-0.122383	
-0.117366	
0.0477156	
0.0358635	
-0.247375	
-0.245607	
-0.251137	
0.0160827	
0.0436968	
0.0405574	
0.0401905	
-0.148542	
-0.137141	
-0.166997	
-0.169155	
-0.258462	
-0.264653	
-0.261276	
0.0363808	
0.0478109	
0.00654073	
0.0423508	
-0.22287	
-0.218403	
-0.122633	
-0.122163	
0.0448587	
0.0392911	
0.037427	
-0.249322	
-0.233761	
-0.255316	
-0.250866	
-0.218975	
-0.213694	
-0.231593	
-0.221266	
-0.131138	
-0.121539	
-0.249656	
-0.253439	
-0.207656	
-0.0088681	
-0.0121569	
-0.0399222	
-0.0418879	
0.0430764	
0.0480908	
-0.0886539	
-0.0805754	
-0.0539119	
-0.0388928	
-0.26405	
-0.260075	
-0.26477	
-0.25985	
-0.081432	
-0.0846918	
-0.0955029	
-0.0664591	