<VTKFile type="UnstructuredGrid" version="0.1" byte_order="LittleEndian">
	<UnstructuredGrid>
		<Piece NumberOfPoints="1647" NumberOfCells="3046">
			<CellData Scalars="scalars">
				<DataArray type="Float64" Name="Doublet Strengths" NumberOfComponents="1" Format="ascii">
0.263555	
0.225492	
0.248218	
0.0541881	
0.0942184	
0.109377	
0.108045	
0.108619	
0.0554426	
0.0527635	
0.105189	
0.0969596	
0.0538654	
0.103117	
0.107762	
0.0843525	
0.212685	
0.105356	
0.253445	
0.19176	
0.209277	
0.134079	
0.182749	
0.205549	
0.165888	
0.18222	
0.140146	
0.169179	
0.118399	
0.203535	
0.206948	
0.158571	
0.204326	
0.229134	
0.120257	
0.203052	
0.207287	
0.14709	
0.165911	
0.145847	
0.15797	
0.169212	
0.1669	
0.189892	
0.193767	
0.163654	
0.207174	
0.136871	
0.134938	
0.148504	
0.220748	
0.210698	
0.201231	
0.194854	
0.199067	
0.189912	
0.218655	
0.152551	
0.166537	
0.167565	
0.16418	
0.133367	
0.0936137	
0.124651	
0.180468	
0.182526	
0.186581	
0.189411	
0.240483	
0.242999	
0.234531	
0.108019	
0.0499907	
0.176959	
0.17888	
0.184868	
0.189168	
0.172123	
0.160703	
0.163107	
0.15494	
0.179581	
0.171975	
0.179414	
0.176224	
0.182482	
0.180935	
0.187859	
0.160792	
0.150597	
0.101056	
0.11395	
0.12014	
0.201851	
0.211482	
0.206461	
0.214534	
0.112734	
0.121282	
0.15409	
0.219758	
0.222184	
0.233617	
0.192726	
0.180376	
0.182455	
0.144005	
0.204351	
0.103693	
0.115869	
0.122981	
0.132931	
0.130649	
0.139735	
0.126204	
0.125398	
0.239957	
0.25026	
0.210128	
0.223906	
0.204546	
0.0531082	
0.13999	
0.088526	
0.0778547	
0.0836317	
0.173858	
0.190046	
0.0909122	
0.0684112	
0.130597	
0.131213	
0.124308	
0.125025	
0.101635	
0.234543	
0.226119	
0.153267	
0.139984	
0.155277	
0.142991	
0.109553	
0.14081	
0.142995	
0.149819	
0.148763	
0.111836	
0.099542	
0.262798	
0.24961	
0.230694	
0.243107	
0.208247	
0.182855	
0.183454	
0.1898	
0.093589	
0.0761232	
0.246519	
0.175739	
0.166123	
0.173832	
0.162732	
0.171144	
0.157673	
0.177148	
0.178382	
0.171118	
0.087542	
0.152251	
0.13686	
0.146769	
0.233773	
0.240281	
0.246103	
0.231666	
0.241493	
0.22718	
0.160544	
0.16779	
0.168893	
0.172565	
0.244899	
0.238994	
0.232058	
0.197532	
0.181332	
0.056484	
0.0717728	
0.0941122	
0.0948766	
0.0888758	
0.265323	
0.260248	
0.166098	
0.156963	
0.243944	
0.193358	
0.190202	
0.179264	
0.152239	
0.153048	
0.192559	
0.188073	
0.202997	
0.193119	
0.227152	
0.222061	
0.218048	
0.213092	
0.216375	
0.2305	
0.222934	
0.22291	
0.192673	
0.200906	
0.20315	
0.137282	
0.137326	
0.153489	
0.155148	
0.162151	
0.168285	
0.0988037	
0.104086	
0.0920486	
0.104266	
0.112356	
0.159126	
0.162559	
0.149243	
0.146942	
0.146107	
0.148987	
0.131711	
0.140555	
0.22633	
0.220266	
0.158725	
0.160404	
0.168219	
0.190722	
0.196388	
0.201968	
0.203238	
0.085612	
0.0889742	
0.100776	
0.100489	
0.112107	
0.211399	
0.213595	
0.221275	
0.0899498	
0.0998261	
0.146317	
0.154793	
0.14527	
0.15871	
0.200001	
0.204065	
0.210745	
0.215096	
0.177145	
0.181227	
0.190129	
0.194393	
0.228615	
0.234863	
0.23796	
0.240582	
0.138803	
0.104226	
0.234175	
0.225492	
0.235112	
0.195697	
0.182426	
0.185235	
0.109023	
0.144667	
0.143419	
0.230421	
0.230896	
0.198919	
0.189442	
0.186777	
0.200098	
0.190454	
0.195599	
0.188676	
0.188135	
0.175075	
0.179199	
0.23578	
0.245128	
0.229223	
0.225829	
0.23595	
0.229498	
0.263021	
0.168032	
0.181448	
0.164091	
0.176587	
0.193128	
0.200117	
0.1883	
0.120382	
0.168583	
0.175045	
0.160492	
0.163266	
0.0777279	
0.0839189	
0.0867784	
0.214	
0.151586	
0.151034	
0.161929	
0.179799	
0.176695	
0.189194	
0.25768	
0.246254	
0.251917	
0.199666	
0.20031	
0.206251	
0.21011	
0.134435	
0.144249	
0.144758	
0.133947	
0.141688	
0.135866	
0.161743	
0.154972	
0.157355	
0.245112	
0.23824	
0.233129	
0.149865	
0.139761	
0.153598	
0.137407	
0.199626	
0.192323	
0.242764	
0.237444	
0.114225	
0.0688882	
0.0549308	
0.0780032	
0.0514352	
0.155902	
0.14884	
0.13248	
0.132297	
0.210377	
0.207082	
0.216896	
0.192375	
0.18542	
0.196187	
0.167452	
0.15824	
0.130543	
0.124645	
0.13994	
0.130899	
0.153843	
0.1455	
0.147553	
0.158495	
0.158615	
0.167249	
0.167519	
0.210713	
0.2179	
0.189628	
0.196378	
0.161008	
0.140669	
0.155305	
0.261253	
0.263936	
0.252094	
0.258024	
0.226034	
0.255479	
0.252366	
0.262119	
0.257434	
0.247397	
0.254716	
0.257084	
0.25412	
0.219203	
0.215733	
0.223995	
0.220333	
0.213673	
0.21123	
0.201125	
0.205641	
0.193785	
0.198242	
0.247497	
0.186523	
0.186359	
0.176867	
0.175554	
0.21902	
0.222106	
0.130101	
0.128579	
0.138	
0.140481	
0.136219	
0.133656	
0.144766	
0.146604	
0.207968	
0.209054	
0.122824	
0.112485	
0.122592	
0.116745	
0.184336	
0.193361	
0.205525	
0.21535	
0.201365	
0.205061	
0.203076	
0.192949	
0.199793	
0.171436	
0.179146	
0.170731	
0.17826	
0.131463	
0.136164	
0.131414	
0.153528	
0.162867	
0.173007	
0.183851	
0.172484	
0.177396	
0.253287	
0.249518	
0.238398	
0.242004	
0.143062	
0.132048	
0.132374	
0.126342	
0.126449	
0.137379	
0.13146	
0.124195	
0.195068	
0.188557	
0.201608	
0.199467	
0.249836	
0.134425	
0.140417	
0.143848	
0.147576	
0.16292	
0.153618	
0.20147	
0.19419	
0.239016	
0.228029	
0.144969	
0.0658414	
0.161805	
0.146944	
0.184532	
0.153794	
0.178898	
0.170949	
0.113868	
0.126437	
0.155281	
0.208864	
0.212777	
0.216147	
0.218131	
0.117295	
0.159453	
0.157264	
0.100862	
0.116444	
0.11904	
0.126289	
0.106925	
0.119205	
0.121544	
0.129658	
0.130085	
0.243603	
0.250036	
0.249721	
0.253294	
0.220649	
0.209587	
0.211822	
0.0747675	
0.0801745	
0.0718886	
0.0691428	
0.226646	
0.227432	
0.217324	
0.221552	
0.217179	
0.215707	
0.125957	
0.189959	
0.194959	
0.201191	
0.0591241	
0.0586512	
0.0707775	
0.0710023	
0.149473	
0.242931	
0.229631	
0.232023	
0.152938	
0.199338	
0.192948	
0.254102	
0.260134	
0.172007	
0.172861	
0.158872	
0.162862	
0.233586	
0.240587	
0.233922	
0.240194	
0.164872	
0.175943	
0.168848	
0.167885	
0.180249	
0.168837	
0.176184	
0.137049	
0.120989	
0.131427	
0.111364	
0.150392	
0.160344	
0.160461	
0.208253	
0.215104	
0.239099	
0.241254	
0.245357	
0.248713	
0.146901	
0.150112	
0.137922	
0.139827	
0.168752	
0.167984	
0.178641	
0.176011	
0.179283	
0.174439	
0.165103	
0.158341	
0.22394	
0.212803	
0.224396	
0.218589	
0.22198	
0.258674	
0.265722	
0.251662	
0.25437	
0.236855	
0.231912	
0.205782	
0.214036	
0.187391	
0.194907	
0.113084	
0.0964094	
0.11727	
0.106312	
0.167845	
0.1748	
0.259556	
0.253246	
0.259766	
0.254182	
0.246577	
0.257555	
0.249274	
0.241999	
0.246768	
0.240826	
0.227751	
0.226318	
0.218987	
0.149816	
0.137834	
0.139713	
0.127297	
0.0992685	
0.0919698	
0.0803145	
0.0670344	
0.104851	
0.116793	
0.104999	
0.0960519	
0.0911746	
0.123081	
0.115467	
0.133857	
0.0512243	
0.065736	
0.0817503	
0.122471	
0.112446	
0.11955	
0.120777	
0.109849	
0.113838	
0.134383	
0.216365	
0.216142	
0.228562	
0.228094	
0.081793	
0.0645993	
0.117946	
0.111126	
0.124445	
0.115655	
0.121516	
0.114659	
0.125618	
0.111043	
0.122652	
0.2023	
0.199138	
0.194244	
0.115	
0.109679	
0.109444	
0.106696	
0.0922218	
0.170986	
0.171832	
0.180593	
0.10984	
0.124488	
0.11674	
0.12817	
0.117483	
0.121836	
0.105085	
0.183889	
0.185712	
0.216891	
0.220072	
0.211508	
0.213212	
0.0911325	
0.0855319	
0.102003	
0.0936962	
0.179076	
0.184143	
0.105017	
0.101052	
0.0593079	
0.0500898	
0.0758528	
0.06373	
0.121972	
0.104816	
0.130523	
0.115102	
0.244252	
0.238589	
0.201735	
0.208064	
0.148717	
0.139453	
0.137701	
0.127747	
0.127906	
0.140522	
0.114898	
0.146063	
0.135902	
0.124348	
0.125704	
0.136895	
0.110695	
0.131425	
0.142195	
0.148901	
0.13249	
0.140391	
0.234279	
0.236316	
0.241077	
0.135223	
0.141784	
0.116007	
0.121497	
0.228751	
0.230589	
0.218856	
0.220288	
0.227246	
0.234164	
0.221999	
0.223805	
0.0966888	
0.101576	
0.0975999	
0.102284	
0.0339499	
0.0451466	
0.0396709	
0.0438738	
0.0468535	
-0.318906	
-0.310273	
0.0425308	
0.0426173	
0.0454931	
0.0415095	
0.036666	
-0.27235	
0.0452748	
-0.0845416	
-0.0898002	
-0.21215	
-0.121042	
0.0407569	
0.0396341	
-0.134065	
-0.0831749	
-0.157049	
-0.0729998	
-0.0770861	
0.0152113	
-0.0132505	
-0.257032	
-0.262079	
-0.216996	
-0.0960636	
-0.300033	
-0.251325	
-0.0827965	
-0.119289	
-0.0700988	
-0.223127	
-0.236334	
-0.254373	
-0.283882	
-0.300457	
-0.272672	
-0.0118708	
-0.0390652	
-0.168111	
-0.216636	
-0.185481	
-0.210858	
-0.206805	
-0.225874	
-0.148866	
-0.164807	
-0.118795	
-0.254082	
-0.141755	
-0.102208	
-0.108611	
-0.120447	
-0.109554	
-0.105117	
-0.135997	
-0.106349	
-0.289708	
-0.250444	
-0.128863	
-0.172998	
-0.266352	
-0.0761136	
-0.205835	
-0.115474	
-0.0899546	
-0.158942	
-0.16188	
-0.265294	
-0.321417	
0.0261045	
0.025228	
-0.0249934	
-0.196755	
-0.0574125	
-0.0670105	
-0.246031	
-0.224444	
-0.221899	
-0.256785	
-0.274146	
-0.176081	
-0.170327	
-0.263805	
-0.24689	
-0.236431	
-0.0435564	
-0.277376	
-0.0105853	
-0.0508109	
-0.0389515	
-0.0799362	
-0.215924	
-0.153394	
-0.170212	
-0.274454	
-0.107321	
-0.158608	
-0.190557	
-0.145668	
-0.155757	
-0.0679998	
-0.233118	
-0.257473	
-0.205632	
-0.239153	
-0.186638	
-0.205188	
-0.0657146	
-0.0937965	
-0.231636	
-0.0336304	
-0.0490365	
-0.0746328	
-0.148239	
-0.263189	
-0.27186	
-0.284398	
-0.304557	
-0.210213	
-0.202262	
-0.278345	
-0.288515	
-0.15807	
0.0329762	
-0.0078981	
-0.314112	
-0.264507	
-0.178891	
-0.194464	
-0.192384	
0.0330423	
-0.00606135	
-0.296937	
-0.303344	
-0.302165	
0.0290164	
0.0394825	
-0.106784	
-0.137003	
-0.057614	
-0.0654694	
-0.0484901	
0.0469555	
-0.231772	
-0.193895	
-0.17126	
-0.179029	
-0.131767	
-0.178112	
-0.128638	
-0.154436	
-0.140073	
-0.159391	
-0.312228	
-0.319795	
-0.119651	
-0.077671	
-0.224113	
-0.237767	
-0.252343	
-0.186183	
-0.151756	
-0.193976	
-0.174072	
0.024267	
-0.263145	
-0.0897452	
-0.1007	
-0.162835	
-0.232579	
-0.183123	
-0.200333	
-0.223741	
-0.238966	
-0.311439	
-0.222131	
-0.228172	
-0.231932	
-0.245193	
-0.0210895	
-0.216595	
-0.185231	
-0.206562	
-0.0927795	
-0.0928786	
-0.122188	
-0.117852	
-0.0131608	
-0.0282353	
-0.111656	
-0.0907424	
-0.206315	
-0.104718	
-0.305403	
-0.312421	
-0.0506623	
-0.26971	
-0.262337	
-0.257191	
-0.183165	
-0.22578	
-0.183764	
-0.218907	
-0.178203	
-0.119543	
-0.299073	
-0.29383	
-0.165628	
-0.173128	
-0.195244	
-0.200362	
-0.0865343	
-0.109015	
-0.293736	
-0.281881	
-0.149229	
-0.167426	
0.015071	
-0.0286158	
-0.0174956	
-0.0690746	
-0.0379645	
-0.0179577	
-0.249832	
-0.262423	
-0.32183	
-0.0940375	
-0.0822748	
-0.0625348	
-0.063615	
-0.0826944	
-0.0506919	
-0.0793687	
-0.282065	
-0.298011	
-0.286503	
-0.319804	
-0.301047	
-0.0749485	
-0.10603	
-0.101803	
-0.141124	
-0.186713	
-0.233761	
-0.184562	
-0.117346	
-0.118264	
-0.13345	
-0.213607	
-0.22527	
-0.148843	
-0.1661	
-0.147087	
-0.165013	
-0.0181974	
-0.0305769	
-0.045887	
-0.0584691	
-0.287421	
-0.195308	
-0.129845	
-0.0752095	
-0.11011	
-0.194615	
-0.208132	
-0.181204	
-0.200289	
-0.244593	
-0.253182	
-0.232062	
-0.24669	
-0.290325	
-0.279811	
-0.286656	
-0.27274	
-0.146142	
-0.103912	
-0.191301	
-0.179438	
-0.0706427	
-0.0954724	
-0.070537	
-0.0971232	
-0.198985	
-0.205732	
-0.0562581	
-0.0600206	
-0.0245816	
-0.233502	
-0.237775	
-0.248012	
-0.258169	
-0.0510683	
-0.0717272	
-0.216449	
-0.216748	
-0.132374	
-0.163273	
-0.128034	
-0.161174	
-0.229096	
-0.188851	
-0.214679	
0.00416141	
-0.0233101	
-0.294006	
-0.302638	
-0.0936821	
-0.110842	
-0.149983	
-0.136879	
-0.138645	
-0.124811	
-0.221455	
-0.201208	
-0.229392	
-0.265171	
-0.253476	
-0.273039	
-0.156625	
-0.140721	
-0.128681	
-0.0915913	
-0.0981713	
-0.036834	
-0.0311763	
-0.0261246	
-0.00929255	
-0.0229295	
-0.0048787	
-0.0491709	
-0.0204556	
-0.0518423	
-0.0425381	
-0.0431335	
-0.110623	
-0.101505	
-0.0731798	
-0.136592	
-0.0229594	
-0.0498234	
-0.0211135	
-0.0611742	
-0.140945	
-0.117832	
-0.156479	
-0.143923	
-0.0299827	
-0.0275516	
-0.0747548	
-0.0554928	
-0.203026	
-0.205541	
-0.163285	
-0.162846	
-0.157284	
-0.177949	
-0.177303	
-0.197714	
-0.245214	
-0.247141	
-0.229366	
-0.234388	
-0.268944	
-0.260732	
-0.279324	
-0.275968	
-0.279712	
-0.276355	
-0.292386	
-0.286124	
-0.0740969	
-0.0220161	
-0.0425549	
-0.276408	
-0.266138	
-0.296441	
-0.286479	
-0.295764	
-0.283069	
-0.283227	
-0.00932843	
-0.0249322	
-0.198534	
-0.188152	
-0.176832	
-0.311936	
-0.31365	
-0.314426	
-0.158847	
-0.1395	
-0.146105	
-0.131264	
-0.315919	
-0.309733	
-0.303744	
-0.309868	
-0.307131	
-0.127855	
-0.188086	
-0.207729	
-0.182309	
-0.212403	
0.0344339	
0.0440223	
-0.0636407	
-0.0620478	
-0.00931522	
-0.0331595	
-0.0104825	
0.03184	
0.0423776	
-0.05805	
-0.111672	
-0.0549979	
-0.102108	
-0.129755	
-0.14479	
-0.173933	
-0.170657	
-0.185993	
-0.193073	
-0.22322	
-0.226557	
-0.00616079	
-0.00890565	
-0.309556	
-0.300064	
-0.0254881	
-0.00306565	
-0.260977	
-0.0207333	
0.0349385	
-0.24312	
-0.00304899	
-0.319592	
-0.268606	
-0.0203961	
0.000370553	
0.0119973	
-0.18194	
-0.170125	
-0.280756	
-0.289439	
-0.291506	
-0.293567	
-0.302809	
-0.305835	
-0.191343	
-0.208958	
-0.120773	
-0.110094	
-0.119176	
-0.267416	
-0.227153	
-0.243224	
-0.246025	
-0.113438	
-0.142897	
-0.152023	
-0.170396	
-0.0049152	
0.013854	
0.0415054	
-0.0299206	
0.0280061	
0.045568	
0.0253702	
-0.00968744	
-0.27908	
-0.308175	
-0.30185	
-0.308256	
0.0334337	
-0.302001	
-0.298378	
-0.143751	
-0.125034	
-0.138494	
0.0301248	
0.0427854	
-0.290763	
-0.293019	
-0.289984	
-0.255449	
0.0113055	
-0.260107	
-0.251191	
-0.243116	
0.0380185	
0.0420078	
0.0449367	
-0.192606	
-0.178648	
-0.17228	
-0.155071	
-0.308045	
-0.309845	
-0.31228	
0.045285	
0.0323438	
0.0391123	
0.00599754	
-0.279652	
-0.277954	
-0.272574	
-0.136865	
-0.137909	
0.0446449	
0.0302095	
-0.305606	
-0.298011	
-0.296263	
-0.148419	
-0.137646	
-0.294429	
-0.30012	
-0.24233	
-0.0244962	
-0.0209723	
-0.0576019	
-0.055507	
0.0464321	
0.0404886	
-0.0667516	
-0.0764144	
-0.094636	
-0.0961838	
-0.318042	
-0.318253	
-0.30957	
-0.318039	
-0.098587	
-0.072971	
-0.0876664	
-0.0931783	
-0.113082	
0.0383158	
0.02926	
0.0249533	
-0.181953	
-0.19234	
-0.16666	
-0.190004	
0.0410646	
-0.105085	
-0.104894	
-0.0900667	
-0.314327	
-0.320411	
-0.248173	
-0.257586	
-0.0936392	
-0.113016	
-0.267017	
-0.256421	
0.00195609	
0.00614858	
-0.237563	
-0.260918	
-0.251282	
-0.190422	
-0.210415	
-0.179628	
-0.194639	
-0.034177	
-0.0826733	
-0.04274	
-0.0362495	
-0.0823135	
-0.0655364	
-0.315326	
-0.319708	
-0.31583	
-0.31938	
-0.0295969	
-0.0367949	
0.0271067	
-0.236903	
-0.218239	
-0.286524	
-0.27956	
-0.154909	
-0.15036	
-0.112131	
-0.0965641	
-0.302267	
-0.295017	
-0.312835	
-0.309441	
-0.302461	
-0.294784	
-0.154535	
-0.15796	
-0.132082	
-0.13586	
-0.238741	
-0.253731	
-0.173308	
-0.187075	
-0.206024	
-0.207597	
-0.31109	
-0.312707	
-0.313958	
-0.313247	
-0.267812	
-0.280737	
-0.29082	
-0.284643	
-0.292261	
-0.250292	
-0.239395	
-0.259098	
-0.268227	
-0.0250316	
0.0170252	
0.0396914	
-0.271655	
-0.268229	
-0.0771859	
-0.0615051	
-0.108543	
-0.20329	
-0.219861	
-0.20294	
-0.236117	
-0.232833	
-0.240788	
-0.244047	
-0.249155	
-0.31732	
-0.312863	
-0.311557	
-0.304527	
-0.276122	
-0.258493	
-0.270355	
-0.294638	
0.0215972	
-0.0361319	
0.0353212	
0.0125667	
-0.20871	
-0.233519	
-0.22958	
-0.208331	
-0.223189	
-0.0196674	
0.0352606	
0.0322627	
-0.0160129	
0.0428862	
0.024679	
-0.265613	
-0.272339	
-0.271427	
-0.28092	
0.0370904	
0.0155201	
-0.21674	
-0.246239	
-0.224708	
-0.250991	
-0.241206	
-0.247814	
-0.259483	
-0.235513	
-0.229411	
-0.244862	
-0.111822	
-0.11735	
-0.130511	
-0.142508	
-0.30519	
-0.304862	
-0.306947	
-0.217119	
-0.206179	
-0.295333	
-0.291178	
-0.280043	
-0.281584	
-0.196929	
-0.214123	
-0.208339	
-0.224357	
-0.0889728	
-0.112271	
-0.289789	
-0.291943	
-0.310036	
-0.314366	
-0.0494233	
-0.0625364	
-0.0688904	
-0.0777187	
-0.225012	
-0.213181	
-0.208572	
-0.203537	
-0.113065	
-0.135894	
-0.144645	
-0.162557	
-0.264946	
-0.277187	
-0.277041	
-0.287234	
-0.147707	
-0.139828	
-0.182566	
-0.175042	
-0.230789	
-0.221055	
-0.0562964	
-0.0344537	
-0.080042	
-0.0654565	
-0.259425	
-0.255993	
-0.318335	
-0.316477	
-0.318776	
-0.32089	
-0.299959	
-0.298909	
-0.133335	
-0.147097	
-0.174399	
-0.183964	
-0.0197455	
-0.00786634	
0.0356075	
0.0330771	
-0.182331	
-0.148935	
-0.172397	
-0.137008	
-0.0107929	
-0.00445974	
-0.00745075	
-0.000917622	
0.00217141	
0.013787	
0.020046	
0.0225509	
0.0165362	
-0.0092612	
-0.000820784	
0.00725601	
0.00301815	
0.0093459	
0.0183975	
0.0226907	
0.00976898	
0.0141038	
0.00607622	
-0.00509015	
0.00432066	
-0.0104116	
-0.0142841	
-0.00342349	
-0.0219618	
-0.0219541	
-0.0164304	
-0.0232394	
-0.0197244	
0.0146056	
0.0124667	
-0.000986532	
0.00518715	
-0.00602962	
-0.0176621	
-0.0167699	
-0.0160033	
-0.0140268	
-0.00961064	
0.0178739	
0.259107	
0.226454	
0.248246	
0.0539931	
0.0995931	
0.0564456	
0.190128	
0.109294	
0.107532	
0.107915	
0.108707	
0.0793277	
0.0521148	
0.105331	
0.0968999	
0.0926588	
0.0538785	
0.103226	
0.085455	
0.214266	
0.200482	
0.137244	
0.182871	
0.205069	
0.166018	
0.182603	
0.139913	
0.118596	
0.207728	
0.202308	
0.158689	
0.203841	
0.229176	
0.123757	
0.119351	
0.203361	
0.20791	
0.154291	
0.165858	
0.146292	
0.157649	
0.16939	
0.167156	
0.19407	
0.193455	
0.158456	
0.207687	
0.137017	
0.135206	
0.139365	
0.210192	
0.195155	
0.201631	
0.190184	
0.19282	
0.218482	
0.166996	
0.168181	
0.164759	
0.133551	
0.0931725	
0.12458	
0.192893	
0.189169	
0.180318	
0.178134	
0.233942	
0.239711	
0.246683	
0.107154	
0.058688	
0.185662	
0.185344	
0.177688	
0.174755	
0.162963	
0.154779	
0.172471	
0.171354	
0.172004	
0.183477	
0.179485	
0.18121	
0.188443	
0.176444	
0.177621	
0.159687	
0.149286	
0.115159	
0.102759	
0.119946	
0.107581	
0.205968	
0.215768	
0.20149	
0.204741	
0.121155	
0.112658	
0.154372	
0.219752	
0.227196	
0.180122	
0.18319	
0.144942	
0.184082	
0.199162	
0.115928	
0.103643	
0.126578	
0.123818	
0.147722	
0.130877	
0.126523	
0.13379	
0.237406	
0.250262	
0.223464	
0.20971	
0.204931	
0.0658104	
0.0530625	
0.112911	
0.139871	
0.0779783	
0.0894406	
0.185477	
0.173952	
0.0891093	
0.0677887	
0.124523	
0.125171	
0.130843	
0.131381	
0.101091	
0.233133	
0.226197	
0.155454	
0.138053	
0.153379	
0.146761	
0.121316	
0.15006	
0.148993	
0.144428	
0.143144	
0.0929125	
0.26156	
0.248379	
0.231761	
0.242405	
0.206445	
0.192391	
0.182859	
0.179599	
0.103925	
0.0935523	
0.162267	
0.175464	
0.162576	
0.176504	
0.157626	
0.163401	
0.176725	
0.160607	
0.178174	
0.0912645	
0.145876	
0.151076	
0.145338	
0.238848	
0.232772	
0.232977	
0.227107	
0.23157	
0.238452	
0.168944	
0.172644	
0.16107	
0.167891	
0.244028	
0.231096	
0.236997	
0.190067	
0.182452	
0.194025	
0.0593844	
0.094587	
0.0839728	
0.09499	
0.261978	
0.258552	
0.166133	
0.156885	
0.243348	
0.190801	
0.191284	
0.184281	
0.145224	
0.152203	
0.188275	
0.199485	
0.193669	
0.20068	
0.221506	
0.225428	
0.214966	
0.217861	
0.213987	
0.222219	
0.22787	
0.200502	
0.187883	
0.202768	
0.137739	
0.132549	
0.155298	
0.153914	
0.163938	
0.162212	
0.10426	
0.087668	
0.104417	
0.0921772	
0.1122	
0.165818	
0.158874	
0.152845	
0.149025	
0.148927	
0.136526	
0.140455	
0.13158	
0.226104	
0.220276	
0.168587	
0.163186	
0.160764	
0.201716	
0.203131	
0.193043	
0.196359	
0.0896256	
0.0857203	
0.255615	
0.100642	
0.100904	
0.112276	
0.222666	
0.217262	
0.215838	
0.0981057	
0.0890577	
0.154755	
0.146274	
0.158665	
0.153005	
0.212114	
0.213004	
0.203594	
0.205031	
0.189802	
0.189616	
0.18117	
0.180939	
0.237204	
0.239222	
0.229717	
0.233832	
0.138787	
0.229199	
0.233315	
0.226855	
0.195709	
0.185256	
0.178543	
0.113413	
0.144933	
0.143748	
0.232575	
0.230309	
0.200125	
0.187878	
0.190983	
0.196706	
0.201313	
0.194142	
0.179097	
0.188368	
0.192356	
0.235244	
0.242522	
0.235743	
0.229425	
0.235141	
0.22565	
0.176879	
0.16777	
0.176353	
0.16818	
0.199698	
0.192761	
0.187976	
0.120314	
0.175912	
0.171192	
0.159704	
0.0778173	
0.0761087	
0.086883	
0.0889852	
0.209474	
0.151224	
0.151714	
0.162172	
0.173607	
0.179514	
0.188892	
0.206134	
0.207004	
0.1997	
0.200446	
0.134387	
0.140941	
0.14059	
0.144916	
0.132475	
0.141837	
0.157324	
0.161591	
0.154845	
0.237891	
0.234186	
0.244805	
0.139662	
0.149517	
0.13605	
0.146154	
0.179085	
0.191965	
0.199223	
0.114018	
0.237297	
0.242423	
0.0541125	
0.0678169	
0.0781107	
0.051498	
0.155989	
0.145001	
0.160625	
0.132877	
0.137671	
0.210477	
0.216817	
0.210013	
0.1864	
0.196259	
0.189226	
0.167427	
0.158038	
0.124691	
0.130514	
0.130965	
0.140148	
0.1399	
0.158641	
0.14552	
0.153832	
0.158468	
0.167527	
0.17142	
0.217822	
0.210717	
0.196136	
0.189405	
0.15536	
0.140931	
0.258511	
0.228045	
0.251079	
0.254479	
0.244956	
0.259693	
0.247262	
0.258693	
0.255257	
0.257704	
0.253441	
0.215848	
0.219148	
0.220383	
0.223986	
0.207355	
0.210047	
0.212409	
0.215036	
0.191563	
0.197555	
0.199412	
0.202021	
0.243972	
0.192938	
0.187631	
0.181447	
0.178245	
0.255705	
0.221258	
0.225093	
0.128605	
0.13011	
0.134035	
0.143079	
0.134269	
0.136974	
0.140107	
0.149001	
0.210791	
0.221131	
0.20967	
0.117265	
0.122852	
0.116766	
0.122646	
0.190592	
0.184238	
0.212773	
0.205242	
0.21114	
0.201047	
0.202994	
0.189775	
0.199502	
0.192782	
0.179117	
0.167219	
0.182406	
0.170678	
0.13559	
0.131061	
0.159046	
0.153772	
0.17963	
0.173283	
0.182691	
0.172822	
0.24221	
0.241671	
0.249937	
0.143055	
0.140389	
0.135977	
0.132006	
0.12653	
0.126308	
0.131181	
0.133935	
0.124564	
0.120353	
0.203057	
0.187772	
0.199284	
0.195703	
0.244656	
0.244394	
0.128098	
0.134078	
0.147424	
0.14348	
0.163581	
0.147622	
0.144671	
0.162438	
0.185323	
0.150634	
0.137973	
0.115776	
0.171666	
0.179684	
0.118818	
0.126008	
0.221195	
0.218289	
0.214813	
0.210124	
0.159978	
0.157685	
0.104919	
0.117445	
0.129836	
0.128561	
0.117247	
0.112075	
0.111578	
0.120126	
0.120072	
0.0837386	
0.106817	
0.125866	
0.248438	
0.237592	
0.252037	
0.248437	
0.213965	
0.220646	
0.212179	
0.217484	
0.221165	
0.222058	
0.226358	
0.130577	
0.201375	
0.190031	
0.195127	
0.149865	
0.239291	
0.227865	
0.242624	
0.214213	
0.214827	
0.237513	
0.230639	
0.242144	
0.153273	
0.0707679	
0.0710536	
0.0590764	
0.0500011	
0.19295	
0.19939	
0.258087	
0.252509	
0.0747067	
0.0718739	
0.0801425	
0.0691526	
0.109509	
0.164097	
0.173723	
0.174016	
0.164823	
0.168778	
0.175854	
0.169699	
0.177167	
0.168851	
0.176563	
0.119566	
0.129994	
0.111475	
0.129753	
0.160316	
0.149588	
0.160262	
0.215026	
0.208193	
0.248697	
0.247483	
0.238072	
0.24041	
0.154226	
0.146711	
0.139978	
0.137826	
0.182265	
0.175872	
0.168659	
0.16787	
0.165102	
0.163635	
0.174896	
0.174377	
0.219787	
0.247874	
0.244305	
0.249998	
0.231512	
0.236404	
0.25476	
0.255891	
0.213213	
0.207267	
0.195049	
0.188262	
0.221803	
0.22637	
0.202951	
0.212078	
0.199351	
0.205651	
0.112482	
0.106272	
0.113042	
0.0964233	
0.178825	
0.167785	
0.253745	
0.247122	
0.242054	
0.240833	
0.246657	
0.253078	
0.263145	
0.253092	
0.259031	
0.215964	
0.225708	
0.218526	
0.227302	
0.219572	
0.110758	
0.0668977	
0.0555376	
0.173031	
0.16463	
0.13755	
0.150408	
0.127255	
0.139828	
0.125984	
0.115196	
0.122115	
0.105007	
0.249476	
0.25369	
0.11653	
0.104641	
0.104831	
0.0904736	
0.0961942	
0.123144	
0.115514	
0.107119	
0.10255	
0.112444	
0.0656617	
0.0817054	
0.0511662	
0.123682	
0.119265	
0.120804	
0.111673	
0.108044	
0.0959904	
0.109434	
0.113909	
0.22932	
0.149228	
0.143077	
0.140686	
0.13356	
0.227641	
0.221475	
0.222463	
0.215501	
0.0816754	
0.0644418	
0.124679	
0.118153	
0.111308	
0.0996192	
0.0993938	
0.114836	
0.109277	
0.133919	
0.181321	
0.171537	
0.172468	
0.124734	
0.116887	
0.110013	
0.230314	
0.121864	
0.105122	
0.131408	
0.117427	
0.210918	
0.212644	
0.216361	
0.221441	
0.0856079	
0.098956	
0.0937919	
0.102143	
0.179493	
0.184727	
0.0759255	
0.0637669	
0.0718694	
0.0501473	
0.220339	
0.222657	
0.227027	
0.23154	
0.12025	
0.123891	
0.132057	
0.13564	
0.238226	
0.247758	
0.238855	
0.244624	
0.211978	
0.203292	
0.249634	
0.257347	
0.251008	
0.256408	
0.262841	
0.148292	
0.148085	
0.127541	
0.11355	
0.0994591	
0.0988708	
0.127032	
0.124397	
0.145248	
0.134765	
0.139622	
0.126833	
0.161193	
0.156945	
0.138402	
0.147798	
0.136756	
0.125859	
0.124184	
0.234185	
0.237911	
0.227494	
0.228923	
0.15481	
0.144239	
0.135793	
0.111706	
0.139197	
0.128522	
0.0428115	
0.0451695	
0.029107	
0.0439525	
0.0468821	
-0.318891	
-0.30994	
0.0452287	
0.0337824	
0.0366501	
-0.0503423	
-0.271574	
0.045682	
0.0451247	
-0.0844429	
-0.0894586	
-0.212043	
0.0468271	
-0.0961345	
0.0408257	
0.0396346	
-0.312863	
-0.13389	
-0.0913519	
-0.156824	
-0.0549518	
-0.0728759	
0.015325	
-0.0131454	
-0.261564	
-0.260245	
-0.216649	
-0.095936	
-0.291733	
-0.250635	
-0.0829475	
-0.119151	
-0.0700759	
-0.237299	
-0.235928	
-0.254308	
-0.283523	
-0.300183	
-0.272377	
-0.0118477	
-0.0390359	
-0.170304	
-0.216461	
-0.229027	
-0.225387	
-0.190255	
-0.194328	
-0.149113	
-0.144491	
-0.112902	
-0.253815	
-0.128168	
-0.0972926	
-0.102375	
-0.120643	
-0.109415	
-0.13582	
-0.10498	
-0.106506	
-0.289493	
-0.247345	
-0.127899	
-0.166439	
-0.265899	
-0.0761041	
-0.205937	
-0.115307	
-0.0897945	
-0.155149	
-0.162244	
-0.276479	
-0.319159	
0.0395822	
0.026166	
-0.0248982	
-0.196713	
-0.0670172	
-0.0574054	
-0.224755	
-0.246256	
-0.221802	
-0.273795	
-0.256435	
-0.165875	
-0.170643	
-0.24648	
-0.263511	
-0.236028	
-0.0434651	
-0.275062	
-0.0228377	
-0.0158276	
-0.0752364	
-0.065459	
-0.215577	
-0.13879	
-0.170401	
-0.273582	
-0.107325	
-0.145467	
-0.174775	
-0.158377	
-0.185183	
-0.069499	
-0.25734	
-0.233139	
-0.23902	
-0.205475	
-0.194238	
-0.206416	
-0.0936926	
-0.232733	
-0.0338599	
-0.0746043	
-0.13321	
-0.272256	
-0.263349	
-0.283594	
-0.303773	
-0.200887	
-0.201943	
-0.28833	
-0.277912	
-0.15773	
0.0329163	
-0.00788063	
-0.280753	
-0.280202	
-0.314395	
-0.266599	
-0.179066	
-0.178762	
0.0318624	
-0.00606038	
-0.295441	
-0.302553	
-0.301493	
0.0253606	
0.0397962	
-0.106617	
-0.136708	
-0.0587314	
-0.0489591	
-0.0665816	
-0.231349	
-0.193665	
-0.148725	
-0.17881	
-0.17812	
-0.17794	
-0.128633	
0.0415399	
-0.1536	
-0.158206	
-0.31134	
-0.318285	
-0.142802	
-0.0775141	
-0.251853	
-0.223825	
-0.22274	
-0.156493	
-0.185937	
-0.174026	
-0.193799	
0.0242804	
-0.262918	
-0.100577	
-0.162771	
-0.23398	
-0.183579	
-0.200853	
-0.226808	
-0.23905	
-0.31214	
-0.244506	
-0.24521	
-0.22221	
-0.2211	
-0.0207899	
-0.216468	
-0.206422	
-0.185112	
-0.0928368	
-0.0927509	
-0.117804	
-0.0132615	
-0.0285697	
-0.112126	
-0.0842799	
-0.119202	
-0.206701	
-0.0947583	
-0.319123	
-0.312553	
-0.305428	
-0.0563272	
-0.272516	
-0.258297	
-0.257077	
-0.181636	
-0.227606	
-0.202744	
-0.218514	
-0.177996	
-0.143806	
-0.293235	
-0.297803	
-0.195558	
-0.189034	
-0.176372	
-0.173325	
-0.112011	
-0.242292	
-0.281179	
-0.292636	
-0.149054	
-0.129912	
-0.1675	
0.0151298	
-0.0174565	
-0.0826044	
-0.0689814	
-0.0178869	
-0.0378746	
-0.249168	
-0.261563	
-0.0942413	
-0.0626773	
-0.0824314	
-0.0587714	
-0.0796695	
-0.0637724	
-0.0828961	
-0.280203	
-0.284702	
-0.296418	
-0.308018	
-0.317823	
-0.0360342	
-0.101778	
-0.0510034	
-0.105919	
-0.140971	
-0.162627	
-0.234587	
-0.1844	
-0.114507	
-0.146379	
-0.2261	
-0.21453	
-0.179915	
-0.14737	
-0.17118	
-0.0307066	
-0.0234864	
-0.0508598	
-0.0462172	
-0.122168	
-0.182215	
-0.110167	
-0.0799617	
-0.20829	
-0.177358	
-0.200394	
-0.18129	
-0.253333	
-0.231893	
-0.246873	
-0.23218	
-0.13158	
-0.286307	
-0.269453	
-0.293322	
-0.279538	
-0.130576	
-0.117419	
-0.166447	
-0.191771	
-0.0956293	
-0.0604613	
-0.10879	
-0.0707793	
-0.185713	
-0.207841	
-0.0709589	
-0.0565834	
-0.024943	
-0.247486	
-0.253077	
-0.23304	
-0.237153	
-0.0716213	
-0.0748518	
-0.218471	
-0.208002	
-0.149155	
-0.132582	
-0.163455	
-0.161364	
-0.141933	
-0.217416	
-0.192585	
-0.214685	
-0.20044	
-0.0183388	
0.00404961	
-0.302667	
-0.294077	
-0.110692	
-0.0935917	
-0.138838	
-0.124989	
-0.150214	
-0.137089	
-0.206479	
-0.229076	
-0.20988	
-0.264405	
-0.272741	
-0.257772	
-0.140585	
-0.151687	
-0.128651	
-0.0981259	
-0.111583	
-0.0373588	
-0.0315837	
-0.0116244	
-0.0288822	
-0.00480358	
-0.0507975	
-0.0204401	
-0.0491707	
-0.0518132	
-0.0432602	
-0.0213778	
-0.101358	
-0.0730457	
-0.110478	
-0.0821935	
-0.136452	
-0.0426788	
-0.0613204	
-0.0229969	
-0.0497324	
-0.156319	
-0.119414	
-0.140778	
-0.117698	
-0.0275387	
-0.0619736	
-0.0554415	
-0.0746955	
-0.163086	
-0.186438	
-0.183531	
-0.205214	
-0.194673	
-0.197738	
-0.157313	
-0.154443	
-0.221102	
-0.234078	
-0.244863	
-0.246866	
-0.256358	
-0.268203	
-0.275311	
-0.278551	
-0.275649	
-0.279096	
-0.285231	
-0.293852	
-0.0219669	
-0.0425116	
-0.0740452	
-0.280363	
-0.266104	
-0.288867	
-0.294105	
-0.294749	
-0.282704	
-0.284815	
-0.0249218	
-0.00931815	
-0.199692	
-0.198837	
-0.173432	
-0.313195	
-0.313799	
-0.153214	
-0.158968	
-0.13123	
-0.134151	
-0.314083	
-0.30671	
-0.309825	
-0.30993	
-0.306673	
-0.113364	
-0.207559	
-0.187969	
-0.212192	
-0.195198	
0.0439662	
0.0344553	
-0.0635104	
-0.00944101	
-0.0299903	
-0.0329953	
-0.0103256	
0.0417646	
0.0316949	
-0.0915031	
-0.0580067	
-0.102018	
-0.0770038	
-0.129438	
-0.144519	
-0.165303	
-0.174287	
-0.187164	
-0.187156	
-0.223016	
-0.226259	
-0.0090997	
-0.00631943	
-0.30809	
-0.298866	
-0.0256003	
-0.0031544	
-0.0233964	
-0.000610944	
0.0348945	
-0.0197652	
-0.312422	
-0.243914	
-0.260901	
-0.267509	
-0.029771	
0.00591839	
-0.244052	
-0.252408	
0.0118906	
-0.181006	
-0.180819	
-0.288466	
-0.276485	
-0.29039	
-0.302599	
-0.290126	
-0.305589	
-0.191458	
-0.210377	
-0.120966	
-0.119418	
-0.110291	
-0.270656	
-0.243169	
-0.236809	
-0.119561	
-0.127792	
-0.168011	
-0.151962	
-0.00214138	
0.0417791	
0.0140131	
0.0284354	
-0.0202834	
0.0255161	
0.0456591	
-0.00963252	
-0.227528	
-0.236161	
-0.232798	
-0.307159	
-0.308181	
-0.301778	
0.0314819	
-0.301194	
-0.297279	
-0.125088	
-0.143804	
-0.138528	
0.0452325	
0.0315961	
-0.29192	
-0.289796	
-0.294805	
0.0112059	
0.0419588	
0.0379308	
0.0356648	
-0.172369	
-0.158989	
-0.192697	
-0.194612	
-0.306721	
-0.316145	
-0.31057	
0.0322756	
0.0455534	
0.000137516	
0.0391188	
-0.256178	
-0.250187	
-0.138162	
-0.137141	
0.0415952	
0.0350901	
0.0309907	
-0.295412	
-0.275949	
-0.303055	
-0.297206	
-0.250307	
-0.24359	
-0.266117	
-0.252626	
-0.148694	
-0.13787	
-0.294134	
-0.299226	
-0.242194	
-0.0208551	
-0.0243831	
-0.0553722	
-0.0574724	
0.0402542	
0.0460143	
-0.104829	
-0.0962657	
-0.0668482	
-0.0507128	
-0.316148	
-0.308613	
-0.316063	
-0.308206	
-0.0986249	
-0.0930461	
-0.105583	
-0.0730183	
-0.085572	
0.0292718	
0.0383021	
0.0251647	
-0.176259	
-0.189984	
-0.169744	
-0.191193	
0.0416894	
-0.107813	
-0.0930288	
-0.316757	
-0.315375	
-0.113034	