<VTKFile type="UnstructuredGrid" version="0.1" byte_order="LittleEndian">
	<UnstructuredGrid>
		<Piece NumberOfPoints="1647" NumberOfCells="3046">
			<CellData Scalars="scalars">
				<DataArray type="Float64" Name="Doublet Strengths" NumberOfComponents="1" Format="ascii">
0.246262	
0.21366	
0.233684	
0.0521846	
0.0928639	
0.107216	
0.106186	
0.106457	
0.0530074	
0.0504006	
0.103663	
0.0955745	
0.0533585	
0.101505	
0.105933	
0.0832435	
0.202007	
0.103478	
0.238427	
0.181034	
0.19675	
0.130007	
0.175608	
0.196943	
0.160077	
0.174849	
0.136367	
0.163242	
0.114722	
0.194722	
0.197899	
0.153282	
0.195741	
0.217716	
0.11698	
0.194263	
0.197371	
0.141399	
0.160474	
0.140442	
0.152501	
0.163163	
0.160967	
0.182776	
0.186288	
0.1579	
0.197386	
0.132574	
0.130514	
0.1435	
0.209632	
0.201505	
0.192072	
0.186517	
0.190052	
0.182075	
0.208719	
0.145229	
0.160264	
0.160781	
0.1573	
0.128327	
0.0902234	
0.121831	
0.173927	
0.175813	
0.179499	
0.182095	
0.227513	
0.2296	
0.222372	
0.105299	
0.0489171	
0.170547	
0.172388	
0.177902	
0.181873	
0.165486	
0.154818	
0.157165	
0.149496	
0.173004	
0.166054	
0.172564	
0.169591	
0.175099	
0.173908	
0.180084	
0.155476	
0.145993	
0.0996684	
0.112097	
0.117795	
0.193639	
0.2023	
0.197773	
0.204939	
0.110682	
0.118868	
0.148786	
0.209651	
0.211675	
0.221572	
0.183143	
0.173845	
0.175679	
0.139424	
0.194889	
0.102201	
0.113928	
0.120368	
0.129666	
0.127553	
0.136018	
0.123352	
0.122658	
0.225229	
0.235091	
0.200874	
0.213063	
0.195404	
0.0522316	
0.136006	
0.0872547	
0.076963	
0.0824495	
0.166934	
0.181849	
0.0871741	
0.0658245	
0.126467	
0.127151	
0.120414	
0.121186	
0.100039	
0.22223	
0.214367	
0.148317	
0.136158	
0.150163	
0.138733	
0.107432	
0.136509	
0.138502	
0.144977	
0.143906	
0.106867	
0.0953016	
0.24565	
0.234702	
0.218308	
0.229323	
0.198448	
0.176069	
0.176325	
0.182342	
0.0904767	
0.0745884	
0.232397	
0.169591	
0.160467	
0.167694	
0.157251	
0.16506	
0.152511	
0.169967	
0.171182	
0.16447	
0.0850319	
0.147537	
0.13319	
0.142427	
0.221745	
0.227341	
0.232049	
0.219964	
0.228346	
0.21615	
0.155363	
0.161905	
0.16316	
0.166335	
0.229965	
0.224549	
0.218997	
0.18701	
0.172372	
0.0547155	
0.0697521	
0.0920228	
0.0925168	
0.0866785	
0.248577	
0.243885	
0.159701	
0.151247	
0.229243	
0.184358	
0.181762	
0.171965	
0.14762	
0.148436	
0.184305	
0.180133	
0.19337	
0.184509	
0.216141	
0.211664	
0.208183	
0.203787	
0.206599	
0.218919	
0.212397	
0.212255	
0.185027	
0.192569	
0.194571	
0.132181	
0.132523	
0.148388	
0.149998	
0.156662	
0.162523	
0.0957701	
0.100923	
0.0894757	
0.101271	
0.109976	
0.153853	
0.157092	
0.144569	
0.142351	
0.14177	
0.144397	
0.128363	
0.136576	
0.214957	
0.209718	
0.153231	
0.154653	
0.161949	
0.183462	
0.188678	
0.193811	
0.194949	
0.0839273	
0.0872218	
0.0980737	
0.0975662	
0.108764	
0.20008	
0.201616	
0.20812	
0.0866149	
0.0958763	
0.142146	
0.150109	
0.141123	
0.153758	
0.190588	
0.193931	
0.200136	
0.203499	
0.170912	
0.174736	
0.182976	
0.186904	
0.217311	
0.22278	
0.225384	
0.227653	
0.135067	
0.10147	
0.222258	
0.214706	
0.223074	
0.187557	
0.175219	
0.17769	
0.106314	
0.139836	
0.138523	
0.218591	
0.219161	
0.190142	
0.181463	
0.178936	
0.190287	
0.181579	
0.185963	
0.181411	
0.18077	
0.168833	
0.17245	
0.223398	
0.231333	
0.217963	
0.215028	
0.223802	
0.218175	
0.246201	
0.162322	
0.174917	
0.158575	
0.170341	
0.185703	
0.192054	
0.181212	
0.117187	
0.162661	
0.168697	
0.155125	
0.157735	
0.0757099	
0.0820637	
0.0845172	
0.203745	
0.146702	
0.146198	
0.156322	
0.173369	
0.170295	
0.182063	
0.241526	
0.232206	
0.236775	
0.191619	
0.192117	
0.197593	
0.201032	
0.13049	
0.139779	
0.140281	
0.1302	
0.1374	
0.131881	
0.156396	
0.150077	
0.152374	
0.23049	
0.224833	
0.220901	
0.14502	
0.135527	
0.148584	
0.133426	
0.191519	
0.18483	
0.22903	
0.224246	
0.111898	
0.0660082	
0.0526709	
0.0758543	
0.0501338	
0.151003	
0.144448	
0.127801	
0.127896	
0.201104	
0.198258	
0.20709	
0.184786	
0.17842	
0.188324	
0.16095	
0.152511	
0.127407	
0.121922	
0.136158	
0.127752	
0.149209	
0.141408	
0.143316	
0.15358	
0.153689	
0.16175	
0.16198	
0.201305	
0.207681	
0.182059	
0.188301	
0.155864	
0.136896	
0.150564	
0.245019	
0.247323	
0.237079	
0.241833	
0.212414	
0.239403	
0.236811	
0.245577	
0.241352	
0.232367	
0.239545	
0.241103	
0.238522	
0.209076	
0.20593	
0.213248	
0.209938	
0.203829	
0.201537	
0.192662	
0.196792	
0.186049	
0.190155	
0.233262	
0.176729	
0.176369	
0.168006	
0.16663	
0.20601	
0.208794	
0.126875	
0.125346	
0.13424	
0.136318	
0.132755	
0.130319	
0.140689	
0.142289	
0.19559	
0.197166	
0.119882	
0.11014	
0.119448	
0.114052	
0.177437	
0.185901	
0.197026	
0.205768	
0.193215	
0.196544	
0.194088	
0.185256	
0.191351	
0.165628	
0.172727	
0.164972	
0.171899	
0.128158	
0.132593	
0.128234	
0.148471	
0.157102	
0.166382	
0.176141	
0.166027	
0.170556	
0.238111	
0.234812	
0.225523	
0.228632	
0.139035	
0.128235	
0.128642	
0.122869	
0.123051	
0.133188	
0.127617	
0.120547	
0.184509	
0.178712	
0.189872	
0.188042	
0.2351	
0.131034	
0.13654	
0.139673	
0.143176	
0.155832	
0.147284	
0.192343	
0.185688	
0.225827	
0.216145	
0.14036	
0.0650249	
0.154158	
0.140423	
0.175865	
0.146883	
0.170575	
0.16353	
0.109296	
0.12375	
0.148119	
0.198963	
0.202445	
0.20548	
0.207202	
0.11512	
0.153451	
0.151187	
0.0994205	
0.114383	
0.116922	
0.123665	
0.10518	
0.116717	
0.119103	
0.126221	
0.12676	
0.229866	
0.23519	
0.234803	
0.237791	
0.209408	
0.199653	
0.201521	
0.0735257	
0.0790832	
0.0709783	
0.0684246	
0.214065	
0.215121	
0.206348	
0.210149	
0.206661	
0.205168	
0.123092	
0.182195	
0.186599	
0.192106	
0.0579722	
0.0572515	
0.0692799	
0.069268	
0.144004	
0.229269	
0.217693	
0.219727	
0.147583	
0.190638	
0.185062	
0.238242	
0.243746	
0.163516	
0.164375	
0.151214	
0.155189	
0.22142	
0.227434	
0.221483	
0.226963	
0.159411	
0.169735	
0.163141	
0.159766	
0.170964	
0.160897	
0.167537	
0.131134	
0.116264	
0.125977	
0.109103	
0.145528	
0.154762	
0.154858	
0.199427	
0.205561	
0.226324	
0.228185	
0.23157	
0.234202	
0.1404	
0.143805	
0.132156	
0.134217	
0.162474	
0.16184	
0.171618	
0.169311	
0.172714	
0.168109	
0.159418	
0.152936	
0.212702	
0.202919	
0.21328	
0.208181	
0.211415	
0.242466	
0.249014	
0.236662	
0.238947	
0.223216	
0.219221	
0.194035	
0.201249	
0.18027	
0.187228	
0.110999	
0.095043	
0.114713	
0.104595	
0.162138	
0.168579	
0.242714	
0.237625	
0.242913	
0.238422	
0.232532	
0.24206	
0.234629	
0.228406	
0.232168	
0.227327	
0.216458	
0.21522	
0.208791	
0.145014	
0.134181	
0.135587	
0.124173	
0.0949465	
0.0880063	
0.076941	
0.0641112	
0.101208	
0.112458	
0.10125	
0.0945332	
0.0899054	
0.118595	
0.111476	
0.128	
0.0494752	
0.0635979	
0.0790263	
0.119681	
0.109358	
0.116083	
0.117163	
0.106802	
0.110507	
0.130473	
0.206478	
0.206322	
0.217236	
0.216826	
0.0789322	
0.0623259	
0.114192	
0.107621	
0.120392	
0.112539	
0.118056	
0.111712	
0.121976	
0.108823	
0.119926	
0.19303	
0.190149	
0.185767	
0.112384	
0.10778	
0.10698	
0.104863	
0.0909605	
0.164229	
0.164808	
0.172575	
0.106273	
0.120303	
0.112854	
0.125171	
0.115399	
0.119503	
0.103442	
0.176219	
0.177913	
0.20696	
0.209809	
0.202254	
0.203739	
0.0884029	
0.082905	
0.0987374	
0.0906881	
0.171628	
0.175953	
0.102761	
0.0994648	
0.0576741	
0.0486437	
0.0735789	
0.0618099	
0.119675	
0.103221	
0.127381	
0.11319	
0.230669	
0.226037	
0.191428	
0.196737	
0.143794	
0.135209	
0.134098	
0.124723	
0.124883	
0.136281	
0.112456	
0.141485	
0.132351	
0.118703	
0.122849	
0.13291	
0.108461	
0.128002	
0.137717	
0.144065	
0.128752	
0.136185	
0.220391	
0.222141	
0.22657	
0.129035	
0.135208	
0.110956	
0.116359	
0.215511	
0.217252	
0.207355	
0.208748	
0.213606	
0.220187	
0.209399	
0.21119	
0.0945519	
0.0991002	
0.0956185	
0.0999175	
0.0348797	
0.0459578	
0.0404655	
0.0445659	
0.0472925	
-0.302538	
-0.296228	
0.0433746	
0.0433234	
0.046004	
0.0422318	
0.0368167	
-0.261187	
0.0460769	
-0.0826942	
-0.0875811	
-0.203841	
-0.117709	
0.0415348	
0.0403655	
-0.128672	
-0.080821	
-0.151283	
-0.0688172	
-0.0726928	
0.0168944	
-0.0110318	
-0.247771	
-0.252481	
-0.209767	
-0.0913779	
-0.287749	
-0.241761	
-0.0798594	
-0.114565	
-0.0669525	
-0.215124	
-0.22757	
-0.24545	
-0.273159	
-0.288163	
-0.262698	
-0.00997286	
-0.0365283	
-0.162499	
-0.209515	
-0.179113	
-0.203533	
-0.199848	
-0.218035	
-0.145145	
-0.159033	
-0.11411	
-0.24533	
-0.137516	
-0.0989421	
-0.105197	
-0.117018	
-0.104538	
-0.100262	
-0.130439	
-0.102868	
-0.27858	
-0.241694	
-0.125849	
-0.167937	
-0.256696	
-0.0729222	
-0.199408	
-0.110884	
-0.0858129	
-0.153907	
-0.157637	
-0.255115	
-0.305136	
0.0273443	
0.0265441	
-0.0225485	
-0.190515	
-0.0546204	
-0.0640815	
-0.237691	
-0.217354	
-0.214858	
-0.247838	
-0.264098	
-0.171111	
-0.165604	
-0.254501	
-0.238477	
-0.228514	
-0.0401128	
-0.266224	
-0.0088058	
-0.0482492	
-0.0366275	
-0.0768157	
-0.207571	
-0.14966	
-0.165842	
-0.264023	
-0.10353	
-0.152931	
-0.1841	
-0.140371	
-0.150282	
-0.0664129	
-0.225341	
-0.248665	
-0.198901	
-0.231138	
-0.18151	
-0.199132	
-0.0624457	
-0.0898475	
-0.223959	
-0.0325452	
-0.0477494	
-0.0701979	
-0.14301	
-0.253625	
-0.261609	
-0.272546	
-0.291196	
-0.203219	
-0.195537	
-0.268243	
-0.277557	
-0.154148	
0.0339025	
-0.00613279	
-0.299294	
-0.252372	
-0.173527	
-0.18855	
-0.186659	
0.0343883	
-0.00362263	
-0.282652	
-0.289209	
-0.287675	
0.0302718	
0.0402496	
-0.104363	
-0.1335	
-0.0558313	
-0.0634419	
-0.0466444	
0.0472921	
-0.22279	
-0.186258	
-0.165489	
-0.172984	
-0.126812	
-0.172527	
-0.124367	
-0.149561	
-0.136325	
-0.154467	
-0.297754	
-0.303095	
-0.115217	
-0.0737874	
-0.216188	
-0.229112	
-0.243052	
-0.178784	
-0.145368	
-0.186295	
-0.167016	
0.025493	
-0.253984	
-0.0857783	
-0.0965369	
-0.15753	
-0.224561	
-0.178015	
-0.194474	
-0.216556	
-0.230911	
-0.29668	
-0.21483	
-0.220687	
-0.224318	
-0.23675	
-0.0182552	
-0.209448	
-0.179086	
-0.19977	
-0.0891687	
-0.0892271	
-0.118022	
-0.113659	
-0.0123242	
-0.0270951	
-0.108681	
-0.0881347	
-0.200159	
-0.101108	
-0.292358	
-0.297991	
-0.0480239	
-0.260213	
-0.252663	
-0.247995	
-0.17716	
-0.217491	
-0.176681	
-0.210656	
-0.171184	
-0.1141	
-0.285195	
-0.281146	
-0.16092	
-0.168094	
-0.189548	
-0.194415	
-0.0845322	
-0.106504	
-0.281822	
-0.270929	
-0.145434	
-0.162106	
0.0170335	
-0.0255938	
-0.0147713	
-0.065647	
-0.0352338	
-0.0157594	
-0.240181	
-0.252117	
-0.305557	
-0.091114	
-0.0794321	
-0.0600363	
-0.0611881	
-0.0800245	
-0.0485512	
-0.0768566	
-0.270628	
-0.285378	
-0.274698	
-0.30393	
-0.28814	
-0.0708383	
-0.101308	
-0.0973457	
-0.135175	
-0.179881	
-0.225272	
-0.178345	
-0.114568	
-0.115263	
-0.13016	
-0.207008	
-0.217742	
-0.144728	
-0.161654	
-0.143226	
-0.160764	
-0.0165969	
-0.0287109	
-0.0440008	
-0.0563035	
-0.275932	
-0.189086	
-0.125485	
-0.0722047	
-0.10621	
-0.188381	
-0.201397	
-0.175436	
-0.193907	
-0.236269	
-0.244364	
-0.224503	
-0.238312	
-0.279314	
-0.26963	
-0.275873	
-0.263013	
-0.141592	
-0.100206	
-0.185932	
-0.174527	
-0.0676055	
-0.0922039	
-0.0676173	
-0.0938622	
-0.192501	
-0.198578	
-0.0534225	
-0.0571661	
-0.0222982	
-0.225606	
-0.229636	
-0.239478	
-0.249036	
-0.0475608	
-0.0676888	
-0.209416	
-0.209226	
-0.128562	
-0.158373	
-0.124027	
-0.156417	
-0.221736	
-0.183296	
-0.208098	
0.00540706	
-0.021724	
-0.281455	
-0.289455	
-0.0914977	
-0.10812	
-0.145684	
-0.132913	
-0.134543	
-0.121029	
-0.213919	
-0.194507	
-0.221608	
-0.255401	
-0.244519	
-0.262994	
-0.150064	
-0.134628	
-0.122912	
-0.0866997	
-0.0930978	
-0.0353859	
-0.0297037	
-0.0238352	
-0.00734274	
-0.0208922	
-0.00320517	
-0.0466264	
-0.0184614	
-0.0491953	
-0.0402245	
-0.0408995	
-0.106125	
-0.0972421	
-0.069587	
-0.131486	
-0.0208729	
-0.0472614	
-0.0191415	
-0.0585164	
-0.135052	
-0.112506	
-0.150079	
-0.13785	
-0.0269179	
-0.0245435	
-0.0707427	
-0.051867	
-0.195425	
-0.198078	
-0.156824	
-0.156511	
-0.152334	
-0.172395	
-0.171654	
-0.191472	
-0.236595	
-0.238452	
-0.221448	
-0.226343	
-0.258948	
-0.251227	
-0.268611	
-0.265479	
-0.269107	
-0.26587	
-0.280783	
-0.274927	
-0.0707508	
-0.0197553	
-0.0398685	
-0.265812	
-0.256358	
-0.282359	
-0.27412	
-0.28205	
-0.270309	
-0.269937	
-0.00756382	
-0.022807	
-0.192504	
-0.182156	
-0.171874	
-0.296251	
-0.298137	
-0.299653	
-0.15491	
-0.136204	
-0.14252	
-0.128107	
-0.300002	
-0.29494	
-0.290502	
-0.295518	
-0.292373	
-0.123337	
-0.182008	
-0.200977	
-0.176471	
-0.205518	
0.035298	
0.0445568	
-0.0599273	
-0.0582582	
-0.0068096	
-0.0300701	
-0.00796426	
0.0332552	
0.0433315	
-0.0541019	
-0.106325	
-0.0511947	
-0.097076	
-0.126769	
-0.141308	
-0.169395	
-0.166185	
-0.180936	
-0.187668	
-0.216112	
-0.219273	
-0.00496554	
-0.00776962	
-0.295741	
-0.287531	
-0.0236195	
-0.00155548	
-0.24953	
-0.0185874	
0.0353507	
-0.2342	
-0.00130198	
-0.303889	
-0.258235	
-0.017791	
0.00192579	
0.0129677	
-0.177053	
-0.165616	
-0.269742	
-0.277276	
-0.278831	
-0.282216	
-0.290144	
-0.292479	
-0.186012	
-0.202473	
-0.117375	
-0.106939	
-0.115976	
-0.256126	
-0.21941	
-0.235082	
-0.237729	
-0.109201	
-0.137905	
-0.146951	
-0.164801	
-0.00314665	
0.0156213	
0.0423788	
-0.0271195	
0.0294637	
0.0461527	
0.0266012	
-0.00781265	
-0.267494	
-0.294613	
-0.289316	
-0.294728	
0.0344528	
-0.289355	
-0.286037	
-0.139177	
-0.120903	
-0.134063	
0.0312105	
0.0434437	
-0.279129	
-0.281203	
-0.278373	
-0.244403	
0.0124843	
-0.249809	
-0.242068	
-0.234569	
0.0385888	
0.0423626	
0.0455602	
-0.186684	
-0.173234	
-0.166842	
-0.150089	
-0.294391	
-0.295956	
-0.297867	
0.0458194	
0.0333357	
0.0398965	
0.00738288	
-0.267114	
-0.265008	
-0.26128	
-0.133368	
-0.134304	
0.0452598	
0.0316433	
-0.292223	
-0.28558	
-0.283834	
-0.144384	
-0.133899	
-0.282802	
-0.287829	
-0.234158	
-0.0219679	
-0.0184759	
-0.054334	
-0.0522391	
0.0469183	
0.0411318	
-0.0638136	
-0.0733131	
-0.0912486	
-0.0926981	
-0.30227	
-0.302122	
-0.295728	
-0.302187	
-0.095053	
-0.0713753	
-0.0856941	
-0.0911107	
-0.110492	
0.0390504	
0.0302744	
0.026589	
-0.176943	
-0.186869	
-0.162225	
-0.184503	
0.0420329	
-0.102467	
-0.102381	
-0.0877316	
-0.299626	
-0.304186	
-0.238869	
-0.247049	
-0.0901938	
-0.109135	
-0.257646	
-0.247653	
0.00261113	
0.0068912	
-0.229131	
-0.251314	
-0.242142	
-0.183598	
-0.203025	
-0.173212	
-0.187877	
-0.0315951	
-0.0790971	
-0.0398426	
-0.0335034	
-0.0785524	
-0.0621278	
-0.300037	
-0.30285	
-0.300542	
-0.30297	
-0.026502	
-0.0334069	
0.0285832	
-0.229041	
-0.211099	
-0.274427	
-0.268556	
-0.150533	
-0.14593	
-0.109252	
-0.0941031	
-0.289415	
-0.283385	
-0.298159	
-0.295657	
-0.289825	
-0.282919	
-0.149495	
-0.152909	
-0.127603	
-0.131347	
-0.230331	
-0.244588	
-0.16738	
-0.180797	
-0.199225	
-0.200751	
-0.296727	
-0.298009	
-0.298613	
-0.297927	
-0.258318	
-0.270328	
-0.279524	
-0.273874	
-0.280646	
-0.241408	
-0.23137	
-0.249504	
-0.255823	
-0.0220468	
0.0188695	
0.0406169	
-0.259383	
-0.257435	
-0.0733816	
-0.0579556	
-0.104034	
-0.197227	
-0.212633	
-0.196875	
-0.227555	
-0.224639	
-0.23136	
-0.234766	
-0.239173	
-0.301842	
-0.298425	
-0.297204	
-0.291311	
-0.265578	
-0.249099	
-0.260209	
-0.282263	
0.0233833	
-0.0329326	
0.0365401	
0.0146145	
-0.202318	
-0.225922	
-0.222179	
-0.201894	
-0.215806	
-0.016854	
0.0364367	
0.0333171	
-0.0141127	
0.0435438	
0.0259229	
-0.255715	
-0.261956	
-0.260778	
-0.269317	
0.0381359	
0.0174034	
-0.209773	
-0.237762	
-0.217343	
-0.242282	
-0.23305	
-0.239343	
-0.250021	
-0.226314	
-0.220439	
-0.235221	
-0.107984	
-0.113283	
-0.126325	
-0.1379	
-0.291014	
-0.290189	
-0.292699	
-0.210407	
-0.199925	
-0.28276	
-0.279182	
-0.269161	
-0.270601	
-0.190397	
-0.207032	
-0.201509	
-0.216954	
-0.0848072	
-0.107676	
-0.27622	
-0.27856	
-0.295917	
-0.299502	
-0.0480149	
-0.0607845	
-0.0671971	
-0.0757234	
-0.217676	
-0.206637	
-0.202301	
-0.197556	
-0.1085	
-0.130811	
-0.139328	
-0.156848	
-0.254928	
-0.266225	
-0.266355	
-0.275662	
-0.142479	
-0.134759	
-0.17644	
-0.169086	
-0.223023	
-0.21376	
-0.0536411	
-0.032198	
-0.076854	
-0.062649	
-0.249055	
-0.245877	
-0.30238	
-0.301211	
-0.302333	
-0.304686	
-0.287096	
-0.286493	
-0.12839	
-0.14176	
-0.168515	
-0.177784	
-0.0176461	
-0.00599812	
0.0365833	
0.03411	
-0.176252	
-0.143684	
-0.166581	
-0.132019	
-0.0107953	
-0.00463151	
-0.00760191	
-0.00109936	
0.00200669	
0.013436	
0.0197468	
0.0222702	
0.0162212	
-0.00939114	
-0.00115052	
0.0068686	
0.00265521	
0.00901539	
0.0181852	
0.0224721	
0.00961132	
0.0139354	
0.00591558	
-0.00526863	
0.00449373	
-0.0100528	
-0.0139285	
-0.00313811	
-0.0215835	
-0.0216288	
-0.0163128	
-0.0228375	
-0.0193292	
0.0146134	
0.0124558	
-0.000824158	
0.00528698	
-0.0058382	
-0.0174356	
-0.0166143	
-0.0158214	
-0.0138246	
-0.00943207	
0.0178188	
0.242301	
0.21451	
0.23371	
0.0520132	
0.098174	
0.0546804	
0.18192	
0.107141	
0.105488	
0.106053	
0.106557	
0.0759418	
0.0498475	
0.103797	
0.0955337	
0.0913569	
0.0533764	
0.101602	
0.0843132	
0.203427	
0.189277	
0.133102	
0.175726	
0.196528	
0.160176	
0.175175	
0.13614	
0.114942	
0.198626	
0.193623	
0.153343	
0.195273	
0.217707	
0.120159	
0.116175	
0.194483	
0.197937	
0.14801	
0.160384	
0.140937	
0.152186	
0.163333	
0.161219	
0.186592	
0.185987	
0.153011	
0.197841	
0.132758	
0.130818	
0.135072	
0.20102	
0.1868	
0.192451	
0.182339	
0.184578	
0.208539	
0.160764	
0.16146	
0.157953	
0.128557	
0.0898206	
0.121733	
0.185224	
0.181851	
0.173777	
0.171769	
0.221736	
0.22672	
0.232371	
0.10457	
0.057297	
0.178627	
0.178343	
0.171216	
0.168531	
0.15702	
0.149363	
0.165794	
0.164706	
0.166068	
0.176322	
0.172619	
0.174184	
0.180533	
0.169816	
0.170807	
0.154441	
0.144768	
0.113261	
0.101311	
0.117602	
0.105754	
0.197321	
0.206057	
0.193303	
0.196244	
0.118735	
0.110592	
0.149109	
0.209633	
0.215967	
0.173588	
0.176348	
0.140282	
0.17637	
0.190183	
0.113986	
0.10215	
0.123729	
0.121155	
0.143448	
0.127771	
0.123586	
0.130462	
0.222861	
0.235118	
0.212611	
0.200449	
0.195725	
0.0650013	
0.0521944	
0.110566	
0.135876	
0.0770904	
0.0881463	
0.177713	
0.167025	
0.0855288	
0.0652478	
0.120656	
0.12136	
0.126743	
0.127351	
0.0995326	
0.220843	
0.214773	
0.150337	
0.13417	
0.148378	
0.142296	
0.118836	
0.145243	
0.144169	
0.139979	
0.138686	
0.0889197	
0.24443	
0.233559	
0.219215	
0.22865	
0.196828	
0.18408	
0.176044	
0.173	
0.101249	
0.0904623	
0.156774	
0.169296	
0.157074	
0.170082	
0.152446	
0.157801	
0.169584	
0.154724	
0.171012	
0.0885388	
0.141541	
0.146427	
0.141086	
0.225998	
0.220795	
0.220975	
0.21608	
0.219907	
0.225577	
0.163183	
0.166385	
0.155873	
0.161957	
0.229148	
0.218119	
0.222723	
0.180378	
0.173646	
0.18457	
0.0577586	
0.0924936	
0.0821357	
0.0926554	
0.245354	
0.242216	
0.159785	
0.151214	
0.228693	
0.18242	
0.182493	
0.176662	
0.141085	
0.147589	
0.180509	
0.190466	
0.185096	
0.191285	
0.211126	
0.214608	
0.205395	
0.207988	
0.204437	
0.21172	
0.216601	
0.192166	
0.180479	
0.194178	
0.132681	
0.128186	
0.150194	
0.148782	
0.158428	
0.156703	
0.1011	
0.0851663	
0.101442	
0.0896336	
0.109837	
0.160149	
0.153593	
0.147859	
0.144347	
0.144351	
0.132867	
0.13647	
0.128227	
0.214292	
0.209656	
0.162351	
0.157442	
0.155049	
0.193566	
0.194835	
0.18562	
0.188636	
0.0878641	
0.0840508	
0.239399	
0.097733	
0.0982479	
0.108952	
0.209721	
0.205485	
0.203904	
0.0942659	
0.0857809	
0.150073	
0.142109	
0.153707	
0.148394	
0.20134	
0.201656	
0.193952	
0.194928	
0.182657	
0.182501	
0.174641	
0.174443	
0.224669	
0.226381	
0.218182	
0.221776	
0.135058	
0.217906	
0.221388	
0.215821	
0.187439	
0.17766	
0.171484	
0.110536	
0.140143	
0.138893	
0.220418	
0.218577	
0.191219	
0.179931	
0.182849	
0.18718	
0.191554	
0.18521	
0.17222	
0.181098	
0.184696	
0.222818	
0.228978	
0.223603	
0.218102	
0.223072	
0.214844	
0.170643	
0.162056	
0.170105	
0.162412	
0.191663	
0.185352	
0.1809	
0.11716	
0.169496	
0.165076	
0.154373	
0.0758125	
0.0745892	
0.0846407	
0.0868075	
0.199443	
0.146396	
0.14681	
0.15657	
0.167401	
0.173023	
0.181765	
0.197467	
0.198163	
0.191632	
0.192223	
0.130476	
0.136668	
0.136416	
0.140444	
0.12875	
0.137564	
0.152344	
0.156254	
0.149961	
0.22448	
0.221683	
0.230196	
0.135395	
0.144692	
0.132154	
0.141593	
0.172477	
0.184512	
0.191138	
0.111708	
0.22408	
0.228684	
0.051917	
0.0650553	
0.075972	
0.050204	
0.150923	
0.140862	
0.155285	
0.128259	
0.132912	
0.201162	
0.206999	
0.200925	
0.179323	
0.188376	
0.181917	
0.16095	
0.15231	
0.121972	
0.127387	
0.127819	
0.136376	
0.136168	
0.153708	
0.14143	
0.149221	
0.153557	
0.161979	
0.165604	
0.207547	
0.201252	
0.188015	
0.181798	
0.150591	
0.137129	
0.241955	
0.214461	
0.235631	
0.238482	
0.230993	
0.2433	
0.232217	
0.243267	
0.240091	
0.241841	
0.237921	
0.205999	
0.209001	
0.209929	
0.213201	
0.198077	
0.200592	
0.202458	
0.204956	
0.184034	
0.189522	
0.191116	
0.193532	
0.230277	
0.182371	
0.178016	
0.172314	
0.169497	
0.239707	
0.208536	
0.211977	
0.125361	
0.126849	
0.130282	
0.138782	
0.130833	
0.133414	
0.136201	
0.14452	
0.198804	
0.208349	
0.198448	
0.114711	
0.119911	
0.11409	
0.119512	
0.18333	
0.177329	
0.203471	
0.196751	
0.201979	
0.192914	
0.193814	
0.182258	
0.191024	
0.185062	
0.172683	
0.161716	
0.175685	
0.164908	
0.132047	
0.127771	
0.153576	
0.148735	
0.172395	
0.1667	
0.175356	
0.166386	
0.228822	
0.228499	
0.235218	
0.139033	
0.136518	
0.132008	
0.128223	
0.123144	
0.122863	
0.127388	
0.129912	
0.121006	
0.116951	
0.191605	
0.17795	
0.188939	
0.185467	
0.230702	
0.230662	
0.125101	
0.130704	
0.143037	
0.13933	
0.156568	
0.141979	
0.140074	
0.154847	
0.176772	
0.144371	
0.131833	
0.110872	
0.164328	
0.171479	
0.113958	
0.12334	
0.209918	
0.20739	
0.204239	
0.200052	
0.154025	
0.151671	
0.10304	
0.115023	
0.126501	
0.125173	
0.115062	
0.110178	
0.109795	
0.117609	
0.117579	
0.0825665	
0.105072	
0.123259	
0.233642	
0.224572	
0.236556	
0.233591	
0.203504	
0.209318	
0.20181	
0.206494	
0.209758	
0.210372	
0.214161	
0.127437	
0.192278	
0.182219	
0.186736	
0.144446	
0.226159	
0.21619	
0.228937	
0.204071	
0.204382	
0.224437	
0.21854	
0.228506	
0.147963	
0.0692833	
0.069331	
0.057935	
0.0489353	
0.184901	
0.190592	
0.241844	
0.236761	
0.0734783	
0.0709725	
0.0790626	
0.0684405	
0.107353	
0.156463	
0.165341	
0.165641	
0.159359	
0.163065	
0.169643	
0.16184	
0.168636	
0.160798	
0.167771	
0.114873	
0.124666	
0.107028	
0.124375	
0.154698	
0.144788	
0.15465	
0.205473	
0.199355	
0.234023	
0.233053	
0.225371	
0.227395	
0.147354	
0.140259	
0.134419	
0.132101	
0.175015	
0.169114	
0.162352	
0.161687	
0.159388	
0.157832	
0.168633	
0.167918	
0.209138	
0.233252	
0.230432	
0.234868	
0.218817	
0.222768	
0.238638	
0.23929	
0.201028	
0.195768	
0.187342	
0.181062	
0.20998	
0.21319	
0.193619	
0.201831	
0.190356	
0.196067	
0.110152	
0.104591	
0.110956	
0.0950577	
0.172331	
0.162076	
0.238755	
0.232976	
0.22843	
0.227272	
0.232053	
0.237513	
0.245877	
0.237389	
0.242187	
0.20608	
0.214653	
0.208369	
0.216042	
0.209337	
0.105795	
0.0640239	
0.0531134	
0.166822	
0.158985	
0.133944	
0.145526	
0.124162	
0.13569	
0.123123	
0.113281	
0.119814	
0.103404	
0.234773	
0.23851	
0.112219	
0.100932	
0.101239	
0.0892366	
0.0946756	
0.118696	
0.111583	
0.104647	
0.100836	
0.109762	
0.0635278	
0.0789957	
0.0494251	
0.120824	
0.115835	
0.117222	
0.108675	
0.106175	
0.094578	
0.106454	
0.110607	
0.217142	
0.14435	
0.138533	
0.136453	
0.129759	
0.216343	
0.211	
0.211808	
0.205705	
0.0788373	
0.0622006	
0.120657	
0.114421	
0.10782	
0.097481	
0.0971165	
0.112256	
0.107441	
0.127818	
0.173385	
0.164831	
0.165505	
0.120586	
0.113036	
0.106467	
0.216566	
0.119529	
0.103474	
0.128228	
0.115343	
0.201709	
0.203203	
0.206474	
0.210915	
0.0829846	
0.0959281	
0.0907966	
0.0988936	
0.172119	
0.176621	
0.0736548	
0.0618603	
0.0698568	
0.0487098	
0.209287	
0.211246	
0.215319	
0.219192	
0.117632	
0.121057	
0.128317	
0.13162	
0.225622	
0.233467	
0.226207	
0.230941	
0.20018	
0.193058	
0.234751	
0.24124	
0.235853	
0.240331	
0.246237	
0.143286	
0.143145	
0.124526	
0.111172	
0.095086	
0.0947426	
0.121256	
0.118859	
0.140723	
0.131278	
0.135434	
0.123869	
0.153526	
0.149781	
0.132404	
0.141281	
0.132753	
0.123009	
0.121416	
0.220119	
0.223536	
0.214509	
0.215522	
0.147469	
0.137606	
0.131878	
0.109492	
0.135035	
0.125472	
0.0436569	
0.0456627	
0.0303468	
0.044632	
0.0473012	
-0.302077	
-0.295929	
0.0457958	
0.0346842	
0.0368017	
-0.0489173	
-0.260447	
0.0464759	
0.0459181	
-0.0825932	
-0.0873097	
-0.20377	
0.0471626	
-0.0936942	
0.0415942	
0.0403479	
-0.297652	
-0.128487	
-0.0887349	
-0.151059	
-0.0511583	
-0.0687294	
0.0169993	
-0.0109453	
-0.252041	
-0.250785	
-0.209474	
-0.0912641	
-0.280218	
-0.241088	
-0.0800303	
-0.114398	
-0.066971	
-0.228675	
-0.227198	
-0.24547	
-0.272866	
-0.287983	
-0.26248	
-0.00998389	
-0.0365372	
-0.164753	
-0.209401	
-0.221145	
-0.217584	
-0.183819	
-0.187583	
-0.145409	
-0.139219	
-0.108366	
-0.245111	
-0.12422	
-0.0940637	
-0.0991346	
-0.117237	
-0.104403	
-0.13026	
-0.100126	
-0.103074	
-0.278432	
-0.23895	
-0.124907	
-0.162037	
-0.256316	
-0.0729526	
-0.19956	
-0.110714	
-0.0856529	
-0.150233	
-0.158028	
-0.265536	
-0.302964	
0.04033	
0.0273844	
-0.0224787	
-0.190519	
-0.0641263	
-0.0546528	
-0.217712	
-0.237967	
-0.214822	
-0.263806	
-0.247541	
-0.161215	
-0.165963	
-0.238135	
-0.254276	
-0.228185	
-0.0400402	
-0.264026	
-0.0208381	
-0.0139626	
-0.0722595	
-0.0626842	
-0.207234	
-0.135513	
-0.16604	
-0.263209	
-0.103576	
-0.140165	
-0.168836	
-0.152702	
-0.178832	
-0.0678709	
-0.248594	
-0.225479	
-0.231046	
-0.198787	
-0.18883	
-0.200341	
-0.0897873	
-0.225117	
-0.0327695	
-0.0701932	
-0.128315	
-0.26201	
-0.25382	
-0.271787	
-0.290472	
-0.194219	
-0.195264	
-0.277461	
-0.267896	
-0.153809	
0.0338174	
-0.00614918	
-0.267996	
-0.268	
-0.299771	
-0.254908	
-0.173761	
-0.173417	
0.033267	
-0.00361696	
-0.281187	
-0.288533	
-0.287062	
0.0266551	
0.0405729	
-0.104198	
-0.133273	
-0.0569364	
-0.0471145	
-0.0645432	
-0.222364	
-0.186051	
-0.143499	
-0.172809	
-0.17258	
-0.172433	
-0.124406	
0.0422403	
-0.149255	
-0.153269	
-0.296907	
-0.301613	
-0.137854	
-0.0736447	
-0.242596	
-0.215914	
-0.214761	
-0.149966	
-0.178616	
-0.166982	
-0.186172	
0.0254827	
-0.25381	
-0.0964588	
-0.157509	
-0.22599	
-0.178512	
-0.195049	
-0.219471	
-0.231149	
-0.297464	
-0.236238	
-0.236817	
-0.214949	
-0.213839	
-0.0179353	
-0.20939	
-0.19969	
-0.17902	
-0.0892264	
-0.0891812	
-0.113652	
-0.012424	
-0.0274259	
-0.109148	
-0.0819065	
-0.116181	
-0.200606	
-0.0914156	
-0.302983	
-0.298274	
-0.292453	
-0.0536187	
-0.262848	
-0.248954	
-0.247956	
-0.175695	
-0.219356	
-0.195157	
-0.210293	
-0.170991	
-0.137731	
-0.280589	
-0.283971	
-0.189916	
-0.183535	
-0.171451	
-0.168343	
-0.109457	
-0.232868	
-0.270277	
-0.280789	
-0.145299	
-0.1256	
-0.162228	
0.017081	
-0.0147322	
-0.079071	
-0.0655932	
-0.0157166	
-0.0351737	
-0.239441	
-0.251192	
-0.0913165	
-0.0601975	
-0.0796018	
-0.056613	
-0.0771565	
-0.0613569	
-0.0802285	
-0.26895	
-0.273005	
-0.283906	
-0.294016	
-0.302016	
-0.0328483	
-0.0972083	
-0.0474872	
-0.101166	
-0.13503	
-0.156297	
-0.226169	
-0.178226	
-0.111772	
-0.142799	
-0.218609	
-0.207959	
-0.175038	
-0.143533	
-0.166733	
-0.0288688	
-0.0219145	
-0.0487348	
-0.0443379	
-0.118045	
-0.176425	
-0.106311	
-0.076878	
-0.201592	
-0.171751	
-0.194056	
-0.175566	
-0.24456	
-0.224331	
-0.238543	
-0.224668	
-0.12665	
-0.275597	
-0.260022	
-0.282049	
-0.26943	
-0.126502	
-0.113403	
-0.162032	
-0.186446	
-0.0924179	
-0.0576575	
-0.105415	
-0.0678801	
-0.179827	
-0.200628	
-0.0680405	
-0.0537949	
-0.0226864	
-0.239014	
-0.244187	
-0.225206	
-0.229087	
-0.0675848	
-0.0707319	
-0.210923	
-0.201582	
-0.145074	
-0.128808	
-0.158614	
-0.156661	
-0.137746	
-0.210765	
-0.186916	
-0.208182	
-0.194558	
-0.0167542	
0.00528378	
-0.289496	
-0.281526	
-0.10803	
-0.0914195	
-0.134783	
-0.121252	
-0.145959	
-0.133166	
-0.199554	
-0.221347	
-0.202927	
-0.254733	
-0.262755	
-0.248699	
-0.134549	
-0.145317	
-0.122894	
-0.0931071	
-0.106268	
-0.0359068	
-0.0301116	
-0.00965043	
-0.0265728	
-0.00316626	
-0.0482725	
-0.0184817	
-0.0466642	
-0.0491983	
-0.0410697	
-0.0194384	
-0.0971285	
-0.0694788	
-0.106022	
-0.0784719	
-0.131394	
-0.0403948	
-0.0586874	
-0.0209684	
-0.0472042	
-0.149928	
-0.114002	
-0.13489	
-0.112386	
-0.0245191	
-0.0581642	
-0.0517966	
-0.0706435	
-0.15663	
-0.179617	
-0.17646	
-0.197769	
-0.18848	
-0.191541	
-0.152409	
-0.149615	
-0.213608	
-0.226108	
-0.236288	
-0.238229	
-0.247158	
-0.258282	
-0.264876	
-0.267909	
-0.265284	
-0.268576	
-0.274167	
-0.282093	
-0.0197403	
-0.0398635	
-0.070741	
-0.269425	
-0.256374	
-0.275698	
-0.280088	
-0.281001	
-0.270247	
-0.271652	
-0.0228334	
-0.00758783	
-0.193195	
-0.19277	
-0.168341	
-0.297849	
-0.299299	
-0.149487	
-0.155037	
-0.128071	
-0.130848	
-0.298332	
-0.29254	
-0.295143	
-0.295684	
-0.292009	
-0.109167	
-0.200865	
-0.181942	
-0.205363	
-0.189026	
0.0444804	
0.035295	
-0.0597884	
-0.00691842	
-0.0269109	
-0.0298866	
-0.00779777	
0.0427437	
0.0331156	
-0.086667	
-0.0540699	
-0.0970058	
-0.0726273	
-0.126446	
-0.140974	
-0.161106	
-0.16977	
-0.182067	
-0.182082	
-0.216021	
-0.219093	
-0.00796769	
-0.00513141	
-0.294352	
-0.286397	
-0.023757	
-0.00166343	
-0.0212337	
0.00105107	
0.0353062	
-0.017689	
-0.29784	
-0.234769	
-0.249866	
-0.257066	
-0.0269556	
0.00728412	
-0.235228	
-0.24289	
0.0128542	
-0.176163	
-0.175837	
-0.276453	
-0.265907	
-0.277741	
-0.290033	
-0.279197	
-0.292359	
-0.186131	
-0.20385	
-0.117586	
-0.116225	
-0.107145	
-0.26035	
-0.235089	
-0.228995	
-0.115169	
-0.123313	
-0.162446	
-0.146919	
-0.000478987	
0.0426465	
0.0157769	
0.0298959	
-0.0175894	
0.0267178	
0.0462196	
-0.00778128	
-0.219832	
-0.227724	
-0.224732	
-0.293803	
-0.29474	
-0.289336	
0.0325363	
-0.288642	
-0.284995	
-0.121002	
-0.139278	
-0.134143	
0.0457712	
0.0325961	
-0.280216	
-0.278251	
-0.28243	
0.0123719	
0.0423127	
0.0384984	
0.0365952	
-0.166987	
-0.154079	
-0.186831	
-0.188756	
-0.293164	
-0.300551	
-0.29632	
0.0332446	
0.046066	
0.00166845	
0.0398886	
-0.245227	
-0.239993	
-0.134575	
-0.133655	
0.0422925	
0.0360226	
0.0324022	
-0.282984	
-0.265331	
-0.289871	
-0.28482	
-0.241483	
-0.235204	
-0.255302	
-0.243311	
-0.144691	
-0.134151	
-0.282579	
-0.287048	
-0.234091	
-0.0183717	
-0.0218718	
-0.0521206	
-0.0542252	
0.0408949	
0.0465021	
-0.101264	
-0.0928184	
-0.0639463	
-0.0480867	
-0.300194	
-0.294847	
-0.300397	
-0.294517	
-0.0951302	
-0.0909868	
-0.103129	
-0.0714055	
-0.0836144	
0.0302624	
0.0390165	
0.0267903	
-0.171317	
-0.184443	
-0.16524	
-0.185636	
0.0426461	
-0.105127	
-0.0906383	
-0.301135	
-0.299209	