<VTKFile type="UnstructuredGrid" version="0.1" byte_order="LittleEndian">
	<UnstructuredGrid>
		<Piece NumberOfPoints="1647" NumberOfCells="3046">
			<CellData Scalars="scalars">
				<DataArray type="Float64" Name="Doublet Strengths" NumberOfComponents="1" Format="ascii">
0.186045	
0.162479	
0.175536	
0.0431093	
0.0862336	
0.0961341	
0.0960712	
0.0961173	
0.0435732	
0.0411166	
0.0944137	
0.0883696	
0.0508467	
0.0928093	
0.0956341	
0.0783254	
0.156543	
0.0939069	
0.181167	
0.144849	
0.155181	
0.108815	
0.139212	
0.152473	
0.129344	
0.138409	
0.114501	
0.131496	
0.0968346	
0.151216	
0.153275	
0.124933	
0.151648	
0.165971	
0.101114	
0.150458	
0.153317	
0.115139	
0.12975	
0.114692	
0.124658	
0.131305	
0.129893	
0.143851	
0.146053	
0.128099	
0.153229	
0.110323	
0.108151	
0.119179	
0.159967	
0.15515	
0.149827	
0.146159	
0.148548	
0.143336	
0.159934	
0.11852	
0.1291	
0.129201	
0.12666	
0.105148	
0.0747909	
0.105574	
0.138399	
0.139543	
0.141862	
0.143441	
0.171525	
0.172898	
0.168108	
0.0926638	
0.0436728	
0.136187	
0.137399	
0.140849	
0.143327	
0.132511	
0.125941	
0.127412	
0.122716	
0.137531	
0.133125	
0.137298	
0.135363	
0.138853	
0.138098	
0.142047	
0.126594	
0.120804	
0.0913915	
0.101085	
0.105032	
0.150495	
0.155865	
0.153012	
0.157463	
0.099511	
0.105841	
0.121512	
0.160578	
0.161372	
0.16776	
0.1445	
0.138143	
0.139429	
0.117004	
0.15092	
0.0932451	
0.102433	
0.104811	
0.110284	
0.109233	
0.114154	
0.10665	
0.106358	
0.173875	
0.181234	
0.154582	
0.162092	
0.151156	
0.0478951	
0.114741	
0.0815504	
0.0728203	
0.0768525	
0.133424	
0.142873	
0.0718438	
0.0543656	
0.105522	
0.106369	
0.101195	
0.102132	
0.0918813	
0.169148	
0.164169	
0.121763	
0.113997	
0.122922	
0.115525	
0.0969342	
0.113608	
0.114785	
0.119304	
0.118412	
0.0885714	
0.0784785	
0.185449	
0.176487	
0.165388	
0.172586	
0.153085	
0.1395	
0.139675	
0.14342	
0.0757957	
0.0671868	
0.175427	
0.135498	
0.12968	
0.134298	
0.127671	
0.132609	
0.124688	
0.135334	
0.136065	
0.131845	
0.0731889	
0.121679	
0.113137	
0.118559	
0.167783	
0.171439	
0.174862	
0.167393	
0.173148	
0.164774	
0.126177	
0.130511	
0.131252	
0.133352	
0.17728	
0.172855	
0.168043	
0.147576	
0.137318	
0.0463909	
0.0601817	
0.0823305	
0.08142	
0.0764018	
0.188041	
0.183828	
0.128897	
0.123712	
0.17624	
0.145032	
0.143232	
0.136831	
0.121603	
0.122101	
0.144797	
0.142093	
0.150809	
0.144979	
0.164576	
0.161722	
0.159581	
0.156855	
0.15851	
0.16618	
0.16215	
0.161649	
0.145023	
0.149606	
0.150749	
0.108292	
0.109006	
0.122273	
0.123242	
0.127335	
0.131003	
0.0813294	
0.085799	
0.0773527	
0.0870546	
0.0984382	
0.125522	
0.127546	
0.119891	
0.118488	
0.118121	
0.119779	
0.11021	
0.115123	
0.164307	
0.160851	
0.124708	
0.125453	
0.130329	
0.144308	
0.14752	
0.150684	
0.151384	
0.0761599	
0.0792127	
0.0853689	
0.0837003	
0.092723	
0.155977	
0.157417	
0.162855	
0.0715929	
0.079059	
0.11816	
0.123104	
0.11755	
0.125453	
0.14904	
0.151494	
0.155472	
0.158192	
0.136328	
0.138761	
0.143922	
0.146376	
0.165179	
0.168754	
0.170322	
0.171938	
0.113932	
0.0885107	
0.168511	
0.163718	
0.169217	
0.146359	
0.13875	
0.140198	
0.0937006	
0.115129	
0.113887	
0.165559	
0.165959	
0.147936	
0.142555	
0.141019	
0.149057	
0.143227	
0.146319	
0.142899	
0.142337	
0.134957	
0.137154	
0.168736	
0.174066	
0.165826	
0.163974	
0.169802	
0.166045	
0.18572	
0.13087	
0.138848	
0.128511	
0.135943	
0.145599	
0.14947	
0.142818	
0.101481	
0.131105	
0.134941	
0.126328	
0.127964	
0.066219	
0.0734214	
0.0738428	
0.157003	
0.120707	
0.120291	
0.1269	
0.137905	
0.135949	
0.143425	
0.181895	
0.174868	
0.17812	
0.149334	
0.149643	
0.153053	
0.155203	
0.109644	
0.115874	
0.116386	
0.109943	
0.114397	
0.110784	
0.127169	
0.123172	
0.124603	
0.176275	
0.171535	
0.168284	
0.12015	
0.114617	
0.122336	
0.113255	
0.149123	
0.145059	
0.17237	
0.169208	
0.0998694	
0.0543185	
0.0432259	
0.0656763	
0.0438347	
0.123368	
0.11917	
0.105258	
0.105908	
0.155306	
0.153508	
0.159018	
0.14513	
0.141184	
0.147307	
0.129682	
0.124545	
0.109321	
0.105927	
0.114398	
0.109405	
0.122439	
0.117558	
0.118554	
0.125288	
0.125212	
0.130558	
0.130585	
0.154786	
0.158726	
0.143059	
0.146876	
0.126513	
0.114679	
0.123152	
0.185327	
0.187083	
0.178481	
0.182129	
0.166079	
0.180857	
0.178895	
0.186091	
0.182239	
0.177108	
0.182357	
0.183294	
0.180475	
0.160302	
0.158351	
0.163023	
0.160916	
0.156992	
0.1555	
0.149996	
0.152599	
0.145895	
0.148446	
0.176296	
0.142042	
0.140621	
0.134867	
0.133567	
0.161741	
0.164768	
0.108262	
0.107089	
0.112702	
0.113884	
0.112164	
0.110628	
0.116862	
0.117853	
0.15536	
0.15487	
0.103664	
0.0978717	
0.103243	
0.10012	
0.140522	
0.145824	
0.152646	
0.158052	
0.150291	
0.15231	
0.150823	
0.145308	
0.149089	
0.132973	
0.137474	
0.13264	
0.137105	
0.110021	
0.112974	
0.110074	
0.121679	
0.127283	
0.133235	
0.139536	
0.133031	
0.135941	
0.181889	
0.178365	
0.171378	
0.173502	
0.116419	
0.108308	
0.108822	
0.105023	
0.105297	
0.111161	
0.107588	
0.102414	
0.146106	
0.141965	
0.150966	
0.150568	
0.177248	
0.111997	
0.114853	
0.116898	
0.118957	
0.125508	
0.119292	
0.149334	
0.145252	
0.170277	
0.164071	
0.117411	
0.0609842	
0.124352	
0.114147	
0.139517	
0.118962	
0.135863	
0.131012	
0.0898419	
0.108816	
0.120099	
0.153412	
0.155512	
0.157381	
0.158455	
0.103272	
0.124265	
0.122504	
0.0910619	
0.102286	
0.10461	
0.108842	
0.0950902	
0.104208	
0.105991	
0.108838	
0.109207	
0.173003	
0.176929	
0.176621	
0.1789	
0.160888	
0.154504	
0.155868	
0.0675084	
0.0738492	
0.066531	
0.0649947	
0.164865	
0.165225	
0.159135	
0.161567	
0.158124	
0.157248	
0.10663	
0.143377	
0.146192	
0.149724	
0.0522902	
0.0504714	
0.0620046	
0.0610759	
0.117438	
0.172602	
0.165061	
0.166317	
0.120472	
0.148671	
0.145099	
0.179901	
0.184639	
0.132786	
0.132383	
0.122909	
0.125294	
0.167368	
0.171365	
0.167453	
0.171036	
0.129077	
0.13574	
0.131478	
0.128437	
0.136601	
0.129192	
0.133939	
0.107015	
0.0954291	
0.103023	
0.0981957	
0.120756	
0.126161	
0.12621	
0.15416	
0.157989	
0.170882	
0.172179	
0.174475	
0.176622	
0.114102	
0.116623	
0.107829	
0.109457	
0.130826	
0.130486	
0.136458	
0.135127	
0.137382	
0.134456	
0.12904	
0.124999	
0.161904	
0.155785	
0.162211	
0.159038	
0.161319	
0.183222	
0.189314	
0.178354	
0.180066	
0.170858	
0.16778	
0.152855	
0.159167	
0.142321	
0.146622	
0.0998156	
0.0877769	
0.10097	
0.0956732	
0.130825	
0.134962	
0.182965	
0.178658	
0.183113	
0.179317	
0.176158	
0.184565	
0.178446	
0.173672	
0.176906	
0.172992	
0.164513	
0.163811	
0.159802	
0.120611	
0.115945	
0.114793	
0.108746	
0.0787342	
0.0726368	
0.0642792	
0.0526502	
0.0841806	
0.0926104	
0.0838266	
0.0876033	
0.083825	
0.0976738	
0.0924139	
0.104637	
0.0412907	
0.0535275	
0.0662355	
0.106362	
0.0946413	
0.099126	
0.099442	
0.0923159	
0.0945032	
0.111552	
0.158093	
0.158051	
0.164808	
0.164608	
0.0657685	
0.0518802	
0.095933	
0.0907318	
0.100259	
0.0977435	
0.101049	
0.0977048	
0.103888	
0.0980228	
0.106542	
0.149794	
0.148014	
0.145302	
0.0991121	
0.0981275	
0.0953064	
0.0956885	
0.0846621	
0.131641	
0.13194	
0.13721	
0.0890995	
0.0997403	
0.0938692	
0.108065	
0.103238	
0.105889	
0.0938106	
0.13932	
0.140379	
0.158609	
0.160275	
0.155684	
0.156558	
0.075465	
0.0704651	
0.0831457	
0.0764073	
0.136583	
0.13951	
0.0920973	
0.0916559	
0.0499766	
0.0418657	
0.0628531	
0.0527717	
0.106091	
0.093692	
0.109483	
0.101747	
0.174505	
0.171134	
0.150032	
0.154067	
0.119558	
0.11437	
0.115766	
0.10903	
0.109716	
0.115049	
0.100153	
0.118451	
0.114609	
0.0976971	
0.108315	
0.112986	
0.0969208	
0.110551	
0.115893	
0.119702	
0.110594	
0.115074	
0.171433	
0.171832	
0.176686	
0.106278	
0.110741	
0.0912329	
0.0954415	
0.166898	
0.1677	
0.160246	
0.16098	
0.16616	
0.171734	
0.162604	
0.163577	
0.0846431	
0.0875361	
0.0864507	
0.0888962	
0.0410663	
0.0503987	
0.0460386	
0.0492013	
0.0511731	
-0.245941	
-0.2413	
0.0486745	
0.0477348	
0.050023	
0.0462131	
0.0378095	
-0.213257	
0.0503485	
-0.0743938	
-0.0792364	
-0.164789	
-0.105622	
0.0466463	
0.0458661	
-0.0998043	
-0.0695159	
-0.119606	
-0.0471109	
-0.0504329	
0.0268398	
0.00212087	
-0.202465	
-0.206647	
-0.170942	
-0.0668564	
-0.235467	
-0.197016	
-0.0653722	
-0.0877211	
-0.0478479	
-0.174433	
-0.184972	
-0.206358	
-0.224171	
-0.236548	
-0.217239	
0.00237859	
-0.0208314	
-0.131456	
-0.17226	
-0.14398	
-0.164854	
-0.161956	
-0.177293	
-0.126531	
-0.127459	
-0.087958	
-0.20137	
-0.114525	
-0.0824133	
-0.0870467	
-0.0992235	
-0.0783831	
-0.0747349	
-0.101187	
-0.083952	
-0.228882	
-0.204151	
-0.111973	
-0.148817	
-0.212608	
-0.0533022	
-0.166443	
-0.0846095	
-0.0626908	
-0.127339	
-0.136206	
-0.208155	
-0.247705	
0.0355393	
0.0349914	
-0.00804344	
-0.1566	
-0.0372937	
-0.045869	
-0.199582	
-0.182843	
-0.179893	
-0.203306	
-0.216716	
-0.145551	
-0.141282	
-0.210386	
-0.19709	
-0.188522	
-0.0221039	
-0.217425	
0.00238591	
-0.0322648	
-0.022494	
-0.0580466	
-0.167954	
-0.132214	
-0.14554	
-0.215664	
-0.0806399	
-0.12115	
-0.148349	
-0.110309	
-0.119028	
-0.0589349	
-0.185401	
-0.204895	
-0.162123	
-0.189536	
-0.157392	
-0.172936	
-0.0432758	
-0.0672257	
-0.191558	
-0.0272657	
-0.0417346	
-0.0482512	
-0.114009	
-0.212148	
-0.218922	
-0.222567	
-0.23744	
-0.165051	
-0.158631	
-0.221255	
-0.228858	
-0.136531	
0.0404769	
0.00553267	
-0.244466	
-0.213936	
-0.145493	
-0.157818	
-0.157355	
0.0414897	
0.00885214	
-0.233782	
-0.239106	
-0.237553	
0.0379957	
0.0458134	
-0.0936961	
-0.119439	
-0.047328	
-0.0536821	
-0.0377924	
0.049121	
-0.180979	
-0.149575	
-0.132717	
-0.139354	
-0.0988805	
-0.141087	
-0.0989512	
-0.121331	
-0.121883	
-0.13685	
-0.242617	
-0.245789	
-0.0897354	
-0.0522348	
-0.175422	
-0.186284	
-0.1981	
-0.143162	
-0.114027	
-0.149679	
-0.132959	
0.0339854	
-0.208896	
-0.0633413	
-0.0729459	
-0.127528	
-0.193317	
-0.152574	
-0.166715	
-0.18588	
-0.196115	
-0.242274	
-0.178924	
-0.182763	
-0.187329	
-0.197385	
-0.00318182	
-0.171778	
-0.145746	
-0.163702	
-0.0674064	
-0.0672562	
-0.0931338	
-0.0888472	
-0.00812196	
-0.0214743	
-0.0941523	
-0.0755128	
-0.171011	
-0.0815151	
-0.23981	
-0.243889	
-0.033651	
-0.214352	
-0.210265	
-0.206736	
-0.155598	
-0.188102	
-0.141269	
-0.170539	
-0.13651	
-0.0866156	
-0.23617	
-0.233253	
-0.136162	
-0.14186	
-0.161443	
-0.165085	
-0.0750342	
-0.0946729	
-0.230216	
-0.221375	
-0.129651	
-0.133529	
0.0271119	
-0.00973543	
-0.00048573	
-0.0459495	
-0.0191215	
-0.00225376	
-0.195735	
-0.205711	
-0.248845	
-0.0767146	
-0.0654916	
-0.047946	
-0.0494604	
-0.0670285	
-0.0381744	
-0.0646841	
-0.221011	
-0.232904	
-0.224314	
-0.246996	
-0.235106	
-0.0492206	
-0.0759334	
-0.0726329	
-0.105149	
-0.144193	
-0.193999	
-0.144386	
-0.101346	
-0.100704	
-0.114216	
-0.17919	
-0.188242	
-0.123052	
-0.139077	
-0.12338	
-0.140081	
-0.00897952	
-0.019758	
-0.0348781	
-0.0457937	
-0.225302	
-0.155195	
-0.101428	
-0.0536514	
-0.0845348	
-0.155776	
-0.1674	
-0.145015	
-0.161285	
-0.197368	
-0.204494	
-0.187845	
-0.199758	
-0.229896	
-0.222154	
-0.226883	
-0.216435	
-0.117142	
-0.0797729	
-0.160598	
-0.150168	
-0.0522758	
-0.0747395	
-0.0530397	
-0.077194	
-0.168859	
-0.172999	
-0.0391171	
-0.0431443	
-0.0109692	
-0.18439	
-0.187623	
-0.196195	
-0.204064	
-0.0290507	
-0.0463487	
-0.182365	
-0.181978	
-0.108178	
-0.132364	
-0.102143	
-0.131191	
-0.187522	
-0.15502	
-0.17669	
0.0113515	
-0.0141135	
-0.229735	
-0.236066	
-0.0825624	
-0.0973241	
-0.122677	
-0.111564	
-0.112297	
-0.100467	
-0.174015	
-0.157496	
-0.180758	
-0.209134	
-0.200203	
-0.215689	
-0.118091	
-0.104639	
-0.0943898	
-0.062668	
-0.0682312	
-0.028447	
-0.0226221	
-0.0129008	
0.002019	
-0.00808275	
0.00752882	
-0.0305833	
-0.00558822	
-0.0364485	
-0.0292408	
-0.0302109	
-0.0811637	
-0.0732374	
-0.0488625	
-0.103536	
-0.0110369	
-0.0350097	
-0.00976572	
-0.0456135	
-0.105053	
-0.085267	
-0.118107	
-0.107413	
-0.011219	
-0.00913272	
-0.0493563	
-0.0328784	
-0.157477	
-0.1598	
-0.124073	
-0.123855	
-0.124034	
-0.141225	
-0.141318	
-0.158023	
-0.193138	
-0.194823	
-0.180279	
-0.184665	
-0.211854	
-0.205212	
-0.219695	
-0.217036	
-0.220535	
-0.217778	
-0.229949	
-0.225093	
-0.0508295	
-0.00592749	
-0.0235668	
-0.221653	
-0.213978	
-0.234968	
-0.229021	
-0.234315	
-0.226726	
-0.225576	
0.00403507	
-0.00908724	
-0.168987	
-0.160453	
-0.152059	
-0.240408	
-0.242975	
-0.244977	
-0.136238	
-0.120587	
-0.124843	
-0.113037	
-0.243765	
-0.241377	
-0.238905	
-0.241923	
-0.241166	
-0.0971864	
-0.148704	
-0.165142	
-0.14412	
-0.169267	
0.0417737	
0.0490124	
-0.0400416	
-0.0385419	
0.00597214	
-0.0140154	
0.00498407	
0.0406625	
0.0484588	
-0.0341782	
-0.0797655	
-0.0316825	
-0.0717256	
-0.11315	
-0.125789	
-0.14805	
-0.144213	
-0.15789	
-0.163125	
-0.184519	
-0.186661	
0.00102504	
-0.00202862	
-0.241345	
-0.23471	
-0.0146855	
0.00563965	
-0.212603	
-0.00843803	
0.0376371	
-0.20103	
0.00828896	
-0.247416	
-0.217594	
-0.00347087	
0.00932631	
0.0178588	
-0.155425	
-0.146463	
-0.224494	
-0.230568	
-0.232052	
-0.232049	
-0.238314	
-0.240165	
-0.162655	
-0.176612	
-0.100236	
-0.0912854	
-0.100154	
-0.217062	
-0.189871	
-0.193413	
-0.195268	
-0.08462	
-0.109708	
-0.118064	
-0.13359	
0.00528813	
0.0258389	
0.0474824	
-0.0114621	
0.0375321	
0.0496641	
0.0336219	
0.00278373	
-0.224474	
-0.240985	
-0.237216	
-0.241239	
0.0397619	
-0.236504	
-0.233665	
-0.112915	
-0.096917	
-0.108093	
0.0364587	
0.0468157	
-0.228278	
-0.230003	
-0.230311	
-0.208736	
0.0180726	
-0.212404	
-0.205962	
-0.200339	
0.041597	
0.0443515	
0.0491628	
-0.15572	
-0.144675	
-0.138104	
-0.123543	
-0.240395	
-0.241681	
-0.243107	
0.048466	
0.0380907	
0.0436158	
0.0139745	
-0.224707	
-0.223007	
-0.220399	
-0.115628	
-0.115831	
0.0485312	
0.0392941	
-0.238496	
-0.233137	
-0.231686	
-0.123304	
-0.114335	
-0.231878	
-0.235646	
-0.193054	
-0.0071719	
-0.00399818	
-0.0354888	
-0.0335671	
0.0492365	
0.0443478	
-0.0481413	
-0.055923	
-0.0729957	
-0.0736028	
-0.246147	
-0.245581	
-0.241579	
-0.246236	
-0.0737514	
-0.0639437	
-0.0763956	
-0.0816285	
-0.0985184	
0.0448123	
0.037699	
0.0354691	
-0.155794	
-0.164219	
-0.143895	
-0.162469	
0.0474197	
-0.0898731	
-0.0903655	
-0.0765313	
-0.244266	
-0.246825	
-0.204383	
-0.210733	
-0.0691692	
-0.0857977	
-0.212725	
-0.204314	
0.00603975	
0.0107924	
-0.186465	
-0.205137	
-0.197419	
-0.147468	
-0.164239	
-0.138656	
-0.151432	
-0.0161278	
-0.0580083	
-0.0229419	
-0.0173879	
-0.0571203	
-0.0424578	
-0.244368	
-0.245536	
-0.244645	
-0.246148	
-0.0101901	
-0.0161167	
0.0372467	
-0.188136	
-0.172752	
-0.229089	
-0.224203	
-0.134053	
-0.129926	
-0.0983079	
-0.0849572	
-0.238087	
-0.233291	
-0.243401	
-0.241574	
-0.236932	
-0.231533	
-0.120633	
-0.123813	
-0.101277	
-0.10476	
-0.187588	
-0.199633	
-0.13512	
-0.146663	
-0.162864	
-0.164009	
-0.242437	
-0.243287	
-0.243313	
-0.242486	
-0.212281	
-0.222114	
-0.230525	
-0.226207	
-0.231754	
-0.204992	
-0.195969	
-0.211179	
-0.215935	
-0.0064188	
0.0290892	
0.0462522	
-0.219371	
-0.217684	
-0.0519609	
-0.0384303	
-0.0788213	
-0.172606	
-0.184706	
-0.171681	
-0.196297	
-0.194036	
-0.198346	
-0.201692	
-0.204996	
-0.245749	
-0.243293	
-0.24232	
-0.237675	
-0.220863	
-0.206984	
-0.215822	
-0.230449	
0.0328666	
-0.0160385	
0.0429523	
0.0253079	
-0.17008	
-0.190526	
-0.18657	
-0.176478	
-0.187361	
-0.00206304	
0.0430636	
0.0396588	
-0.00236163	
0.0476109	
0.0331315	
-0.214838	
-0.219536	
-0.219361	
-0.225613	
0.0444883	
0.0278699	
-0.173259	
-0.197178	
-0.179446	
-0.200616	
-0.192722	
-0.201763	
-0.211141	
-0.183943	
-0.178979	
-0.191507	
-0.0870725	
-0.0912263	
-0.103735	
-0.11341	
-0.239593	
-0.237446	
-0.240074	
-0.178066	
-0.168647	
-0.233993	
-0.231451	
-0.22316	
-0.224623	
-0.15451	
-0.168756	
-0.164213	
-0.177377	
-0.0618537	
-0.0819298	
-0.230139	
-0.232324	
-0.241323	
-0.243993	
-0.0413546	
-0.0524109	
-0.0591546	
-0.0662161	
-0.187271	
-0.178375	
-0.173826	
-0.170336	
-0.0829403	
-0.102466	
-0.110252	
-0.125402	
-0.208022	
-0.217369	
-0.217476	
-0.225051	
-0.112347	
-0.105576	
-0.141877	
-0.135447	
-0.185529	
-0.177302	
-0.0382789	
-0.0188778	
-0.0587442	
-0.0457227	
-0.203154	
-0.200511	
-0.245437	
-0.245276	
-0.244747	
-0.247583	
-0.236685	
-0.236014	
-0.101099	
-0.112624	
-0.136396	
-0.144308	
-0.00634094	
0.00377229	
0.0419955	
0.0397531	
-0.141935	
-0.113594	
-0.133446	
-0.103309	
-0.011263	
-0.00542378	
-0.00827722	
-0.00200881	
0.00112967	
0.0116542	
0.0182651	
0.0210599	
0.0146043	
-0.0100687	
-0.00260242	
0.00501811	
0.000999515	
0.00736012	
0.0172908	
0.0215563	
0.0087132	
0.0130343	
0.00500075	
-0.00642056	
0.00537146	
-0.00854086	
-0.0124535	
-0.00190832	
-0.0199929	
-0.0203431	
-0.0160476	
-0.0216816	
-0.017641	
0.0147902	
0.0125305	
-0.000221671	
0.00568183	
-0.00512893	
-0.0170317	
-0.01609	
-0.0151182	
-0.0130218	
-0.00875384	
0.0176973	
0.182637	
0.163017	
0.175546	
0.0429653	
0.0903316	
0.0463615	
0.142917	
0.0961337	
0.0954651	
0.0959938	
0.0961834	
0.0633572	
0.0406416	
0.0945335	
0.0883404	
0.0850246	
0.0508612	
0.0930261	
0.0791969	
0.157547	
0.151957	
0.1112	
0.139384	
0.15216	
0.129508	
0.13857	
0.114417	
0.0970476	
0.153793	
0.150538	
0.125069	
0.15129	
0.166075	
0.102267	
0.100761	
0.150526	
0.153756	
0.119977	
0.129758	
0.115163	
0.124414	
0.131522	
0.130176	
0.146189	
0.145888	
0.125039	
0.1536	
0.110545	
0.10845	
0.114288	
0.154753	
0.146449	
0.150168	
0.143622	
0.14509	
0.159875	
0.129603	
0.129868	
0.127308	
0.105389	
0.0744829	
0.10545	
0.145424	
0.143335	
0.138349	
0.137071	
0.167477	
0.170792	
0.174778	
0.0922862	
0.0505086	
0.141341	
0.141179	
0.136649	
0.13497	
0.127266	
0.122528	
0.132653	
0.131933	
0.133194	
0.139749	
0.137419	
0.138404	
0.142506	
0.135627	
0.13623	
0.125963	
0.120074	
0.102003	
0.0927346	
0.10492	
0.0955289	
0.152703	
0.158153	
0.150288	
0.15214	
0.105768	
0.0994726	
0.121858	
0.160658	
0.163932	
0.137968	
0.139892	
0.117509	
0.139426	
0.148026	
0.102495	
0.0932221	
0.106815	
0.105327	
0.118652	
0.109387	
0.106525	
0.110615	
0.171622	
0.181317	
0.161686	
0.154234	
0.15129	
0.0609557	
0.0478587	
0.0992818	
0.114667	
0.0729228	
0.0822789	
0.140244	
0.133474	
0.070495	
0.0538886	
0.101433	
0.102328	
0.105796	
0.106593	
0.0914601	
0.168329	
0.164196	
0.123129	
0.112735	
0.121886	
0.117954	
0.105847	
0.119587	
0.1187	
0.1161	
0.11501	
0.0733851	
0.184395	
0.175568	
0.165933	
0.172038	
0.152038	
0.144235	
0.139529	
0.137592	
0.0884028	
0.075792	
0.12736	
0.135347	
0.127598	
0.135864	
0.124683	
0.128071	
0.135054	
0.125767	
0.135913	
0.0755884	
0.118001	
0.121025	
0.117776	
0.170372	
0.167043	
0.167315	
0.164829	
0.167435	
0.171553	
0.131339	
0.133471	
0.126594	
0.130646	
0.176576	
0.167388	
0.171231	
0.143627	
0.138577	
0.145917	
0.0500459	
0.0826541	
0.0734863	
0.0815291	
0.185319	
0.182396	
0.128911	
0.123658	
0.175825	
0.143876	
0.14413	
0.140031	
0.117559	
0.121617	
0.142473	
0.14893	
0.145553	
0.149676	
0.161381	
0.163693	
0.157828	
0.1595	
0.157126	
0.161701	
0.164713	
0.149304	
0.142116	
0.150435	
0.108752	
0.106189	
0.123353	
0.122506	
0.12842	
0.127355	
0.0859632	
0.0733073	
0.0872123	
0.0774767	
0.0983287	
0.129504	
0.125383	
0.121901	
0.119765	
0.119772	
0.112957	
0.115071	
0.110138	
0.164159	
0.16075	
0.130744	
0.127638	
0.12586	
0.150562	
0.151364	
0.145678	
0.147537	
0.0797213	
0.0762694	
0.179858	
0.0838496	
0.0855015	
0.0929069	
0.164458	
0.159701	
0.159341	
0.0777718	
0.0709259	
0.12312	
0.11817	
0.125465	
0.122112	
0.15638	
0.1573	
0.151318	
0.152396	
0.143721	
0.143702	
0.138677	
0.138598	
0.169825	
0.171046	
0.165673	
0.168094	
0.113956	
0.165846	
0.167924	
0.164383	
0.146227	
0.140133	
0.136332	
0.0968802	
0.115451	
0.114253	
0.166566	
0.165426	
0.14855	
0.14163	
0.143381	
0.147528	
0.150237	
0.145863	
0.136976	
0.142665	
0.144774	
0.168122	
0.172163	
0.169782	
0.166101	
0.169301	
0.163922	
0.13617	
0.130711	
0.13579	
0.13093	
0.149191	
0.145361	
0.142599	
0.10158	
0.135501	
0.132671	
0.125886	
0.0663046	
0.0671873	
0.0739456	
0.0765118	
0.154463	
0.120513	
0.120855	
0.127174	
0.134187	
0.137756	
0.143273	
0.153023	
0.15349	
0.149389	
0.149762	
0.109724	
0.113808	
0.114014	
0.116573	
0.108955	
0.114588	
0.124618	
0.12711	
0.123127	
0.171321	
0.16895	
0.176108	
0.114521	
0.119948	
0.112504	
0.118017	
0.13721	
0.144804	
0.14884	
0.0997624	
0.16903	
0.172051	
0.0425875	
0.053514	
0.0657756	
0.0438928	
0.123458	
0.116962	
0.126274	
0.105658	
0.109373	
0.155374	
0.159031	
0.155192	
0.141796	
0.147386	
0.1434	
0.129609	
0.124263	
0.105987	
0.109337	
0.109472	
0.114534	
0.114257	
0.125267	
0.117598	
0.122483	
0.125315	
0.130634	
0.133006	
0.158534	
0.154659	
0.146638	
0.142851	
0.123213	
0.114809	
0.181972	
0.167953	
0.178048	
0.180157	
0.174428	
0.184293	
0.177011	
0.185875	
0.183055	
0.183936	
0.180072	
0.158441	
0.160325	
0.160936	
0.163074	
0.153342	
0.154976	
0.156159	
0.157705	
0.144708	
0.148097	
0.149077	
0.150592	
0.17406	
0.146249	
0.143433	
0.137944	
0.136311	
0.180897	
0.164421	
0.168151	
0.107124	
0.108224	
0.110049	
0.115625	
0.110791	
0.112392	
0.114041	
0.119266	
0.158919	
0.166009	
0.155719	
0.100983	
0.103709	
0.100177	
0.103327	
0.14426	
0.140497	
0.156677	
0.152503	
0.155683	
0.150124	
0.150801	
0.143442	
0.148898	
0.145237	
0.137495	
0.130583	
0.139512	
0.13265	
0.112654	
0.109804	
0.125064	
0.121961	
0.137277	
0.133581	
0.139149	
0.133406	
0.173803	
0.173435	
0.178889	
0.116447	
0.114865	
0.110943	
0.108381	
0.105418	
0.1051	
0.107534	
0.108846	
0.103391	
0.100483	
0.152953	
0.142185	
0.149498	
0.147293	
0.173764	
0.173742	
0.108042	
0.111801	
0.118894	
0.116705	
0.126228	
0.115685	
0.117124	
0.125044	
0.140443	
0.117176	
0.107816	
0.0911141	
0.131801	
0.136778	
0.0935584	
0.108572	
0.160149	
0.158549	
0.156596	
0.154036	
0.124826	
0.122989	
0.0935995	
0.102942	
0.109046	
0.10812	
0.103242	
0.0998542	
0.0995142	
0.103053	
0.103004	
0.0769583	
0.0950342	
0.10859	
0.175578	
0.169367	
0.177826	
0.175614	
0.156991	
0.16089	
0.156121	
0.159254	
0.161312	
0.161972	
0.164516	
0.109545	
0.1499	
0.143486	
0.14637	
0.117874	
0.170332	
0.163961	
0.172195	
0.156428	
0.156686	
0.169258	
0.165486	
0.171952	
0.120866	
0.0620035	
0.0611268	
0.0522529	
0.0436871	
0.145147	
0.148751	
0.183189	
0.178785	
0.0674637	
0.0665221	
0.0738273	
0.0650034	
0.0969037	
0.126464	
0.134547	
0.133634	
0.129082	
0.131474	
0.135725	
0.130118	
0.135035	
0.12944	
0.134703	
0.0944782	
0.102097	
0.0880909	
0.101802	
0.126093	
0.120431	
0.126039	
0.158006	
0.154179	
0.176393	
0.175747	
0.170154	
0.171596	
0.119443	
0.114094	
0.109695	
0.107878	
0.138581	
0.134963	
0.130707	
0.130323	
0.129012	
0.128037	
0.134816	
0.134311	
0.159521	
0.175258	
0.173176	
0.176396	
0.167506	
0.170553	
0.179167	
0.179285	
0.159826	
0.154848	
0.14674	
0.142859	
0.161939	
0.165468	
0.150122	
0.155146	
0.148113	
0.151608	
0.0978926	
0.0956599	
0.0998039	
0.087807	
0.137404	
0.130822	
0.18174	
0.176745	
0.173821	
0.173083	
0.17692	
0.178554	
0.185733	
0.178474	
0.18249	
0.157772	
0.163418	
0.159522	
0.164222	
0.159928	
0.0874611	
0.0525755	
0.0436429	
0.133823	
0.128811	
0.115776	
0.120734	
0.108723	
0.114862	
0.106679	
0.101835	
0.106223	
0.0938519	
0.178737	
0.182397	
0.0924828	
0.0835992	
0.084206	
0.0832879	
0.0876837	
0.0977986	
0.0925071	
0.0928953	
0.0926678	
0.0969218	
0.0534685	
0.0662154	
0.0412472	
0.107181	
0.0990609	
0.0995585	
0.0942801	
0.096706	
0.0875097	
0.0921534	
0.0946367	
0.16462	
0.119886	
0.116428	
0.115265	
0.111305	
0.164068	
0.160854	
0.161263	
0.157573	
0.0656948	
0.0517651	
0.100511	
0.0961514	
0.0909195	
0.0874225	
0.0863659	
0.0990581	
0.0978525	
0.105308	
0.13802	
0.13224	
0.13263	
0.100004	
0.0940414	
0.0892806	
0.168621	
0.105926	
0.0938535	
0.110096	
0.103221	
0.155284	
0.156156	
0.158265	
0.160958	
0.0705386	
0.0814749	
0.0765079	
0.0832908	
0.137093	
0.140194	
0.0629203	
0.0528062	
0.0602694	
0.0419188	
0.159706	
0.160928	
0.163463	
0.165893	
0.104819	
0.107293	
0.110133	
0.112276	
0.170795	
0.176634	
0.171346	
0.174877	
0.157624	
0.151578	
0.176747	
0.181822	
0.177438	
0.181409	
0.1868	
0.118935	
0.118778	
0.109011	
0.0991906	
0.0787383	
0.077999	
0.0997907	
0.0976089	
0.117949	
0.113799	
0.114447	
0.108984	
0.124963	
0.121523	
0.108096	
0.114922	
0.112705	
0.108498	
0.107292	
0.169962	
0.173785	
0.165629	
0.166859	
0.120529	
0.112821	
0.11212	
0.0980218	
0.114119	
0.109897	
0.0488983	
0.0497523	
0.0380469	
0.0492535	
0.0511846	
-0.244917	
-0.241063	
0.0497692	
0.0409416	
0.037795	
-0.042194	
-0.212663	
0.0508103	
0.0502132	
-0.0743053	
-0.0790024	
-0.164735	
0.0490036	
-0.0846063	
0.0466924	
0.0458499	
-0.242583	
-0.0996777	
-0.0760727	
-0.119451	
-0.0316533	
-0.0470462	
0.0269147	
0.00217008	
-0.206337	
-0.204885	
-0.170763	
-0.0667747	
-0.229557	
-0.196467	
-0.0655398	
-0.0876148	
-0.0478744	
-0.185935	
-0.184659	
-0.206497	
-0.224015	
-0.236497	
-0.217049	
0.00236673	
-0.0208469	
-0.133594	
-0.172221	
-0.180071	
-0.176956	
-0.148161	
-0.151215	
-0.126777	
-0.110206	
-0.0828731	
-0.201263	
-0.102346	
-0.0773945	
-0.0826045	
-0.0994399	
-0.0782883	
-0.101063	
-0.074641	
-0.0841601	
-0.228854	
-0.201616	
-0.111143	
-0.143764	
-0.212337	
-0.053336	
-0.166634	
-0.0845036	
-0.0625921	
-0.123706	
-0.136575	
-0.216835	
-0.245852	
0.0458743	
0.0355641	
-0.00800878	
-0.156636	
-0.0459061	
-0.0373233	
-0.183228	
-0.19991	
-0.179942	
-0.216554	
-0.203136	
-0.136467	
-0.141642	
-0.196862	
-0.210239	
-0.188312	
-0.0220495	
-0.21563	
-0.00802248	
-0.00222375	
-0.0536887	
-0.0457158	
-0.167683	
-0.119985	
-0.145738	
-0.215015	
-0.0806891	
-0.110175	
-0.135286	
-0.120995	
-0.143784	
-0.0602874	
-0.204905	
-0.18557	
-0.189525	
-0.162085	
-0.164204	
-0.174015	
-0.0672097	
-0.192683	
-0.0274863	
-0.048232	
-0.101086	
-0.219344	
-0.212384	
-0.221954	
-0.23686	
-0.157314	
-0.158463	
-0.228846	
-0.221044	
-0.136277	
0.0404171	
0.00552008	
-0.22632	
-0.226233	
-0.245138	
-0.217112	
-0.145754	
-0.144888	
0.0406181	
0.00884429	
-0.232337	
-0.238596	
-0.237027	
0.0350682	
0.0461209	
-0.0935579	
-0.119261	
-0.0483637	
-0.0382263	
-0.0547083	
-0.180637	
-0.149416	
-0.113493	
-0.139262	
-0.141161	
-0.141287	
-0.099002	
0.0462219	
-0.133029	
-0.135685	
-0.241929	
-0.244539	
-0.109714	
-0.0521534	
-0.197735	
-0.175213	
-0.17414	
-0.118015	
-0.143035	
-0.132934	
-0.149586	
0.0339724	
-0.208831	
-0.0729194	
-0.127548	
-0.19465	
-0.153057	
-0.167284	
-0.188878	
-0.195952	
-0.243137	
-0.19742	
-0.197513	
-0.179087	
-0.177425	
-0.00295938	
-0.171785	
-0.163689	
-0.145742	
-0.0672756	
-0.0674337	
-0.0888672	
-0.00821469	
-0.0217853	
-0.0945853	
-0.070503	
-0.10152	
-0.171486	
-0.0731674	
-0.246492	
-0.244334	
-0.240015	
-0.038341	
-0.216383	
-0.206956	
-0.206776	
-0.154424	
-0.189924	
-0.157265	
-0.170233	
-0.136361	
-0.107321	
-0.232788	
-0.235037	
-0.161829	
-0.155294	
-0.1459	
-0.142133	
-0.097563	
-0.199958	
-0.220859	
-0.229384	
-0.129562	
-0.101556	
-0.133669	
0.0271411	
-0.000465667	
-0.0580098	
-0.0459321	
-0.002235	
-0.0190955	
-0.195128	
-0.204948	
-0.0769096	
-0.048095	
-0.0656555	
-0.0460779	
-0.0649646	
-0.0496181	
-0.0672221	
-0.219624	
-0.222941	
-0.231724	
-0.239784	
-0.245418	
-0.0159804	
-0.0725453	
-0.0290056	
-0.0758404	
-0.105041	
-0.123698	
-0.195049	
-0.144339	
-0.0987587	
-0.125101	
-0.189063	
-0.180031	
-0.150654	
-0.123673	
-0.14472	
-0.0198974	
-0.0142847	
-0.0383403	
-0.0351873	
-0.0931743	
-0.144124	
-0.0846664	
-0.0580639	
-0.167617	
-0.141436	
-0.161467	
-0.145167	
-0.204736	
-0.187417	
-0.200038	
-0.188061	
-0.098794	
-0.226755	
-0.214273	
-0.23201	
-0.222071	
-0.103924	
-0.0913613	
-0.139442	
-0.161088	
-0.0749518	
-0.0435964	
-0.0872646	
-0.0532904	
-0.158547	
-0.174887	
-0.0526796	
-0.039456	
-0.0112977	
-0.195889	
-0.199995	
-0.184129	
-0.187242	
-0.0462788	
-0.0491516	
-0.18358	
-0.176356	
-0.123388	
-0.108427	
-0.132622	
-0.131452	
-0.114764	
-0.178462	
-0.157644	
-0.176861	
-0.165289	
-0.00911892	
0.0112425	
-0.23609	
-0.229788	
-0.0972503	
-0.0824958	
-0.112544	
-0.100695	
-0.122958	
-0.11182	
-0.161762	
-0.180596	
-0.164868	
-0.208652	
-0.215563	
-0.203856	
-0.104567	
-0.113988	
-0.094373	
-0.0682062	
-0.079718	
-0.0289321	
-0.0229999	
5.68505e-05	
-0.0152995	
0.00758251	
-0.0322757	
-0.00559183	
-0.0306081	
-0.0364554	
-0.0303498	
-0.0100493	
-0.0731846	
-0.0488092	
-0.0811196	
-0.0570865	
-0.103503	
-0.0293993	
-0.045778	
-0.0111238	
-0.0349612	
-0.117992	
-0.0865418	
-0.104934	
-0.0851778	
-0.00912488	
-0.0384856	
-0.0328365	
-0.0492956	
-0.123928	
-0.143994	
-0.141098	
-0.159551	
-0.155905	
-0.158121	
-0.124114	
-0.121398	
-0.173804	
-0.1845	
-0.19293	
-0.194683	
-0.202011	
-0.211361	
-0.216576	
-0.219167	
-0.217363	
-0.220173	
-0.224534	
-0.230927	
-0.00592569	
-0.0235748	
-0.0508396	
-0.224277	
-0.214064	
-0.229542	
-0.232725	
-0.233252	
-0.227378	
-0.227403	
-0.00910713	
0.0040241	
-0.16957	
-0.169283	
-0.14914	
-0.242759	
-0.244592	
-0.132087	
-0.136368	
-0.112993	
-0.114819	
-0.242487	
-0.240003	
-0.241704	
-0.242218	
-0.240966	
-0.0846238	
-0.165102	
-0.148697	
-0.169191	
-0.155187	
0.048957	
0.0417749	
-0.039954	
0.00587652	
-0.0112271	
-0.0138914	
0.00510631	
0.0479717	
0.0405377	
-0.0626376	
-0.0341828	
-0.071672	
-0.0503833	
-0.112891	
-0.125585	
-0.140389	
-0.148405	
-0.157915	
-0.158948	
-0.184564	
-0.186632	
-0.00221104	
0.000873539	
-0.240135	
-0.23376	
-0.0148047	
0.00554648	
-0.0107975	
0.00921438	
0.037596	
-0.00634473	
-0.242673	
-0.202022	
-0.213617	
-0.217906	
-0.0113508	
0.0138883	
-0.202153	
-0.207928	
0.0177564	
-0.154738	
-0.154929	
-0.229936	
-0.221784	
-0.231226	
-0.238342	
-0.229886	
-0.240181	
-0.162859	
-0.177588	
-0.10044	
-0.100386	
-0.0914844	
-0.219166	
-0.193481	
-0.188162	
-0.089734	
-0.0971981	
-0.131458	
-0.118075	
0.00763108	
0.0477033	
0.0259552	
0.0378761	
-0.00332955	
0.033732	
0.0497377	
0.00281169	
-0.190364	
-0.196692	
-0.194389	
-0.24042	
-0.241304	
-0.237322	
0.0381899	
-0.235961	
-0.232859	
-0.0970171	
-0.113016	
-0.108137	
0.0486628	
0.0375441	
-0.229252	
-0.227606	
-0.233766	
0.0179717	
0.0443063	
0.0415154	
0.0420367	
-0.138273	
-0.127531	
-0.155904	
-0.158057	
-0.239375	
-0.244673	
-0.241843	
0.0379925	
0.0486693	
0.0090841	
0.0436027	
-0.20979	
-0.206036	
-0.116089	
-0.115895	
0.0461252	
0.0409574	
0.0398845	
-0.231001	
-0.216649	
-0.236457	
-0.232467	
-0.20572	
-0.201006	
-0.2172	
-0.208014	
-0.123605	
-0.114583	
-0.23177	
-0.235093	
-0.193056	
-0.00393479	
-0.0071172	
-0.0335007	
-0.0354315	
0.0441374	
0.0488646	
-0.0816809	
-0.0737372	
-0.0482753	
-0.033726	