<VTKFile type="UnstructuredGrid" version="0.1" byte_order="LittleEndian">
	<UnstructuredGrid>
		<Piece NumberOfPoints="1647" NumberOfCells="3046">
			<CellData Scalars="scalars">
				<DataArray type="Float64" Name="Doublet Strengths" NumberOfComponents="1" Format="ascii">
0.128153	
0.121207	
0.124105	
0.0348574	
0.0808995	
0.0878346	
0.0880796	
0.0879553	
0.0330346	
0.0314291	
0.0871614	
0.0825991	
0.0487445	
0.0858175	
0.0875596	
0.0742772	
0.116577	
0.0863024	
0.126178	
0.10704	
0.112302	
0.0919519	
0.110478	
0.1175	
0.105715	
0.111298	
0.0979323	
0.107317	
0.0823726	
0.116184	
0.117021	
0.103315	
0.117299	
0.12083	
0.0887031	
0.116953	
0.115844	
0.0922135	
0.106299	
0.0927116	
0.104001	
0.106529	
0.105508	
0.113739	
0.114783	
0.10556	
0.116153	
0.0924412	
0.0897915	
0.101338	
0.120428	
0.11861	
0.114586	
0.113421	
0.113795	
0.112203	
0.119691	
0.0889631	
0.103736	
0.102498	
0.0998747	
0.0845465	
0.0608435	
0.0930917	
0.110907	
0.111386	
0.112568	
0.113124	
0.123578	
0.123891	
0.122757	
0.0825951	
0.039392	
0.109859	
0.110469	
0.112223	
0.113323	
0.108121	
0.104711	
0.105443	
0.102962	
0.110229	
0.108074	
0.109826	
0.108394	
0.109417	
0.109719	
0.111179	
0.104631	
0.101664	
0.0847873	
0.0924719	
0.0950796	
0.116693	
0.118671	
0.117717	
0.119352	
0.090709	
0.0956244	
0.0995142	
0.119679	
0.120739	
0.122449	
0.109056	
0.110821	
0.111558	
0.0998305	
0.117159	
0.0862174	
0.0934803	
0.0928877	
0.0955364	
0.0952781	
0.0976091	
0.0938403	
0.0938678	
0.1228	
0.128308	
0.118526	
0.121092	
0.117257	
0.0443586	
0.0984232	
0.0768827	
0.0694091	
0.0723086	
0.108524	
0.113541	
0.0563869	
0.0436382	
0.0885206	
0.0896591	
0.0856724	
0.0868709	
0.0853714	
0.121476	
0.120094	
0.101463	
0.0971857	
0.101778	
0.0977131	
0.0886271	
0.095594	
0.095968	
0.0990218	
0.0980957	
0.0677521	
0.0608037	
0.127761	
0.124519	
0.121992	
0.123694	
0.118056	
0.111225	
0.111081	
0.112991	
0.0632612	
0.0612077	
0.123528	
0.109401	
0.106209	
0.108771	
0.105158	
0.10788	
0.103526	
0.109614	
0.110004	
0.107755	
0.0635007	
0.102003	
0.0978061	
0.100392	
0.122563	
0.123475	
0.124289	
0.121298	
0.122979	
0.120813	
0.104177	
0.106483	
0.107045	
0.108003	
0.125274	
0.122526	
0.120767	
0.109772	
0.104555	
0.0393118	
0.0522954	
0.0745511	
0.0725022	
0.0681195	
0.130313	
0.12735	
0.106123	
0.103455	
0.124802	
0.11097	
0.110676	
0.107856	
0.101832	
0.102087	
0.112449	
0.110872	
0.114223	
0.111718	
0.121234	
0.120502	
0.119682	
0.118913	
0.119633	
0.121874	
0.120725	
0.120943	
0.114487	
0.116517	
0.117022	
0.0874671	
0.0891631	
0.102335	
0.102804	
0.104976	
0.106923	
0.0694853	
0.0734914	
0.0675088	
0.0756471	
0.0894333	
0.103962	
0.105021	
0.101084	
0.10024	
0.100095	
0.100986	
0.0962632	
0.0987104	
0.120319	
0.119381	
0.102053	
0.10191	
0.104882	
0.113928	
0.11527	
0.116632	
0.116825	
0.069898	
0.0727609	
0.0751587	
0.0725112	
0.0798577	
0.115118	
0.115111	
0.117444	
0.0575529	
0.0627225	
0.0999693	
0.102582	
0.0996649	
0.103904	
0.113258	
0.113693	
0.115852	
0.116253	
0.109836	
0.11113	
0.113798	
0.114936	
0.121484	
0.122271	
0.122691	
0.122925	
0.0978836	
0.0781365	
0.122229	
0.120933	
0.122189	
0.115184	
0.111385	
0.11218	
0.0836708	
0.0950124	
0.0935747	
0.122103	
0.122245	
0.115918	
0.113416	
0.112645	
0.112364	
0.109749	
0.110499	
0.113376	
0.113205	
0.109147	
0.110407	
0.122941	
0.124119	
0.121371	
0.120843	
0.122204	
0.121223	
0.128073	
0.106825	
0.111172	
0.105541	
0.10963	
0.114606	
0.116304	
0.113281	
0.0892349	
0.107092	
0.109157	
0.104464	
0.105323	
0.0585051	
0.0664564	
0.0652026	
0.117958	
0.100712	
0.100083	
0.10384	
0.110687	
0.109681	
0.113541	
0.126232	
0.124348	
0.12506	
0.115885	
0.115925	
0.117308	
0.117983	
0.093293	
0.0971163	
0.0978311	
0.0943423	
0.0964725	
0.094386	
0.104921	
0.102727	
0.103483	
0.124134	
0.122169	
0.121216	
0.101135	
0.0985542	
0.102292	
0.0976957	
0.116207	
0.114391	
0.123702	
0.123008	
0.0907906	
0.0425511	
0.0340458	
0.057347	
0.038681	
0.102572	
0.100202	
0.085995	
0.087662	
0.117896	
0.117369	
0.1192	
0.113971	
0.112307	
0.114972	
0.106592	
0.103986	
0.0955646	
0.0936877	
0.0979076	
0.09541	
0.102157	
0.099509	
0.0999543	
0.103775	
0.10372	
0.106731	
0.106751	
0.118624	
0.120029	
0.113602	
0.115393	
0.10443	
0.097889	
0.102539	
0.12902	
0.129645	
0.12538	
0.126229	
0.119055	
0.12426	
0.12432	
0.128975	
0.126492	
0.123243	
0.126769	
0.126955	
0.124733	
0.119458	
0.118849	
0.120131	
0.119469	
0.118205	
0.117645	
0.11583	
0.116882	
0.114218	
0.115354	
0.123803	
0.104983	
0.10481	
0.100243	
0.100555	
0.116871	
0.119281	
0.0940192	
0.0931228	
0.0963055	
0.0965854	
0.0965273	
0.0956225	
0.098957	
0.0993306	
0.11315	
0.11348	
0.0911961	
0.0883043	
0.0907018	
0.0893371	
0.112103	
0.114644	
0.117401	
0.119358	
0.11654	
0.117356	
0.115795	
0.11385	
0.115336	
0.108049	
0.110355	
0.107876	
0.11023	
0.0961272	
0.0979849	
0.0961899	
0.100561	
0.103633	
0.10647	
0.109258	
0.106771	
0.108292	
0.126731	
0.124194	
0.12222	
0.122841	
0.0992451	
0.0927523	
0.0934892	
0.0911238	
0.0915283	
0.0936866	
0.0918322	
0.088077	
0.108455	
0.106464	
0.110758	
0.110965	
0.124642	
0.0974374	
0.0983676	
0.0995289	
0.100559	
0.0982435	
0.0942681	
0.116541	
0.114737	
0.123231	
0.121692	
0.100485	
0.0576845	
0.0952722	
0.0877608	
0.107032	
0.0923656	
0.104672	
0.102599	
0.0708861	
0.0972994	
0.091174	
0.118182	
0.118899	
0.119573	
0.119929	
0.0940264	
0.0999428	
0.0981527	
0.08436	
0.0928126	
0.0949735	
0.0974317	
0.087194	
0.094382	
0.095721	
0.0953843	
0.0956403	
0.123751	
0.124717	
0.124627	
0.125166	
0.119046	
0.117042	
0.117126	
0.0626338	
0.0695904	
0.0629058	
0.0621383	
0.119435	
0.119848	
0.118066	
0.118972	
0.119839	
0.119581	
0.0940312	
0.112681	
0.113656	
0.115067	
0.0476767	
0.0449442	
0.0561161	
0.0544244	
0.0950832	
0.123765	
0.121967	
0.122243	
0.0983383	
0.114863	
0.113547	
0.124781	
0.12782	
0.0992449	
0.0986995	
0.092299	
0.0948655	
0.122568	
0.123535	
0.12255	
0.123373	
0.10593	
0.109578	
0.107246	
0.0981443	
0.102769	
0.0996468	
0.102253	
0.0828527	
0.0758638	
0.0810991	
0.089575	
0.102023	
0.104589	
0.104854	
0.117755	
0.119051	
0.123109	
0.123169	
0.124003	
0.124271	
0.0886651	
0.0916974	
0.0849351	
0.0868705	
0.107191	
0.106911	
0.110224	
0.109388	
0.110468	
0.108939	
0.105951	
0.103813	
0.121069	
0.119046	
0.121151	
0.120156	
0.120583	
0.127344	
0.132128	
0.125363	
0.126003	
0.121955	
0.120999	
0.11213	
0.115449	
0.112943	
0.114831	
0.0910758	
0.0819713	
0.090314	
0.0885826	
0.106917	
0.109212	
0.126454	
0.124864	
0.126481	
0.125202	
0.123784	
0.128688	
0.124398	
0.122764	
0.123603	
0.122374	
0.1215	
0.1213	
0.120113	
0.102234	
0.102127	
0.0989149	
0.0968899	
0.0605031	
0.0560707	
0.0497769	
0.0403164	
0.0693802	
0.0745856	
0.0682329	
0.0820189	
0.0789406	
0.0791342	
0.0759108	
0.080509	
0.0341738	
0.0449125	
0.0552297	
0.0959042	
0.08298	
0.0856961	
0.085324	
0.0807972	
0.0817428	
0.0969259	
0.119775	
0.119704	
0.121853	
0.121758	
0.0541301	
0.0426051	
0.0809945	
0.0768843	
0.0835712	
0.0860937	
0.0876623	
0.0867069	
0.0896883	
0.0894848	
0.0960502	
0.116719	
0.115929	
0.114719	
0.0887983	
0.0904687	
0.0860542	
0.0883781	
0.079577	
0.104684	
0.104261	
0.10659	
0.0747824	
0.0823851	
0.0777824	
0.0949562	
0.0937858	
0.0953452	
0.0862561	
0.111727	
0.112278	
0.119754	
0.120311	
0.118748	
0.119084	
0.0648579	
0.060142	
0.0701689	
0.0644283	
0.107273	
0.108198	
0.0836194	
0.0854353	
0.0436271	
0.0362075	
0.0539139	
0.0451747	
0.0955939	
0.086235	
0.0958461	
0.0928605	
0.123448	
0.122755	
0.112117	
0.113605	
0.101793	
0.0990703	
0.102293	
0.0974282	
0.0983074	
0.0992986	
0.0906926	
0.101321	
0.101196	
0.0743936	
0.097427	
0.0982584	
0.0882623	
0.0977027	
0.0991354	
0.101137	
0.0965826	
0.0989172	
0.12267	
0.122279	
0.126424	
0.080868	
0.0839968	
0.0703416	
0.0741055	
0.11998	
0.120343	
0.117734	
0.118241	
0.118642	
0.122776	
0.117908	
0.11854	
0.0767036	
0.0782909	
0.0791055	
0.0800984	
0.0454734	
0.053349	
0.0497939	
0.0522705	
0.0536608	
-0.191232	
-0.191879	
0.0519395	
0.0508285	
0.0527438	
0.0490055	
0.0384437	
-0.174535	
0.053141	
-0.0668131	
-0.0702888	
-0.135408	
-0.0913584	
0.0500723	
0.0495682	
-0.0786266	
-0.0605086	
-0.096131	
-0.0317679	
-0.0347339	
0.0338655	
0.0115044	
-0.166341	
-0.16968	
-0.140931	
-0.0493781	
-0.18913	
-0.162001	
-0.0542644	
-0.067896	
-0.0340279	
-0.143569	
-0.152289	
-0.172654	
-0.182451	
-0.189767	
-0.178761	
0.0111439	
-0.00959547	
-0.108039	
-0.143235	
-0.117518	
-0.135449	
-0.133017	
-0.145924	
-0.111091	
-0.103836	
-0.0687226	
-0.165864	
-0.0968862	
-0.0696491	
-0.0731069	
-0.0852787	
-0.0595914	
-0.0563637	
-0.0798985	
-0.0695768	
-0.185557	
-0.171352	
-0.0996149	
-0.12809	
-0.175816	
-0.0390982	
-0.140753	
-0.0651964	
-0.0457234	
-0.107318	
-0.118615	
-0.170667	
-0.191842	
0.0412808	
0.0409187	
0.00236037	
-0.130714	
-0.0248231	
-0.0327293	
-0.167628	
-0.154886	
-0.152015	
-0.167265	
-0.177287	
-0.125114	
-0.121773	
-0.173731	
-0.163655	
-0.156667	
-0.00945678	
-0.177568	
0.0104705	
-0.0206886	
-0.0122005	
-0.0443355	
-0.13813	
-0.116688	
-0.127586	
-0.176342	
-0.0639203	
-0.0974946	
-0.121299	
-0.0879861	
-0.0956954	
-0.0526926	
-0.153776	
-0.169085	
-0.133888	
-0.15654	
-0.136708	
-0.149223	
-0.0293705	
-0.0506944	
-0.162789	
-0.0230981	
-0.0368308	
-0.032878	
-0.0924143	
-0.176332	
-0.180805	
-0.181214	
-0.19025	
-0.135771	
-0.130428	
-0.181052	
-0.185881	
-0.120217	
0.045046	
0.0137978	
-0.190411	
-0.172746	
-0.123744	
-0.133954	
-0.134195	
0.0464444	
0.0177933	
-0.184142	
-0.189709	
-0.187089	
0.0433677	
0.0495672	
-0.0836794	
-0.105039	
-0.0405981	
-0.0459772	
-0.0308991	
0.0503399	
-0.148993	
-0.122421	
-0.108076	
-0.113995	
-0.0782244	
-0.11741	
-0.0802085	
-0.100404	
-0.106323	
-0.116243	
-0.192371	
-0.189686	
-0.0709457	
-0.0365563	
-0.144389	
-0.15336	
-0.162877	
-0.116873	
-0.0913013	
-0.122463	
-0.107937	
0.0399187	
-0.171828	
-0.0468974	
-0.0556544	
-0.104968	
-0.163949	
-0.131732	
-0.143467	
-0.158748	
-0.16582	
-0.188313	
-0.150592	
-0.15301	
-0.157606	
-0.165203	
0.00711125	
-0.142483	
-0.120416	
-0.135879	
-0.0515244	
-0.0512072	
-0.0747851	
-0.070549	
-0.00488425	
-0.0170939	
-0.0825163	
-0.0655459	
-0.146714	
-0.0667965	
-0.190755	
-0.191094	
-0.0230341	
-0.176052	
-0.174538	
-0.172192	
-0.130882	
-0.155328	
-0.115263	
-0.140297	
-0.111141	
-0.067027	
-0.187421	
-0.187849	
-0.11667	
-0.121268	
-0.138577	
-0.141302	
-0.0670993	
-0.0845549	
-0.186318	
-0.180408	
-0.113969	
-0.112135	
0.034194	
0.00148485	
0.00977421	
-0.0316563	
-0.00747814	
0.00743235	
-0.160989	
-0.168788	
-0.193459	
-0.0655043	
-0.0547565	
-0.03868	
-0.0403976	
-0.0569298	
-0.0301776	
-0.0551894	
-0.180071	
-0.187838	
-0.182363	
-0.192393	
-0.189085	
-0.0335122	
-0.0573907	
-0.054487	
-0.0835039	
-0.117795	
-0.1604	
-0.118692	
-0.0902029	
-0.088842	
-0.100944	
-0.153878	
-0.160306	
-0.105911	
-0.12067	
-0.107361	
-0.122595	
-0.00319039	
-0.0129231	
-0.0278167	
-0.0376371	
-0.183068	
-0.129232	
-0.0837336	
-0.0402226	
-0.06858	
-0.130913	
-0.141029	
-0.122009	
-0.136129	
-0.16541	
-0.170937	
-0.158238	
-0.167615	
-0.186344	
-0.181515	
-0.184437	
-0.177377	
-0.0986125	
-0.0645963	
-0.139079	
-0.130067	
-0.0407543	
-0.0614763	
-0.0420159	
-0.0644282	
-0.142484	
-0.144026	
-0.028453	
-0.0326176	
-0.00259384	
-0.152057	
-0.154616	
-0.161659	
-0.167747	
-0.0156202	
-0.0309716	
-0.153877	
-0.151853	
-0.0923163	
-0.11236	
-0.0855358	
-0.111631	
-0.159038	
-0.132552	
-0.150763	
0.0158048	
-0.00829667	
-0.185889	
-0.189517	
-0.073748	
-0.0863038	
-0.104757	
-0.0950185	
-0.0951814	
-0.084709	
-0.143219	
-0.129297	
-0.148971	
-0.171552	
-0.164725	
-0.17652	
-0.0948773	
-0.0830539	
-0.0738995	
-0.0456998	
-0.0506087	
-0.0230352	
-0.0171475	
-0.00476013	
0.00898174	
0.00122664	
0.0152891	
-0.0190024	
0.00364917	
-0.0268589	
-0.0208747	
-0.0220424	
-0.0628551	
-0.0556683	
-0.0337794	
-0.0828761	
-0.00362825	
-0.0257732	
-0.00269474	
-0.0358147	
-0.0834116	
-0.0658192	
-0.0949328	
-0.0855035	
0.000172073	
0.00202135	
-0.0337307	
-0.0190318	
-0.129243	
-0.131203	
-0.100228	
-0.0999986	
-0.103113	
-0.117796	
-0.118506	
-0.132554	
-0.158954	
-0.160334	
-0.148417	
-0.152089	
-0.173539	
-0.168462	
-0.179259	
-0.177376	
-0.179889	
-0.177928	
-0.186123	
-0.183007	
-0.0363643	
0.0040098	
-0.0118554	
-0.182333	
-0.177441	
-0.18628	
-0.185129	
-0.186375	
-0.182315	
-0.179593	
0.0122946	
0.000715062	
-0.144138	
-0.135911	
-0.131543	
-0.185213	
-0.188187	
-0.19149	
-0.119952	
-0.106922	
-0.109992	
-0.100252	
-0.188635	
-0.187754	
-0.1897	
-0.18931	
-0.18995	
-0.0778318	
-0.123284	
-0.137431	
-0.119524	
-0.141094	
0.046202	
0.0519489	
-0.0255378	
-0.0241668	
0.015241	
-0.00238756	
0.0143765	
0.0458217	
0.0519137	
-0.0202946	
-0.0609052	
-0.0180333	
-0.0537836	
-0.100556	
-0.111125	
-0.129489	
-0.125781	
-0.137472	
-0.141521	
-0.157392	
-0.158851	
0.00555961	
0.00233547	
-0.192204	
-0.18894	
-0.0078986	
0.0110415	
-0.173663	
-0.000841761	
0.0392584	
-0.168799	
0.0152816	
-0.193221	
-0.179692	
0.00687781	
0.014854	
0.0215029	
-0.135575	
-0.128156	
-0.183899	
-0.186845	
-0.186891	
-0.187446	
-0.190319	
-0.190471	
-0.141281	
-0.151581	
-0.0867058	
-0.0789619	
-0.0875057	
-0.178023	
-0.161025	
-0.160039	
-0.161232	
-0.066536	
-0.0887201	
-0.0964533	
-0.11002	
0.0115768	
0.0331247	
0.0509188	
-0.000121901	
0.0432029	
0.0520708	
0.0387071	
0.0105164	
-0.18301	
-0.191167	
-0.189899	
-0.191171	
0.0435961	
-0.189776	
-0.188327	
-0.0936523	
-0.0794625	
-0.0890568	
0.0402714	
0.0491799	
-0.185151	
-0.186123	
-0.186992	
-0.17029	
0.0222296	
-0.175894	
-0.17251	
-0.168902	
0.0437501	
0.0457126	
0.0516471	
-0.13187	
-0.122755	
-0.116418	
-0.103708	
-0.191866	
-0.192064	
-0.192558	
0.0502953	
0.0415331	
0.0462854	
0.0188851	
-0.181288	
-0.178852	
-0.18053	
-0.101232	
-0.100974	
0.0508055	
0.0446647	
-0.190903	
-0.188029	
-0.187111	
-0.106518	
-0.0988243	
-0.187246	
-0.189247	
-0.160087	
0.00343665	
0.00638933	
-0.0218332	
-0.020046	
0.05084	
0.0466442	
-0.0364622	
-0.0430781	
-0.0592881	
-0.0593649	
-0.192099	
-0.190213	
-0.19166	
-0.191773	
-0.0583441	
-0.0574983	
-0.0684906	
-0.0732302	
-0.0880183	
0.0486896	
0.042819	
0.0415154	
-0.135674	
-0.141862	
-0.12557	
-0.139818	
0.0510729	
-0.0796006	
-0.0804123	
-0.0675059	
-0.192959	
-0.190987	
-0.171039	
-0.174252	
-0.0539917	
-0.0688381	
-0.175215	
-0.168841	
0.00862646	
0.0137122	
-0.153513	
-0.168383	
-0.162349	
-0.120582	
-0.134972	
-0.112902	
-0.123954	
-0.00495568	
-0.0426418	
-0.0107445	
-0.00578732	
-0.0414399	
-0.0281623	
-0.19242	
-0.189233	
-0.192383	
-0.19113	
0.00103574	
-0.00422417	
0.0429358	
-0.15569	
-0.142953	
-0.185858	
-0.183709	
-0.115942	
-0.111408	
-0.0862557	
-0.0743847	
-0.189968	
-0.188134	
-0.191938	
-0.191544	
-0.189956	
-0.187045	
-0.0990304	
-0.102028	
-0.0817544	
-0.0850316	
-0.154422	
-0.164128	
-0.110851	
-0.120781	
-0.134878	
-0.135716	
-0.19085	
-0.19124	
-0.188985	
-0.188744	
-0.174201	
-0.181182	
-0.186778	
-0.184596	
-0.187654	
-0.172047	
-0.165605	
-0.175911	
-0.173704	
0.00441173	
0.0359918	
0.0498538	
-0.177518	
-0.179271	
-0.0363922	
-0.0242218	
-0.0603093	
-0.148166	
-0.157189	
-0.148143	
-0.164668	
-0.161993	
-0.162322	
-0.168124	
-0.168601	
-0.192782	
-0.19271	
-0.192404	
-0.190464	
-0.181758	
-0.172059	
-0.178163	
-0.186366	
0.0394787	
-0.00398732	
0.0473309	
0.0328307	
-0.144499	
-0.161128	
-0.157626	
-0.150188	
-0.158104	
0.00818923	
0.0475401	
0.0442433	
0.00614599	
0.0504722	
0.0383566	
-0.178295	
-0.181061	
-0.180789	
-0.183937	
0.0485484	
0.0349236	
-0.144935	
-0.164493	
-0.149788	
-0.166883	
-0.160517	
-0.169589	
-0.176032	
-0.151415	
-0.147345	
-0.157593	
-0.0714324	
-0.0748061	
-0.0866737	
-0.0950103	
-0.189209	
-0.184927	
-0.188176	
-0.151587	
-0.143616	
-0.188426	
-0.187438	
-0.183013	
-0.183906	
-0.127153	
-0.139216	
-0.135531	
-0.146511	
-0.0450291	
-0.062982	
-0.182621	
-0.18543	
-0.192077	
-0.192681	
-0.0360171	
-0.0457079	
-0.0525565	
-0.0585044	
-0.159776	
-0.153227	
-0.149386	
-0.146833	
-0.0641722	
-0.0814823	
-0.0886918	
-0.101895	
-0.170592	
-0.177515	
-0.177611	
-0.182877	
-0.0899029	
-0.0838637	
-0.115801	
-0.110147	
-0.155703	
-0.148806	
-0.0270268	
-0.00912715	
-0.045399	
-0.0333385	
-0.166831	
-0.164787	
-0.19076	
-0.192884	
-0.188636	
-0.192381	
-0.189342	
-0.189287	
-0.0808661	
-0.0909783	
-0.112184	
-0.118945	
0.00195772	
0.010936	
0.0458676	
0.0438051	
-0.11599	
-0.0911843	
-0.108525	
-0.082015	
-0.0115907	
-0.00605815	
-0.00880743	
-0.00273979	
0.000418024	
0.0101695	
0.0170094	
0.0200096	
0.0132487	
-0.0106757	
-0.00384939	
0.00345872	
-0.000411752	
0.00597794	
0.0165071	
0.0207381	
0.00796182	
0.0122618	
0.0042513	
-0.00741214	
0.00603637	
-0.00727562	
-0.0111562	
-0.000923789	
-0.0184607	
-0.01899	
-0.0156376	
-0.0203448	
-0.0161075	
0.0148676	
0.0125337	
0.000267217	
0.00596937	
-0.00450934	
-0.0164135	
-0.0154092	
-0.0143454	
-0.0122278	
-0.00811571	
0.0175216	
0.126224	
0.121384	
0.124085	
0.0347701	
0.0839921	
0.0392927	
0.113553	
0.0878753	
0.0874982	
0.0880229	
0.0879888	
0.0490356	
0.0311021	
0.0872448	
0.0825776	
0.0799072	
0.0487519	
0.0860824	
0.0749859	
0.116855	
0.111991	
0.0937638	
0.110568	
0.117252	
0.105802	
0.111315	
0.0979041	
0.0825464	
0.117248	
0.115901	
0.103377	
0.117019	
0.120869	
0.088094	
0.0886829	
0.116862	
0.115968	
0.0947638	
0.106283	
0.0930559	
0.103801	
0.106659	
0.10569	
0.114782	
0.114645	
0.103809	
0.116279	
0.0926256	
0.0900172	
0.0989549	
0.118319	
0.113572	
0.114723	
0.112367	
0.112611	
0.119624	
0.104095	
0.102984	
0.100339	
0.0847422	
0.0606541	
0.0929133	
0.113996	
0.113055	
0.110856	
0.110191	
0.122015	
0.122803	
0.123595	
0.0825158	
0.0449714	
0.112417	
0.112277	
0.110064	
0.109188	
0.105286	
0.102721	
0.108124	
0.107717	
0.108096	
0.111103	
0.10988	
0.109912	
0.11114	
0.108557	
0.108477	
0.104252	
0.101256	
0.0931749	
0.0858694	
0.0949993	
0.0874875	
0.117471	
0.119359	
0.116523	
0.117213	
0.0955688	
0.0906812	
0.0997665	
0.119724	
0.121203	
0.110676	
0.11175	
0.100052	
0.111763	
0.115918	
0.0935181	
0.0861933	
0.093847	
0.0931656	
0.0999593	
0.0953439	
0.0934064	
0.0955651	
0.12086	
0.128361	
0.120694	
0.118218	
0.117204	
0.0576459	
0.0443167	
0.0903681	
0.0983483	
0.0694859	
0.0774743	
0.112177	
0.108536	
0.0554353	
0.0433032	
0.0858637	
0.0870424	
0.0887331	
0.0898449	
0.0850306	
0.121195	
0.120148	
0.101905	
0.0962821	
0.101514	
0.0993371	
0.095615	
0.0992208	
0.0983079	
0.0972793	
0.0961445	
0.0567347	
0.126942	
0.123911	
0.122066	
0.123271	
0.117543	
0.114169	
0.11124	
0.110249	
0.0781336	
0.0632775	
0.104882	
0.109277	
0.105082	
0.109597	
0.10349	
0.10535	
0.109403	
0.104466	
0.109853	
0.0649661	
0.1	
0.101636	
0.099979	
0.122655	
0.121959	
0.122088	
0.120863	
0.121331	
0.122365	
0.107077	
0.108058	
0.104451	
0.106547	
0.124659	
0.12035	
0.121295	
0.107677	
0.105477	
0.110169	
0.0436879	
0.0747557	
0.0665123	
0.0725884	
0.128243	
0.126276	
0.106079	
0.103382	
0.124452	
0.111131	
0.110427	
0.109604	
0.0996558	
0.101822	
0.111455	
0.113973	
0.112104	
0.113633	
0.120246	
0.120832	
0.119171	
0.11959	
0.11909	
0.120402	
0.121178	
0.116266	
0.11302	
0.116752	
0.0878144	
0.0878742	
0.102816	
0.102418	
0.105452	
0.10495	
0.0736303	
0.0636026	
0.0757848	
0.067614	
0.0893386	
0.106076	
0.10385	
0.102032	
0.10098	
0.10095	
0.0976881	
0.0986499	
0.0961983	
0.119987	
0.119211	
0.10517	
0.103876	
0.102199	
0.116518	
0.116781	
0.114517	
0.115234	
0.0731587	
0.069992	
0.124171	
0.0726379	
0.0752711	
0.0800173	
0.118883	
0.116869	
0.116369	
0.0618336	
0.0570951	
0.102573	
0.0999595	
0.103892	
0.102076	
0.116111	
0.115878	
0.114447	
0.114275	
0.113634	
0.113614	
0.111031	
0.110997	
0.122343	
0.122434	
0.121521	
0.121951	
0.0978856	
0.121307	
0.121863	
0.121034	
0.115025	
0.112076	
0.110096	
0.0861243	
0.0952549	
0.0938455	
0.12194	
0.121736	
0.116108	
0.1129	
0.113754	
0.111441	
0.113223	
0.111578	
0.110257	
0.113186	
0.114281	
0.122201	
0.122837	
0.122179	
0.12127	
0.122159	
0.120786	
0.109705	
0.106699	
0.109501	
0.106842	
0.116083	
0.114415	
0.113105	
0.0894081	
0.10943	
0.107882	
0.104189	
0.0585774	
0.061201	
0.0652896	
0.0682132	
0.116986	
0.100228	
0.100789	
0.104018	
0.108674	
0.110565	
0.113414	
0.117252	
0.117305	
0.115867	
0.115941	
0.0933861	
0.0957499	
0.0966598	
0.097952	
0.0935828	
0.0966064	
0.10347	
0.104864	
0.102678	
0.12195	
0.121281	
0.123971	
0.098458	
0.100992	
0.0972977	
0.0999411	
0.110323	
0.114187	
0.115982	
0.0907351	
0.122774	
0.123345	
0.0335749	
0.041973	
0.0574325	
0.0387304	
0.102592	
0.098939	
0.104208	
0.0863021	
0.0894371	
0.117844	
0.119187	
0.117943	
0.112509	
0.11497	
0.113325	
0.106466	
0.103636	
0.093719	
0.0955678	
0.095435	
0.0979334	
0.097628	
0.103727	
0.0995063	
0.10216	
0.10377	
0.10676	
0.10805	
0.119734	
0.118394	
0.115176	
0.113419	
0.102543	
0.0979005	
0.12497	
0.120365	
0.123763	
0.123725	
0.123027	
0.127667	
0.123044	
0.129964	
0.127414	
0.127516	
0.124412	
0.118826	
0.119445	
0.119392	
0.120132	
0.11686	
0.117491	
0.117789	
0.118342	
0.113765	
0.115185	
0.115476	
0.116107	
0.12305	
0.107976	
0.106049	
0.103774	
0.101257	
0.12543	
0.119525	
0.122436	
0.0931317	
0.0939697	
0.0944052	
0.0977549	
0.0954895	
0.0964669	
0.0971341	
0.100202	
0.116631	
0.121407	
0.114897	
0.0903125	
0.091217	
0.0893859	
0.0907641	
0.113855	
0.112048	
0.118755	
0.117275	
0.11852	
0.116399	
0.115758	
0.11299	
0.115238	
0.113804	
0.110354	
0.106725	
0.111351	
0.107861	
0.0977912	
0.0959966	
0.102301	
0.100754	
0.108166	
0.106702	
0.109607	
0.107024	
0.123065	
0.123169	
0.124643	
0.099246	
0.098358	
0.0945038	
0.0928351	
0.091626	
0.0912226	
0.0918651	
0.0920287	
0.089532	
0.0875028	
0.112492	
0.105985	
0.111334	
0.109581	
0.123416	
0.123374	
0.0949331	
0.097302	
0.100504	
0.0994038	
0.09876	
0.0926126	
0.100185	
0.0957541	
0.107739	
0.0920889	
0.0823494	
0.0706121	
0.103175	
0.105356	
0.0731788	
0.0971469	
0.120505	
0.119895	
0.119257	
0.118334	
0.10035	
0.0984985	
0.0860698	
0.0934152	
0.095515	
0.0948818	
0.0939862	
0.0915954	
0.0913168	
0.0917122	
0.0916687	
0.072398	
0.0871551	
0.0972624	
0.123679	
0.122766	
0.124307	
0.123895	
0.117895	
0.118966	
0.117182	
0.118087	
0.118809	
0.118532	
0.119505	
0.0958737	
0.115133	
0.112725	
0.113731	
0.0953982	
0.122751	
0.12137	
0.123079	
0.119091	
0.119225	
0.122697	
0.121806	
0.123208	
0.0986293	
0.0561049	
0.0544642	
0.0476328	
0.0393981	
0.113553	
0.114883	
0.126802	
0.123976	
0.0625837	
0.0628877	
0.0695603	
0.0621361	
0.0886172	
0.0957167	
0.100688	
0.0996084	
0.10591	
0.10722	
0.109545	
0.100311	
0.10305	
0.0988548	
0.101378	
0.075333	
0.0805591	
0.0697827	
0.0794246	
0.104516	
0.10208	
0.104707	
0.119046	
0.117742	
0.123943	
0.123603	
0.12254	
0.122718	
0.0927048	
0.0886242	
0.0870515	
0.0849634	
0.111233	
0.109249	
0.107074	
0.106793	
0.105898	
0.105489	
0.109025	
0.108813	
0.120058	
0.123334	
0.123141	
0.123533	
0.120741	
0.121672	
0.12363	
0.122526	
0.117074	
0.113978	
0.114847	
0.113158	
0.118138	
0.118783	
0.116794	
0.118773	
0.115928	
0.117389	
0.0883153	
0.0885695	
0.0910632	
0.0819981	
0.110443	
0.10689	
0.12684	
0.124118	
0.122844	
0.122383	
0.123571	
0.124752	
0.127943	
0.12457	
0.125996	
0.119491	
0.120998	
0.119892	
0.12126	
0.120029	
0.0667453	
0.0403214	
0.0331251	
0.108559	
0.105811	
0.102	
0.101976	
0.096851	
0.098947	
0.0940555	
0.09292	
0.0956916	
0.0863558	
0.124645	
0.127161	
0.0745455	
0.0681043	
0.0694246	
0.0784977	
0.0820455	
0.0792563	
0.0760005	
0.083565	
0.0861287	
0.0868355	
0.0448748	
0.0552329	
0.0341524	
0.0964736	
0.0857549	
0.0854558	
0.0828709	
0.0892319	
0.0818395	
0.0807779	
0.0818842	
0.12167	
0.101227	
0.0994459	
0.0990367	
0.0970599	
0.121213	
0.120319	
0.120576	
0.119319	
0.0541014	
0.0425379	
0.0837681	
0.08117	
0.0770396	
0.0793795	
0.0777619	
0.08879	
0.0902638	
0.0800801	
0.107191	
0.105118	
0.104767	
0.0825938	
0.0779268	
0.0749349	
0.120204	
0.0953589	
0.0862852	
0.0961935	
0.093771	
0.118435	
0.118771	
0.11948	
0.120291	
0.0602109	
0.0696111	
0.0645231	
0.070296	
0.107636	
0.108703	
0.0539755	
0.0452087	
0.0523722	
0.0362556	
0.1202	
0.120647	
0.121337	
0.121935	
0.0947372	
0.0965014	
0.0960205	
0.0973181	
0.122443	
0.123831	
0.122598	
0.123461	
0.115634	
0.113289	
0.124103	
0.125966	
0.124174	
0.125856	
0.129958	
0.101055	
0.100906	
0.0974939	
0.0899611	
0.0604881	
0.0605445	
0.0759414	
0.074856	
0.101002	
0.100573	
0.0988671	
0.0977744	
0.0938772	
0.0921904	
0.0832623	
0.0882613	
0.0978721	
0.097611	
0.0967095	
0.120688	
0.123813	
0.119192	
0.11927	
0.0905787	
0.0856262	
0.0975348	
0.0893933	
0.0987192	
0.0983066	
0.0521244	
0.0525218	
0.0434129	
0.0523166	
0.0536746	
-0.188784	
-0.191707	
0.052502	
0.0453954	
0.0384323	
-0.0367983	
-0.174094	
0.0536826	
0.0530285	
-0.0667695	
-0.0701611	
-0.135368	
0.0502349	
-0.0741542	
0.0501128	
0.0495587	
-0.18838	
-0.0785219	
-0.0660717	
-0.096005	
-0.0179795	
-0.0317021	
0.0339297	
0.0115488	
-0.169426	
-0.168188	
-0.140776	
-0.0493025	
-0.185821	
-0.16156	
-0.0543991	
-0.0678079	
-0.0340312	
-0.153079	
-0.152033	
-0.172737	
-0.182324	
-0.189748	
-0.178621	
0.0111465	
-0.00959324	
-0.109997	
-0.143177	
-0.148245	
-0.145661	
-0.121147	
-0.123787	
-0.111289	
-0.088635	
-0.0641066	
-0.165762	
-0.0856742	
-0.0645828	
-0.0697966	
-0.0854436	
-0.0595077	
-0.0797944	
-0.0562813	
-0.069729	
-0.185528	
-0.169471	
-0.0989346	
-0.125513	
-0.175574	
-0.0391066	
-0.140863	
-0.0651089	
-0.0456426	
-0.103807	
-0.118892	
-0.177082	
-0.190422	
0.0496201	
0.0413057	
0.0023956	
-0.130723	
-0.0327399	
-0.0248284	
-0.155137	
-0.167829	
-0.152009	
-0.177151	
-0.167118	
-0.11688	
-0.12203	
-0.163444	
-0.173586	
-0.156474	
-0.00939761	
-0.176241	
0.0012951	
0.00627472	
-0.0402424	
-0.033352	
-0.137909	
-0.106423	
-0.127744	
-0.17581	
-0.0639409	
-0.0878763	
-0.110016	
-0.0973691	
-0.117363	
-0.0539361	
-0.16906	
-0.153869	
-0.156506	
-0.133833	
-0.142364	
-0.150004	
-0.0506633	
-0.163633	
-0.0232877	
-0.0328573	
-0.0808264	
-0.181001	
-0.176424	
-0.180769	
-0.189851	
-0.129145	
-0.130284	
-0.185853	
-0.18087	
-0.120048	
0.0450059	
0.0138006	
-0.182009	
-0.183173	
-0.19118	
-0.176205	
-0.123915	
-0.122889	
0.0457671	
0.0177871	
-0.182733	
-0.189261	
-0.186571	
0.0409827	
0.0498641	
-0.0836105	
-0.104973	
-0.041576	
-0.0313036	
-0.0469496	
-0.148718	
-0.122292	
-0.0910936	
-0.113906	
-0.117444	
-0.117821	
-0.0802283	
0.0490078	
-0.115234	
-0.115249	
-0.19187	
-0.18871	
-0.0886925	
-0.0364844	
-0.162572	
-0.144216	
-0.143341	
-0.0948159	
-0.116773	
-0.107918	
-0.122393	
0.0399138	
-0.171756	
-0.0556154	
-0.104959	
-0.164885	
-0.132084	
-0.143884	
-0.160935	
-0.165597	
-0.189086	
-0.165395	
-0.165248	
-0.150676	
-0.148867	
0.00729646	
-0.142455	
-0.135839	
-0.120381	
-0.0512033	
-0.0515266	
-0.0705433	
-0.00496459	
-0.0173795	
-0.0829044	
-0.0614626	
-0.0895592	
-0.147053	
-0.0594116	
-0.191408	
-0.19161	
-0.19089	
-0.0270677	
-0.177316	
-0.171989	
-0.172161	
-0.130005	
-0.156853	
-0.129071	
-0.140047	
-0.111019	
-0.0854238	
-0.187316	
-0.186434	
-0.138839	
-0.132728	
-0.125358	
-0.12145	
-0.0872084	
-0.163598	
-0.179971	
-0.185628	
-0.113961	
-0.0838082	
-0.112219	
0.0342217	
0.00979413	
-0.0426254	
-0.0316281	
0.00745569	
-0.00744785	
-0.160503	
-0.168193	
-0.065668	
-0.0388053	
-0.0548904	
-0.0378963	
-0.0554457	
-0.0405318	
-0.0570982	
-0.179044	
-0.181399	
-0.187073	
-0.191054	
-0.191246	
-0.00393094	
-0.0544132	
-0.0155792	
-0.0573119	
-0.0834105	
-0.0998697	
-0.161257	
-0.11863	
-0.0878753	
-0.110207	
-0.160905	
-0.15448	
-0.130423	
-0.107584	
-0.126178	
-0.0130422	
-0.0084484	
-0.0303218	
-0.0281012	
-0.0747957	
-0.119503	
-0.0686434	
-0.0443648	
-0.141159	
-0.118572	
-0.136235	
-0.122098	
-0.171057	
-0.157628	
-0.167774	
-0.158357	
-0.0781451	
-0.184327	
-0.175965	
-0.187397	
-0.181428	
-0.0867997	
-0.0748872	
-0.120937	
-0.139432	
-0.0616374	
-0.033008	
-0.0732704	
-0.0422226	
-0.1345	
-0.145617	
-0.0410972	
-0.0287403	
-0.00287749	
-0.16141	
-0.164551	
-0.151842	
-0.154313	
-0.0309082	
-0.0334516	
-0.15319	
-0.150263	
-0.106156	
-0.092497	
-0.112533	
-0.111807	
-0.0970509	
-0.151854	
-0.134383	
-0.150854	
-0.141419	
-0.00331105	
0.0157116	
-0.18953	
-0.185933	
-0.0863104	
-0.0737415	
-0.0953542	
-0.0848719	
-0.104955	
-0.0952023	
-0.132857	
-0.14883	
-0.135617	
-0.171173	
-0.17641	
-0.167573	
-0.0829906	
-0.0912702	
-0.0738847	
-0.0505808	
-0.0608545	
-0.0234874	
-0.0174981	
0.00727937	
-0.00688825	
0.0153576	
-0.0206827	
0.00366797	
-0.0190026	
-0.0268447	
-0.022161	
-0.00296149	
-0.0556134	
-0.0337278	
-0.0628039	
-0.0414001	
-0.0828275	
-0.0210126	
-0.0359514	
-0.00371422	
-0.0257124	
-0.0948361	
-0.0669579	
-0.08331	
-0.0657389	
0.00203118	
-0.0241187	
-0.0189932	
-0.0336777	
-0.100107	
-0.117635	
-0.115123	
-0.13101	
-0.130982	
-0.132601	
-0.10316	
-0.100436	
-0.143045	
-0.151946	
-0.158777	
-0.160207	
-0.165978	
-0.173146	
-0.176993	
-0.178831	
-0.177599	
-0.179606	
-0.182571	
-0.18658	
0.00402116	
-0.0118481	
-0.0363554	
-0.183644	
-0.177428	
-0.182992	
-0.184085	
-0.18521	
-0.183504	
-0.181211	
0.000715159	
0.0123029	
-0.143181	
-0.144401	
-0.128372	
-0.18803	
-0.191203	
-0.116602	
-0.120061	
-0.100211	
-0.10146	
-0.187733	
-0.188027	
-0.188054	
-0.189581	
-0.189769	
-0.0665171	
-0.137375	
-0.123253	
-0.141013	
-0.129203	
0.051908	
0.04621	
-0.0254666	
0.0151659	
0.000167479	
-0.00229096	
0.0144763	
0.051507	
0.0457146	
-0.0456559	
-0.0202344	
-0.0537255	
-0.0346754	
-0.100385	
-0.111009	
-0.122844	
-0.12977	
-0.137098	
-0.138313	
-0.157397	
-0.158801	
0.00217259	
0.00542659	
-0.191171	
-0.188129	
-0.00799885	
0.0109647	
-0.00296536	
0.0152806	
0.0392246	
0.00193162	
-0.191646	
-0.168434	
-0.174971	
-0.179859	
-3.04507e-05	
0.0188131	
-0.169571	
-0.173099	
0.0214158	
-0.135035	
-0.135012	
-0.186369	
-0.182296	
-0.186187	
-0.190355	
-0.186316	
-0.190506	
-0.141418	
-0.152485	
-0.086864	
-0.0876993	
-0.0791246	
-0.180837	
-0.160058	
-0.155679	
-0.0709203	
-0.0778179	
-0.108011	
-0.0964371	
0.0136763	
0.0511067	
0.0332228	
0.0434865	
0.00698953	
0.0388092	
0.0521407	
0.0105461	
-0.16142	
-0.165061	
-0.162424	
-0.190868	
-0.191099	
-0.189994	
0.0422798	
-0.189335	
-0.187673	
-0.0795219	
-0.0937149	
-0.0891037	
0.0506534	
0.0411301	
-0.185536	
-0.184614	
-0.188188	
0.0221419	
0.0456749	
0.0436803	
0.0459059	
-0.11652	
-0.107439	
-0.131977	
-0.134103	
-0.191014	
-0.190896	
-0.191582	
0.0414318	
0.0504654	
0.0146284	
0.0462709	
-0.171056	