<VTKFile type="UnstructuredGrid" version="0.1" byte_order="LittleEndian">
	<UnstructuredGrid>
		<Piece NumberOfPoints="1647" NumberOfCells="3046">
			<CellData Scalars="scalars">
				<DataArray type="Float64" Name="Doublet Strengths" NumberOfComponents="1" Format="ascii">
0.289287	
0.246515	
0.272523	
0.0578738	
0.0969417	
0.114096	
0.112425	
0.112955	
0.0593364	
0.0566281	
0.109188	
0.0999259	
0.0548794	
0.106788	
0.112193	
0.0863732	
0.229997	
0.109422	
0.277224	
0.205183	
0.225471	
0.142904	
0.197222	
0.224502	
0.178283	
0.197661	
0.149429	
0.182663	
0.125718	
0.220846	
0.224878	
0.170072	
0.223132	
0.250039	
0.126745	
0.221575	
0.22414	
0.157604	
0.178808	
0.156285	
0.16984	
0.182079	
0.179495	
0.206712	
0.211045	
0.176538	
0.224242	
0.146108	
0.144167	
0.158966	
0.241386	
0.23037	
0.21753	
0.21058	
0.215077	
0.205127	
0.238851	
0.163446	
0.179057	
0.180161	
0.176329	
0.142646	
0.0998062	
0.131507	
0.195188	
0.197351	
0.202076	
0.205079	
0.263725	
0.266662	
0.257024	
0.113211	
0.0521332	
0.191485	
0.193544	
0.200436	
0.205159	
0.186103	
0.172948	
0.175748	
0.166287	
0.193877	
0.185389	
0.193474	
0.189934	
0.196815	
0.195192	
0.202818	
0.173107	
0.161411	
0.104641	
0.118718	
0.125662	
0.220275	
0.23108	
0.225503	
0.234561	
0.117593	
0.126961	
0.165226	
0.239878	
0.243259	
0.255941	
0.207694	
0.196001	
0.197865	
0.153563	
0.222783	
0.107555	
0.120841	
0.129648	
0.141166	
0.138471	
0.149026	
0.133279	
0.132366	
0.260007	
0.271557	
0.229709	
0.245137	
0.223103	
0.0548925	
0.149193	
0.0908674	
0.0795412	
0.0859131	
0.188371	
0.206659	
0.0972217	
0.0730609	
0.139264	
0.139837	
0.132196	
0.132866	
0.104989	
0.25584	
0.245768	
0.1641	
0.149252	
0.166429	
0.152579	
0.113979	
0.150325	
0.152821	
0.160392	
0.159258	
0.119343	
0.106435	
0.288525	
0.274043	
0.252457	
0.266696	
0.227126	
0.197597	
0.198116	
0.205332	
0.0994996	
0.0791605	
0.270154	
0.190623	
0.179524	
0.188255	
0.175516	
0.185051	
0.169682	
0.191893	
0.193263	
0.184924	
0.0924013	
0.163384	
0.14552	
0.157021	
0.256136	
0.263461	
0.269863	
0.253071	
0.264238	
0.248141	
0.17249	
0.180467	
0.181895	
0.185909	
0.265549	
0.259142	
0.25173	
0.212811	
0.195025	
0.059851	
0.0756725	
0.0981048	
0.0994625	
0.0931041	
0.291098	
0.28575	
0.179403	
0.168832	
0.264787	
0.208543	
0.205136	
0.193172	
0.16328	
0.164223	
0.207987	
0.202998	
0.219265	
0.208398	
0.248481	
0.242863	
0.238265	
0.232768	
0.23657	
0.252383	
0.243882	
0.244042	
0.209864	
0.21924	
0.2218	
0.146933	
0.146941	
0.164775	
0.166749	
0.175	
0.182163	
0.104681	
0.110261	
0.0970487	
0.110115	
0.117221	
0.171398	
0.175446	
0.159907	
0.157257	
0.156302	
0.159623	
0.139571	
0.149832	
0.246387	
0.239742	
0.170345	
0.172241	
0.180933	
0.207415	
0.213789	
0.220233	
0.221565	
0.0887993	
0.0922601	
0.106037	
0.106174	
0.118679	
0.228445	
0.230771	
0.239051	
0.0960433	
0.106689	
0.156505	
0.166211	
0.155266	
0.170665	
0.215922	
0.220378	
0.227774	
0.232545	
0.192306	
0.196923	
0.207037	
0.211841	
0.250244	
0.257196	
0.260781	
0.263664	
0.147793	
0.10959	
0.256359	
0.246565	
0.257257	
0.213206	
0.197968	
0.201104	
0.114199	
0.154834	
0.153528	
0.252428	
0.252959	
0.216611	
0.205873	
0.202832	
0.215983	
0.205305	
0.210928	
0.205352	
0.204663	
0.189918	
0.194501	
0.258442	
0.269064	
0.250674	
0.246811	
0.258157	
0.250835	
0.288592	
0.181862	
0.197225	
0.177317	
0.19169	
0.210444	
0.218371	
0.204967	
0.126856	
0.182026	
0.189412	
0.172853	
0.176063	
0.0816195	
0.0874685	
0.0911782	
0.232244	
0.162207	
0.161687	
0.173901	
0.195192	
0.191443	
0.205817	
0.282847	
0.270247	
0.276583	
0.217291	
0.217828	
0.224774	
0.229006	
0.14313	
0.154151	
0.154595	
0.142432	
0.151227	
0.144629	
0.174173	
0.166422	
0.16916	
0.266775	
0.259402	
0.254045	
0.160606	
0.14869	
0.16497	
0.146103	
0.217807	
0.209512	
0.266271	
0.260047	
0.119399	
0.0737389	
0.058821	
0.082174	
0.0539881	
0.167235	
0.159328	
0.141689	
0.14135	
0.22895	
0.225465	
0.236572	
0.208565	
0.200886	
0.213077	
0.180801	
0.170149	
0.138274	
0.131501	
0.149186	
0.138744	
0.165102	
0.155601	
0.157933	
0.170399	
0.170486	
0.180233	
0.18045	
0.230329	
0.238396	
0.206311	
0.214051	
0.173075	
0.150083	
0.166705	
0.286335	
0.289264	
0.276645	
0.283171	
0.244196	
0.279963	
0.276517	
0.287044	
0.282202	
0.269684	
0.278146	
0.281324	
0.278395	
0.239012	
0.234985	
0.244242	
0.240013	
0.232265	
0.22938	
0.218269	
0.223537	
0.210061	
0.215273	
0.271159	
0.199856	
0.199688	
0.189685	
0.188001	
0.23635	
0.239348	
0.137939	
0.136243	
0.146993	
0.149768	
0.144942	
0.141986	
0.154747	
0.156744	
0.223015	
0.225604	
0.129609	
0.117549	
0.129324	
0.122481	
0.200049	
0.210462	
0.224294	
0.235357	
0.219621	
0.223833	
0.2201	
0.208958	
0.216587	
0.184867	
0.1935	
0.184187	
0.192624	
0.139293	
0.144598	
0.139181	
0.164522	
0.174962	
0.186275	
0.198249	
0.185734	
0.191209	
0.27619	
0.272619	
0.260526	
0.264618	
0.152672	
0.140341	
0.140637	
0.133771	
0.133892	
0.146549	
0.139807	
0.13169	
0.20984	
0.202732	
0.216114	
0.213287	
0.273947	
0.142579	
0.149662	
0.153606	
0.157912	
0.174865	
0.164658	
0.219468	
0.211261	
0.262079	
0.249713	
0.15469	
0.0674792	
0.173199	
0.157343	
0.198703	
0.16454	
0.192489	
0.1838	
0.12173	
0.132869	
0.166436	
0.227874	
0.232216	
0.236101	
0.238266	
0.12223	
0.17122	
0.168804	
0.104484	
0.121654	
0.124315	
0.132662	
0.111255	
0.124505	
0.127222	
0.137087	
0.137679	
0.267341	
0.274596	
0.274126	
0.278209	
0.239412	
0.227236	
0.229487	
0.0772329	
0.0823032	
0.0736973	
0.0705381	
0.245481	
0.246592	
0.23545	
0.240283	
0.237446	
0.235645	
0.133033	
0.205317	
0.210677	
0.217618	
0.0614616	
0.0614154	
0.0737646	
0.0743599	
0.160246	
0.266597	
0.251593	
0.254296	
0.16399	
0.215846	
0.208754	
0.278437	
0.284782	
0.184267	
0.185384	
0.170306	
0.174589	
0.25599	
0.263922	
0.256394	
0.263545	
0.177727	
0.190174	
0.182171	
0.179781	
0.193153	
0.18104	
0.189228	
0.146662	
0.129226	
0.140447	
0.115955	
0.161027	
0.172671	
0.172707	
0.227147	
0.234823	
0.262048	
0.264492	
0.26904	
0.272671	
0.15709	
0.160603	
0.147395	
0.149477	
0.182286	
0.181458	
0.19358	
0.190684	
0.194704	
0.189102	
0.178392	
0.170434	
0.245121	
0.232531	
0.245659	
0.239132	
0.243005	
0.283519	
0.29082	
0.276045	
0.279016	
0.257371	
0.251898	
0.221833	
0.230436	
0.203379	
0.211936	
0.117722	
0.0994103	
0.12297	
0.11	
0.181125	
0.18899	
0.285028	
0.278112	
0.28524	
0.279137	
0.269886	
0.281501	
0.272247	
0.264262	
0.269197	
0.262844	
0.249424	
0.247737	
0.239575	
0.160264	
0.145612	
0.148644	
0.133882	
0.105896	
0.0982599	
0.0855929	
0.0717645	
0.11172	
0.1247	
0.112018	
0.0988909	
0.0936647	
0.131538	
0.123246	
0.143254	
0.0544897	
0.0697773	
0.0868812	
0.128109	
0.11851	
0.126547	
0.128066	
0.115823	
0.120419	
0.142434	
0.236748	
0.236506	
0.25035	
0.249828	
0.0870648	
0.0687799	
0.125404	
0.11801	
0.132733	
0.121706	
0.128528	
0.120379	
0.133059	
0.115585	
0.128301	
0.220493	
0.216925	
0.2114	
0.120449	
0.113658	
0.114253	
0.110466	
0.0948074	
0.183973	
0.184878	
0.194469	
0.116827	
0.132929	
0.124522	
0.135496	
0.122703	
0.127713	
0.109233	
0.199683	
0.201715	
0.237262	
0.240888	
0.231229	
0.233171	
0.0964051	
0.0905791	
0.108328	
0.09947	
0.192914	
0.198398	
0.109402	
0.104252	
0.0624333	
0.0528257	
0.0802187	
0.0674027	
0.127829	
0.108922	
0.138191	
0.120033	
0.267495	
0.261198	
0.217706	
0.224616	
0.159096	
0.148434	
0.145596	
0.134498	
0.134366	
0.149522	
0.12015	
0.15584	
0.143465	
0.13291	
0.131966	
0.145381	
0.115667	
0.138936	
0.151502	
0.159393	
0.140202	
0.149457	
0.253268	
0.255909	
0.260486	
0.144487	
0.15178	
0.124031	
0.129946	
0.247513	
0.249738	
0.236796	
0.238516	
0.2457	
0.252944	
0.240077	
0.242155	
0.100764	
0.106333	
0.101362	
0.106806	
0.0311873	
0.0432323	
0.0371582	
0.0417557	
0.0450826	
-0.3429	
-0.333074	
0.0402017	
0.0406874	
0.0436559	
0.0398408	
0.0362441	
-0.291886	
0.0434487	
-0.087948	
-0.0932747	
-0.228516	
-0.126051	
0.0384191	
0.0371471	
-0.146526	
-0.0878137	
-0.170832	
-0.0822329	
-0.0865545	
0.0107628	
-0.0190488	
-0.276002	
-0.281196	
-0.233499	
-0.106536	
-0.321471	
-0.269977	
-0.0887715	
-0.131187	
-0.07829	
-0.240322	
-0.254181	
-0.269204	
-0.303945	
-0.321645	
-0.290532	
-0.0172708	
-0.0458544	
-0.181196	
-0.2318	
-0.200689	
-0.227375	
-0.223061	
-0.243171	
-0.156511	
-0.178304	
-0.130097	
-0.272377	
-0.151234	
-0.109024	
-0.116187	
-0.127847	
-0.120752	
-0.116076	
-0.148519	
-0.114253	
-0.309957	
-0.264797	
-0.134437	
-0.180735	
-0.283544	
-0.0845183	
-0.21887	
-0.12714	
-0.100152	
-0.169633	
-0.170675	
-0.284759	
-0.345715	
0.0224554	
0.0214679	
-0.0313296	
-0.210479	
-0.0648549	
-0.0748125	
-0.260579	
-0.237939	
-0.235583	
-0.275327	
-0.293685	
-0.186467	
-0.180255	
-0.281328	
-0.263418	
-0.252584	
-0.0512418	
-0.297586	
-0.0154218	
-0.0576534	
-0.044992	
-0.0878941	
-0.232462	
-0.160366	
-0.178251	
-0.294424	
-0.117005	
-0.172515	
-0.206015	
-0.15891	
-0.169501	
-0.0710359	
-0.249488	
-0.275345	
-0.221236	
-0.256588	
-0.196333	
-0.215257	
-0.0739653	
-0.103551	
-0.244271	
-0.0357783	
-0.0514709	
-0.0841534	
-0.160591	
-0.278849	
-0.287972	
-0.30477	
-0.326716	
-0.22655	
-0.21811	
-0.297198	
-0.307989	
-0.165071	
0.0300311	
-0.0130065	
-0.336711	
-0.278754	
-0.190204	
-0.206738	
-0.204143	
0.0300002	
-0.0114054	
-0.315944	
-0.322923	
-0.321714	
0.0255544	
0.0369766	
-0.11113	
-0.142784	
-0.0610978	
-0.0694853	
-0.0521394	
0.0461933	
-0.24918	
-0.209343	
-0.185513	
-0.19353	
-0.143926	
-0.190956	
-0.13933	
-0.166079	
-0.145984	
-0.166565	
-0.335186	
-0.344125	
-0.130585	
-0.0870597	
-0.241381	
-0.25575	
-0.271139	
-0.201243	
-0.165217	
-0.209474	
-0.188621	
0.0204924	
-0.28169	
-0.0995075	
-0.11088	
-0.17537	
-0.244667	
-0.193421	
-0.211437	
-0.235763	
-0.252445	
-0.333556	
-0.236039	
-0.243079	
-0.246234	
-0.260351	
-0.0276658	
-0.232118	
-0.199161	
-0.221401	
-0.102081	
-0.102294	
-0.132718	
-0.128419	
-0.0148996	
-0.0305431	
-0.117585	
-0.0959099	
-0.21791	
-0.112832	
-0.326927	
-0.334668	
-0.056744	
-0.288366	
-0.27852	
-0.273	
-0.191881	
-0.237473	
-0.19869	
-0.235686	
-0.192843	
-0.131202	
-0.318209	
-0.312225	
-0.175745	
-0.183788	
-0.206513	
-0.212073	
-0.0903645	
-0.113761	
-0.314894	
-0.302278	
-0.155663	
-0.178902	
0.0107396	
-0.0354326	
-0.023682	
-0.0775795	
-0.0449773	
-0.0238537	
-0.268354	
-0.281703	
-0.345523	
-0.0999605	
-0.0880278	
-0.0675442	
-0.0684801	
-0.0880403	
-0.054994	
-0.0843715	
-0.302558	
-0.319634	
-0.307208	
-0.343798	
-0.323006	
-0.0843134	
-0.117051	
-0.112696	
-0.153873	
-0.201914	
-0.245882	
-0.198977	
-0.122664	
-0.124176	
-0.139907	
-0.224448	
-0.2365	
-0.157807	
-0.175349	
-0.155292	
-0.173447	
-0.021345	
-0.0342857	
-0.0496662	
-0.0628157	
-0.308209	
-0.209144	
-0.139764	
-0.0830915	
-0.119173	
-0.207672	
-0.221463	
-0.193343	
-0.213143	
-0.259527	
-0.268313	
-0.246257	
-0.261427	
-0.310284	
-0.298971	
-0.306564	
-0.291742	
-0.156136	
-0.112461	
-0.201476	
-0.189321	
-0.0769457	
-0.102771	
-0.0765518	
-0.104006	
-0.208597	
-0.216134	
-0.0621423	
-0.0657595	
-0.0292791	
-0.25089	
-0.255498	
-0.266161	
-0.276933	
-0.0590973	
-0.0809236	
-0.227166	
-0.22771	
-0.140854	
-0.173858	
-0.137077	
-0.171487	
-0.24241	
-0.200224	
-0.227093	
0.00170122	
-0.0264564	
-0.315095	
-0.324617	
-0.0973939	
-0.115329	
-0.159462	
-0.145735	
-0.147845	
-0.133366	
-0.238456	
-0.217126	
-0.246715	
-0.284412	
-0.272004	
-0.292579	
-0.170231	
-0.153488	
-0.141089	
-0.101875	
-0.108949	
-0.03969	
-0.0341015	
-0.0306103	
-0.0131878	
-0.0284732	
-0.00956847	
-0.0560652	
-0.0260468	
-0.0570625	
-0.0470801	
-0.0475795	
-0.121412	
-0.111914	
-0.0822215	
-0.148557	
-0.0270116	
-0.0548448	
-0.0249797	
-0.0664962	
-0.153689	
-0.129415	
-0.170044	
-0.156854	
-0.0367088	
-0.0341567	
-0.0840715	
-0.0637436	
-0.218974	
-0.221759	
-0.177143	
-0.176718	
-0.168872	
-0.190628	
-0.189579	
-0.211088	
-0.263492	
-0.265468	
-0.246818	
-0.252024	
-0.288533	
-0.279939	
-0.299535	
-0.295993	
-0.299702	
-0.296176	
-0.313196	
-0.306574	
-0.0826376	
-0.0280672	
-0.0496076	
-0.293113	
-0.282179	
-0.314793	
-0.303765	
-0.314273	
-0.299896	
-0.300457	
-0.014393	
-0.0308889	
-0.207922	
-0.196941	
-0.184798	
-0.335067	
-0.336595	
-0.337048	
-0.166379	
-0.145818	
-0.153325	
-0.137333	
-0.33911	
-0.331392	
-0.32447	
-0.33158	
-0.327218	
-0.138987	
-0.201853	
-0.222332	
-0.195671	
-0.227061	
0.0315419	
0.0419975	
-0.0723128	
-0.070562	
-0.0148012	
-0.0400954	
-0.0160569	
0.0286715	
0.0401809	
-0.066643	
-0.122979	
-0.0633305	
-0.112878	
-0.135276	
-0.151041	
-0.182515	
-0.179604	
-0.195117	
-0.202779	
-0.235636	
-0.239331	
-0.00864087	
-0.011287	
-0.332032	
-0.321767	
-0.0291905	
-0.0060514	
-0.274646	
-0.024906	
0.0339853	
-0.2556	
-0.00705559	
-0.343159	
-0.28415	
-0.0266685	
-0.00269436	
0.00997243	
-0.190354	
-0.177707	
-0.297913	
-0.30722	
-0.30947	
-0.313961	
-0.323935	
-0.326998	
-0.200361	
-0.218829	
-0.12783	
-0.11652	
-0.125653	
-0.282538	
-0.238283	
-0.260403	
-0.263677	
-0.123968	
-0.154916	
-0.164217	
-0.183487	
-0.00840938	
0.00929178	
0.0392543	
-0.0367932	
0.0245014	
0.0440786	
0.0223946	
-0.0141424	
-0.295525	
-0.330206	
-0.323274	
-0.330317	
0.0312171	
-0.323717	
-0.319887	
-0.154505	
-0.134939	
-0.149223	
0.0279273	
0.0413644	
-0.311639	
-0.313995	
-0.308719	
-0.268573	
0.0089917	
-0.274516	
-0.265078	
-0.25633	
0.0367733	
0.0411798	
0.0434205	
-0.204958	
-0.19015	
-0.183775	
-0.165766	
-0.330275	
-0.332228	
-0.334901	
0.0441764	
0.0303495	
0.0375621	
0.00326114	
-0.2961	
-0.294292	
-0.288323	
-0.14419	
-0.145556	
0.043268	
0.0269178	
-0.327888	
-0.319537	
-0.317711	
-0.157141	
-0.14577	
-0.315251	
-0.321451	
-0.259006	
-0.0310031	
-0.0273476	
-0.0658332	
-0.0636688	
0.0454554	
0.0391539	
-0.0733064	
-0.0837757	
-0.10223	
-0.104135	
-0.341344	
-0.341738	
-0.331852	
-0.34113	
-0.107542	
-0.0759518	
-0.0913988	
-0.0969888	
-0.117882	
0.0357196	
0.0259548	
0.0210769	
-0.190237	
-0.201288	
-0.174051	
-0.198799	
0.0387321	
-0.110192	
-0.109744	
-0.0946295	
-0.33732	
-0.344357	
-0.261415	
-0.27153	
-0.102524	
-0.122806	
-0.28506	
-0.27399	
0.000514042	
0.00451244	
-0.255556	
-0.280176	
-0.270022	
-0.205869	
-0.226941	
-0.19452	
-0.210317	
-0.0409089	
-0.091728	
-0.0501052	
-0.0433049	
-0.0916431	
-0.0741094	
-0.338696	
-0.344056	
-0.339251	
-0.343419	
-0.036686	
-0.0443348	
0.0233012	
-0.253927	
-0.234327	
-0.303877	
-0.296326	
-0.1616	
-0.156866	
-0.11663	
-0.10031	
-0.322931	
-0.315126	
-0.335476	
-0.331677	
-0.324183	
-0.315832	
-0.166615	
-0.170042	
-0.143214	
-0.147049	
-0.256776	
-0.272573	
-0.186956	
-0.201486	
-0.221143	
-0.222969	
-0.333543	
-0.335286	
-0.336924	
-0.336169	
-0.286759	
-0.300472	
-0.310287	
-0.303428	
-0.311429	
-0.264314	
-0.253076	
-0.273794	
-0.283659	
-0.0317338	
0.0125286	
0.0371835	
-0.287179	
-0.283563	
-0.0865337	
-0.0700365	
-0.11953	
-0.212941	
-0.230466	
-0.21257	
-0.247812	
-0.244651	
-0.253487	
-0.256331	
-0.26209	
-0.340755	
-0.335781	
-0.334422	
-0.326744	
-0.293187	
-0.274668	
-0.287533	
-0.315983	
0.0174674	
-0.0434232	
0.0325673	
0.00793562	
-0.221478	
-0.247218	
-0.24345	
-0.218415	
-0.23428	
-0.026001	
0.0323448	
0.0295234	
-0.0210634	
0.0411377	
0.0216106	
-0.281086	
-0.288437	
-0.287266	
-0.297606	
0.0342686	
0.0109092	
-0.231289	
-0.26202	
-0.239828	
-0.267301	
-0.257188	
-0.262161	
-0.274345	
-0.253119	
-0.246653	
-0.262841	
-0.120458	
-0.126459	
-0.139768	
-0.152456	
-0.325588	
-0.325978	
-0.328142	
-0.229863	
-0.218605	
-0.314205	
-0.309465	
-0.29767	
-0.299193	
-0.212274	
-0.230388	
-0.224199	
-0.24109	
-0.0990077	
-0.123529	
-0.307545	
-0.309762	
-0.332776	
-0.337573	
-0.0521354	
-0.0659571	
-0.0721673	
-0.0816026	
-0.236881	
-0.224303	
-0.219856	
-0.214333	
-0.124145	
-0.148154	
-0.157112	
-0.176092	
-0.284412	
-0.297358	
-0.297183	
-0.308028	
-0.160976	
-0.152736	
-0.197561	
-0.189698	
-0.245292	
-0.235408	
-0.0628116	
-0.0401294	
-0.08772	
-0.0726663	
-0.278231	
-0.274743	
-0.342125	
-0.339828	
-0.342937	
-0.344867	
-0.319873	
-0.318958	
-0.145013	
-0.159506	
-0.187928	
-0.198008	
-0.0244598	
-0.0119237	
0.0333291	
0.0307216	
-0.197199	
-0.162106	
-0.186835	
-0.149645	
-0.0106032	
-0.00424833	
-0.00729759	
-0.000569732	
0.00252	
0.0145109	
0.0206427	
0.0230075	
0.0171986	
-0.00894463	
-0.000347027	
0.0079948	
0.00359445	
0.0100104	
0.0187201	
0.0230575	
0.01014	
0.0144682	
0.00644756	
-0.00463761	
0.00393075	
-0.0110254	
-0.0148892	
-0.00392251	
-0.0226837	
-0.0225804	
-0.0164972	
-0.0237344	
-0.0204157	
0.0144948	
0.0123916	
-0.00122615	
0.00501798	
-0.0063181	
-0.0178282	
-0.0171036	
-0.0163922	
-0.0143712	
-0.00989136	
0.0179143	
0.284584	
0.247575	
0.272566	
0.0576985	
0.102868	
0.0598443	
0.206756	
0.113984	
0.111756	
0.11227	
0.113078	
0.0845687	
0.0560222	
0.109313	
0.099821	
0.0952402	
0.054886	
0.106792	
0.0875453	
0.231531	
0.214621	
0.146327	
0.197155	
0.223965	
0.178269	
0.198096	
0.149127	
0.12594	
0.225751	
0.219401	
0.170072	
0.222587	
0.250012	
0.131109	
0.125593	
0.221897	
0.224654	
0.165418	
0.178707	
0.156782	
0.16949	
0.182108	
0.179607	
0.211461	
0.210662	
0.17054	
0.224583	
0.146221	
0.144454	
0.14831	
0.229802	
0.21069	
0.217754	
0.205211	
0.208058	
0.238638	
0.179419	
0.180725	
0.17693	
0.142946	
0.0993846	
0.131394	
0.208997	
0.204727	
0.194973	
0.192424	
0.256426	
0.262931	
0.270768	
0.112158	
0.0614773	
0.201286	
0.2008	
0.192297	
0.188929	
0.175619	
0.1662	
0.186524	
0.185262	
0.185308	
0.197976	
0.193354	
0.195294	
0.2032	
0.18999	
0.191273	
0.171847	
0.159895	
0.119996	
0.10644	
0.125433	
0.111976	
0.224936	
0.235915	
0.219838	
0.223463	
0.126812	
0.117502	
0.16544	
0.239814	
0.248842	
0.195702	
0.198681	
0.154653	
0.199919	
0.216928	
0.120875	
0.107474	
0.133763	
0.130567	
0.15807	
0.138697	
0.133697	
0.142176	
0.257098	
0.271402	
0.244665	
0.229239	
0.22353	
0.0674478	
0.0548524	
0.117654	
0.149065	
0.0796659	
0.0918412	
0.201495	
0.188498	
0.0953895	
0.0724397	
0.132425	
0.132998	
0.139521	
0.139989	
0.104368	
0.25399	
0.246104	
0.166494	
0.146979	
0.164109	
0.156841	
0.126962	
0.160553	
0.15942	
0.154252	
0.152907	
0.099326	
0.287201	
0.272717	
0.253603	
0.265922	
0.225134	
0.209317	
0.197489	
0.193777	
0.109218	
0.0995347	
0.175081	
0.190299	
0.175337	
0.191193	
0.169638	
0.176207	
0.191457	
0.17291	
0.193092	
0.096582	
0.156041	
0.162027	
0.15536	
0.261919	
0.255042	
0.255197	
0.247992	
0.252894	
0.260511	
0.181814	
0.185738	
0.173042	
0.180404	
0.264432	
0.250455	
0.256733	
0.204386	
0.196224	
0.20895	
0.0625467	
0.0986392	
0.0875392	
0.0995913	
0.287547	
0.283947	
0.179534	
0.168817	
0.263986	
0.205627	
0.206011	
0.198534	
0.155201	
0.163218	
0.203061	
0.215317	
0.208823	
0.216436	
0.242226	
0.246457	
0.234912	
0.238031	
0.233923	
0.243078	
0.249387	
0.218778	
0.204347	
0.221362	
0.147488	
0.141641	
0.16702	
0.165284	
0.177157	
0.175067	
0.11047	
0.0925645	
0.110282	
0.0972017	
0.117065	
0.179165	
0.171111	
0.164102	
0.159668	
0.159592	
0.145135	
0.149727	
0.139423	
0.245459	
0.239644	
0.181182	
0.175168	
0.172514	
0.219946	
0.221451	
0.210129	
0.213746	
0.0929668	
0.0889195	
0.280878	
0.106366	
0.106167	
0.118858	
0.240228	
0.234658	
0.232906	
0.104894	
0.0951333	
0.166141	
0.156427	
0.17058	
0.164149	
0.229049	
0.229912	
0.219691	
0.221176	
0.206657	
0.206382	
0.196902	
0.196585	
0.259924	
0.262151	
0.251487	
0.255988	
0.147763	
0.25059	
0.255314	
0.248129	
0.213102	
0.201103	
0.193463	
0.118944	
0.155075	
0.15386	
0.254905	
0.252343	
0.217976	
0.204116	
0.207629	
0.211928	
0.217054	
0.209185	
0.194255	
0.204992	
0.209495	
0.25791	
0.266243	
0.257837	
0.250685	
0.257198	
0.246564	
0.191995	
0.181558	
0.191418	
0.182045	
0.217895	
0.210023	
0.204594	
0.126632	
0.190373	
0.185068	
0.171936	
0.0817428	
0.0791621	
0.0913113	
0.0932356	
0.226789	
0.161779	
0.162231	
0.17402	
0.187982	
0.194854	
0.205449	
0.224608	
0.225323	
0.217296	
0.217932	
0.143008	
0.150387	
0.149779	
0.15466	
0.140635	
0.15129	
0.169104	
0.173994	
0.166265	
0.258902	
0.255382	
0.266336	
0.148576	
0.160229	
0.144546	
0.156365	
0.194436	
0.209108	
0.217357	
0.119166	
0.259875	
0.265905	
0.058027	
0.072693	
0.0823242	
0.0540764	
0.16723	
0.154961	
0.172464	
0.142167	
0.14734	
0.228991	
0.236426	
0.228851	
0.201836	
0.213117	
0.20522	
0.18083	
0.170003	
0.131522	
0.13821	
0.138787	
0.1494	
0.149176	
0.170452	
0.155587	
0.165067	
0.170325	
0.180375	
0.184772	
0.238318	
0.230333	
0.213742	
0.206029	
0.166695	
0.150346	
0.283776	
0.246025	
0.275119	
0.278878	
0.26843	
0.284462	
0.269475	
0.282536	
0.278564	
0.281907	
0.277602	
0.235043	
0.238885	
0.240003	
0.244175	
0.225014	
0.228186	
0.230515	
0.233638	
0.207605	
0.214446	
0.216295	
0.219371	
0.267255	
0.206633	
0.201154	
0.194534	
0.191229	
0.280372	
0.238464	
0.242278	
0.13619	
0.137887	
0.142379	
0.152576	
0.142687	
0.145807	
0.149331	
0.159433	
0.226605	
0.237834	
0.22609	
0.122907	
0.129567	
0.122435	
0.129295	
0.207265	
0.199926	
0.232394	
0.223966	
0.230686	
0.219254	
0.219829	
0.205178	
0.216146	
0.208667	
0.193379	
0.180141	
0.197141	
0.184073	
0.143931	
0.138822	
0.170569	
0.164672	
0.193395	
0.186412	
0.196855	
0.18593	
0.264771	
0.264318	
0.272985	
0.152643	
0.149601	
0.144654	
0.140205	
0.133844	
0.133623	
0.139429	
0.14268	
0.131752	
0.127046	
0.218222	
0.201345	
0.214652	
0.210602	
0.268307	
0.267998	
0.135394	
0.142171	
0.157725	
0.153172	
0.175599	
0.158236	
0.154423	
0.173891	
0.199417	
0.1612	
0.147684	
0.123846	
0.184487	
0.193245	
0.127146	
0.132367	
0.241671	
0.238542	
0.234473	
0.229216	
0.171712	
0.169227	
0.108932	
0.122568	
0.137401	
0.135865	
0.122122	
0.116389	
0.115975	
0.126283	
0.126271	
0.086022	
0.111115	
0.132169	
0.272894	
0.260542	
0.276807	
0.272752	
0.232008	
0.239164	
0.229644	
0.235443	
0.23962	
0.240317	
0.245182	
0.138218	
0.217596	
0.205108	
0.210634	
0.160654	
0.262542	
0.249576	
0.26634	
0.234116	
0.234666	
0.260349	
0.252726	
0.26575	
0.16428	
0.0737764	
0.0744403	
0.0614281	
0.0521577	
0.208589	
0.21572	
0.282544	
0.276733	
0.0771793	
0.0736824	
0.0822693	
0.0705437	
0.1139	
0.175895	
0.18611	
0.186651	
0.177647	
0.18206	
0.19004	
0.182182	
0.190329	
0.180871	
0.189166	
0.127754	
0.138964	
0.119171	
0.138867	
0.172614	
0.160014	
0.172481	
0.234698	
0.227052	
0.272737	
0.271354	
0.260924	
0.263562	
0.165013	
0.156909	
0.149701	
0.14735	
0.197761	
0.190481	
0.182169	
0.181299	
0.178372	
0.176476	
0.189691	
0.188894	
0.240485	
0.272194	
0.268249	
0.274623	
0.251236	
0.256698	
0.279856	
0.281269	
0.229493	
0.223301	
0.21207	
0.204338	
0.239865	
0.244607	
0.221222	
0.231501	
0.217181	
0.224286	
0.117491	
0.109912	
0.117622	
0.0993797	
0.193466	
0.181042	
0.277314	
0.270313	
0.264279	
0.262778	
0.268999	
0.278027	
0.288878	
0.277984	
0.284468	
0.236301	
0.247036	
0.23903	
0.248879	
0.240317	
0.118243	
0.0717131	
0.0595132	
0.187042	
0.177507	
0.145333	
0.161042	
0.133879	
0.148773	
0.133024	
0.120108	
0.127959	
0.109107	
0.272306	
0.276505	
0.124502	
0.111695	
0.111778	
0.0928915	
0.0990435	
0.131693	
0.123376	
0.111888	
0.105885	
0.117666	
0.0697497	
0.0869046	
0.0544715	
0.129452	
0.126146	
0.128057	
0.117574	
0.111881	
0.0988626	
0.115316	
0.12047	
0.250911	
0.15975	
0.152502	
0.149778	
0.141396	
0.249359	
0.242469	
0.243557	
0.235793	
0.0870124	
0.0686737	
0.133019	
0.125655	
0.118242	
0.103731	
0.103807	
0.120193	
0.113174	
0.143132	
0.195096	
0.184427	
0.185435	
0.133246	
0.124746	
0.117068	
0.248621	
0.127724	
0.109254	
0.139151	
0.122622	
0.230572	
0.232534	
0.236662	
0.242384	
0.090706	
0.104881	
0.0996353	
0.108536	
0.193196	
0.19885	
0.0803352	
0.0674678	
0.0758217	
0.0529121	
0.240929	
0.243371	
0.248589	
0.253553	
0.125661	
0.129691	
0.139821	
0.143866	
0.260776	
0.271367	
0.261373	
0.267756	
0.228544	
0.219148	
0.273904	
0.282336	
0.275466	
0.281164	
0.287815	
0.158789	
0.158544	
0.134229	
0.118669	
0.10616	
0.105815	
0.135801	
0.133074	
0.154924	
0.142226	
0.148533	
0.133182	
0.172736	
0.1682	
0.148177	
0.158303	
0.14536	
0.132128	
0.130292	
0.253416	
0.256956	
0.246052	
0.247472	
0.165773	
0.154352	
0.144287	
0.116661	
0.148189	
0.135257	
0.0405131	
0.0432816	
0.0256444	
0.0418331	
0.0450951	
-0.343218	
-0.332742	
0.0434749	
0.0309747	
0.0362087	
-0.0531409	
-0.291048	
0.0438181	
0.0432717	
-0.087905	
-0.0930267	
-0.228343	
0.0460356	
-0.0999677	
0.0384884	
0.0371333	
-0.335774	
-0.146318	
-0.0966147	
-0.17058	
-0.0633093	
-0.0821424	
0.0108852	
-0.0189413	
-0.280648	
-0.279426	
-0.233145	
-0.106415	
-0.312519	
-0.269218	
-0.0889732	
-0.130997	
-0.078284	
-0.255249	
-0.253737	
-0.269028	
-0.30357	
-0.321343	
-0.290181	
-0.0172531	
-0.0458399	
-0.183399	
-0.231628	
-0.246472	
-0.242654	
-0.205691	
-0.20999	
-0.156896	
-0.156946	
-0.123976	
-0.272112	
-0.137233	
-0.104223	
-0.109246	
-0.128111	
-0.120605	
-0.14832	
-0.115925	
-0.114451	
-0.309731	
-0.261565	
-0.133539	
-0.173942	
-0.283021	
-0.0845236	
-0.218903	
-0.126942	
-0.0999663	
-0.165834	
-0.171153	
-0.296627	
-0.343393	
0.0370721	
0.0225092	
-0.0312361	
-0.210434	
-0.0748349	
-0.0648655	
-0.238193	
-0.260755	
-0.235394	
-0.293333	
-0.27497	
-0.17601	
-0.18062	
-0.262975	
-0.281	
-0.252163	
-0.0511678	
-0.295108	
-0.0283979	
-0.0208882	
-0.0831196	
-0.072677	
-0.232072	
-0.145223	
-0.178712	
-0.293518	
-0.11702	
-0.158675	
-0.189407	
-0.172254	
-0.200369	
-0.0726442	
-0.275222	
-0.249613	
-0.256467	
-0.221093	
-0.204161	
-0.216882	
-0.103456	
-0.245447	
-0.0360662	
-0.0841335	
-0.144904	
-0.288269	
-0.27892	
-0.303917	
-0.325942	
-0.216785	
-0.217774	
-0.307771	
-0.296724	
-0.164829	
0.0299434	
-0.0129962	
-0.297112	
-0.296497	
-0.336919	
-0.281656	
-0.190354	
-0.190239	
0.0287184	
-0.0113989	
-0.314192	
-0.322006	
-0.320875	
0.021602	
0.0372835	
-0.11103	
-0.142615	
-0.0623109	
-0.0526883	
-0.0706975	
-0.248686	
-0.209099	
-0.161879	
-0.193281	
-0.190969	
-0.190614	
-0.139337	
0.0398481	
-0.160292	
-0.165379	
-0.334306	
-0.342536	
-0.154831	
-0.0868959	
-0.270622	
-0.24107	
-0.239906	
-0.170116	
-0.201039	
-0.188578	
-0.209306	
0.0204926	
-0.281484	
-0.110766	
-0.175311	
-0.246353	
-0.19395	
-0.21203	
-0.238888	
-0.25264	
-0.334212	
-0.259347	
-0.260289	
-0.236061	
-0.235428	
-0.0273397	
-0.232028	
-0.221278	
-0.199061	
-0.102266	
-0.102068	
-0.128382	
-0.0150465	
-0.0309391	
-0.118168	
-0.0890225	
-0.125268	
-0.218327	
-0.102386	
-0.342712	
-0.334728	
-0.32692	
-0.0628621	
-0.291515	
-0.274421	
-0.272809	
-0.190306	
-0.23947	
-0.218664	
-0.23525	
-0.192618	
-0.156719	
-0.311472	
-0.316584	
-0.206845	
-0.200389	
-0.186791	
-0.18398	
-0.116892	
-0.255176	
-0.301563	
-0.313768	
-0.155614	
-0.139835	
-0.178945	
0.0107927	
-0.0236435	
-0.0916728	
-0.0774812	
-0.0237888	
-0.0448895	
-0.26752	
-0.280667	
-0.100228	
-0.067741	
-0.0882406	
-0.0631971	
-0.0847643	
-0.0687019	
-0.0883255	
-0.300648	
-0.305299	
-0.317982	
-0.330693	
-0.341743	
-0.0433317	
-0.112543	
-0.0590174	
-0.116893	
-0.153715	
-0.176486	
-0.246854	
-0.198823	
-0.119869	
-0.153753	
-0.237767	
-0.225642	
-0.189899	
-0.155674	
-0.18027	
-0.0344875	
-0.0267005	
-0.0552316	
-0.0500723	
-0.132724	
-0.195578	
-0.11923	
-0.0879258	
-0.22157	
-0.189614	
-0.21319	
-0.193387	
-0.268414	
-0.246116	
-0.261536	
-0.246294	
-0.143724	
-0.306191	
-0.288099	
-0.313695	
-0.298676	
-0.139894	
-0.126514	
-0.175788	
-0.202083	
-0.103	
-0.0662736	
-0.116413	
-0.0768288	
-0.194396	
-0.218327	
-0.0773981	
-0.0625294	
-0.029694	
-0.265611	
-0.271593	
-0.250411	
-0.254822	
-0.080809	
-0.0841958	
-0.229532	
-0.218055	
-0.158176	
-0.141105	
-0.174032	
-0.171675	
-0.151425	
-0.230131	
-0.204313	
-0.22707	
-0.212133	
-0.0215484	
0.00153966	
-0.324675	
-0.315172	
-0.115299	
-0.0974	
-0.148057	
-0.133575	
-0.159717	
-0.14598	
-0.222718	
-0.246383	
-0.226197	
-0.283595	
-0.292295	
-0.276527	
-0.153386	
-0.165158	
-0.141067	
-0.108933	
-0.122936	
-0.0402886	
-0.034579	
-0.0156886	
-0.0335389	
-0.00951583	
-0.0576544	
-0.0260546	
-0.0560843	
-0.0570666	
-0.0477504	
-0.0252849	
-0.111766	
-0.0820834	
-0.121257	
-0.0915252	
-0.148429	
-0.0472636	
-0.0666859	
-0.0270788	
-0.0547859	
-0.169872	
-0.131101	
-0.153516	
-0.129291	
-0.0341364	
-0.0704585	
-0.0636698	
-0.0839714	
-0.176928	
-0.201616	
-0.198436	
-0.221405	
-0.207705	
-0.211095	
-0.168896	
-0.166088	
-0.238093	
-0.25171	
-0.26313	
-0.265192	
-0.275288	
-0.287744	
-0.295304	
-0.298712	
-0.29549	
-0.299072	
-0.305668	
-0.314856	
-0.0280283	
-0.0495792	
-0.0826016	
-0.297397	
-0.282053	
-0.306445	
-0.3122	
-0.313032	
-0.299328	
-0.301885	
-0.0308966	
-0.014405	
-0.209336	
-0.208308	
-0.181282	
-0.336116	
-0.336433	
-0.160334	
-0.166683	
-0.137444	
-0.140778	
-0.337211	
-0.32788	
-0.331448	
-0.331605	
-0.326667	
-0.123903	
-0.222163	
-0.201738	
-0.22684	
-0.20903	
0.0419155	
0.0315476	
-0.0721526	
-0.014924	
-0.0367064	
-0.0398806	
-0.0158656	
0.0395265	
0.0285182	
-0.101912	
-0.0666392	
-0.112819	
-0.0864954	
-0.135033	
-0.150856	
-0.173885	
-0.183055	
-0.197018	
-0.196484	
-0.235417	
-0.239021	
-0.0115374	
-0.00885515	
-0.33058	
-0.32056	
-0.0293573	
-0.0061874	
-0.0277173	
-0.00402319	
0.0339142	
-0.0245071	
-0.335389	
-0.256385	
-0.275205	
-0.282704	
-0.0366046	
0.00314118	
-0.257039	
-0.266131	
0.00982041	
-0.189499	
-0.189121	
-0.306089	
-0.293088	
-0.308091	
-0.3237	
-0.310068	
-0.326762	
-0.200599	
-0.220581	
-0.128104	
-0.126	
-0.116799	
-0.286271	
-0.260382	
-0.253858	
-0.130505	
-0.138931	
-0.181105	
-0.164149	
-0.00553376	
0.0395551	
0.00947007	
0.024989	
-0.0264352	
0.0225265	
0.0441452	
-0.0141069	
-0.238882	
-0.248022	
-0.244702	
-0.329137	
-0.330262	
-0.323192	
0.0291003	
-0.322898	
-0.318758	
-0.135016	
-0.154557	
-0.149258	
0.0439883	
0.0294972	
-0.312809	
-0.310596	
-0.313625	
0.00884818	
0.0411045	
0.0366533	
0.0333621	
-0.18383	
-0.169724	
-0.204996	
-0.206838	
-0.32893	
-0.339431	
-0.33313	
0.030257	
0.0444385	
-0.00296794	
0.0375433	
-0.269667	
-0.263089	
-0.145911	
-0.144584	
0.0399648	
0.0330118	
0.0277825	
-0.31688	
-0.296046	
-0.325253	
-0.318749	
-0.264182	
-0.25691	
-0.281092	
-0.266479	
-0.157485	
-0.146067	
-0.314955	
-0.320519	
-0.258887	
-0.0272231	
-0.0308854	
-0.0635272	
-0.0656984	
0.0388799	
0.0449939	
-0.11298	
-0.104232	
-0.0734379	
-0.0568215	
-0.33958	
-0.330977	
-0.339125	
-0.330477	
-0.107591	
-0.0969526	
-0.110346	
-0.0760809	
-0.0893465	
0.0259526	
0.0356895	
0.0212937	
-0.184261	
-0.198819	
-0.177419	
-0.200001	
0.0394165	
-0.113113	
-0.0977528	
-0.340291	
-0.339273	
-0.122832	
-0.102558	
0.000386379	
0.00433603	
-0.273818	