<VTKFile type="UnstructuredGrid" version="0.1" byte_order="LittleEndian">
	<UnstructuredGrid>
		<Piece NumberOfPoints="1647" NumberOfCells="3046">
			<CellData Scalars="scalars">
				<DataArray type="Float64" Name="Doublet Strengths" NumberOfComponents="1" Format="ascii">
0.277937	
0.237147	
0.261838	
0.0563022	
0.0957471	
0.112146	
0.110649	
0.11118	
0.0576334	
0.0549522	
0.107534	
0.0985912	
0.0544524	
0.105189	
0.11039	
0.0854928	
0.222227	
0.107781	
0.266384	
0.198948	
0.218289	
0.139207	
0.190801	
0.216128	
0.172893	
0.191153	
0.14544	
0.176815	
0.122561	
0.213003	
0.216813	
0.165108	
0.214942	
0.240598	
0.123896	
0.213643	
0.216657	
0.15308	
0.173192	
0.151791	
0.164965	
0.176492	
0.174102	
0.199507	
0.203514	
0.171212	
0.216643	
0.142229	
0.140229	
0.154602	
0.232214	
0.221686	
0.210292	
0.203582	
0.207936	
0.198373	
0.229825	
0.158656	
0.173563	
0.174566	
0.171018	
0.13866	
0.0971127	
0.128462	
0.188731	
0.190749	
0.195263	
0.19806	
0.25307	
0.255877	
0.246733	
0.110929	
0.0511486	
0.185156	
0.187136	
0.193609	
0.198149	
0.180244	
0.167894	
0.170497	
0.161612	
0.187354	
0.17934	
0.187157	
0.183922	
0.190411	
0.188904	
0.196167	
0.167814	
0.156914	
0.10315	
0.116732	
0.123419	
0.21215	
0.222346	
0.217037	
0.225542	
0.115666	
0.124678	
0.160438	
0.230811	
0.233712	
0.245715	
0.201039	
0.1895	
0.191141	
0.149623	
0.214594	
0.105949	
0.11877	
0.126803	
0.137616	
0.135111	
0.145026	
0.13019	
0.129381	
0.251134	
0.262074	
0.221199	
0.235666	
0.215089	
0.0540805	
0.145466	
0.0898485	
0.0788106	
0.0849175	
0.182119	
0.199356	
0.0945	
0.0710756	
0.135568	
0.136198	
0.128796	
0.129516	
0.103448	
0.246255	
0.236917	
0.159444	
0.145181	
0.161727	
0.148454	
0.112184	
0.146355	
0.148716	
0.155968	
0.154845	
0.11604	
0.103444	
0.277083	
0.263149	
0.242773	
0.256198	
0.21884	
0.190864	
0.191422	
0.198218	
0.0969433	
0.0777871	
0.259425	
0.18435	
0.173906	
0.182099	
0.170141	
0.179091	
0.164653	
0.185642	
0.186957	
0.179122	
0.0902618	
0.158771	
0.142001	
0.152786	
0.245894	
0.252827	
0.25897	
0.243372	
0.25386	
0.23864	
0.167215	
0.174837	
0.176044	
0.179886	
0.256515	
0.250327	
0.243107	
0.206059	
0.188942	
0.058386	
0.0739455	
0.0963366	
0.0974418	
0.0912217	
0.279392	
0.274265	
0.173805	
0.163865	
0.255619	
0.201719	
0.198411	
0.186943	
0.158599	
0.159472	
0.20114	
0.196283	
0.211925	
0.201506	
0.238803	
0.233504	
0.229248	
0.224037	
0.22749	
0.242409	
0.234402	
0.234614	
0.202622	
0.211355	
0.213782	
0.142784	
0.142817	
0.160109	
0.161954	
0.169723	
0.176432	
0.102129	
0.107583	
0.0948438	
0.107565	
0.115216	
0.166283	
0.170071	
0.155547	
0.153049	
0.152115	
0.155251	
0.136395	
0.146066	
0.237305	
0.230942	
0.165407	
0.167111	
0.175373	
0.200141	
0.206183	
0.212224	
0.213541	
0.0873732	
0.0907956	
0.103732	
0.103695	
0.115842	
0.220814	
0.223103	
0.231164	
0.0934382	
0.103732	
0.152153	
0.161315	
0.151023	
0.165535	
0.208729	
0.213042	
0.220109	
0.224735	
0.18597	
0.190297	
0.199892	
0.204335	
0.240409	
0.247032	
0.250414	
0.253187	
0.14405	
0.107247	
0.246248	
0.237051	
0.247122	
0.205782	
0.191479	
0.194424	
0.111916	
0.1505	
0.149195	
0.242576	
0.243014	
0.208963	
0.198834	
0.195942	
0.208853	
0.198663	
0.204091	
0.198383	
0.197777	
0.183776	
0.188181	
0.248102	
0.258176	
0.240921	
0.237316	
0.248063	
0.241147	
0.276926	
0.176121	
0.190625	
0.171853	
0.185415	
0.20311	
0.210475	
0.197983	
0.123979	
0.176218	
0.183177	
0.167625	
0.170645	
0.0798726	
0.0858745	
0.0892253	
0.223889	
0.157678	
0.157219	
0.168811	
0.188636	
0.185056	
0.198595	
0.271367	
0.259281	
0.265339	
0.20956	
0.210098	
0.216617	
0.220581	
0.139478	
0.150019	
0.150438	
0.138731	
0.147222	
0.140898	
0.168813	
0.161565	
0.164133	
0.257091	
0.249921	
0.244688	
0.156208	
0.145056	
0.160246	
0.142602	
0.210005	
0.202258	
0.255893	
0.250004	
0.117224	
0.0716493	
0.0571658	
0.0803211	
0.0528306	
0.162264	
0.154724	
0.137741	
0.13748	
0.220606	
0.217282	
0.227718	
0.201406	
0.194097	
0.205647	
0.175229	
0.165229	
0.135037	
0.128626	
0.145233	
0.135388	
0.160226	
0.151248	
0.153417	
0.165252	
0.165305	
0.174535	
0.174721	
0.221825	
0.229426	
0.199358	
0.20657	
0.16773	
0.146027	
0.161681	
0.274922	
0.27773	
0.265424	
0.271715	
0.236144	
0.268853	
0.265513	
0.275775	
0.270963	
0.259815	
0.267497	
0.270301	
0.267368	
0.230075	
0.226323	
0.235085	
0.231133	
0.223848	
0.221082	
0.210564	
0.215528	
0.202792	
0.207714	
0.260393	
0.193851	
0.193558	
0.183967	
0.182283	
0.228689	
0.231685	
0.134473	
0.132851	
0.143051	
0.145785	
0.141165	
0.138333	
0.150377	
0.152305	
0.216074	
0.218266	
0.126569	
0.115245	
0.126293	
0.119882	
0.193188	
0.202998	
0.216012	
0.226439	
0.211571	
0.215513	
0.212272	
0.201715	
0.208915	
0.178926	
0.18709	
0.178279	
0.186296	
0.136112	
0.141143	
0.135982	
0.159909	
0.169794	
0.180404	
0.19178	
0.179958	
0.185144	
0.265938	
0.262159	
0.25052	
0.254331	
0.148675	
0.136805	
0.137066	
0.130545	
0.130617	
0.142717	
0.136292	
0.128478	
0.203271	
0.196434	
0.209419	
0.206796	
0.262985	
0.139227	
0.145832	
0.149563	
0.153615	
0.169595	
0.15986	
0.211632	
0.203863	
0.251763	
0.240079	
0.150696	
0.0667753	
0.168021	
0.152786	
0.192385	
0.159737	
0.186447	
0.178109	
0.118333	
0.130246	
0.161525	
0.21945	
0.223597	
0.227229	
0.229329	
0.120026	
0.166086	
0.163789	
0.10297	
0.119462	
0.12204	
0.130059	
0.10948	
0.122361	
0.124966	
0.134086	
0.134641	
0.256612	
0.263466	
0.26316	
0.26696	
0.230961	
0.219158	
0.221614	
0.0761229	
0.0813785	
0.072913	
0.0699387	
0.237101	
0.238193	
0.227448	
0.232026	
0.22857	
0.226878	
0.130085	
0.198291	
0.203593	
0.210199	
0.0603895	
0.0601545	
0.0724075	
0.0728382	
0.155598	
0.255945	
0.24184	
0.244341	
0.159223	
0.208275	
0.20149	
0.267391	
0.273609	
0.178834	
0.179818	
0.165281	
0.169374	
0.2459	
0.253378	
0.246323	
0.253046	
0.172168	
0.183953	
0.176367	
0.174342	
0.187231	
0.175524	
0.1834	
0.142471	
0.125645	
0.136485	
0.114084	
0.156678	
0.16757	
0.167634	
0.218832	
0.226038	
0.251585	
0.253968	
0.258222	
0.261816	
0.15256	
0.155962	
0.143218	
0.145244	
0.176649	
0.175858	
0.187334	
0.184587	
0.188311	
0.183063	
0.172931	
0.165447	
0.235763	
0.223982	
0.236248	
0.230118	
0.23341	
0.272206	
0.279397	
0.26492	
0.267768	
0.248302	
0.243067	
0.214741	
0.223137	
0.196389	
0.204459	
0.115654	
0.0980976	
0.120378	
0.108322	
0.175369	
0.182811	
0.273805	
0.267112	
0.273949	
0.268051	
0.25923	
0.270589	
0.261905	
0.254268	
0.259244	
0.253022	
0.239496	
0.237944	
0.230198	
0.155991	
0.142449	
0.145013	
0.131201	
0.102984	
0.095513	
0.0832897	
0.0697037	
0.10874	
0.12128	
0.108979	
0.0976221	
0.0925778	
0.127905	
0.119911	
0.139154	
0.0530721	
0.0680235	
0.0846596	
0.125808	
0.115883	
0.12355	
0.124956	
0.113232	
0.11758	
0.139149	
0.227744	
0.227462	
0.240458	
0.239936	
0.0847824	
0.0669733	
0.122171	
0.115034	
0.129181	
0.119059	
0.125514	
0.117851	
0.129845	
0.113737	
0.126006	
0.212454	
0.209029	
0.203946	
0.117983	
0.111835	
0.112092	
0.108752	
0.0936553	
0.178188	
0.179052	
0.188272	
0.113817	
0.129318	
0.12119	
0.132487	
0.120559	
0.125287	
0.107518	
0.192797	
0.194802	
0.228	
0.231441	
0.222378	
0.224219	
0.0941054	
0.0883837	
0.105596	
0.0969719	
0.18671	
0.192016	
0.10744	
0.102814	
0.0610303	
0.0516247	
0.0783124	
0.0658	
0.125409	
0.107219	
0.135006	
0.117985	
0.256858	
0.250831	
0.210563	
0.217235	
0.154768	
0.144737	
0.142288	
0.131723	
0.131711	
0.145837	
0.118002	
0.151842	
0.140385	
0.129147	
0.129334	
0.141873	
0.113563	
0.135786	
0.147669	
0.155099	
0.137031	
0.145764	
0.24478	
0.247215	
0.251795	
0.140372	
0.147334	
0.120535	
0.126278	
0.239129	
0.241221	
0.228764	
0.230458	
0.237461	
0.244542	
0.231991	
0.233953	
0.0989628	
0.104242	
0.0996956	
0.104813	
0.0323232	
0.0439606	
0.0381154	
0.0425475	
0.0457739	
-0.332254	
-0.322985	
0.0411016	
0.0414992	
0.0443826	
0.0405787	
0.0364262	
-0.283126	
0.0441534	
-0.0865036	
-0.0917537	
-0.22117	
-0.123844	
0.039269	
0.0381177	
-0.141354	
-0.0857808	
-0.165102	
-0.0784521	
-0.0826633	
0.0124474	
-0.0167596	
-0.267354	
-0.272414	
-0.226222	
-0.102193	
-0.311677	
-0.26176	
-0.0861996	
-0.126307	
-0.0747867	
-0.232877	
-0.246412	
-0.26247	
-0.294778	
-0.311915	
-0.282386	
-0.0150429	
-0.0429915	
-0.175456	
-0.22504	
-0.194306	
-0.220242	
-0.216058	
-0.235569	
-0.153237	
-0.172408	
-0.125305	
-0.264234	
-0.147285	
-0.10611	
-0.113016	
-0.124712	
-0.116095	
-0.111538	
-0.143303	
-0.110957	
-0.300697	
-0.258304	
-0.132016	
-0.17735	
-0.27564	
-0.0809178	
-0.213106	
-0.12235	
-0.0959612	
-0.16505	
-0.16691	
-0.276081	
-0.334583	
0.0238957	
0.0229395	
-0.0287773	
-0.204282	
-0.0616667	
-0.0714598	
-0.25401	
-0.231882	
-0.229509	
-0.267036	
-0.284802	
-0.18198	
-0.175983	
-0.273348	
-0.255947	
-0.245341	
-0.0481384	
-0.288509	
-0.0133231	
-0.0546863	
-0.0423051	
-0.0843875	
-0.225212	
-0.157357	
-0.174757	
-0.285314	
-0.112821	
-0.16674	
-0.199497	
-0.153437	
-0.163798	
-0.0697061	
-0.242238	
-0.267338	
-0.214422	
-0.248892	
-0.192142	
-0.21078	
-0.0705521	
-0.0994247	
-0.238635	
-0.0347779	
-0.0503891	
-0.0801882	
-0.155203	
-0.271796	
-0.280698	
-0.295655	
-0.316759	
-0.219381	
-0.211208	
-0.288622	
-0.299156	
-0.162047	
0.0312131	
-0.010897	
-0.326345	
-0.272096	
-0.185363	
-0.201384	
-0.199024	
0.031189	
-0.00925267	
-0.30747	
-0.314248	
-0.313095	
0.0268948	
0.0379416	
-0.10928	
-0.140282	
-0.0595256	
-0.0676993	
-0.0504979	
0.0465246	
-0.24151	
-0.202572	
-0.179456	
-0.187264	
-0.13878	
-0.185234	
-0.134692	
-0.160913	
-0.143403	
-0.16338	
-0.324859	
-0.333214	
-0.12586	
-0.0831865	
-0.233885	
-0.247898	
-0.262836	
-0.194641	
-0.159371	
-0.202584	
-0.182191	
0.0220022	
-0.273393	
-0.0954223	
-0.106528	
-0.16985	
-0.239241	
-0.188963	
-0.206577	
-0.230423	
-0.246395	
-0.323428	
-0.229783	
-0.236216	
-0.239876	
-0.253578	
-0.0250159	
-0.225293	
-0.193017	
-0.214855	
-0.0980978	
-0.0982816	
-0.128177	
-0.123833	
-0.0140666	
-0.0294624	
-0.115021	
-0.0936591	
-0.212766	
-0.109401	
-0.317046	
-0.324426	
-0.0540404	
-0.279934	
-0.271239	
-0.265954	
-0.187978	
-0.23228	
-0.192285	
-0.228388	
-0.186527	
-0.126301	
-0.30974	
-0.304121	
-0.171416	
-0.179243	
-0.201567	
-0.206878	
-0.0886947	
-0.111701	
-0.305084	
-0.292892	
-0.152888	
-0.173788	
0.0124725	
-0.0327006	
-0.0212115	
-0.0740557	
-0.0421275	
-0.0214757	
-0.260203	
-0.273114	
-0.33465	
-0.0974134	
-0.0855451	
-0.0653631	
-0.0663566	
-0.0857245	
-0.0531029	
-0.0821912	
-0.293294	
-0.309896	
-0.297959	
-0.332902	
-0.313004	
-0.0805212	
-0.11252	
-0.108256	
-0.148504	
-0.195518	
-0.240476	
-0.19266	
-0.120355	
-0.121615	
-0.137099	
-0.219635	
-0.23138	
-0.154003	
-0.171378	
-0.15179	
-0.169824	
-0.0199244	
-0.0326377	
-0.0479803	
-0.0609021	
-0.298708	
-0.202968	
-0.135422	
-0.0796326	
-0.1152	
-0.201694	
-0.215448	
-0.18789	
-0.207386	
-0.252886	
-0.261574	
-0.239954	
-0.254841	
-0.301228	
-0.290272	
-0.29749	
-0.283146	
-0.151929	
-0.108743	
-0.197067	
-0.185057	
-0.0742056	
-0.0997098	
-0.0739718	
-0.101076	
-0.204373	
-0.211563	
-0.0595422	
-0.0632601	
-0.027159	
-0.243146	
-0.247552	
-0.258049	
-0.268471	
-0.0558724	
-0.0771952	
-0.222436	
-0.222887	
-0.137312	
-0.169379	
-0.133301	
-0.167136	
-0.236429	
-0.195266	
-0.22154	
0.00281973	
-0.02503	
-0.305683	
-0.314857	
-0.0958188	
-0.113391	
-0.155489	
-0.142047	
-0.144019	
-0.129814	
-0.23102	
-0.210291	
-0.238989	
-0.275575	
-0.263627	
-0.28368	
-0.164329	
-0.148046	
-0.135713	
-0.0975976	
-0.104414	
-0.038373	
-0.0327569	
-0.0286219	
-0.0114283	
-0.0260777	
-0.00756947	
-0.0531051	
-0.0236746	
-0.0547852	
-0.0450861	
-0.0456315	
-0.116833	
-0.107545	
-0.0785311	
-0.143371	
-0.0252215	
-0.0526499	
-0.0232718	
-0.0641891	
-0.148339	
-0.124569	
-0.164282	
-0.151376	
-0.0339878	
-0.0314851	
-0.0802649	
-0.0604156	
-0.212096	
-0.214822	
-0.171298	
-0.170898	
-0.163661	
-0.184907	
-0.183988	
-0.204957	
-0.255233	
-0.257146	
-0.2391	
-0.244137	
-0.279519	
-0.271199	
-0.290211	
-0.286798	
-0.290555	
-0.287066	
-0.303655	
-0.297165	
-0.0790212	
-0.0255958	
-0.0466871	
-0.285714	
-0.275057	
-0.306559	
-0.295999	
-0.306009	
-0.292353	
-0.292763	
-0.0122988	
-0.028368	
-0.203819	
-0.193068	
-0.181332	
-0.324538	
-0.326103	
-0.3267	
-0.163132	
-0.143093	
-0.150222	
-0.134688	
-0.328554	
-0.32163	
-0.315181	
-0.3217	
-0.318182	
-0.134138	
-0.195766	
-0.215847	
-0.189768	
-0.220487	
0.0327016	
0.0427881	
-0.0688173	
-0.0670969	
-0.0126117	
-0.0373267	
-0.0138423	
0.0299189	
0.0410269	
-0.063082	
-0.118219	
-0.0599242	
-0.108376	
-0.132923	
-0.148366	
-0.178812	
-0.175758	
-0.191167	
-0.19857	
-0.230103	
-0.233618	
-0.00749868	
-0.0101775	
-0.321666	
-0.311722	
-0.0275506	
-0.00472094	
-0.268276	
-0.0230575	
0.0344063	
-0.24989	
-0.00522243	
-0.332349	
-0.277163	
-0.0242175	
-0.00133222	
0.010902	
-0.186657	
-0.174406	
-0.29033	
-0.299274	
-0.301442	
-0.304698	
-0.314262	
-0.317401	
-0.196378	
-0.214392	
-0.12479	
-0.113754	
-0.122864	
-0.275822	
-0.233165	
-0.252817	
-0.255871	
-0.119414	
-0.14968	
-0.158876	
-0.177735	
-0.00684667	
0.0110236	
0.0400951	
-0.0341012	
0.0258532	
0.0447203	
0.0237238	
-0.0121038	
-0.288128	
-0.320096	
-0.313429	
-0.320201	
0.0322214	
-0.313786	
-0.309924	
-0.149747	
-0.130585	
-0.144477	
0.0289149	
0.0419822	
-0.30197	
-0.304325	
-0.30029	
-0.262382	
0.0100358	
-0.268117	
-0.258896	
-0.250422	
0.0373214	
0.0415397	
0.0440919	
-0.199534	
-0.185186	
-0.178699	
-0.161137	
-0.319986	
-0.321966	
-0.324473	
0.0446603	
0.0312481	
0.0382382	
0.00447826	
-0.288775	
-0.286982	
-0.281266	
-0.141055	
-0.142288	
0.0438679	
0.0281992	
-0.317623	
-0.30958	
-0.307906	
-0.153427	
-0.142315	
-0.305713	
-0.311675	
-0.251528	
-0.0284282	
-0.0248363	
-0.0625127	
-0.0603788	
0.0458768	
0.0397392	
-0.0704647	
-0.0805486	
-0.0990054	
-0.100727	
-0.330664	
-0.331043	
-0.321686	
-0.330568	
-0.103614	
-0.0746563	
-0.0897748	
-0.0953428	
-0.115802	
0.0367429	
0.027281	
0.0226135	
-0.186593	
-0.197378	
-0.17085	
-0.194967	
0.0396186	
-0.107972	
-0.107636	
-0.092635	
-0.32673	
-0.333363	
-0.255504	
-0.265282	
-0.0986743	
-0.11855	
-0.276904	
-0.266094	
0.00120557	
0.00528675	
-0.247635	
-0.271511	
-0.261699	
-0.199344	
-0.219833	
-0.188286	
-0.20367	
-0.0381641	
-0.0878986	
-0.0471177	
-0.04047	
-0.0877743	
-0.0706096	
-0.328279	
-0.333235	
-0.32877	
-0.332658	
-0.0337642	
-0.04128	
0.0248035	
-0.24645	
-0.227293	
-0.296096	
-0.288791	
-0.158661	
-0.153983	
-0.114653	
-0.0986491	
-0.313612	
-0.306006	
-0.325121	
-0.321539	
-0.31428	
-0.306182	
-0.161302	
-0.164723	
-0.138353	
-0.142164	
-0.248793	
-0.264123	
-0.180963	
-0.195157	
-0.214517	
-0.216215	
-0.323287	
-0.324992	
-0.326438	
-0.325711	
-0.278257	
-0.291526	
-0.301473	
-0.294929	
-0.302774	
-0.258042	
-0.246919	
-0.267207	
-0.276737	
-0.0290219	
0.0143612	
0.0381863	
-0.28026	
-0.276716	
-0.0826845	
-0.066597	
-0.114923	
-0.208697	
-0.225631	
-0.208265	
-0.242411	
-0.239348	
-0.247767	
-0.250654	
-0.256194	
-0.329935	
-0.325208	
-0.323907	
-0.316542	
-0.285649	
-0.267314	
-0.279672	
-0.306265	
0.0191002	
-0.0404993	
0.0336625	
0.00977819	
-0.215858	
-0.241041	
-0.237261	
-0.213982	
-0.22933	
-0.0234562	
0.0334815	
0.0306965	
-0.0188481	
0.0418789	
0.0229824	
-0.274059	
-0.281181	
-0.280132	
-0.290111	
0.0354037	
0.0127924	
-0.224627	
-0.254757	
-0.232989	
-0.259789	
-0.249936	
-0.255659	
-0.267648	
-0.245256	
-0.238925	
-0.254815	
-0.116775	
-0.122535	
-0.135863	
-0.148216	
-0.316387	
-0.316558	
-0.318672	
-0.224153	
-0.213087	
-0.305835	
-0.301401	
-0.289734	
-0.291409	
-0.205589	
-0.223254	
-0.217274	
-0.233748	
-0.0948408	
-0.118823	
-0.299555	
-0.301752	
-0.322372	
-0.327052	
-0.0509	
-0.0644275	
-0.0707263	
-0.079895	
-0.231597	
-0.219394	
-0.21492	
-0.209634	
-0.119474	
-0.142917	
-0.151695	
-0.170206	
-0.275695	
-0.288252	
-0.288037	
-0.29856	
-0.155461	
-0.1474	
-0.191249	
-0.183575	
-0.238727	
-0.228808	
-0.0599257	
-0.0375837	
-0.0843436	
-0.06948	
-0.269821	
-0.26635	
-0.331175	
-0.329068	
-0.331816	
-0.333838	
-0.31087	
-0.309945	
-0.139937	
-0.154094	
-0.181978	
-0.191841	
-0.0223003	
-0.0100733	
0.0343634	
0.0317926	
-0.190883	
-0.15656	
-0.180782	
-0.144383	
-0.0106647	
-0.00437957	
-0.00739186	
-0.00072236	
0.00237447	
0.0142004	
0.020417	
0.0228243	
0.0169464	
-0.00905918	
-0.000590219	
0.00767618	
0.00331165	
0.00972579	
0.0186025	
0.0228959	
0.0100192	
0.0143564	
0.00629047	
-0.00481934	
0.00414357	
-0.0107402	
-0.0146158	
-0.00365368	
-0.0223972	
-0.0223433	
-0.0164415	
-0.0235034	
-0.0201107	
0.0145652	
0.012454	
-0.00107547	
0.00514484	
-0.00618364	
-0.0177324	
-0.0169834	
-0.0162622	
-0.014223	
-0.00976157	
0.0178997	
0.273384	
0.238158	
0.261885	
0.056148	
0.101429	
0.058394	
0.19945	
0.112048	
0.110033	
0.110503	
0.111292	
0.0823033	
0.054377	
0.107648	
0.0984408	
0.094055	
0.0544499	
0.105187	
0.0865813	
0.22362	
0.208125	
0.142501	
0.190715	
0.215548	
0.172856	
0.191522	
0.145117	
0.12275	
0.217559	
0.211573	
0.165073	
0.214416	
0.240482	
0.127921	
0.122807	
0.21386	
0.217045	
0.160606	
0.173031	
0.152268	
0.1646	
0.176498	
0.17419	
0.203857	
0.203098	
0.165506	
0.216925	
0.142338	
0.14051	
0.144623	
0.221116	
0.20365	
0.210432	
0.19842	
0.201148	
0.229518	
0.173907	
0.175164	
0.17162	
0.138915	
0.0967245	
0.128285	
0.201714	
0.197666	
0.188455	
0.186039	
0.246102	
0.252255	
0.259723	
0.109935	
0.0602035	
0.194359	
0.193907	
0.185852	
0.182677	
0.170332	
0.16149	
0.180603	
0.179406	
0.179189	
0.191247	
0.187031	
0.188978	
0.196429	
0.183954	
0.185179	
0.166575	
0.155461	
0.117957	
0.104885	
0.123201	
0.110183	
0.216445	
0.226802	
0.211682	
0.215097	
0.124533	
0.115574	
0.160642	
0.23068	
0.238946	
0.189172	
0.19184	
0.150618	
0.193011	
0.209081	
0.11879	
0.105865	
0.130613	
0.127638	
0.153426	
0.135293	
0.130443	
0.138482	
0.248146	
0.261925	
0.235184	
0.220714	
0.215406	
0.0667098	
0.054027	
0.115714	
0.145325	
0.0788894	
0.0907396	
0.194589	
0.182192	
0.0927389	
0.0704882	
0.129009	
0.129634	
0.135817	
0.136343	
0.102833	
0.244383	
0.236919	
0.161769	
0.14299	
0.159416	
0.152336	
0.124706	
0.156115	
0.154996	
0.150106	
0.148793	
0.0965755	
0.275869	
0.26191	
0.243879	
0.25549	
0.216941	
0.20199	
0.190719	
0.187191	
0.106893	
0.0969919	
0.169695	
0.184004	
0.169943	
0.184778	
0.16458	
0.170738	
0.185199	
0.167819	
0.186765	
0.0942812	
0.151851	
0.157474	
0.151206	
0.251299	
0.244795	
0.244982	
0.238435	
0.243154	
0.250426	
0.175919	
0.179783	
0.167632	
0.174767	
0.255338	
0.241784	
0.247775	
0.198062	
0.190138	
0.202263	
0.0611346	
0.0968247	
0.0859203	
0.0975505	
0.275983	
0.272626	
0.173908	
0.163891	
0.254775	
0.198815	
0.199329	
0.192018	
0.150878	
0.158471	
0.19636	
0.20803	
0.201831	
0.209171	
0.232819	
0.23687	
0.225939	
0.228937	
0.224902	
0.233549	
0.239505	
0.21088	
0.197405	
0.213319	
0.143308	
0.137763	
0.162141	
0.160541	
0.171657	
0.169715	
0.107783	
0.0904191	
0.10772	
0.0949914	
0.115059	
0.173535	
0.165986	
0.159417	
0.155294	
0.155195	
0.14162	
0.14595	
0.136244	
0.236639	
0.230759	
0.175601	
0.16998	
0.16737	
0.211863	
0.213317	
0.202611	
0.206051	
0.0914505	
0.0874623	
0.269407	
0.103865	
0.103855	
0.116005	
0.232396	
0.226724	
0.225182	
0.102009	
0.0925772	
0.161173	
0.152013	
0.165387	
0.15933	
0.221272	
0.222212	
0.212265	
0.213782	
0.199472	
0.199077	
0.190274	
0.189922	
0.249514	
0.251619	
0.241482	
0.24578	
0.143907	
0.240777	
0.245154	
0.238358	
0.205618	
0.194371	
0.187158	
0.116476	
0.150738	
0.149532	
0.244846	
0.242395	
0.210202	
0.197119	
0.200444	
0.205061	
0.209872	
0.202308	
0.187856	
0.197984	
0.202214	
0.247539	
0.255413	
0.247709	
0.240941	
0.247011	
0.237006	
0.185631	
0.175795	
0.185117	
0.176273	
0.209975	
0.202661	
0.197584	
0.123788	
0.18402	
0.17903	
0.166732	
0.0799783	
0.0777608	
0.089341	
0.0913318	
0.218802	
0.157291	
0.157673	
0.168908	
0.181804	
0.188276	
0.198205	
0.216375	
0.217075	
0.20948	
0.210116	
0.139338	
0.146405	
0.145786	
0.150488	
0.137074	
0.147275	
0.16402	
0.168586	
0.161366	
0.249295	
0.245683	
0.256525	
0.144912	
0.155795	
0.141105	
0.15218	
0.188	
0.201825	
0.209536	
0.116995	
0.249851	
0.255543	
0.0563751	
0.070642	
0.0804569	
0.0529101	
0.162199	
0.150488	
0.167136	
0.138199	
0.1432	
0.22057	
0.227512	
0.220373	
0.194951	
0.205599	
0.1981	
0.175186	
0.165049	
0.128612	
0.134896	
0.135388	
0.145357	
0.145108	
0.165195	
0.151174	
0.160125	
0.165113	
0.174527	
0.178763	
0.22931	
0.221777	
0.206191	
0.199002	
0.161588	
0.1462	
0.272239	
0.238003	
0.264104	
0.26774	
0.257645	
0.273226	
0.25935	
0.271593	
0.267852	
0.270823	
0.266537	
0.226299	
0.229895	
0.231016	
0.234919	
0.216905	
0.219898	
0.22211	
0.225095	
0.200415	
0.206856	
0.208628	
0.211524	
0.256509	
0.20037	
0.19513	
0.188588	
0.185476	
0.26915	
0.230827	
0.234619	
0.132775	
0.134375	
0.138718	
0.148423	
0.138892	
0.141849	
0.14519	
0.154751	
0.219668	
0.230432	
0.218688	
0.120271	
0.1265	
0.119798	
0.126253	
0.199921	
0.193003	
0.223596	
0.215618	
0.221905	
0.211153	
0.211986	
0.198016	
0.208433	
0.201382	
0.186916	
0.174378	
0.190487	
0.178106	
0.140503	
0.135654	
0.165613	
0.160043	
0.187136	
0.180517	
0.190415	
0.180127	
0.254388	
0.253884	
0.262395	
0.148545	
0.145741	
0.140918	
0.136668	
0.130608	
0.130411	
0.135909	
0.138991	
0.128597	
0.124106	
0.21151	
0.195182	
0.20786	
0.204032	
0.257455	
0.257199	
0.132379	
0.138828	
0.153404	
0.149135	
0.170369	
0.153665	
0.150402	
0.168706	
0.193082	
0.156546	
0.143482	
0.120388	
0.178794	
0.187194	
0.123593	
0.129768	
0.232557	
0.22954	
0.225744	
0.220755	
0.166573	
0.164202	
0.107304	
0.120485	
0.134339	
0.132898	
0.119871	
0.114439	
0.11409	
0.123532	
0.123541	
0.0849751	
0.109348	
0.129586	
0.261849	
0.250204	
0.265734	
0.261877	
0.223617	
0.230691	
0.221732	
0.227381	
0.231326	
0.232105	
0.236752	
0.134995	
0.21015	
0.198155	
0.203534	
0.155997	
0.252046	
0.239866	
0.255661	
0.22537	
0.2259	
0.250159	
0.242876	
0.255113	
0.159505	
0.0723946	
0.0729002	
0.0603417	
0.0511642	
0.201293	
0.208113	
0.27144	
0.265694	
0.0760419	
0.0728592	
0.0813009	
0.0699265	
0.112105	
0.170656	
0.180645	
0.181063	
0.172027	
0.176194	
0.183753	
0.176669	
0.184493	
0.175417	
0.183428	
0.124224	
0.135059	
0.11587	
0.134954	
0.167475	
0.155726	
0.167383	
0.225819	
0.218646	
0.261773	
0.260487	
0.250466	
0.25301	
0.160205	
0.152398	
0.145453	
0.143172	
0.191209	
0.184324	
0.176491	
0.175656	
0.172842	
0.171104	
0.183509	
0.182783	
0.231336	
0.261062	
0.257346	
0.26342	
0.242367	
0.247564	
0.268383	
0.269678	
0.222337	
0.216224	
0.204501	
0.197221	
0.23162	
0.236317	
0.213115	
0.22288	
0.209394	
0.216117	
0.115136	
0.108197	
0.115471	
0.0980099	
0.186978	
0.175224	
0.266463	
0.259616	
0.254146	
0.252837	
0.258906	
0.267072	
0.277604	
0.266992	
0.273254	
0.227289	
0.237223	
0.229659	
0.238953	
0.230846	
0.114994	
0.0696735	
0.057821	
0.180883	
0.1719	
0.142176	
0.156663	
0.131188	
0.145116	
0.130049	
0.118047	
0.125522	
0.107392	
0.261873	
0.266151	
0.121068	
0.108678	
0.108808	
0.0917848	
0.0977403	
0.128045	
0.120041	
0.109754	
0.104357	
0.115295	
0.0680131	
0.0847002	
0.0530688	
0.127088	
0.123162	
0.124922	
0.114991	
0.110105	
0.0975303	
0.112746	
0.117621	
0.241279	
0.155407	
0.148592	
0.14605	
0.138157	
0.239465	
0.232913	
0.234119	
0.22675	
0.0847516	
0.0668887	
0.129459	
0.12241	
0.115257	
0.10189	
0.101841	
0.117724	
0.111348	
0.139114	
0.188879	
0.178624	
0.179602	
0.129627	
0.12141	
0.114039	
0.240318	
0.125286	
0.107537	
0.135931	
0.120478	
0.221687	
0.223563	
0.227393	
0.232778	
0.0885168	
0.102326	
0.0971438	
0.105801	
0.186967	
0.192442	
0.0784354	
0.0658837	
0.0740766	
0.0517123	
0.231791	
0.234163	
0.238974	
0.243744	
0.123453	
0.127317	
0.136649	
0.140482	
0.250332	
0.260507	
0.250945	
0.257075	
0.221173	
0.211972	
0.262806	
0.270944	
0.26428	
0.269898	
0.276449	
0.154466	
0.154187	
0.131491	
0.116575	
0.103259	
0.102866	
0.132001	
0.129335	
0.150953	
0.139188	
0.144872	
0.130565	
0.167671	
0.163257	
0.143959	
0.153738	
0.141769	
0.129485	
0.127715	
0.244668	
0.24823	
0.237589	
0.239021	
0.160977	
0.149944	
0.140734	
0.114569	
0.144435	
0.132486	
0.0414017	
0.0440387	
0.0269833	
0.0426246	
0.0457971	
-0.332488	
-0.322671	
0.0442258	
0.0321452	
0.0364044	
-0.0518779	
-0.282315	
0.0445285	
0.0439803	
-0.0864703	
-0.0915143	
-0.221118	
0.0463896	
-0.0983169	
0.0393484	
0.0381131	
-0.325271	
-0.14114	
-0.0943369	
-0.164849	
-0.0598869	
-0.0783502	
0.0126018	
-0.0166508	
-0.271864	
-0.270698	
-0.225855	
-0.102059	
-0.302923	
-0.261018	
-0.0863682	
-0.126119	
-0.0747159	
-0.24741	
-0.24595	
-0.262187	
-0.294325	
-0.311574	
-0.281946	
-0.015	
-0.0429218	
-0.177563	
-0.224774	
-0.238758	
-0.235082	
-0.199185	
-0.203357	
-0.153597	
-0.151514	
-0.119298	
-0.263896	
-0.133398	
-0.101249	
-0.106296	
-0.124943	
-0.115935	
-0.143093	
-0.111376	
-0.1111	
-0.300414	
-0.254982	
-0.131136	
-0.170735	
-0.275019	
-0.080856	
-0.213049	
-0.122151	
-0.0957716	
-0.161138	
-0.16735	
-0.287579	
-0.332339	
0.0380394	
0.0239581	
-0.0286802	
-0.204125	
-0.0714277	
-0.0616175	
-0.232013	
-0.254008	
-0.22921	
-0.284386	
-0.266621	
-0.171609	
-0.176289	
-0.255427	
-0.27296	
-0.24484	
-0.0480566	
-0.286113	
-0.0259541	
-0.0186276	
-0.0795903	
-0.0694331	
-0.224833	
-0.1425	
-0.175163	
-0.284505	
-0.112752	
-0.153205	
-0.183288	
-0.166483	
-0.193995	
-0.0713023	
-0.267121	
-0.242218	
-0.248691	
-0.214202	
-0.199899	
-0.212338	
-0.0992883	
-0.239728	
-0.0350437	
-0.0802015	
-0.13978	
-0.280875	
-0.271738	
-0.294825	
-0.316035	
-0.209944	
-0.210852	
-0.298869	
-0.28811	
-0.161793	
0.0311583	
-0.0108618	
-0.289776	
-0.289219	
-0.326572	
-0.275026	
-0.185438	
-0.185247	
0.0299533	
-0.00924025	
-0.305656	
-0.313336	
-0.31224	
0.0230777	
0.03824	
-0.109188	
-0.140119	
-0.0607054	
-0.051013	
-0.0688763	
-0.241034	
-0.202337	
-0.156311	
-0.186995	
-0.185132	
-0.184763	
-0.134593	
0.0406465	
-0.157395	
-0.162221	
-0.324043	
-0.331743	
-0.149531	
-0.0830117	
-0.262345	
-0.233594	
-0.232468	
-0.164205	
-0.194449	
-0.182142	
-0.202448	
0.0220203	
-0.273048	
-0.106379	
-0.169697	
-0.240857	
-0.189427	
-0.207093	
-0.233508	
-0.246412	
-0.324058	
-0.252592	
-0.253414	
-0.229689	
-0.228702	
-0.024702	
-0.225096	
-0.214638	
-0.192832	
-0.09818	
-0.0980088	
-0.123717	
-0.014195	
-0.0298292	
-0.115577	
-0.0869635	
-0.122677	
-0.213108	
-0.099106	
-0.331909	
-0.324515	
-0.317017	
-0.0599218	
-0.282838	
-0.266969	
-0.265664	
-0.186511	
-0.234199	
-0.211778	
-0.227952	
-0.186299	
-0.15123	
-0.303315	
-0.308081	
-0.201823	
-0.195336	
-0.182232	
-0.179314	
-0.11483	
-0.249389	
-0.292203	
-0.303979	
-0.152837	
-0.135409	
-0.17375	
0.0125252	
-0.0211634	
-0.0877738	
-0.0739334	
-0.0213917	
-0.0420248	
-0.259361	
-0.272079	
-0.0976487	
-0.0655301	
-0.0857269	
-0.0612467	
-0.0825417	
-0.0665458	
-0.0859664	
-0.291503	
-0.296086	
-0.308336	
-0.320414	
-0.331	
-0.040403	
-0.1081	
-0.0557842	
-0.112355	
-0.14833	
-0.17064	
-0.241384	
-0.192449	
-0.11759	
-0.150629	
-0.232582	
-0.220786	
-0.185576	
-0.152139	
-0.17638	
-0.0328051	
-0.025241	
-0.0533053	
-0.0483517	
-0.12808	
-0.189572	
-0.115188	
-0.0843525	
-0.21545	
-0.18391	
-0.207341	
-0.187846	
-0.261506	
-0.239639	
-0.25474	
-0.239863	
-0.138571	
-0.297064	
-0.279593	
-0.304385	
-0.289917	
-0.135934	
-0.122545	
-0.171772	
-0.197611	
-0.0998715	
-0.0636986	
-0.113196	
-0.0741796	
-0.190608	
-0.213711	
-0.0745986	
-0.0598758	
-0.0275189	
-0.257461	
-0.263186	
-0.242643	
-0.246882	
-0.0770729	
-0.0803959	
-0.224644	
-0.213617	
-0.154324	
-0.137518	
-0.169483	
-0.167246	
-0.147412	
-0.224319	
-0.199055	
-0.221431	
-0.206858	
-0.020094	
0.00269092	
-0.314912	
-0.305769	
-0.113359	
-0.0957974	
-0.144171	
-0.129968	
-0.155683	
-0.142239	
-0.215744	
-0.238645	
-0.219017	
-0.274757	
-0.283317	
-0.268018	
-0.147934	
-0.159245	
-0.135631	
-0.104375	
-0.11814	
-0.0389405	
-0.0332032	
-0.0138243	
-0.0314474	
-0.00747241	
-0.0546294	
-0.0236246	
-0.0530663	
-0.0547449	
-0.0457761	
-0.0235425	
-0.107389	
-0.0783891	
-0.116674	
-0.0876425	
-0.143207	
-0.0452387	
-0.0643441	
-0.0252552	
-0.0525549	
-0.1641	
-0.126182	
-0.148145	
-0.124424	
-0.0314511	
-0.0669836	
-0.0603306	
-0.0801472	
-0.171065	
-0.195186	
-0.192021	
-0.214439	
-0.201608	
-0.204839	
-0.163561	
-0.160752	
-0.23066	
-0.243807	
-0.254866	
-0.256852	
-0.266647	
-0.278737	
-0.286124	
-0.289394	
-0.286333	
-0.289866	
-0.296242	
-0.305175	
-0.0255158	
-0.0465581	
-0.0789127	
-0.289719	
-0.274805	
-0.298393	
-0.303865	
-0.304681	
-0.291875	
-0.294225	
-0.0283234	
-0.0122242	
-0.205104	
-0.204179	
-0.177879	
-0.325597	
-0.326048	
-0.157293	
-0.16341	
-0.13479	
-0.137943	
-0.326614	
-0.318307	
-0.321625	
-0.32168	
-0.317694	
-0.119284	
-0.215551	
-0.195552	
-0.220161	
-0.202725	
0.0427258	
0.0327252	
-0.0686517	
-0.0127245	
-0.0339714	
-0.0371113	
-0.0136518	
0.0403906	
0.0297705	
-0.0975486	
-0.0630539	
-0.10829	
-0.0825874	
-0.132692	
-0.148181	
-0.170227	
-0.179311	
-0.192777	
-0.192482	
-0.229817	
-0.233206	
-0.0104009	
-0.00768002	
-0.32019	
-0.310528	
-0.027684	
-0.00482188	
-0.0257776	
-0.0024674	
0.0343696	
-0.022294	
-0.324796	
-0.250685	
-0.26885	
-0.275883	
-0.0338816	
0.00439487	
-0.251268	
-0.26007	
0.0107808	
-0.185799	
-0.185485	
-0.298086	
-0.285497	
-0.300009	
-0.314014	
-0.300952	
-0.317077	
-0.196592	
-0.216026	
-0.125035	
-0.123166	
-0.114002	
-0.279103	
-0.252653	
-0.246271	
-0.12572	
-0.134008	
-0.175287	
-0.158726	
-0.00399344	
0.0403953	
0.0112169	
0.0263335	
-0.0239781	
0.0239136	
0.0448464	
-0.0120136	
-0.233715	
-0.242591	
-0.239374	
-0.318993	
-0.32009	
-0.31329	
0.0302097	
-0.312953	
-0.308806	
-0.130552	
-0.149699	
-0.144407	
0.0445666	
0.0304601	
-0.303174	
-0.300972	
-0.305247	
0.00992766	
0.0414858	
0.0372414	
0.0344469	
-0.178692	
-0.165084	
-0.199497	
-0.201412	
-0.318655	
-0.328763	
-0.322747	
0.0311863	
0.0449603	
-0.00157035	
0.0382716	
-0.263425	
-0.257143	
-0.142612	
-0.14142	
0.040728	
0.0339752	
0.0290378	
-0.307113	
-0.286959	
-0.315088	
-0.308803	
-0.257954	
-0.250922	
-0.27445	
-0.260343	
-0.153731	
-0.142578	
-0.305305	
-0.310677	
-0.251314	
-0.0247001	
-0.0283057	
-0.0602291	
-0.062369	
0.039516	
0.0454719	
-0.109479	
-0.100773	
-0.0705453	
-0.0540646	
-0.328881	
-0.320716	
-0.328537	
-0.320294	
-0.103579	
-0.0953126	
-0.108328	
-0.0747887	
-0.0877455	
0.0272957	
0.0367263	
0.022826	
-0.180804	
-0.194973	
-0.174094	
-0.19611	
0.0402864	
-0.110847	
-0.095721	
-0.329489	
-0.328282	
-0.11849	
-0.0986342	
0.00109472	
0.00513232	
-0.265839	