<VTKFile type="UnstructuredGrid" version="0.1" byte_order="LittleEndian">
	<UnstructuredGrid>
		<Piece NumberOfPoints="1647" NumberOfCells="3046">
			<CellData Scalars="scalars">
				<DataArray type="Float64" Name="Doublet Strengths" NumberOfComponents="1" Format="ascii">
0.275344	
0.235117	
0.259552	
0.0557883	
0.0952598	
0.11167	
0.11015	
0.110678	
0.0572601	
0.0544547	
0.107011	
0.0980734	
0.0542896	
0.104588	
0.109876	
0.0851255	
0.219576	
0.107287	
0.263679	
0.197114	
0.215242	
0.137603	
0.188501	
0.213938	
0.17083	
0.189419	
0.144154	
0.175131	
0.121266	
0.210621	
0.214481	
0.163168	
0.212895	
0.238162	
0.122768	
0.211645	
0.213996	
0.151214	
0.171433	
0.14992	
0.163644	
0.174368	
0.17192	
0.19751	
0.201497	
0.169837	
0.214116	
0.140527	
0.138579	
0.153465	
0.230123	
0.219514	
0.207635	
0.201128	
0.205276	
0.195957	
0.227441	
0.157084	
0.171247	
0.172235	
0.16872	
0.13716	
0.0962632	
0.127406	
0.186691	
0.188637	
0.19316	
0.195891	
0.250803	
0.253614	
0.244509	
0.110049	
0.0508337	
0.183314	
0.185204	
0.191659	
0.196062	
0.178671	
0.16649	
0.169113	
0.160329	
0.185209	
0.177287	
0.184971	
0.181667	
0.187954	
0.186587	
0.193623	
0.166235	
0.155422	
0.102612	
0.116042	
0.12278	
0.210032	
0.220083	
0.214841	
0.223273	
0.115088	
0.124024	
0.15841	
0.22846	
0.231518	
0.243429	
0.198279	
0.18782	
0.189259	
0.148478	
0.212687	
0.105459	
0.11812	
0.125874	
0.136424	
0.13403	
0.143712	
0.129093	
0.128384	
0.248235	
0.259254	
0.219111	
0.233503	
0.21309	
0.0538013	
0.144328	
0.0894287	
0.0785056	
0.0845147	
0.180502	
0.197623	
0.0937083	
0.0704426	
0.134019	
0.13463	
0.127393	
0.128093	
0.102899	
0.243709	
0.23436	
0.157654	
0.143762	
0.159824	
0.146915	
0.111676	
0.144698	
0.146913	
0.154038	
0.152904	
0.115139	
0.102612	
0.274527	
0.260908	
0.240693	
0.254003	
0.216868	
0.188712	
0.1892	
0.195991	
0.0960418	
0.0773144	
0.256908	
0.182652	
0.172393	
0.180344	
0.168618	
0.177342	
0.163208	
0.18398	
0.185286	
0.177554	
0.0895233	
0.157341	
0.140911	
0.151442	
0.243609	
0.250539	
0.25661	
0.240939	
0.251363	
0.236235	
0.16527	
0.17281	
0.174021	
0.177811	
0.253518	
0.247396	
0.240414	
0.203236	
0.186441	
0.0579224	
0.0733958	
0.0956829	
0.0967	
0.0905508	
0.276878	
0.271816	
0.172234	
0.162449	
0.252798	
0.199071	
0.195843	
0.184501	
0.15705	
0.157902	
0.198539	
0.193764	
0.209287	
0.198935	
0.2364	
0.231138	
0.226871	
0.221761	
0.225187	
0.24009	
0.232086	
0.232368	
0.200714	
0.209384	
0.211793	
0.141144	
0.141127	
0.158814	
0.160617	
0.168304	
0.174938	
0.10119	
0.106565	
0.0940588	
0.106585	
0.114685	
0.164841	
0.168634	
0.154246	
0.151775	
0.15082	
0.153919	
0.13546	
0.144915	
0.234774	
0.228522	
0.163229	
0.164912	
0.173049	
0.198181	
0.204114	
0.210078	
0.211344	
0.086854	
0.0902526	
0.102867	
0.102763	
0.1147	
0.217999	
0.220143	
0.228047	
0.092634	
0.102861	
0.150748	
0.159682	
0.149644	
0.163852	
0.206092	
0.210315	
0.217428	
0.221957	
0.184296	
0.188471	
0.197869	
0.202245	
0.238072	
0.244618	
0.248027	
0.250735	
0.142778	
0.106354	
0.243822	
0.234611	
0.244694	
0.203859	
0.189705	
0.192608	
0.111037	
0.148645	
0.14737	
0.240428	
0.240784	
0.207075	
0.197032	
0.194183	
0.206118	
0.196	
0.201325	
0.196547	
0.195907	
0.182199	
0.186508	
0.24588	
0.2559	
0.238479	
0.234881	
0.24558	
0.238691	
0.274365	
0.174613	
0.188878	
0.170413	
0.18379	
0.201095	
0.208325	
0.196122	
0.122872	
0.174551	
0.181401	
0.166042	
0.169032	
0.0792874	
0.0853119	
0.0885413	
0.221442	
0.155907	
0.155387	
0.166706	
0.186776	
0.183287	
0.196663	
0.268854	
0.25697	
0.263008	
0.207361	
0.207862	
0.214332	
0.218282	
0.138003	
0.14829	
0.148793	
0.137383	
0.14562	
0.139448	
0.167201	
0.159992	
0.162511	
0.254289	
0.247251	
0.242054	
0.154898	
0.143899	
0.158931	
0.141497	
0.207933	
0.200331	
0.253653	
0.247842	
0.116711	
0.0710152	
0.0566371	
0.0797139	
0.0524774	
0.160411	
0.153103	
0.136165	
0.135886	
0.218301	
0.215007	
0.225387	
0.199224	
0.192046	
0.203432	
0.17365	
0.163867	
0.133939	
0.127658	
0.14396	
0.134309	
0.158549	
0.149814	
0.151828	
0.163518	
0.163448	
0.172686	
0.172719	
0.219755	
0.227248	
0.197442	
0.204628	
0.165796	
0.144658	
0.159902	
0.272323	
0.275095	
0.26303	
0.269148	
0.232985	
0.266193	
0.26289	
0.273097	
0.268377	
0.25681	
0.264767	
0.267593	
0.264747	
0.227717	
0.223976	
0.232691	
0.228732	
0.22146	
0.218692	
0.20828	
0.213223	
0.200599	
0.205498	
0.257908	
0.192246	
0.191572	
0.18236	
0.180564	
0.225573	
0.228521	
0.133269	
0.131658	
0.141658	
0.144283	
0.139842	
0.137079	
0.14887	
0.150724	
0.213629	
0.215264	
0.1255	
0.114398	
0.125203	
0.118922	
0.191316	
0.201011	
0.213844	
0.224122	
0.20947	
0.213365	
0.209908	
0.199432	
0.206591	
0.176941	
0.184934	
0.176412	
0.184262	
0.135164	
0.140102	
0.134977	
0.157941	
0.167546	
0.178056	
0.189298	
0.177611	
0.18274	
0.263148	
0.259459	
0.247984	
0.251816	
0.147319	
0.135421	
0.135728	
0.129313	
0.129415	
0.141059	
0.134857	
0.127162	
0.20059	
0.193883	
0.207106	
0.204873	
0.260531	
0.13818	
0.144545	
0.148182	
0.152137	
0.167432	
0.157888	
0.209736	
0.202029	
0.249604	
0.237948	
0.149661	
0.066487	
0.166448	
0.151452	
0.18976	
0.158172	
0.183912	
0.175701	
0.11735	
0.129477	
0.16009	
0.217488	
0.22162	
0.225204	
0.227308	
0.119201	
0.163875	
0.161611	
0.102414	
0.118663	
0.121248	
0.129293	
0.108968	
0.121741	
0.124282	
0.133174	
0.133719	
0.254358	
0.261178	
0.26091	
0.264566	
0.228415	
0.216722	
0.219092	
0.0757289	
0.0810005	
0.0725912	
0.069682	
0.23438	
0.235444	
0.224878	
0.22942	
0.226468	
0.224796	
0.129088	
0.196003	
0.201204	
0.207774	
0.060043	
0.0597532	
0.0719548	
0.0723374	
0.153634	
0.253777	
0.239685	
0.242222	
0.157204	
0.205915	
0.199207	
0.264693	
0.270874	
0.177059	
0.17824	
0.163637	
0.167866	
0.243719	
0.251111	
0.244175	
0.250883	
0.17047	
0.18204	
0.17459	
0.172634	
0.18533	
0.173557	
0.181124	
0.141246	
0.124564	
0.135307	
0.113571	
0.15548	
0.166251	
0.166316	
0.216513	
0.22368	
0.249253	
0.25157	
0.255846	
0.259307	
0.151173	
0.154329	
0.141926	
0.143822	
0.17519	
0.174419	
0.185649	
0.182994	
0.186665	
0.181482	
0.171485	
0.164139	
0.23364	
0.221869	
0.23409	
0.227973	
0.231201	
0.269622	
0.276763	
0.262439	
0.265283	
0.24561	
0.24042	
0.211752	
0.220068	
0.194414	
0.202385	
0.114851	
0.0975333	
0.119458	
0.107688	
0.173653	
0.180972	
0.271256	
0.264783	
0.271471	
0.265681	
0.256689	
0.267861	
0.259203	
0.251617	
0.256422	
0.250361	
0.237241	
0.235673	
0.227963	
0.154822	
0.141619	
0.143986	
0.130488	
0.102242	
0.0948021	
0.0826895	
0.0692003	
0.107697	
0.120182	
0.107999	
0.0971402	
0.0921304	
0.126587	
0.11868	
0.137974	
0.0526422	
0.0674731	
0.0839289	
0.125162	
0.114843	
0.122308	
0.123629	
0.112217	
0.11644	
0.138134	
0.225593	
0.225251	
0.238231	
0.237712	
0.0840449	
0.066422	
0.120885	
0.113861	
0.127753	
0.118019	
0.124285	
0.116875	
0.12856	
0.113225	
0.12535	
0.210545	
0.20716	
0.202122	
0.11706	
0.111177	
0.111286	
0.108128	
0.0932023	
0.175827	
0.176663	
0.18573	
0.112654	
0.127891	
0.119914	
0.131565	
0.119928	
0.124556	
0.107018	
0.191133	
0.193105	
0.225803	
0.229255	
0.220194	
0.222052	
0.0932911	
0.0876281	
0.104584	
0.0960862	
0.184245	
0.189452	
0.106704	
0.102273	
0.0606023	
0.0512333	
0.0776811	
0.0652851	
0.12467	
0.106708	
0.133931	
0.11735	
0.254397	
0.248409	
0.207745	
0.214321	
0.153656	
0.143791	
0.141492	
0.131042	
0.131051	
0.144883	
0.117464	
0.150749	
0.139584	
0.128072	
0.128709	
0.140995	
0.113071	
0.135033	
0.146571	
0.153898	
0.136159	
0.144715	
0.24176	
0.244332	
0.248808	
0.139206	
0.14602	
0.119554	
0.12525	
0.23626	
0.238406	
0.226068	
0.227727	
0.234362	
0.241437	
0.22914	
0.231158	
0.098288	
0.103449	
0.0990657	
0.104053	
0.0327588	
0.0441602	
0.0383851	
0.0427743	
0.0459853	
-0.329878	
-0.320876	
0.0413206	
0.0418291	
0.0446758	
0.0408852	
0.036472	
-0.281286	
0.0443527	
-0.0860707	
-0.0913373	
-0.219529	
-0.123319	
0.0395407	
0.0383999	
-0.140001	
-0.0850927	
-0.163639	
-0.0774156	
-0.0815873	
0.0129778	
-0.0160646	
-0.265377	
-0.270395	
-0.22432	
-0.101076	
-0.30941	
-0.259864	
-0.0851536	
-0.125057	
-0.0736492	
-0.231084	
-0.244523	
-0.259983	
-0.292527	
-0.309599	
-0.280013	
-0.0142758	
-0.0420586	
-0.173762	
-0.223049	
-0.19264	
-0.218446	
-0.214139	
-0.233705	
-0.151989	
-0.170779	
-0.123899	
-0.262106	
-0.14559	
-0.104894	
-0.111702	
-0.123402	
-0.114908	
-0.110374	
-0.14196	
-0.109614	
-0.298375	
-0.255781	
-0.131292	
-0.17645	
-0.273328	
-0.079733	
-0.21095	
-0.121119	
-0.0948467	
-0.163137	
-0.165373	
-0.274126	
-0.332316	
0.0243222	
0.02337	
-0.0280016	
-0.20228	
-0.0606213	
-0.0703298	
-0.251564	
-0.229506	
-0.227136	
-0.264881	
-0.282626	
-0.180081	
-0.174183	
-0.271115	
-0.253776	
-0.24323	
-0.0472701	
-0.286588	
-0.0126041	
-0.0536506	
-0.0413887	
-0.0831765	
-0.22348	
-0.156426	
-0.173618	
-0.283288	
-0.111346	
-0.165276	
-0.197773	
-0.152053	
-0.16234	
-0.069352	
-0.240137	
-0.265155	
-0.212591	
-0.24685	
-0.190457	
-0.209198	
-0.0693399	
-0.0981138	
-0.236274	
-0.0345403	
-0.0501068	
-0.0791072	
-0.153672	
-0.269326	
-0.278178	
-0.293722	
-0.314772	
-0.217504	
-0.209355	
-0.286368	
-0.296838	
-0.161171	
0.0316546	
-0.0101625	
-0.323755	
-0.269842	
-0.183241	
-0.199195	
-0.196833	
0.0315174	
-0.00866444	
-0.304724	
-0.311566	
-0.310247	
0.0272808	
0.0382163	
-0.108729	
-0.139607	
-0.0590623	
-0.0671284	
-0.0499668	
0.0466657	
-0.23974	
-0.200972	
-0.177733	
-0.185549	
-0.13739	
-0.18333	
-0.133073	
-0.159086	
-0.14278	
-0.16258	
-0.322804	
-0.330848	
-0.12446	
-0.0821175	
-0.232081	
-0.246037	
-0.260864	
-0.193075	
-0.158002	
-0.201001	
-0.180734	
0.0224668	
-0.271172	
-0.0941369	
-0.105224	
-0.168157	
-0.237153	
-0.187082	
-0.204478	
-0.228174	
-0.243934	
-0.320826	
-0.227595	
-0.234088	
-0.237579	
-0.251284	
-0.0242964	
-0.22327	
-0.191242	
-0.212909	
-0.096762	
-0.096949	
-0.12664	
-0.122408	
-0.0138553	
-0.0291703	
-0.114069	
-0.0928509	
-0.210607	
-0.108046	
-0.314662	
-0.32188	
-0.0530777	
-0.277724	
-0.268881	
-0.263587	
-0.186954	
-0.230607	
-0.190663	
-0.226605	
-0.184954	
-0.125009	
-0.307034	
-0.301464	
-0.169563	
-0.177207	
-0.199454	
-0.204722	
-0.0882218	
-0.111086	
-0.303029	
-0.290851	
-0.152131	
-0.171924	
0.0129221	
-0.0319665	
-0.0205408	
-0.0728424	
-0.0412333	
-0.02073	
-0.258315	
-0.271218	
-0.332262	
-0.0964006	
-0.0845527	
-0.0645364	
-0.0655677	
-0.0848401	
-0.0524235	
-0.0813932	
-0.291359	
-0.307946	
-0.296007	
-0.33067	
-0.31103	
-0.0794512	
-0.111307	
-0.107068	
-0.147095	
-0.193806	
-0.239021	
-0.190949	
-0.119618	
-0.120684	
-0.136107	
-0.217772	
-0.229677	
-0.152384	
-0.169739	
-0.150362	
-0.168429	
-0.0194385	
-0.0320543	
-0.0474144	
-0.0602289	
-0.296632	
-0.201019	
-0.133739	
-0.0784475	
-0.113753	
-0.199681	
-0.213334	
-0.185957	
-0.205316	
-0.250535	
-0.259083	
-0.237534	
-0.252348	
-0.298906	
-0.288011	
-0.295169	
-0.28092	
-0.150171	
-0.107374	
-0.195239	
-0.183279	
-0.0731366	
-0.0984729	
-0.072926	
-0.0998804	
-0.203083	
-0.21008	
-0.0585595	
-0.0622626	
-0.026361	
-0.241156	
-0.245511	
-0.255947	
-0.266339	
-0.0549436	
-0.0761558	
-0.221116	
-0.221335	
-0.13576	
-0.167444	
-0.131732	
-0.16522	
-0.234059	
-0.193133	
-0.219278	
0.00320181	
-0.0245573	
-0.303675	
-0.312799	
-0.0953494	
-0.112841	
-0.153727	
-0.140414	
-0.142333	
-0.1283	
-0.229025	
-0.208408	
-0.23699	
-0.273522	
-0.261529	
-0.281544	
-0.162916	
-0.146651	
-0.134426	
-0.0963693	
-0.103155	
-0.0379902	
-0.0323478	
-0.0278656	
-0.0107802	
-0.0252683	
-0.00689398	
-0.0521113	
-0.0228791	
-0.0538941	
-0.0443326	
-0.0449058	
-0.11545	
-0.106222	
-0.07738	
-0.141908	
-0.024546	
-0.0517984	
-0.0226332	
-0.0632866	
-0.146927	
-0.123323	
-0.162795	
-0.149953	
-0.0331749	
-0.0307014	
-0.0791998	
-0.0594513	
-0.210378	
-0.213078	
-0.169752	
-0.169321	
-0.16184	
-0.182993	
-0.182086	
-0.202939	
-0.253262	
-0.255147	
-0.237141	
-0.242124	
-0.277498	
-0.269212	
-0.288159	
-0.284777	
-0.288419	
-0.284977	
-0.301463	
-0.295049	
-0.0777993	
-0.0247412	
-0.0456758	
-0.283113	
-0.272532	
-0.303663	
-0.293262	
-0.303256	
-0.289393	
-0.289742	
-0.0115528	
-0.0275382	
-0.20268	
-0.191967	
-0.180419	
-0.322025	
-0.323492	
-0.324196	
-0.162026	
-0.14223	
-0.149095	
-0.133813	
-0.32601	
-0.318967	
-0.312645	
-0.319105	
-0.315485	
-0.132679	
-0.193901	
-0.213871	
-0.187904	
-0.218493	
0.0330759	
0.0430477	
-0.0677616	
-0.0660592	
-0.0119678	
-0.0364228	
-0.0131884	
0.0302682	
0.041255	
-0.0621057	
-0.116938	
-0.0589805	
-0.107193	
-0.132235	
-0.147601	
-0.177449	
-0.174224	
-0.189712	
-0.196941	
-0.227791	
-0.231266	
-0.00713651	
-0.00984619	
-0.319533	
-0.309655	
-0.0269574	
-0.00424203	
-0.266156	
-0.022356	
0.0345606	
-0.247959	
-0.00455391	
-0.330027	
-0.274483	
-0.0234097	
-0.000830717	
0.0112079	
-0.185548	
-0.173485	
-0.287735	
-0.296695	
-0.298776	
-0.302335	
-0.31189	
-0.314889	
-0.195128	
-0.213087	
-0.123567	
-0.112643	
-0.121773	
-0.273001	
-0.231633	
-0.250665	
-0.253722	
-0.118037	
-0.148166	
-0.157278	
-0.176008	
-0.00626762	
0.0115685	
0.0403632	
-0.0332271	
0.0262582	
0.0450323	
0.0242566	
-0.0113908	
-0.285407	
-0.317772	
-0.311134	
-0.31786	
0.0325938	
-0.311615	
-0.307822	
-0.147958	
-0.128932	
-0.142725	
0.0292781	
0.0422425	
-0.299893	
-0.302203	
-0.297817	
-0.260642	
0.0104059	
-0.265443	
-0.256299	
-0.247964	
0.0375363	
0.0416869	
0.0443765	
-0.197459	
-0.183158	
-0.176782	
-0.159266	
-0.317838	
-0.319738	
-0.32225	
0.0448658	
0.0315771	
0.0385183	
0.00492409	
-0.285832	
-0.284019	
-0.278444	
-0.139838	
-0.140979	
0.0441237	
0.028564	
-0.315547	
-0.307523	
-0.305835	
-0.151872	
-0.140879	
-0.303432	
-0.309382	
-0.249411	
-0.0276138	
-0.0240451	
-0.061469	
-0.0593788	
0.0460616	
0.0399767	
-0.0693992	
-0.0793945	
-0.0977438	
-0.0994336	
-0.328286	
-0.328555	
-0.319419	
-0.328096	
-0.10223	
-0.0743296	
-0.0893304	
-0.0948942	
-0.115184	
0.0370487	
0.0276949	
0.0229933	
-0.185568	
-0.196284	
-0.169993	
-0.193918	
0.0398723	
-0.107231	
-0.106969	
-0.0919868	
-0.324556	
-0.330942	
-0.253145	
-0.262768	
-0.0972913	
-0.116968	
-0.274658	
-0.263927	
0.0013891	
0.00551006	
-0.245756	
-0.269493	
-0.259759	
-0.197635	
-0.218076	
-0.186626	
-0.20194	
-0.0372155	
-0.0866215	
-0.0461575	
-0.0395641	
-0.086501	
-0.0694971	
-0.32613	
-0.330811	
-0.32659	
-0.33038	
-0.0330165	
-0.0404801	
0.0251781	
-0.244325	
-0.225357	
-0.293462	
-0.286228	
-0.157934	
-0.153299	
-0.114225	
-0.0983422	
-0.311154	
-0.303658	
-0.322774	
-0.319204	
-0.31207	
-0.304003	
-0.159651	
-0.162988	
-0.136838	
-0.140588	
-0.246838	
-0.262104	
-0.179288	
-0.193422	
-0.212615	
-0.214344	
-0.320891	
-0.322564	
-0.323919	
-0.323224	
-0.275987	
-0.289207	
-0.299093	
-0.292466	
-0.300291	
-0.255465	
-0.244459	
-0.264557	
-0.273849	
-0.028319	
0.0147972	
0.0384156	
-0.277328	
-0.273944	
-0.0816046	
-0.0655727	
-0.113696	
-0.207506	
-0.22424	
-0.206908	
-0.240862	
-0.237905	
-0.246323	
-0.248955	
-0.254558	
-0.32775	
-0.323072	
-0.321823	
-0.314476	
-0.283177	
-0.265023	
-0.277327	
-0.304282	
0.0195187	
-0.0396782	
0.0339431	
0.0102577	
-0.213548	
-0.238634	
-0.234814	
-0.212758	
-0.227963	
-0.0227935	
0.0337605	
0.0311576	
-0.0180599	
0.0422114	
0.0235068	
-0.27151	
-0.278621	
-0.277483	
-0.287434	
0.0356674	
0.0132411	
-0.222573	
-0.252552	
-0.230927	
-0.257587	
-0.247793	
-0.253181	
-0.265038	
-0.2435	
-0.23721	
-0.253048	
-0.115345	
-0.121039	
-0.134261	
-0.146449	
-0.313677	
-0.313679	
-0.315992	
-0.221862	
-0.21085	
-0.303275	
-0.298889	
-0.287306	
-0.28893	
-0.203804	
-0.221353	
-0.215429	
-0.231785	
-0.0937297	
-0.11759	
-0.29657	
-0.298841	
-0.32028	
-0.324913	
-0.0505858	
-0.0639934	
-0.0703235	
-0.0793798	
-0.229426	
-0.217369	
-0.212777	
-0.20762	
-0.118169	
-0.141441	
-0.150173	
-0.168586	
-0.273726	
-0.286302	
-0.285987	
-0.296503	
-0.154019	
-0.146029	
-0.189495	
-0.181974	
-0.236529	
-0.226691	
-0.0589138	
-0.03671	
-0.0831531	
-0.068387	
-0.268009	
-0.264527	
-0.328851	
-0.32688	
-0.329454	
-0.331524	
-0.308346	
-0.307491	
-0.138491	
-0.152579	
-0.180295	
-0.190102	
-0.0215345	
-0.00938514	
0.0347693	
0.0321935	
-0.189096	
-0.155016	
-0.179103	
-0.142999	
-0.0106684	
-0.00440941	
-0.00740808	
-0.000855012	
0.00223161	
0.0140202	
0.0202867	
0.0227199	
0.016786	
-0.00914969	
-0.000653522	
0.00748667	
0.00322143	
0.00954615	
0.0185136	
0.0228152	
0.00986703	
0.0142474	
0.00615242	
-0.00485849	
0.00415347	
-0.0107295	
-0.0146127	
-0.00364814	
-0.0223177	
-0.0222609	
-0.0164915	
-0.0234192	
-0.0200987	
0.0145482	
0.0124241	
-0.001138	
0.0051123	
-0.00622631	
-0.0176975	
-0.0169371	
-0.0162124	
-0.0142578	
-0.00981418	
0.0178679	
0.270808	
0.236121	
0.259604	
0.0555779	
0.100942	
0.0578635	
0.197713	
0.111572	
0.109563	
0.110025	
0.110797	
0.0815722	
0.0538151	
0.107083	
0.0980035	
0.0936411	
0.054267	
0.10464	
0.0862439	
0.221211	
0.205994	
0.140945	
0.188622	
0.213474	
0.170956	
0.18981	
0.143932	
0.121448	
0.215387	
0.209352	
0.163281	
0.212417	
0.238251	
0.126657	
0.121768	
0.211953	
0.214625	
0.158556	
0.171386	
0.150354	
0.163304	
0.174543	
0.172165	
0.201944	
0.201245	
0.164205	
0.214642	
0.140682	
0.138837	
0.143665	
0.219015	
0.201432	
0.208033	
0.196232	
0.198796	
0.227306	
0.171706	
0.17286	
0.169308	
0.137312	
0.0957744	
0.127323	
0.199676	
0.195645	
0.186549	
0.18414	
0.243951	
0.250059	
0.257441	
0.109098	
0.05976	
0.192515	
0.191989	
0.184106	
0.180948	
0.16897	
0.160217	
0.179045	
0.177847	
0.177308	
0.189218	
0.18504	
0.186865	
0.194133	
0.181888	
0.182963	
0.165098	
0.154057	
0.117272	
0.104352	
0.122585	
0.109692	
0.214373	
0.224635	
0.209702	
0.213086	
0.123909	
0.115023	
0.158688	
0.228499	
0.236833	
0.187565	
0.190058	
0.149465	
0.191348	
0.207197	
0.118107	
0.105391	
0.12965	
0.126743	
0.151996	
0.134259	
0.129454	
0.13732	
0.245522	
0.259319	
0.233082	
0.2187	
0.213478	
0.066439	
0.0537394	
0.115172	
0.144234	
0.0786138	
0.090351	
0.192887	
0.180616	
0.0918622	
0.0697838	
0.127599	
0.128224	
0.134266	
0.134792	
0.102327	
0.242092	
0.234629	
0.159995	
0.141702	
0.15776	
0.150877	
0.124058	
0.154278	
0.153131	
0.148482	
0.147067	
0.0956977	
0.273272	
0.259658	
0.24178	
0.253302	
0.214916	
0.200161	
0.188709	
0.185218	
0.106002	
0.0959828	
0.168314	
0.182327	
0.168486	
0.183116	
0.163203	
0.169199	
0.183556	
0.166425	
0.185107	
0.0933955	
0.150619	
0.15613	
0.149952	
0.249108	
0.242655	
0.24283	
0.236203	
0.240888	
0.24809	
0.174068	
0.177888	
0.165854	
0.172909	
0.252582	
0.239241	
0.24519	
0.195545	
0.187683	
0.19966	
0.0606529	
0.0961554	
0.0853392	
0.0967868	
0.273429	
0.270077	
0.172344	
0.162425	
0.252202	
0.196451	
0.196857	
0.189732	
0.149602	
0.157028	
0.194039	
0.205693	
0.199488	
0.206781	
0.230597	
0.234588	
0.223766	
0.226721	
0.222759	
0.231384	
0.237326	
0.208979	
0.195613	
0.211407	
0.141581	
0.136122	
0.160882	
0.159291	
0.170285	
0.168381	
0.106708	
0.0896208	
0.106709	
0.0941586	
0.11454	
0.172067	
0.164592	
0.158147	
0.154043	
0.153929	
0.140592	
0.144849	
0.135353	
0.234335	
0.22845	
0.173415	
0.167861	
0.165269	
0.209856	
0.211265	
0.20075	
0.204113	
0.0909019	
0.0869395	
0.2669	
0.102889	
0.102968	
0.114845	
0.229583	
0.224187	
0.222535	
0.101051	
0.0916815	
0.159644	
0.150704	
0.163812	
0.157865	
0.218844	
0.219667	
0.20989	
0.211308	
0.197543	
0.197261	
0.188609	
0.188183	
0.247293	
0.249361	
0.239317	
0.243533	
0.14277	
0.238498	
0.242915	
0.236123	
0.203767	
0.192599	
0.185517	
0.115554	
0.148906	
0.14769	
0.242709	
0.240213	
0.20829	
0.195351	
0.19864	
0.202489	
0.20737	
0.199874	
0.186268	
0.196223	
0.20038	
0.245373	
0.253191	
0.2454	
0.238657	
0.244761	
0.23474	
0.184026	
0.174352	
0.183563	
0.174852	
0.207905	
0.200737	
0.195803	
0.122771	
0.182333	
0.177411	
0.165232	
0.0793466	
0.0772737	
0.088616	
0.0906318	
0.216594	
0.155573	
0.156028	
0.166943	
0.180138	
0.186529	
0.1964	
0.214251	
0.214957	
0.207428	
0.208029	
0.137941	
0.144831	
0.144384	
0.148947	
0.135822	
0.145768	
0.162495	
0.16707	
0.15988	
0.246937	
0.243398	
0.254051	
0.143809	
0.154566	
0.140072	
0.150961	
0.186425	
0.199973	
0.207537	
0.116489	
0.247702	
0.253361	
0.0557905	
0.0699379	
0.079793	
0.0525001	
0.160492	
0.149105	
0.165347	
0.136542	
0.141455	
0.218423	
0.225348	
0.218242	
0.19299	
0.203529	
0.196148	
0.173657	
0.163692	
0.127685	
0.133902	
0.134365	
0.144154	
0.143878	
0.163472	
0.149835	
0.15856	
0.16349	
0.172713	
0.176865	
0.227197	
0.219779	
0.204353	
0.197184	
0.159952	
0.144925	
0.269672	
0.235149	
0.261634	
0.265232	
0.255351	
0.270656	
0.256811	
0.269063	
0.26534	
0.26834	
0.264114	
0.224115	
0.227694	
0.228782	
0.232713	
0.214646	
0.217666	
0.219885	
0.22279	
0.198389	
0.204792	
0.20651	
0.209396	
0.254242	
0.198398	
0.193429	
0.186631	
0.183821	
0.26666	
0.227959	
0.23162	
0.131672	
0.133266	
0.137462	
0.146995	
0.137731	
0.140641	
0.143881	
0.153259	
0.216651	
0.227355	
0.216015	
0.11944	
0.125515	
0.118931	
0.125245	
0.198083	
0.191245	
0.221472	
0.213591	
0.219777	
0.209195	
0.209815	
0.19596	
0.206283	
0.199256	
0.184891	
0.172642	
0.188516	
0.176359	
0.139522	
0.134763	
0.163546	
0.158182	
0.184869	
0.178329	
0.188168	
0.177946	
0.252068	
0.251579	
0.259913	
0.147325	
0.144535	
0.139553	
0.135363	
0.129485	
0.129259	
0.13455	
0.137447	
0.127398	
0.122955	
0.208702	
0.193114	
0.20514	
0.201367	
0.255192	
0.254935	
0.13151	
0.137841	
0.151999	
0.147818	
0.168105	
0.151733	
0.149375	
0.167069	
0.190596	
0.154831	
0.142129	
0.119286	
0.17644	
0.184749	
0.12247	
0.129045	
0.230532	
0.22746	
0.22375	
0.218781	
0.1644	
0.162029	
0.106834	
0.119887	
0.133478	
0.132037	
0.119127	
0.113827	
0.113456	
0.122693	
0.122705	
0.0846002	
0.108865	
0.128867	
0.259514	
0.248076	
0.263296	
0.259608	
0.22139	
0.228389	
0.219451	
0.225027	
0.228971	
0.229612	
0.234235	
0.133994	
0.207956	
0.196072	
0.201371	
0.154017	
0.249813	
0.237772	
0.253458	
0.223342	
0.223854	
0.248018	
0.240753	
0.25294	
0.157535	
0.0719184	
0.072359	
0.0599676	
0.050817	
0.199204	
0.205962	
0.268857	
0.263137	
0.0756425	
0.0725605	
0.0809501	
0.069681	
0.11162	
0.16911	
0.178824	
0.179448	
0.170434	
0.17453	
0.181961	
0.174451	
0.182178	
0.173623	
0.181651	
0.123047	
0.133792	
0.114799	
0.133723	
0.166184	
0.154581	
0.166095	
0.223642	
0.21649	
0.259437	
0.258118	
0.248268	
0.250766	
0.158567	
0.150923	
0.143941	
0.141789	
0.189497	
0.182767	
0.175068	
0.174255	
0.17147	
0.169743	
0.182001	
0.181283	
0.22925	
0.258763	
0.255108	
0.261091	
0.239984	
0.245154	
0.265877	
0.267129	
0.219287	
0.213358	
0.202558	
0.195352	
0.229174	
0.233609	
0.211204	
0.220861	
0.20743	
0.214073	
0.114386	
0.107652	
0.114788	
0.0975336	
0.185164	
0.173612	
0.263967	
0.257267	
0.251719	
0.250434	
0.256396	
0.264698	
0.274938	
0.26461	
0.270722	
0.225212	
0.235091	
0.227535	
0.23683	
0.228766	
0.113979	
0.0690403	
0.0573223	
0.179242	
0.170372	
0.141358	
0.155489	
0.130491	
0.144113	
0.129115	
0.117446	
0.124829	
0.106911	
0.259373	
0.263615	
0.119868	
0.107594	
0.10765	
0.0913943	
0.0972743	
0.126613	
0.118695	
0.108963	
0.103821	
0.114446	
0.0673756	
0.0838628	
0.052568	
0.126435	
0.121956	
0.123628	
0.113989	
0.1095	
0.0970777	
0.111744	
0.11648	
0.239207	
0.154228	
0.147501	
0.145024	
0.137287	
0.23732	
0.230822	
0.231943	
0.224617	
0.083903	
0.0662454	
0.127978	
0.121078	
0.114025	
0.101209	
0.101107	
0.116873	
0.110749	
0.137785	
0.186482	
0.176383	
0.17731	
0.128115	
0.120035	
0.112808	
0.237511	
0.124601	
0.107067	
0.13499	
0.119885	
0.219618	
0.221484	
0.225298	
0.230687	
0.087678	
0.101315	
0.0961618	
0.104705	
0.184667	
0.190052	
0.0777281	
0.0652995	
0.0734657	
0.051273	
0.229685	
0.232087	
0.23688	
0.24165	
0.122846	
0.126666	
0.135726	
0.139478	
0.248099	
0.258169	
0.2487	
0.254788	
0.218375	
0.209368	
0.26042	
0.268406	
0.261866	
0.267405	
0.273896	
0.153266	
0.153058	
0.130803	
0.116053	
0.102341	
0.101919	
0.130746	
0.128067	
0.149887	
0.138409	
0.143938	
0.129922	
0.165974	
0.161771	
0.142618	
0.152287	
0.140887	
0.128862	
0.127105	
0.242074	
0.245582	
0.235045	
0.23638	
0.159329	
0.14846	
0.139861	
0.114074	
0.143496	
0.131764	
0.0416166	
0.0443306	
0.0273622	
0.0428487	
0.0460116	
-0.329984	
-0.320567	
0.0445134	
0.0325689	
0.0364835	
-0.0514862	
-0.280483	
0.0447232	
0.0441844	
-0.0859382	
-0.0909858	
-0.219455	
0.0465353	
-0.0978375	
0.0396072	
0.0383848	
-0.322964	
-0.139815	
-0.0934417	
-0.163423	
-0.0589495	
-0.0773249	
0.0130907	
-0.0159755	
-0.269944	
-0.268779	
-0.224022	
-0.100957	
-0.300885	
-0.259178	
-0.0853292	
-0.124902	
-0.073645	
-0.245607	
-0.244143	
-0.259945	
-0.29226	
-0.309451	
-0.279789	
-0.0142639	
-0.0420464	
-0.17594	
-0.222921	
-0.236849	
-0.233279	
-0.197503	
-0.201671	
-0.152205	
-0.150042	
-0.117956	
-0.261904	
-0.131918	
-0.100067	
-0.105073	
-0.123605	
-0.114765	
-0.14175	
-0.110228	
-0.109816	
-0.298269	
-0.252727	
-0.130264	
-0.169709	
-0.27293	
-0.0797406	
-0.211104	
-0.120954	
-0.0946867	
-0.15941	
-0.165721	
-0.285657	
-0.329932	
0.0383043	
0.0243664	
-0.0279354	
-0.202241	
-0.0703536	
-0.0606311	
-0.229863	
-0.251826	
-0.227078	
-0.282348	
-0.264593	
-0.169833	
-0.174504	
-0.2534	
-0.270897	
-0.242877	
-0.0471961	
-0.284229	
-0.0251796	
-0.0178741	
-0.0784812	
-0.0684071	
-0.223173	
-0.141458	
-0.173744	
-0.282457	
-0.11137	
-0.151858	
-0.181727	
-0.165059	
-0.192374	
-0.0708426	
-0.265117	
-0.240307	
-0.246775	
-0.21247	
-0.198071	
-0.210394	
-0.0980382	
-0.237401	
-0.0347297	
-0.0791219	
-0.138397	
-0.278612	
-0.269529	
-0.292916	
-0.314038	
-0.208106	
-0.209076	
-0.296757	
-0.286031	
-0.160752	
0.0315925	
-0.0101487	
-0.28686	
-0.286472	
-0.32418	
-0.272054	
-0.183468	
-0.183354	
0.0302922	
-0.008651	
-0.303141	
-0.310879	
-0.309586	
0.0234895	
0.038507	
-0.108515	
-0.139288	
-0.0601625	
-0.0504161	
-0.0682247	
-0.239307	
-0.20077	
-0.154821	
-0.185358	
-0.183293	
-0.182993	
-0.133087	
0.0409082	
-0.156451	
-0.161258	
-0.32196	
-0.329311	
-0.148097	
-0.08196	
-0.260424	
-0.231841	
-0.230734	
-0.162794	
-0.192901	
-0.180688	
-0.20087	
0.0224626	
-0.271027	
-0.105129	
-0.168111	
-0.238576	
-0.187536	
-0.204999	
-0.231244	
-0.24413	
-0.321653	
-0.250496	
-0.251366	
-0.22772	
-0.226777	
-0.0240369	
-0.223216	
-0.212822	
-0.19116	
-0.0969271	
-0.0967516	
-0.122381	
-0.013933	
-0.0294806	
-0.114525	
-0.086181	
-0.121614	
-0.211	
-0.0979061	
-0.329547	
-0.322138	
-0.314818	
-0.058967	
-0.280788	
-0.264919	
-0.263562	
-0.185259	
-0.232414	
-0.210115	
-0.226232	
-0.184758	
-0.149822	
-0.300899	
-0.305585	
-0.199781	
-0.193341	
-0.180384	
-0.177431	
-0.114061	
-0.247746	
-0.2902	
-0.301967	
-0.151923	
-0.133853	
-0.172045	
0.0129784	
-0.0204622	
-0.0865801	
-0.0727768	
-0.0206841	
-0.0411743	
-0.25755	
-0.270246	
-0.096588	
-0.0646748	
-0.0847242	
-0.0605143	
-0.0816758	
-0.0657141	
-0.0850261	
-0.289561	
-0.294187	
-0.306367	
-0.318339	
-0.328639	
-0.0395887	
-0.106939	
-0.0548667	
-0.111169	
-0.146941	
-0.169098	
-0.239802	
-0.190815	
-0.11671	
-0.149333	
-0.230485	
-0.218675	
-0.183747	
-0.150637	
-0.174721	
-0.0321855	
-0.0247245	
-0.0525801	
-0.0477276	
-0.126638	
-0.187832	
-0.113844	
-0.0832209	
-0.213536	
-0.182176	
-0.205468	
-0.186085	
-0.259277	
-0.237583	
-0.252569	
-0.237693	
-0.137214	
-0.294918	
-0.27756	
-0.302199	
-0.287837	
-0.13443	
-0.121151	
-0.170075	
-0.195691	
-0.0986787	
-0.0627507	
-0.111908	
-0.0731751	
-0.189344	
-0.212112	
-0.0735694	
-0.0589329	
-0.0267526	
-0.25547	
-0.261193	
-0.240746	
-0.244934	
-0.0760466	
-0.0793421	
-0.222989	
-0.21226	
-0.152707	
-0.136004	
-0.167676	
-0.165449	
-0.145815	
-0.222192	
-0.197071	
-0.219301	
-0.204815	
-0.0195724	
0.00309662	
-0.312911	
-0.303797	
-0.112683	
-0.0952177	
-0.142605	
-0.128535	
-0.153991	
-0.140658	
-0.213844	
-0.236724	
-0.217208	
-0.272818	
-0.281318	
-0.266002	
-0.146542	
-0.157881	
-0.134348	
-0.103119	
-0.116866	
-0.0384932	
-0.0327362	
-0.0131787	
-0.030694	
-0.0068296	
-0.0536479	
-0.022877	
-0.0521268	
-0.0538719	
-0.045028	
-0.0228969	
-0.106089	
-0.0772636	
-0.115329	
-0.0864079	
-0.141795	
-0.0444726	
-0.0634397	
-0.0245825	
-0.0517103	
-0.162636	
-0.124904	
-0.14675	
-0.123195	
-0.0306771	
-0.0659703	
-0.0593856	
-0.0791107	
-0.169525	
-0.193549	
-0.190438	
-0.212776	
-0.199774	
-0.202991	
-0.161899	
-0.159114	
-0.228702	
-0.241865	
-0.252954	
-0.254931	
-0.264739	
-0.276812	
-0.284172	
-0.287442	
-0.284369	
-0.287872	
-0.294253	
-0.303137	
-0.0247114	
-0.0456522	
-0.0777704	
-0.287406	
-0.272555	
-0.295811	
-0.301326	
-0.302197	
-0.289181	
-0.291484	
-0.0275388	
-0.0115524	
-0.203673	
-0.202851	
-0.176752	
-0.323312	
-0.323783	
-0.156181	
-0.162091	
-0.133746	
-0.136792	
-0.324224	
-0.315889	
-0.319197	
-0.319288	
-0.315185	
-0.117985	
-0.213733	
-0.193814	
-0.218288	
-0.200924	
0.0430337	
0.0331411	
-0.0676223	
-0.0120884	
-0.0331719	
-0.0362284	
-0.0130104	
0.0406246	
0.0301222	
-0.096326	
-0.0620849	
-0.107118	
-0.081521	
-0.131859	
-0.147265	
-0.168681	
-0.177753	
-0.190954	
-0.190829	
-0.227592	
-0.230981	
-0.0100262	
-0.00728351	
-0.318058	
-0.308482	
-0.027065	
-0.00432676	
-0.0250742	
-0.00191959	
0.0345254	
-0.0215724	
-0.322569	
-0.248758	
-0.266109	
-0.27328	
-0.0330539	
0.00484725	
-0.248927	
-0.257538	
0.0111089	
-0.184501	
-0.184289	
-0.295775	
-0.283248	
-0.297616	
-0.311798	
-0.298815	
-0.314759	
-0.195156	
-0.214405	
-0.123758	
-0.122003	
-0.112831	
-0.276699	
-0.250702	
-0.244302	
-0.124395	
-0.132634	
-0.173689	
-0.157224	
-0.00344466	
0.0406566	
0.0117364	
0.0267444	
-0.0231936	
0.0243934	
0.0451126	
-0.0113488	
-0.231957	
-0.240862	
-0.237798	
-0.316873	
-0.317951	
-0.311194	
0.0305814	
-0.31088	
-0.306777	
-0.129045	
-0.148053	
-0.142791	
0.0447627	
0.0307949	
-0.301165	
-0.298983	
-0.302978	
0.0103109	
0.0416406	
0.0374514	
0.0348159	
-0.176931	
-0.16331	
-0.197622	
-0.199479	
-0.316557	
-0.326434	
-0.320589	
0.0315092	
0.0451394	
-0.0010631	
0.0385264	
-0.261319	
-0.255251	
-0.141229	
-0.140099	
0.0409823	
0.0343026	
0.0293917	
-0.305042	
-0.284931	
-0.313005	
-0.306755	
-0.255456	
-0.248493	
-0.271704	
-0.257795	
-0.152149	
-0.141115	
-0.30325	
-0.308584	
-0.249361	
-0.0239328	
-0.0275077	
-0.0592416	
-0.0613517	
0.0397402	
0.0456366	
-0.108197	
-0.0995532	
-0.0695297	
-0.053152	
-0.326459	
-0.318566	
-0.326131	
-0.318093	
-0.102293	
-0.0947303	
-0.107576	
-0.0743491	
-0.087179	
0.0276949	
0.0370203	
0.0232047	
-0.179713	
-0.193745	
-0.173004	
-0.194849	
0.040537	
-0.109962	
-0.094951	
-0.327151	
-0.325869	
-0.117008	
-0.0973336	
0.00131284	
0.00538682	
-0.263849	
-0.274347	