<VTKFile type="UnstructuredGrid" version="0.1" byte_order="LittleEndian">
	<UnstructuredGrid>
		<Piece NumberOfPoints="1647" NumberOfCells="3046">
			<CellData Scalars="scalars">
				<DataArray type="Float64" Name="Doublet Strengths" NumberOfComponents="1" Format="ascii">
0.291945	
0.248933	
0.275029	
0.0584053	
0.0971374	
0.114471	
0.112772	
0.113331	
0.0600051	
0.0572663	
0.109477	
0.100076	
0.0550416	
0.107029	
0.11254	
0.0865625	
0.231647	
0.109757	
0.279492	
0.207083	
0.226713	
0.143568	
0.19845	
0.2262	
0.179298	
0.199072	
0.150126	
0.18379	
0.126377	
0.222296	
0.226511	
0.170982	
0.224881	
0.251965	
0.127229	
0.223376	
0.225739	
0.158499	
0.179829	
0.157072	
0.170912	
0.183138	
0.180499	
0.208142	
0.212541	
0.177657	
0.225882	
0.146795	
0.144883	
0.159891	
0.243581	
0.232203	
0.218965	
0.212009	
0.216438	
0.206457	
0.240707	
0.16475	
0.179843	
0.180935	
0.17719	
0.143633	
0.100681	
0.131879	
0.196435	
0.198565	
0.203462	
0.206423	
0.266061	
0.269049	
0.259272	
0.11364	
0.0524066	
0.192716	
0.194777	
0.201774	
0.20661	
0.187385	
0.1742	
0.17692	
0.167445	
0.194898	
0.186295	
0.194625	
0.19105	
0.197817	
0.196371	
0.203947	
0.174115	
0.162266	
0.104898	
0.11906	
0.126095	
0.221893	
0.232865	
0.227188	
0.236352	
0.11798	
0.12741	
0.165977	
0.241719	
0.245228	
0.258092	
0.208786	
0.197341	
0.199191	
0.154379	
0.224805	
0.107838	
0.121203	
0.130128	
0.141714	
0.13904	
0.149683	
0.133677	
0.13285	
0.262106	
0.273893	
0.231573	
0.247246	
0.224941	
0.055125	
0.149946	
0.0911015	
0.0797243	
0.0861727	
0.189736	
0.208369	
0.0981376	
0.0737544	
0.139951	
0.140505	
0.132861	
0.133503	
0.105175	
0.257845	
0.247573	
0.164948	
0.14979	
0.167336	
0.153283	
0.114347	
0.151071	
0.153538	
0.161169	
0.159999	
0.120468	
0.107491	
0.291152	
0.27663	
0.254888	
0.269194	
0.229078	
0.198684	
0.199214	
0.206529	
0.100274	
0.0794991	
0.272544	
0.191821	
0.180633	
0.189422	
0.176552	
0.186183	
0.170646	
0.193352	
0.194667	
0.186228	
0.0929684	
0.16426	
0.146199	
0.157825	
0.258316	
0.265786	
0.272292	
0.255035	
0.266369	
0.250051	
0.17328	
0.181455	
0.182761	
0.186871	
0.267796	
0.261274	
0.253757	
0.214017	
0.19607	
0.0603439	
0.0762023	
0.0984849	
0.099902	
0.0935341	
0.293734	
0.288441	
0.180641	
0.1699	
0.267145	
0.209719	
0.206288	
0.194083	
0.164194	
0.165138	
0.209229	
0.204091	
0.220704	
0.209624	
0.250485	
0.244778	
0.240113	
0.234583	
0.238392	
0.254482	
0.245812	
0.246101	
0.211457	
0.220957	
0.223566	
0.147807	
0.147703	
0.165742	
0.167738	
0.176091	
0.183333	
0.105338	
0.110903	
0.0975776	
0.110659	
0.117653	
0.172413	
0.176523	
0.160795	
0.158124	
0.157103	
0.16047	
0.140201	
0.150583	
0.248132	
0.241477	
0.171159	
0.173019	
0.181777	
0.208901	
0.215344	
0.221895	
0.223245	
0.0891301	
0.0925852	
0.106515	
0.106751	
0.119271	
0.229916	
0.232184	
0.240482	
0.0969386	
0.107679	
0.157302	
0.167105	
0.156079	
0.171625	
0.217274	
0.221749	
0.229354	
0.234128	
0.193553	
0.198203	
0.208508	
0.213349	
0.252285	
0.259359	
0.263008	
0.265947	
0.148527	
0.110056	
0.258483	
0.24853	
0.259346	
0.214887	
0.199392	
0.202574	
0.11461	
0.155554	
0.154258	
0.254656	
0.255177	
0.218346	
0.207398	
0.204325	
0.217254	
0.206409	
0.21207	
0.206867	
0.206199	
0.191189	
0.195864	
0.260724	
0.271479	
0.252682	
0.248758	
0.260214	
0.252814	
0.291196	
0.183014	
0.198545	
0.178426	
0.192964	
0.211978	
0.220013	
0.206442	
0.127279	
0.183145	
0.190623	
0.173841	
0.177087	
0.0820603	
0.087841	
0.0916419	
0.233796	
0.16306	
0.162545	
0.174853	
0.196442	
0.192656	
0.207242	
0.285387	
0.272665	
0.279062	
0.218908	
0.219453	
0.226484	
0.230753	
0.143822	
0.15493	
0.155384	
0.142977	
0.151987	
0.145302	
0.175195	
0.167362	
0.170128	
0.268916	
0.26144	
0.25597	
0.16152	
0.149444	
0.16593	
0.146829	
0.219473	
0.211072	
0.268707	
0.262454	
0.119871	
0.0744364	
0.0593975	
0.0826936	
0.054333	
0.16798	
0.159955	
0.142489	
0.142087	
0.230678	
0.227171	
0.238373	
0.210041	
0.202245	
0.214641	
0.182133	
0.171359	
0.138867	
0.132016	
0.149898	
0.139328	
0.165898	
0.156332	
0.158558	
0.171286	
0.171246	
0.181229	
0.181328	
0.232228	
0.240437	
0.207881	
0.215737	
0.173843	
0.150719	
0.167399	
0.288898	
0.291855	
0.279098	
0.285722	
0.2457	
0.282512	
0.279006	
0.28966	
0.284803	
0.271898	
0.280537	
0.283722	
0.280835	
0.24082	
0.236741	
0.246088	
0.24179	
0.233928	
0.230909	
0.219807	
0.225192	
0.211521	
0.21685	
0.273513	
0.201497	
0.2014	
0.19135	
0.18966	
0.237742	
0.240651	
0.138376	
0.13668	
0.147535	
0.15046	
0.145451	
0.142455	
0.155328	
0.157373	
0.224767	
0.226887	
0.129984	
0.117818	
0.129717	
0.122801	
0.201426	
0.211987	
0.226006	
0.237203	
0.221263	
0.225527	
0.221453	
0.210244	
0.217946	
0.18589	
0.194579	
0.185243	
0.193807	
0.139902	
0.145254	
0.139803	
0.165363	
0.175817	
0.187154	
0.199247	
0.186677	
0.192196	
0.278628	
0.274977	
0.262641	
0.266803	
0.153468	
0.14098	
0.141225	
0.134305	
0.134364	
0.147233	
0.140471	
0.132277	
0.211125	
0.203954	
0.217873	
0.215242	
0.276452	
0.143218	
0.150414	
0.154377	
0.158754	
0.175825	
0.16566	
0.221252	
0.212876	
0.264509	
0.251991	
0.155695	
0.0677304	
0.174711	
0.158813	
0.199672	
0.165964	
0.193418	
0.184649	
0.122871	
0.133364	
0.167812	
0.229861	
0.234433	
0.238259	
0.240549	
0.122494	
0.171961	
0.169571	
0.104741	
0.122015	
0.124665	
0.133151	
0.111596	
0.124944	
0.127677	
0.1377	
0.138294	
0.269706	
0.277049	
0.276687	
0.280747	
0.24119	
0.228719	
0.231201	
0.07754	
0.0825752	
0.0739539	
0.0707298	
0.247361	
0.248542	
0.237312	
0.242177	
0.239533	
0.237727	
0.133565	
0.206544	
0.2121	
0.219128	
0.0617597	
0.0617505	
0.074105	
0.0747441	
0.160997	
0.269011	
0.253813	
0.256579	
0.16473	
0.217163	
0.209986	
0.281006	
0.287411	
0.185604	
0.186834	
0.171619	
0.17611	
0.258257	
0.266277	
0.258662	
0.265874	
0.178776	
0.191344	
0.183243	
0.181296	
0.194773	
0.182327	
0.190383	
0.148052	
0.130423	
0.141751	
0.116342	
0.161944	
0.173734	
0.173787	
0.228887	
0.236617	
0.264359	
0.266838	
0.271462	
0.275132	
0.158543	
0.161895	
0.14873	
0.150713	
0.183476	
0.182629	
0.194941	
0.191996	
0.196046	
0.190377	
0.179528	
0.171477	
0.247288	
0.234539	
0.247802	
0.241206	
0.24492	
0.286074	
0.29339	
0.278533	
0.281528	
0.259575	
0.253971	
0.223092	
0.231661	
0.204782	
0.21346	
0.117966	
0.0995622	
0.123275	
0.110186	
0.182222	
0.190182	
0.287652	
0.280669	
0.287852	
0.281702	
0.272103	
0.283816	
0.274607	
0.266492	
0.271511	
0.265045	
0.251427	
0.249734	
0.24142	
0.16118	
0.146322	
0.149408	
0.134455	
0.106947	
0.099265	
0.0863826	
0.0725584	
0.112562	
0.12578	
0.112958	
0.0991348	
0.0938623	
0.132474	
0.124091	
0.144566	
0.0549965	
0.0703798	
0.0876191	
0.128586	
0.119007	
0.127107	
0.128661	
0.116326	
0.120976	
0.14311	
0.238687	
0.238419	
0.252492	
0.251924	
0.0878413	
0.069434	
0.126105	
0.118709	
0.133473	
0.122183	
0.129078	
0.120808	
0.133641	
0.115967	
0.128773	
0.222351	
0.218823	
0.213051	
0.120765	
0.11387	
0.114574	
0.110698	
0.0949687	
0.184772	
0.185678	
0.195389	
0.117576	
0.133715	
0.12532	
0.136079	
0.123113	
0.128153	
0.109545	
0.20127	
0.203305	
0.239104	
0.242799	
0.233016	
0.235012	
0.097027	
0.0912207	
0.109056	
0.100185	
0.193806	
0.199379	
0.109717	
0.10447	
0.0628705	
0.0532227	
0.0808047	
0.0679252	
0.128268	
0.109225	
0.138783	
0.120395	
0.269722	
0.263364	
0.218948	
0.225919	
0.160058	
0.149185	
0.146272	
0.135043	
0.135037	
0.150442	
0.120706	
0.156757	
0.144215	
0.134165	
0.13253	
0.146231	
0.116091	
0.139589	
0.152297	
0.160287	
0.140856	
0.150227	
0.254947	
0.257801	
0.262279	
0.145838	
0.153087	
0.12522	
0.131167	
0.249217	
0.251596	
0.238506	
0.240301	
0.247253	
0.254555	
0.241651	
0.243833	
0.101139	
0.106756	
0.101695	
0.107197	
0.031014	
0.0430968	
0.0369871	
0.041613	
0.0449761	
-0.345394	
-0.335472	
0.0400531	
0.0405684	
0.0435454	
0.0397565	
0.0361462	
-0.294209	
0.0433178	
-0.0884904	
-0.0938983	
-0.230321	
-0.126852	
0.0382603	
0.0369838	
-0.147587	
-0.0883829	
-0.172015	
-0.0830532	
-0.0874951	
0.0104392	
-0.0194849	
-0.277718	
-0.282912	
-0.234977	
-0.107446	
-0.323606	
-0.27187	
-0.0892785	
-0.132165	
-0.0788995	
-0.24194	
-0.255935	
-0.270475	
-0.305845	
-0.323619	
-0.291997	
-0.017648	
-0.0463599	
-0.182251	
-0.233186	
-0.202033	
-0.22889	
-0.224506	
-0.244759	
-0.157266	
-0.179441	
-0.130983	
-0.274069	
-0.151979	
-0.109595	
-0.11681	
-0.128458	
-0.12171	
-0.116999	
-0.149599	
-0.114903	
-0.311849	
-0.265918	
-0.135284	
-0.181943	
-0.28497	
-0.0851185	
-0.21996	
-0.128092	
-0.100985	
-0.170509	
-0.171367	
-0.2867	
-0.348236	
0.0221915	
0.0212041	
-0.0317979	
-0.211529	
-0.0653757	
-0.0753206	
-0.261815	
-0.238881	
-0.23663	
-0.277013	
-0.295493	
-0.187155	
-0.180933	
-0.282827	
-0.264905	
-0.254067	
-0.0519165	
-0.299705	
-0.0157119	
-0.0580332	
-0.0452957	
-0.0883146	
-0.234099	
-0.161374	
-0.179309	
-0.296374	
-0.117662	
-0.173693	
-0.207377	
-0.16001	
-0.170639	
-0.0715502	
-0.251009	
-0.277005	
-0.222647	
-0.2582	
-0.197135	
-0.21646	
-0.0746175	
-0.104325	
-0.245137	
-0.0361186	
-0.051898	
-0.0849661	
-0.161599	
-0.280369	
-0.289505	
-0.30713	
-0.329158	
-0.227967	
-0.219477	
-0.298863	
-0.309763	
-0.166162	
0.0298431	
-0.0133549	
-0.338894	
-0.280497	
-0.191012	
-0.20764	
-0.20492	
0.0297718	
-0.0118282	
-0.317943	
-0.325157	
-0.323865	
0.0253073	
0.0368017	
-0.11183	
-0.143678	
-0.0615766	
-0.0699908	
-0.052558	
0.0461047	
-0.250992	
-0.210787	
-0.18667	
-0.194755	
-0.144889	
-0.191963	
-0.140083	
-0.166857	
-0.146972	
-0.167706	
-0.337682	
-0.346656	
-0.131456	
-0.0878182	
-0.242986	
-0.257469	
-0.272935	
-0.202681	
-0.166555	
-0.211083	
-0.190123	
0.020234	
-0.283401	
-0.100255	
-0.11169	
-0.176357	
-0.245756	
-0.194104	
-0.212145	
-0.236597	
-0.253385	
-0.335816	
-0.237321	
-0.244272	
-0.247556	
-0.261815	
-0.0281715	
-0.233549	
-0.20033	
-0.222747	
-0.102788	
-0.10304	
-0.133507	
-0.129258	
-0.0151446	
-0.0308473	
-0.118231	
-0.09649	
-0.218625	
-0.113486	
-0.328959	
-0.336787	
-0.0571011	
-0.29007	
-0.280122	
-0.274561	
-0.193242	
-0.238776	
-0.200072	
-0.237332	
-0.194178	
-0.132286	
-0.320241	
-0.314145	
-0.176434	
-0.1845	
-0.207204	
-0.212789	
-0.090982	
-0.114509	
-0.317013	
-0.304279	
-0.156659	
-0.179823	
0.0104014	
-0.0360115	
-0.0241758	
-0.0782351	
-0.0455041	
-0.0243016	
-0.270282	
-0.283764	
-0.347951	
-0.100513	
-0.0885315	
-0.0679914	
-0.0689349	
-0.0885683	
-0.0554179	
-0.0849016	
-0.304651	
-0.322014	
-0.30953	
-0.346398	
-0.32529	
-0.0850825	
-0.117976	
-0.113595	
-0.155008	
-0.20333	
-0.24734	
-0.200256	
-0.123426	
-0.124881	
-0.140676	
-0.225468	
-0.237836	
-0.158464	
-0.176039	
-0.155967	
-0.174228	
-0.0216695	
-0.0346516	
-0.0500741	
-0.0632686	
-0.310307	
-0.210283	
-0.140406	
-0.083511	
-0.119714	
-0.208625	
-0.222621	
-0.194334	
-0.21425	
-0.260966	
-0.269746	
-0.247433	
-0.262704	
-0.312098	
-0.300687	
-0.308382	
-0.293488	
-0.156944	
-0.113008	
-0.202234	
-0.190017	
-0.0774538	
-0.10338	
-0.077048	
-0.104587	
-0.209858	
-0.217406	
-0.0625877	
-0.0662246	
-0.0295687	
-0.25246	
-0.257063	
-0.267812	
-0.278624	
-0.0597474	
-0.0816847	
-0.228523	
-0.228994	
-0.141495	
-0.174675	
-0.137811	
-0.172224	
-0.243344	
-0.200943	
-0.227866	
0.0014443	
-0.0267931	
-0.317402	
-0.326956	
-0.0979829	
-0.116016	
-0.160139	
-0.146393	
-0.148535	
-0.134048	
-0.239987	
-0.21852	
-0.248235	
-0.286151	
-0.273659	
-0.294397	
-0.171577	
-0.154745	
-0.142233	
-0.102882	
-0.109917	
-0.0400485	
-0.0344457	
-0.0309563	
-0.0134362	
-0.0288148	
-0.00987401	
-0.0565077	
-0.0264194	
-0.0574954	
-0.0474753	
-0.0479749	
-0.122251	
-0.112722	
-0.0829099	
-0.149535	
-0.0273546	
-0.0552675	
-0.0253195	
-0.0669471	
-0.15481	
-0.130453	
-0.171272	
-0.158052	
-0.0372526	
-0.0346909	
-0.0848401	
-0.0644131	
-0.220499	
-0.22329	
-0.178395	
-0.177965	
-0.169628	
-0.191533	
-0.190437	
-0.212064	
-0.265157	
-0.267112	
-0.248409	
-0.253593	
-0.290307	
-0.281701	
-0.301413	
-0.297899	
-0.301614	
-0.29806	
-0.315223	
-0.308564	
-0.0833215	
-0.0285132	
-0.0501467	
-0.294734	
-0.283761	
-0.316476	
-0.305288	
-0.316039	
-0.30129	
-0.301899	
-0.0147378	
-0.0313046	
-0.209234	
-0.198257	
-0.18602	
-0.337565	
-0.338883	
-0.339269	
-0.167298	
-0.146695	
-0.154114	
-0.138133	
-0.341678	
-0.333715	
-0.326572	
-0.333823	
-0.329434	
-0.139868	
-0.203015	
-0.22364	
-0.196769	
-0.228355	
0.0313552	
0.0418744	
-0.0730226	
-0.0712596	
-0.0152335	
-0.0406446	
-0.016493	
0.0284304	
0.0400221	
-0.0674174	
-0.12412	
-0.06416	
-0.11395	
-0.136151	
-0.152032	
-0.183411	
-0.180348	
-0.196112	
-0.203733	
-0.236448	
-0.240175	
-0.00891881	
-0.0115659	
-0.334363	
-0.323971	
-0.029541	
-0.00633604	
-0.276405	
-0.0252381	
0.0338196	
-0.257073	
-0.00725445	
-0.345586	
-0.285428	
-0.0271526	
-0.00296616	
0.00974282	
-0.191586	
-0.178904	
-0.299615	
-0.309005	
-0.31121	
-0.315826	
-0.325939	
-0.32913	
-0.20162	
-0.220303	
-0.128454	
-0.11712	
-0.12631	
-0.283744	
-0.239795	
-0.261998	
-0.265316	
-0.124803	
-0.155883	
-0.165176	
-0.184539	
-0.00867381	
0.00895479	
0.0390959	
-0.0373339	
0.0242403	
0.0440214	
0.0222629	
-0.0143618	
-0.296929	
-0.332405	
-0.325302	
-0.33246	
0.0310875	
-0.325945	
-0.322026	
-0.155204	
-0.135542	
-0.149892	
0.0277654	
0.0412675	
-0.313658	
-0.31607	
-0.310464	
-0.270529	
0.00875898	
-0.275684	
-0.266117	
-0.257296	
0.0365975	
0.0410379	
0.0433551	
-0.205972	
-0.191051	
-0.184729	
-0.166627	
-0.332564	
-0.334559	
-0.337239	
0.0440876	
0.030198	
0.0374239	
0.00300876	
-0.297446	
-0.295579	
-0.289577	
-0.14489	
-0.146229	
0.0431857	
0.0266704	
-0.330158	
-0.321727	
-0.319909	
-0.1578	
-0.146413	
-0.317264	
-0.323562	
-0.260545	
-0.0314989	
-0.0278362	
-0.0664615	
-0.0643077	
0.0453625	
0.0390187	
-0.0737905	
-0.0842111	
-0.102832	
-0.104723	
-0.343788	
-0.344234	
-0.334192	
-0.343651	
-0.108035	
-0.0764898	
-0.0920269	
-0.0976506	
-0.118655	
0.0355535	
0.0257376	
0.0207063	
-0.191511	
-0.202654	
-0.175201	
-0.200137	
0.0385649	
-0.110861	
-0.110433	
-0.0952388	
-0.339675	
-0.346837	
-0.262608	
-0.272816	
-0.103029	
-0.123387	
-0.286635	
-0.275599	
0.000313531	
0.00428834	
-0.257228	
-0.281972	
-0.271784	
-0.207302	
-0.228471	
-0.195872	
-0.211736	
-0.0414264	
-0.0924572	
-0.0506555	
-0.0438309	
-0.092357	
-0.0747571	
-0.341146	
-0.346605	
-0.341726	
-0.345933	
-0.0372711	
-0.0449272	
0.0230248	
-0.255505	
-0.235804	
-0.305497	
-0.297923	
-0.162697	
-0.157931	
-0.117441	
-0.101014	
-0.324999	
-0.31702	
-0.337845	
-0.333988	
-0.326389	
-0.317917	
-0.167556	
-0.170997	
-0.144082	
-0.147908	
-0.258438	
-0.274316	
-0.188128	
-0.202772	
-0.222525	
-0.224356	
-0.335837	
-0.337666	
-0.339285	
-0.338624	
-0.288512	
-0.302315	
-0.312061	
-0.305011	
-0.313163	
-0.265339	
-0.254059	
-0.274912	
-0.284845	
-0.0323951	
0.0121622	
0.0369891	
-0.288362	
-0.284752	
-0.0872787	
-0.0707265	
-0.120419	
-0.214385	
-0.23198	
-0.213939	
-0.249463	
-0.246259	
-0.255077	
-0.258063	
-0.263981	
-0.343141	
-0.338108	
-0.33678	
-0.328995	
-0.294929	
-0.276191	
-0.289014	
-0.318182	
0.0170878	
-0.0440251	
0.0323496	
0.00757018	
-0.222345	
-0.248229	
-0.244468	
-0.219744	
-0.235807	
-0.0266216	
0.0320619	
0.0293566	
-0.0213217	
0.0410414	
0.0214606	
-0.282454	
-0.289925	
-0.288623	
-0.299103	
0.0340636	
0.0105473	
-0.232443	
-0.263336	
-0.241154	
-0.268645	
-0.258604	
-0.263313	
-0.275518	
-0.254998	
-0.248538	
-0.264959	
-0.121123	
-0.127125	
-0.140522	
-0.153261	
-0.327602	
-0.328084	
-0.330355	
-0.230681	
-0.219412	
-0.31622	
-0.311465	
-0.299399	
-0.301011	
-0.213632	
-0.231855	
-0.225631	
-0.242618	
-0.0998294	
-0.124447	
-0.309057	
-0.311314	
-0.335146	
-0.340083	
-0.052572	
-0.0664709	
-0.0726941	
-0.0821698	
-0.237784	
-0.225176	
-0.220635	
-0.215144	
-0.125018	
-0.149126	
-0.158121	
-0.177199	
-0.286308	
-0.299392	
-0.299182	
-0.310141	
-0.162053	
-0.153789	
-0.198855	
-0.190959	
-0.24662	
-0.236555	
-0.0631707	
-0.0404147	
-0.0881497	
-0.0730415	
-0.280446	
-0.276812	
-0.344591	
-0.342245	
-0.345435	
-0.347342	
-0.321766	
-0.320914	
-0.145963	
-0.160537	
-0.189055	
-0.199231	
-0.024713	
-0.0121461	
0.0332241	
0.0306014	
-0.198451	
-0.163154	
-0.188059	
-0.150665	
-0.0106076	
-0.00422297	
-0.00724164	
-0.000623953	
0.00245472	
0.0145116	
0.0207116	
0.0230664	
0.0172409	
-0.00895336	
-0.00026548	
0.00799237	
0.00366351	
0.00999711	
0.0187646	
0.023076	
0.010102	
0.0144958	
0.00638687	
-0.00455954	
0.00387691	
-0.0111992	
-0.0150695	
-0.00402832	
-0.0228107	
-0.0226665	
-0.0165717	
-0.0238037	
-0.020613	
0.0144794	
0.0123859	
-0.00134143	
0.00497865	
-0.00646429	
-0.0178929	
-0.0171234	
-0.0164581	
-0.0145198	
-0.0100399	
0.0178905	
0.287167	
0.24996	
0.275097	
0.0581394	
0.103136	
0.0602548	
0.208483	
0.114357	
0.112131	
0.112645	
0.113472	
0.0852192	
0.0565264	
0.109637	
0.0999949	
0.0954342	
0.0550472	
0.107058	
0.0877337	
0.233469	
0.216418	
0.147018	
0.198588	
0.22577	
0.179433	
0.199574	
0.149888	
0.126515	
0.22756	
0.220985	
0.171102	
0.224429	
0.252102	
0.131683	
0.126092	
0.22378	
0.226473	
0.166342	
0.179814	
0.157497	
0.170592	
0.183322	
0.180749	
0.213082	
0.212289	
0.171634	
0.226488	
0.146893	
0.145115	
0.149059	
0.231739	
0.212353	
0.219426	
0.206762	
0.209519	
0.240614	
0.180304	
0.181567	
0.177783	
0.143763	
0.100118	
0.13181	
0.210559	
0.206189	
0.196313	
0.193704	
0.258788	
0.265385	
0.273305	
0.112567	
0.0617515	
0.20275	
0.202217	
0.193611	
0.190176	
0.176824	
0.167382	
0.18787	
0.186685	
0.18633	
0.199248	
0.194707	
0.19667	
0.204487	
0.191286	
0.192445	
0.172905	
0.1608	
0.120388	
0.106739	
0.125902	
0.112359	
0.226751	
0.237871	
0.221596	
0.225277	
0.127294	
0.117916	
0.166235	
0.241809	
0.251073	
0.197117	
0.200103	
0.155521	
0.201528	
0.218889	
0.121274	
0.107789	
0.134297	
0.131096	
0.158763	
0.139314	
0.134146	
0.142739	
0.259456	
0.274021	
0.246872	
0.231203	
0.225445	
0.0676857	
0.0550597	
0.118076	
0.149861	
0.0798341	
0.0920639	
0.203123	
0.189867	
0.0961512	
0.0730179	
0.133027	
0.133593	
0.140156	
0.140623	
0.104571	
0.256061	
0.248037	
0.1675	
0.147589	
0.16506	
0.157549	
0.127445	
0.161375	
0.160197	
0.155077	
0.153648	
0.10016	
0.289841	
0.275337	
0.256023	
0.268483	
0.227068	
0.210976	
0.198699	
0.194924	
0.109646	
0.100144	
0.176212	
0.191585	
0.17644	
0.192511	
0.170666	
0.17731	
0.192963	
0.174198	
0.194605	
0.0971	
0.156903	
0.16296	
0.156211	
0.264362	
0.257368	
0.257544	
0.250089	
0.255026	
0.262788	
0.18282	
0.186959	
0.173918	
0.181564	
0.266933	
0.252759	
0.259115	
0.20566	
0.197348	
0.210192	
0.0629088	
0.0989817	
0.0878552	
0.0999753	
0.290198	
0.286646	
0.180783	
0.169886	
0.266602	
0.206923	
0.207288	
0.199696	
0.156052	
0.164189	
0.204398	
0.216908	
0.210213	
0.218017	
0.244275	
0.248569	
0.236887	
0.24001	
0.23587	
0.245141	
0.251566	
0.220581	
0.205941	
0.223213	
0.148239	
0.142296	
0.168062	
0.166305	
0.178327	
0.176218	
0.11101	
0.0930405	
0.110757	
0.0976545	
0.117514	
0.180326	
0.172171	
0.165099	
0.160596	
0.160499	
0.145864	
0.150526	
0.140096	
0.247621	
0.241458	
0.182145	
0.176126	
0.173366	
0.221685	
0.223208	
0.211749	
0.215397	
0.0932595	
0.0892071	
0.283472	
0.10685	
0.106597	
0.119384	
0.242057	
0.236528	
0.234653	
0.105734	
0.0958925	
0.167075	
0.157272	
0.171595	
0.165117	
0.230914	
0.231683	
0.221372	
0.2228	
0.208214	
0.207924	
0.198306	
0.197958	
0.262319	
0.264572	
0.25372	
0.258277	
0.148535	
0.25276	
0.257597	
0.250261	
0.214851	
0.202631	
0.194861	
0.119386	
0.155787	
0.154558	
0.257256	
0.254655	
0.219794	
0.205691	
0.209247	
0.213259	
0.218557	
0.210551	
0.195668	
0.206582	
0.211163	
0.260292	
0.268718	
0.260062	
0.252829	
0.259468	
0.248661	
0.193327	
0.182774	
0.192766	
0.183279	
0.219634	
0.211648	
0.206149	
0.127134	
0.191676	
0.1863	
0.173001	
0.0821043	
0.0794469	
0.0916991	
0.0936004	
0.228631	
0.162711	
0.163181	
0.175088	
0.189236	
0.196202	
0.206997	
0.22644	
0.227159	
0.21903	
0.219677	
0.143711	
0.151163	
0.150554	
0.155522	
0.141306	
0.152109	
0.170129	
0.175077	
0.167264	
0.261167	
0.257563	
0.268733	
0.14936	
0.161181	
0.145281	
0.15726	
0.195844	
0.210742	
0.219105	
0.119638	
0.262309	
0.2684	
0.0584723	
0.0732599	
0.0827525	
0.0543658	
0.168075	
0.155607	
0.173371	
0.142849	
0.148016	
0.230859	
0.238374	
0.23073	
0.203311	
0.214787	
0.20674	
0.182187	
0.171219	
0.132079	
0.13885	
0.139416	
0.150148	
0.149889	
0.17129	
0.156376	
0.165931	
0.171277	
0.181336	
0.185828	
0.240458	
0.232326	
0.215499	
0.20766	
0.167471	
0.151036	
0.286486	
0.247979	
0.277777	
0.281601	
0.271	
0.287207	
0.271922	
0.285044	
0.281137	
0.284514	
0.28022	
0.236939	
0.24084	
0.241894	
0.246155	
0.226671	
0.229966	
0.232232	
0.235399	
0.209172	
0.216127	
0.217946	
0.221104	
0.269736	
0.208485	
0.203099	
0.196152	
0.193046	
0.283094	
0.240125	
0.243753	
0.13669	
0.138379	
0.143049	
0.153361	
0.143214	
0.14637	
0.149935	
0.16014	
0.227745	
0.239086	
0.227652	
0.123251	
0.129995	
0.122799	
0.12975	
0.208845	
0.201397	
0.234329	
0.225765	
0.232596	
0.221008	
0.221393	
0.206523	
0.217655	
0.210087	
0.194552	
0.181205	
0.198462	
0.185223	
0.144638	
0.139479	
0.171457	
0.165542	
0.194458	
0.18743	
0.198036	
0.187026	
0.2671	
0.266624	
0.275471	
0.153493	
0.15042	
0.145385	
0.140883	
0.13442	
0.134217	
0.140086	
0.143338	
0.132332	
0.127583	
0.219455	
0.203038	
0.215945	
0.211859	
0.270898	
0.270594	
0.136033	
0.142875	
0.158626	
0.154004	
0.176512	
0.159018	
0.155434	
0.175399	
0.200518	
0.162409	
0.148906	
0.124863	
0.185398	
0.194268	
0.128221	
0.132909	
0.244029	
0.240775	
0.23674	
0.231386	
0.172483	
0.169982	
0.109287	
0.123018	
0.138049	
0.136498	
0.122418	
0.11672	
0.116326	
0.126724	
0.126736	
0.0862532	
0.111494	
0.132715	
0.275414	
0.262983	
0.279468	
0.275374	
0.233796	
0.241234	
0.23164	
0.237549	
0.241791	
0.24242	
0.247382	
0.138868	
0.219354	
0.206637	
0.2123	
0.161368	
0.264973	
0.25187	
0.26879	
0.236232	
0.236792	
0.262862	
0.255061	
0.268218	
0.165043	
0.0740581	
0.0747541	
0.0616757	
0.0523835	
0.210018	
0.217245	
0.285397	
0.279463	
0.0774446	
0.0739224	
0.082519	
0.0707291	
0.11429	
0.177529	
0.187546	
0.188376	
0.178762	
0.18321	
0.191291	
0.183257	
0.191476	
0.182355	
0.190853	
0.128787	
0.140125	
0.120149	
0.140073	
0.173722	
0.160963	
0.173597	
0.236622	
0.228906	
0.27537	
0.273966	
0.263401	
0.266063	
0.166388	
0.158286	
0.15082	
0.148571	
0.19923	
0.191837	
0.183403	
0.18252	
0.179567	
0.177646	
0.19103	
0.190225	
0.242676	
0.274709	
0.27072	
0.277145	
0.253613	
0.259172	
0.282476	
0.283906	
0.230711	
0.22467	
0.213702	
0.205851	
0.241923	
0.246566	
0.223224	
0.233607	
0.218996	
0.226207	
0.117796	
0.110126	
0.117898	
0.0995577	
0.194767	
0.182202	
0.279772	
0.272724	
0.26664	
0.265163	
0.271511	
0.28058	
0.291502	
0.280562	
0.287083	
0.238348	
0.249185	
0.241031	
0.251074	
0.24236	
0.119246	
0.0723481	
0.0600497	
0.188292	
0.178636	
0.146068	
0.161999	
0.134478	
0.149573	
0.133613	
0.120511	
0.128442	
0.109446	
0.274836	
0.279133	
0.125408	
0.112483	
0.112454	
0.0930853	
0.0992794	
0.132462	
0.124061	
0.112275	
0.106128	
0.11804	
0.0702384	
0.0874833	
0.0548847	
0.129965	
0.126682	
0.128616	
0.118042	
0.112135	
0.0990575	
0.115778	
0.120976	
0.253373	
0.160691	
0.153345	
0.150587	
0.142093	
0.251614	
0.244574	
0.245727	
0.237825	
0.0876324	
0.0691886	
0.133655	
0.126255	
0.118823	
0.104073	
0.104174	
0.120549	
0.113409	
0.144333	
0.196153	
0.185338	
0.186336	
0.133907	
0.125401	
0.117683	
0.250616	
0.128209	
0.109601	
0.139828	
0.123073	
0.23247	
0.234478	
0.238637	
0.24445	
0.0912342	
0.105427	
0.100213	
0.109123	
0.194233	
0.199989	
0.0808216	
0.0679124	
0.0762515	
0.0532472	
0.24317	
0.245756	
0.250899	
0.256034	
0.126138	
0.130204	
0.140501	
0.144593	
0.263145	
0.273866	
0.263722	
0.270173	
0.230099	
0.220621	
0.276534	
0.285037	
0.27809	
0.283891	
0.290593	
0.159707	
0.159495	
0.134768	
0.119227	
0.107077	
0.10669	
0.136982	
0.134172	
0.155859	
0.142995	
0.149458	
0.133851	
0.174129	
0.169756	
0.149496	
0.159727	
0.146172	
0.132689	
0.130822	
0.255647	
0.259123	
0.248159	
0.249503	
0.167086	
0.155606	
0.145058	
0.117079	
0.148993	
0.135818	
0.0403682	
0.0431818	
0.0253955	
0.0416942	
0.0449962	
-0.345719	
-0.335154	
0.0433867	
0.0308097	
0.0361331	
-0.053473	
-0.293303	
0.0436871	
0.0431352	
-0.0882991	
-0.0934926	
-0.230255	
0.0459757	
-0.100494	
0.0383333	
0.0369717	
-0.338314	
-0.14742	
-0.0970562	
-0.17181	
-0.0641419	
-0.0829792	
0.0105591	
-0.0193805	
-0.282493	
-0.281306	
-0.234698	
-0.107345	
-0.31468	
-0.271189	
-0.0893943	
-0.132015	
-0.0789012	
-0.25705	
-0.255564	
-0.27044	
-0.305611	
-0.323491	
-0.291796	
-0.0176446	
-0.0463539	
-0.184489	
-0.233072	
-0.248135	
-0.24432	
-0.207116	
-0.211463	
-0.157453	
-0.158011	
-0.124882	
-0.273902	
-0.137964	
-0.104731	
-0.109724	
-0.128616	
-0.121588	
-0.149438	
-0.116876	
-0.115066	
-0.311772	
-0.26283	
-0.13418	
-0.174884	
-0.284581	
-0.0851312	
-0.220102	
-0.127933	
-0.100824	
-0.166748	
-0.171716	
-0.29874	
-0.345889	
0.0368958	
0.0222401	
-0.0317268	
-0.211496	
-0.0753479	
-0.0653911	
-0.239236	
-0.262093	
-0.23656	
-0.295258	
-0.276761	
-0.176677	
-0.181234	
-0.264538	
-0.282654	
-0.253721	
-0.051862	
-0.297278	
-0.0287215	
-0.0211233	
-0.083539	
-0.0730526	
-0.233769	
-0.14586	
-0.179416	
-0.29556	
-0.11769	
-0.159826	
-0.190729	
-0.173484	
-0.201771	
-0.0730434	
-0.276991	
-0.251219	
-0.258159	
-0.222536	
-0.204882	
-0.217703	
-0.104257	
-0.246289	
-0.0363177	
-0.0849421	
-0.145882	
-0.289996	
-0.280607	
-0.306273	
-0.328376	
-0.218239	
-0.219218	
-0.309695	
-0.298527	
-0.165698	
0.0297621	
-0.0133563	
-0.298415	
-0.297985	
-0.339298	
-0.282621	
-0.1912	
-0.191199	
0.0284774	
-0.0118319	
-0.316445	
-0.32447	
-0.32325	
0.0213228	
0.037108	
-0.111571	
-0.143323	
-0.0626717	
-0.0529949	
-0.0710787	
-0.250555	
-0.210609	
-0.162976	
-0.194591	
-0.191926	
-0.191532	
-0.140099	
0.0397887	
-0.161152	
-0.166439	
-0.336779	
-0.345047	
-0.155827	
-0.0876636	
-0.272505	
-0.242767	
-0.241621	
-0.171512	
-0.202597	
-0.190095	
-0.210976	
0.0202315	
-0.283283	
-0.111603	
-0.176324	
-0.247249	
-0.194548	
-0.212662	
-0.239674	
-0.253696	
-0.336662	
-0.260937	
-0.261926	
-0.237476	
-0.236668	
-0.0278429	
-0.233524	
-0.22268	
-0.200272	
-0.103023	
-0.102783	
-0.129234	
-0.0152151	
-0.0311532	
-0.118654	
-0.0894574	
-0.125782	
-0.219009	
-0.102967	
-0.345345	
-0.337034	
-0.329123	
-0.0632103	
-0.293383	
-0.276104	
-0.274555	
-0.191506	
-0.24079	
-0.220259	
-0.23696	
-0.194012	
-0.157949	
-0.313634	
-0.318844	
-0.20752	
-0.201146	
-0.187439	
-0.1847	
-0.117452	
-0.256991	
-0.303667	
-0.315983	
-0.156417	
-0.140499	
-0.17993	
0.0104402	
-0.0241491	
-0.0924209	
-0.0781767	
-0.0242554	
-0.0454513	
-0.269504	
-0.282773	
-0.100663	
-0.0680981	
-0.0886438	
-0.0635348	
-0.0851581	
-0.0690546	
-0.0887237	
-0.302803	
-0.307642	
-0.320356	
-0.333056	
-0.344287	
-0.0439548	
-0.113474	
-0.0596881	
-0.117851	
-0.154881	
-0.17777	
-0.248506	
-0.200144	
-0.120404	
-0.154321	
-0.238701	
-0.226416	
-0.190477	
-0.156216	
-0.180842	
-0.0347666	
-0.0269482	
-0.055554	
-0.0503725	
-0.133512	
-0.196707	
-0.119791	
-0.0883536	
-0.222835	
-0.190523	
-0.214398	
-0.194455	
-0.269963	
-0.247566	
-0.262942	
-0.247601	
-0.144728	
-0.308174	
-0.289925	
-0.315707	
-0.300524	
-0.140661	
-0.12722	
-0.176361	
-0.202683	
-0.103547	
-0.0666985	
-0.116952	
-0.0772698	
-0.19557	
-0.219562	
-0.0778692	
-0.0629526	
-0.0299589	
-0.267356	
-0.273355	
-0.252069	
-0.256502	
-0.0815958	
-0.0849915	
-0.230823	
-0.219383	
-0.158757	
-0.141681	
-0.174825	
-0.172416	
-0.152163	
-0.231004	
-0.205138	
-0.22787	
-0.212864	
-0.0217909	
0.00134835	
-0.327055	
-0.317501	
-0.115825	
-0.0978206	
-0.148727	
-0.134223	
-0.160363	
-0.146592	
-0.224231	
-0.248001	
-0.227695	
-0.285465	
-0.294216	
-0.27832	
-0.154673	
-0.16652	
-0.142214	
-0.109888	
-0.124059	
-0.0405455	
-0.0348259	
-0.0159137	
-0.0338588	
-0.00981074	
-0.0580275	
-0.0264229	
-0.0565265	
-0.0574463	
-0.0480729	
-0.0255643	
-0.112606	
-0.082797	
-0.122141	
-0.0922694	
-0.149439	
-0.0475901	
-0.0670665	
-0.0273661	
-0.0551493	
-0.171141	
-0.132203	
-0.154665	
-0.130346	
-0.0346783	
-0.0711727	
-0.0643576	
-0.084755	
-0.178222	
-0.20309	
-0.199873	
-0.223014	
-0.208721	
-0.212122	
-0.169681	
-0.166884	
-0.239694	
-0.253366	
-0.264877	
-0.266933	
-0.277098	
-0.289653	
-0.297332	
-0.300737	
-0.297478	
-0.301079	
-0.307799	
-0.31707	
-0.0284863	
-0.050128	
-0.0832977	
-0.299322	
-0.283814	
-0.308312	
-0.314217	
-0.315132	
-0.300985	
-0.303679	
-0.0313151	
-0.0147476	
-0.210527	
-0.209457	
-0.182272	
-0.338638	
-0.338886	
-0.161086	
-0.167334	
-0.138019	
-0.141336	
-0.339889	
-0.330255	
-0.333942	
-0.334006	
-0.329128	
-0.124758	
-0.223512	
-0.202941	
-0.228156	
-0.210196	
0.0418004	
0.0313644	
-0.0728808	
-0.0153661	
-0.0372576	
-0.0404427	
-0.016311	
0.0393624	
0.028271	
-0.102848	
-0.0674034	
-0.113895	
-0.0874439	
-0.135725	
-0.151653	
-0.174459	
-0.183701	
-0.197632	
-0.19725	
-0.236221	
-0.23986	
-0.0117385	
-0.00905728	
-0.332952	
-0.322841	
-0.0296317	
-0.00640815	
-0.0280161	
-0.00422664	
0.0337827	
-0.0247401	
-0.337807	
-0.257882	
-0.276241	
-0.283961	
-0.0371547	
0.00294374	
-0.258072	
-0.267178	
0.00965064	
-0.19048	
-0.190167	
-0.308121	
-0.294919	
-0.310085	
-0.32585	
-0.312021	
-0.328989	
-0.201635	
-0.221765	
-0.128602	
-0.126493	
-0.11727	
-0.287787	
-0.262067	
-0.255513	
-0.1314	
-0.139822	
-0.182198	
-0.165135	
-0.00574384	
0.0394004	
0.00913017	
0.0247282	
-0.0269288	
0.0224095	
0.0441076	
-0.0143095	
-0.240175	
-0.249531	
-0.246296	
-0.331491	
-0.332589	
-0.325395	
0.0289914	
-0.32526	
-0.321015	
-0.13562	
-0.155285	
-0.14995	
0.0439337	
0.0293769	
-0.315062	
-0.312783	
-0.315925	
0.00867347	
0.0409935	
0.0365161	
0.0332779	
-0.184856	
-0.170652	
-0.206099	
-0.207821	
-0.331313	
-0.342006	
-0.335601	
0.0301434	
0.0443813	
-0.00318564	
0.0374429	
-0.271257	
-0.264776	
-0.146437	
-0.145114	
0.0398985	
0.0329111	
0.027538	
-0.319135	
-0.298124	
-0.327572	
-0.321016	
-0.265213	
-0.257843	
-0.282262	
-0.267504	
-0.158047	
-0.146603	
-0.31712	
-0.322771	
-0.26052	
-0.0277184	
-0.0313849	
-0.0641707	
-0.0663439	
0.0387823	
0.0449314	
-0.113611	
-0.104822	
-0.073903	
-0.0571611	
-0.342172	
-0.333407	
-0.341729	
-0.332908	
-0.108089	
-0.0974284	
-0.11087	
-0.0764805	
-0.0898063	
0.0257351	
0.0355264	
0.0209137	
-0.185255	
-0.199971	
-0.178382	
-0.201167	
0.0392535	
-0.113618	
-0.0982222	
-0.342835	
-0.341844	
-0.123426	
-0.103071	
0.000241243	
0.00416848	
-0.27554	