<VTKFile type="UnstructuredGrid" version="0.1" byte_order="LittleEndian">
	<UnstructuredGrid>
		<Piece NumberOfPoints="1647" NumberOfCells="3046">
			<CellData Scalars="scalars">
				<DataArray type="Float64" Name="Doublet Strengths" NumberOfComponents="1" Format="ascii">
0.165632	
0.146616	
0.156753	
0.0401186	
0.0840722	
0.0925333	
0.0926384	
0.0926144	
0.04009	
0.0377967	
0.0913019	
0.0860178	
0.0499971	
0.0898822	
0.0921676	
0.0766916	
0.142202	
0.0906536	
0.16167	
0.13219	
0.140768	
0.102294	
0.128276	
0.138649	
0.120174	
0.127266	
0.107569	
0.121623	
0.0912731	
0.137862	
0.139394	
0.116454	
0.137949	
0.149295	
0.0961962	
0.137073	
0.139641	
0.106747	
0.120161	
0.106559	
0.115891	
0.121779	
0.120534	
0.13171	
0.133556	
0.118618	
0.139587	
0.103462	
0.101195	
0.111563	
0.144612	
0.140738	
0.136834	
0.133893	
0.135773	
0.131618	
0.14455	
0.108696	
0.119632	
0.119413	
0.116939	
0.0976382	
0.0697203	
0.100485	
0.12736	
0.128347	
0.130212	
0.131511	
0.153677	
0.154712	
0.150984	
0.0886378	
0.0419577	
0.125541	
0.126552	
0.129386	
0.1314	
0.122346	
0.11698	
0.118159	
0.114314	
0.126883	
0.123253	
0.126729	
0.125104	
0.12787	
0.127342	
0.130519	
0.11752	
0.112799	
0.088553	
0.097392	
0.100763	
0.137122	
0.141405	
0.139133	
0.142692	
0.0957224	
0.101443	
0.11319	
0.145046	
0.145702	
0.150736	
0.131997	
0.126926	
0.128207	
0.109723	
0.137416	
0.0902351	
0.0985897	
0.0997538	
0.104123	
0.10334	
0.107269	
0.101375	
0.101087	
0.156487	
0.16303	
0.140343	
0.146265	
0.137635	
0.0464664	
0.107802	
0.0796608	
0.0714435	
0.0750039	
0.123033	
0.130888	
0.0664674	
0.0505219	
0.099027	
0.099946	
0.0952323	
0.0962354	
0.0892196	
0.151856	
0.148281	
0.113745	
0.10719	
0.114719	
0.108471	
0.0933678	
0.106632	
0.107549	
0.111515	
0.110648	
0.0817275	
0.0724464	
0.165068	
0.157539	
0.148881	
0.154478	
0.139177	
0.128436	
0.128656	
0.131655	
0.0711113	
0.0647633	
0.156676	
0.124802	
0.119964	
0.123844	
0.118339	
0.122501	
0.115878	
0.124657	
0.125268	
0.121788	
0.0693987	
0.113436	
0.106625	
0.110911	
0.150753	
0.153614	
0.156356	
0.150364	
0.154902	
0.148321	
0.11749	
0.12115	
0.121731	
0.123501	
0.159483	
0.155542	
0.15147	
0.134494	
0.125832	
0.0436945	
0.0570941	
0.0792039	
0.0778586	
0.0730913	
0.167613	
0.163721	
0.11932	
0.115121	
0.158467	
0.132732	
0.131336	
0.126072	
0.113366	
0.11378	
0.132762	
0.130509	
0.137544	
0.132801	
0.148222	
0.146006	
0.144285	
0.142168	
0.143509	
0.149537	
0.146366	
0.145921	
0.132635	
0.136351	
0.137287	
0.100641	
0.101603	
0.113881	
0.114658	
0.117986	
0.120998	
0.0767885	
0.0810617	
0.0734788	
0.0825987	
0.0945553	
0.116547	
0.118178	
0.111986	
0.11079	
0.110518	
0.111868	
0.104267	
0.108159	
0.148294	
0.145425	
0.116099	
0.116597	
0.120757	
0.132179	
0.134762	
0.137286	
0.137837	
0.0736325	
0.076611	
0.0813207	
0.0793453	
0.0877279	
0.141628	
0.142758	
0.147417	
0.0665608	
0.0732902	
0.110569	
0.114623	
0.110064	
0.116562	
0.136086	
0.138016	
0.141311	
0.143456	
0.125457	
0.127493	
0.131753	
0.133773	
0.148729	
0.151498	
0.152712	
0.153961	
0.107169	
0.0843882	
0.151296	
0.147532	
0.151803	
0.133777	
0.127506	
0.128732	
0.0896839	
0.1075	
0.106234	
0.148973	
0.149299	
0.135054	
0.130679	
0.129387	
0.135974	
0.131172	
0.133627	
0.130828	
0.130445	
0.124282	
0.12607	
0.151466	
0.155612	
0.149152	
0.147712	
0.152249	
0.149304	
0.165294	
0.120899	
0.127535	
0.118939	
0.125111	
0.133107	
0.136225	
0.1308	
0.096615	
0.121286	
0.124469	
0.117291	
0.11861	
0.0631523	
0.0706176	
0.0704088	
0.142588	
0.112842	
0.112455	
0.118021	
0.126821	
0.125266	
0.131425	
0.161954	
0.156285	
0.158835	
0.136205	
0.136449	
0.139154	
0.14085	
0.103257	
0.108614	
0.109143	
0.103769	
0.107412	
0.104357	
0.117991	
0.11468	
0.115858	
0.158125	
0.154092	
0.151361	
0.112138	
0.107799	
0.113922	
0.106626	
0.135913	
0.132596	
0.154334	
0.151877	
0.0959206	
0.0502184	
0.0399812	
0.0623973	
0.0418024	
0.115129	
0.111568	
0.0981049	
0.099032	
0.140965	
0.13953	
0.143851	
0.13286	
0.12966	
0.134593	
0.119997	
0.115839	
0.1035	
0.100721	
0.107484	
0.103483	
0.114114	
0.110073	
0.110981	
0.116463	
0.116517	
0.120891	
0.121054	
0.14051	
0.143624	
0.131071	
0.134185	
0.117742	
0.107729	
0.114837	
0.16531	
0.166775	
0.15923	
0.162145	
0.150183	
0.160932	
0.159436	
0.165963	
0.162433	
0.158399	
0.162774	
0.16348	
0.160775	
0.144863	
0.143367	
0.147011	
0.145395	
0.142429	
0.141338	
0.136804	
0.138829	
0.13349	
0.13551	
0.157402	
0.129743	
0.128426	
0.123248	
0.122268	
0.146565	
0.149512	
0.102515	
0.101506	
0.106133	
0.107069	
0.105695	
0.104443	
0.10959	
0.110415	
0.141294	
0.14065	
0.0986608	
0.0939972	
0.0982366	
0.0957954	
0.129085	
0.133398	
0.138837	
0.143115	
0.13696	
0.138567	
0.137631	
0.133103	
0.136186	
0.122993	
0.126734	
0.122603	
0.12631	
0.104107	
0.106607	
0.104153	
0.113571	
0.118291	
0.123172	
0.128341	
0.123093	
0.125517	
0.162564	
0.159158	
0.153495	
0.155166	
0.109196	
0.102199	
0.102773	
0.099526	
0.0998333	
0.104402	
0.101433	
0.0968116	
0.133201	
0.129708	
0.137464	
0.137392	
0.158242	
0.105794	
0.107897	
0.109574	
0.111252	
0.115719	
0.110257	
0.13618	
0.132873	
0.152665	
0.147841	
0.11015	
0.0596414	
0.114229	
0.105015	
0.127937	
0.109577	
0.124759	
0.12075	
0.0831665	
0.103873	
0.110226	
0.139443	
0.14109	
0.142578	
0.143427	
0.0994706	
0.115238	
0.113527	
0.0881915	
0.0982472	
0.100565	
0.103944	
0.0916988	
0.0999868	
0.101573	
0.103085	
0.103405	
0.154746	
0.157875	
0.157642	
0.159463	
0.1457	
0.140622	
0.141687	
0.0655259	
0.0721146	
0.0650538	
0.0638342	
0.148925	
0.149204	
0.144324	
0.146261	
0.143151	
0.142476	
0.101266	
0.131656	
0.133929	
0.136775	
0.0504245	
0.0482631	
0.059624	
0.0584167	
0.109137	
0.154473	
0.148589	
0.149568	
0.112144	
0.13591	
0.133039	
0.160267	
0.164583	
0.121657	
0.12108	
0.112655	
0.114887	
0.150381	
0.153499	
0.150438	
0.153232	
0.119575	
0.125154	
0.121586	
0.117884	
0.124981	
0.118766	
0.122849	
0.0986263	
0.0884495	
0.0952559	
0.0944901	
0.112741	
0.117036	
0.117163	
0.14002	
0.143034	
0.153165	
0.154146	
0.156019	
0.157683	
0.105161	
0.107696	
0.0996777	
0.101326	
0.120926	
0.120581	
0.125631	
0.124432	
0.126254	
0.123833	
0.119409	
0.116097	
0.146124	
0.141315	
0.146359	
0.143874	
0.145673	
0.163373	
0.16915	
0.159201	
0.160593	
0.153682	
0.151211	
0.138926	
0.144538	
0.13058	
0.134041	
0.0962378	
0.0854073	
0.0966502	
0.0927776	
0.121039	
0.124529	
0.162878	
0.159251	
0.162992	
0.159815	
0.157318	
0.164862	
0.159313	
0.155373	
0.158145	
0.154863	
0.148191	
0.14769	
0.144544	
0.112723	
0.109942	
0.107983	
0.103597	
0.0727121	
0.0670503	
0.0595419	
0.0484906	
0.0787057	
0.0860858	
0.0781376	
0.0853555	
0.0818618	
0.0908945	
0.0863059	
0.0963622	
0.0386561	
0.0502978	
0.0621345	
0.10186	
0.0900411	
0.0938711	
0.0939536	
0.0877821	
0.0895245	
0.105311	
0.14312	
0.143072	
0.1484	
0.148263	
0.0614912	
0.0484786	
0.0902347	
0.0854468	
0.0939544	
0.0931269	
0.0957859	
0.0933275	
0.0983096	
0.0943546	
0.10203	
0.136529	
0.135073	
0.132877	
0.0949792	
0.0950046	
0.0915848	
0.0927113	
0.0826019	
0.121672	
0.121796	
0.126132	
0.0836912	
0.0932478	
0.087855	
0.102462	
0.0991703	
0.10134	
0.0905662	
0.127948	
0.128827	
0.143586	
0.144823	
0.141229	
0.141883	
0.0713756	
0.0665173	
0.0782294	
0.0718819	
0.125776	
0.128117	
0.0886861	
0.0891462	
0.0474867	
0.0396718	
0.0594022	
0.0498457	
0.101566	
0.0904915	
0.103698	
0.0979316	
0.155982	
0.153332	
0.136683	
0.14001	
0.111972	
0.107796	
0.109924	
0.103979	
0.104763	
0.108277	
0.0960062	
0.111103	
0.108771	
0.0899379	
0.103579	
0.106631	
0.0931711	
0.104975	
0.10876	
0.111838	
0.104598	
0.108167	
0.154857	
0.154903	
0.159694	
0.0978396	
0.101783	
0.0841304	
0.088077	
0.150722	
0.151319	
0.145176	
0.145766	
0.150025	
0.155206	
0.147105	
0.147905	
0.0814523	
0.0838369	
0.0834966	
0.0853655	
0.04318	
0.0518914	
0.0478891	
0.0507385	
0.0524456	
-0.226712	
-0.223391	
0.0503483	
0.0492732	
0.0514131	
0.0474971	
0.0381371	
-0.19837	
0.0517758	
-0.0716237	
-0.0761809	
-0.152846	
-0.101016	
0.0483381	
0.0476955	
-0.0907778	
-0.0659415	
-0.109736	
-0.0403292	
-0.0435084	
0.0300933	
0.00634575	
-0.188378	
-0.192387	
-0.158943	
-0.0592318	
-0.21853	
-0.183237	
-0.0609395	
-0.0792646	
-0.0418678	
-0.16202	
-0.171954	
-0.194171	
-0.20852	
-0.219496	
-0.202982	
0.00633148	
-0.0158743	
-0.121834	
-0.160763	
-0.13308	
-0.152918	
-0.150234	
-0.164701	
-0.120694	
-0.11775	
-0.0798303	
-0.187599	
-0.10763	
-0.0773693	
-0.0815331	
-0.0937771	
-0.070252	
-0.0667749	
-0.0921307	
-0.0782358	
-0.212787	
-0.192367	
-0.107431	
-0.141832	
-0.19898	
-0.0471953	
-0.156618	
-0.0763246	
-0.0553648	
-0.119478	
-0.129546	
-0.193595	
-0.228149	
0.0382533	
0.0377831	
-0.00338309	
-0.146305	
-0.0318779	
-0.0402243	
-0.18786	
-0.172412	
-0.169383	
-0.189356	
-0.201735	
-0.137792	
-0.133866	
-0.196542	
-0.184244	
-0.176112	
-0.0164144	
-0.202157	
0.00593255	
-0.0272521	
-0.0181352	
-0.0522883	
-0.155889	
-0.126524	
-0.13896	
-0.200563	
-0.0736021	
-0.111255	
-0.137257	
-0.10092	
-0.10928	
-0.0565113	
-0.172991	
-0.19113	
-0.150788	
-0.176584	
-0.149748	
-0.16441	
-0.0372125	
-0.0601456	
-0.181269	
-0.0255696	
-0.0397859	
-0.0414745	
-0.105055	
-0.199174	
-0.205348	
-0.206893	
-0.22011	
-0.153255	
-0.147226	
-0.206238	
-0.213088	
-0.130654	
0.042651	
0.00927099	
-0.22559	
-0.200389	
-0.137102	
-0.148678	
-0.14853	
0.0438626	
0.0129317	
-0.217104	
-0.222212	
-0.220496	
0.0405286	
0.0476673	
-0.0900875	
-0.114445	
-0.0446077	
-0.0505775	
-0.0349732	
0.0497039	
-0.168188	
-0.138424	
-0.122559	
-0.128988	
-0.0901919	
-0.131539	
-0.0911436	
-0.11282	
-0.116616	
-0.130161	
-0.22448	
-0.226204	
-0.0818012	
-0.0454593	
-0.16296	
-0.173188	
-0.18426	
-0.132284	
-0.104425	
-0.138468	
-0.122519	
0.036778	
-0.194671	
-0.0562597	
-0.0655653	
-0.11825	
-0.183026	
-0.144749	
-0.15811	
-0.176135	
-0.185172	
-0.22348	
-0.168134	
-0.171355	
-0.176148	
-0.185378	
0.00152796	
-0.16014	
-0.135473	
-0.152579	
-0.0606135	
-0.0603789	
-0.0854222	
-0.0811081	
-0.00675848	
-0.0196574	
-0.0896407	
-0.0715871	
-0.162048	
-0.0756374	
-0.222187	
-0.225332	
-0.0292734	
-0.199803	
-0.197139	
-0.19401	
-0.147498	
-0.177367	
-0.130543	
-0.158337	
-0.126	
-0.0782078	
-0.219613	
-0.21752	
-0.12869	
-0.133992	
-0.152901	
-0.156199	
-0.0720004	
-0.0908763	
-0.213812	
-0.205811	
-0.124149	
-0.125088	
0.0304293	
-0.0046109	
0.00416643	
-0.0397409	
-0.0139419	
0.00211839	
-0.182044	
-0.191344	
-0.229525	
-0.0722868	
-0.0612126	
-0.0442031	
-0.0457913	
-0.0630126	
-0.0349036	
-0.0609054	
-0.205403	
-0.216134	
-0.208435	
-0.227761	
-0.218054	
-0.0422876	
-0.0679484	
-0.0648145	
-0.0959771	
-0.13333	
-0.182895	
-0.133946	
-0.0971407	
-0.0961517	
-0.109193	
-0.170134	
-0.178429	
-0.116436	
-0.132099	
-0.117248	
-0.133544	
-0.00655585	
-0.0169235	
-0.0319801	
-0.0424801	
-0.20932	
-0.144783	
-0.0943041	
-0.0479734	
-0.078016	
-0.146056	
-0.157244	
-0.136	
-0.151577	
-0.185483	
-0.192185	
-0.176755	
-0.187921	
-0.213842	
-0.206944	
-0.211067	
-0.201622	
-0.109865	
-0.0736191	
-0.15264	
-0.142628	
-0.0476154	
-0.0694438	
-0.0485971	
-0.0721211	
-0.160118	
-0.163493	
-0.0347587	
-0.0388686	
-0.0074806	
-0.171618	
-0.174626	
-0.182723	
-0.190028	
-0.0230691	
-0.0395324	
-0.172752	
-0.172021	
-0.101984	
-0.124607	
-0.0955887	
-0.123624	
-0.177033	
-0.146515	
-0.167099	
0.0132481	
-0.0116857	
-0.213352	
-0.218929	
-0.0794383	
-0.0934833	
-0.11574	
-0.105115	
-0.105613	
-0.0942735	
-0.161664	
-0.146052	
-0.168142	
-0.194709	
-0.186424	
-0.200786	
-0.108317	
-0.0954732	
-0.0856129	
-0.0552556	
-0.06056	
-0.026219	
-0.0203518	
-0.00952712	
0.00496044	
-0.00396161	
0.0110456	
-0.0255369	
-0.00146978	
-0.032545	
-0.0258001	
-0.0268535	
-0.0734127	
-0.065742	
-0.0423075	
-0.0949199	
-0.00795213	
-0.0312469	
-0.00681652	
-0.0416518	
-0.0959025	
-0.0769108	
-0.10837	
-0.0981331	
-0.00610952	
-0.00411811	
-0.0425371	
-0.0267462	
-0.145969	
-0.148163	
-0.114125	
-0.113899	
-0.115623	
-0.131831	
-0.132305	
-0.148037	
-0.179673	
-0.18131	
-0.167552	
-0.171755	
-0.197121	
-0.190927	
-0.204332	
-0.201877	
-0.205205	
-0.202676	
-0.213703	
-0.20932	
-0.0445617	
-0.00146152	
-0.0184028	
-0.207639	
-0.200735	
-0.218711	
-0.213985	
-0.218137	
-0.211816	
-0.21025	
0.00775732	
-0.00472174	
-0.160567	
-0.152353	
-0.145014	
-0.221228	
-0.223921	
-0.226232	
-0.130223	
-0.115532	
-0.119258	
-0.108239	
-0.224537	
-0.222804	
-0.221512	
-0.2235	
-0.223744	
-0.0890526	
-0.13841	
-0.154102	
-0.134136	
-0.158112	
0.0438872	
0.0504828	
-0.0336937	
-0.0322342	
0.0102053	
-0.00884063	
0.00926304	
0.0431233	
0.0501807	
-0.0279955	
-0.0716317	
-0.0255717	
-0.0639463	
-0.108596	
-0.120543	
-0.141204	
-0.137312	
-0.150437	
-0.155236	
-0.174664	
-0.17653	
0.00295591	
-0.000174454	
-0.223517	
-0.217765	
-0.0118614	
0.00792128	
-0.199677	
-0.00526946	
0.0383755	
-0.189926	
0.0112891	
-0.228327	
-0.204377	
0.00118872	
0.0116659	
0.0194344	
-0.148274	
-0.139953	
-0.210094	
-0.21535	
-0.216547	
-0.215659	
-0.221004	
-0.222472	
-0.154963	
-0.167829	
-0.0949702	
-0.0864684	
-0.0952574	
-0.203808	
-0.17987	
-0.180406	
-0.182001	
-0.0769561	
-0.10096	
-0.109105	
-0.12392	
0.00794083	
0.0292224	
0.0491902	
-0.00639543	
0.0402125	
0.0508095	
0.0358994	
0.00609774	
-0.210212	
-0.223138	
-0.220017	
-0.22332	
0.0414638	
-0.219397	
-0.21689	
-0.105176	
-0.0898357	
-0.10035	
0.0381212	
0.0478982	
-0.21216	
-0.213676	
-0.214915	
-0.196097	
0.0198523	
-0.199874	
-0.194239	
-0.189276	
0.0425643	
0.0449903	
0.0503285	
-0.146534	
-0.136199	
-0.129616	
-0.115706	
-0.222774	
-0.223816	
-0.22499	
0.0493133	
0.0395967	
0.0447979	
0.0160639	
-0.210148	
-0.20837	
-0.206748	
-0.110118	
-0.110122	
0.0495868	
0.0418456	
-0.221011	
-0.216345	
-0.215024	
-0.116843	
-0.108335	
-0.215404	
-0.218694	
-0.180243	
-0.00243408	
0.000648308	
-0.0295017	
-0.0276366	
0.0499859	
0.0453781	
-0.0433855	
-0.0506843	
-0.0675041	
-0.0678704	
-0.227166	
-0.226298	
-0.223652	
-0.227183	
-0.0673506	
-0.0615292	
-0.0734093	
-0.0785211	
-0.0946251	
0.0467163	
0.0401278	
0.0383794	
-0.14864	
-0.156406	
-0.137497	
-0.154683	
0.0492275	
-0.085917	
-0.0865647	
-0.0730063	
-0.225859	
-0.227312	
-0.192887	
-0.198355	
-0.0628056	
-0.0787551	
-0.198534	
-0.190703	
0.00715281	
0.0120576	
-0.173367	
-0.190826	
-0.183634	
-0.136426	
-0.152373	
-0.127988	
-0.140161	
-0.0111448	
-0.051377	
-0.0175454	
-0.0122376	
-0.0503349	
-0.0362148	
-0.225813	
-0.225917	
-0.226007	
-0.226834	
-0.005085	
-0.0107587	
0.0399863	
-0.175404	
-0.160899	
-0.214137	
-0.209942	
-0.127986	
-0.123877	
-0.0942663	
-0.0815013	
-0.220874	
-0.216857	
-0.225071	
-0.223647	
-0.219773	
-0.215085	
-0.111709	
-0.114855	
-0.0930945	
-0.0965271	
-0.17442	
-0.185721	
-0.125205	
-0.136169	
-0.151656	
-0.152682	
-0.224143	
-0.224854	
-0.224348	
-0.223634	
-0.197722	
-0.206696	
-0.214648	
-0.211084	
-0.216056	
-0.19331	
-0.184949	
-0.198803	
-0.201979	
-0.00147661	
0.0323813	
0.0480816	
-0.205457	
-0.20448	
-0.0452323	
-0.0322185	
-0.0709425	
-0.164106	
-0.175169	
-0.163295	
-0.185551	
-0.183302	
-0.186544	
-0.190336	
-0.192945	
-0.226885	
-0.225041	
-0.224213	
-0.220287	
-0.206806	
-0.194053	
-0.202031	
-0.213927	
0.036031	
-0.0105787	
0.0451309	
0.028847	
-0.160414	
-0.179698	
-0.17578	
-0.16751	
-0.177421	
0.00262285	
0.0453138	
0.0417928	
0.00130985	
0.0489905	
0.0354808	
-0.201837	
-0.205935	
-0.205882	
-0.2112	
0.0465148	
0.0312278	
-0.162207	
-0.184882	
-0.167911	
-0.187913	
-0.180381	
-0.190095	
-0.198722	
-0.17098	
-0.166307	
-0.178096	
-0.0808037	
-0.0845697	
-0.0969816	
-0.106106	
-0.222256	
-0.219438	
-0.222032	
-0.168204	
-0.159195	
-0.218069	
-0.216017	
-0.208678	
-0.21007	
-0.143449	
-0.156933	
-0.152711	
-0.165125	
-0.054596	
-0.0738685	
-0.214301	
-0.216567	
-0.223407	
-0.225556	
-0.0392085	
-0.0497259	
-0.0565603	
-0.0631752	
-0.177479	
-0.169305	
-0.164884	
-0.161737	
-0.0749796	
-0.0936695	
-0.101296	
-0.115714	
-0.193483	
-0.202084	
-0.202197	
-0.209078	
-0.102951	
-0.0964265	
-0.131171	
-0.12499	
-0.17422	
-0.166353	
-0.0336442	
-0.0147641	
-0.0532683	
-0.040537	
-0.188985	
-0.186524	
-0.226155	
-0.226544	
-0.225111	
-0.228177	
-0.220088	
-0.219431	
-0.0926236	
-0.10365	
-0.12651	
-0.134012	
-0.00283838	
0.00681398	
0.0437399	
0.0415581	
-0.131296	
-0.104243	
-0.123154	
-0.0943559	
-0.0113679	
-0.0056316	
-0.00844811	
-0.00225502	
0.000885907	
0.0111053	
0.0177933	
0.0206691	
0.0140982	
-0.0102756	
-0.00303196	
0.00446048	
0.000505364	
0.00685818	
0.0170068	
0.021258	
0.0084466	
0.0127557	
0.00473784	
-0.00675869	
0.00566396	
-0.00802778	
-0.0119404	
-0.00149662	
-0.019417	
-0.0198471	
-0.0159125	
-0.0212108	
-0.0170498	
0.0148511	
0.0125609	
-6.56815e-06	
0.0058219	
-0.00486746	
-0.0168197	
-0.0158406	
-0.0148228	
-0.0127084	
-0.00849331	
0.0176585	
0.162579	
0.147041	
0.156753	
0.0400011	
0.0876169	
0.0436743	
0.13092	
0.0925476	
0.0920532	
0.0925728	
0.0926664	
0.0586698	
0.0373736	
0.0914062	
0.085998	
0.0829602	
0.0500085	
0.0901129	
0.0774972	
0.142984	
0.138739	
0.104474	
0.128427	
0.138346	
0.120317	
0.127371	
0.107496	
0.0914906	
0.139775	
0.1373	
0.11657	
0.137616	
0.149364	
0.0967433	
0.0959869	
0.137082	
0.139981	
0.110919	
0.12016	
0.107018	
0.115661	
0.121972	
0.120788	
0.133587	
0.133388	
0.116118	
0.13988	
0.103692	
0.101492	
0.107678	
0.14039	
0.134141	
0.137111	
0.131868	
0.133018	
0.144469	
0.120105	
0.120049	
0.117563	
0.0978939	
0.0694669	
0.100337	
0.1331	
0.131421	
0.127308	
0.126275	
0.150309	
0.152914	
0.156015	
0.0883908	
0.0482984	
0.129765	
0.12964	
0.125903	
0.124519	
0.118005	
0.1141	
0.122432	
0.121824	
0.123313	
0.128719	
0.126833	
0.127617	
0.130884	
0.125341	
0.125782	
0.116982	
0.112195	
0.0982154	
0.0897742	
0.100667	
0.0920794	
0.138829	
0.143157	
0.136913	
0.138389	
0.10138	
0.0956913	
0.113524	
0.145097	
0.147606	
0.126758	
0.128563	
0.110111	
0.128028	
0.135077	
0.0986427	
0.0902133	
0.101353	
0.100172	
0.111053	
0.103461	
0.101083	
0.104369	
0.154288	
0.163078	
0.145852	
0.140002	
0.1377	
0.0596085	
0.0464283	
0.0954457	
0.107729	
0.0715362	
0.080335	
0.128702	
0.123068	
0.0652603	
0.0501019	
0.0954739	
0.0964424	
0.099301	
0.100177	
0.0888457	
0.151376	
0.148174	
0.114871	
0.106155	
0.113847	
0.110489	
0.101448	
0.111784	
0.110929	
0.108833	
0.107775	
0.0677694	
0.164073	
0.156704	
0.149282	
0.153966	
0.138304	
0.131987	
0.128482	
0.126939	
0.0843331	
0.0711281	
0.118007	
0.124655	
0.118261	
0.125174	
0.115858	
0.118685	
0.1244	
0.116773	
0.125112	
0.0715044	
0.110409	
0.112895	
0.110277	
0.152596	
0.150027	
0.150286	
0.148354	
0.150384	
0.153637	
0.121805	
0.123605	
0.117808	
0.121268	
0.158781	
0.150866	
0.154006	
0.131287	
0.12703	
0.133345	
0.0475571	
0.0794883	
0.0706835	
0.0779674	
0.165066	
0.162375	
0.11931	
0.115058	
0.158051	
0.131933	
0.132024	
0.128802	
0.110067	
0.113371	
0.130903	
0.136094	
0.133325	
0.136648	
0.145668	
0.147461	
0.142882	
0.14418	
0.142359	
0.145933	
0.148284	
0.136057	
0.130234	
0.136983	
0.101094	
0.0993138	
0.114729	
0.114053	
0.118846	
0.117987	
0.0812312	
0.0695194	
0.0827626	
0.0736049	
0.0944505	
0.1198	
0.116415	
0.113555	
0.111868	
0.111849	
0.106473	
0.108104	
0.104199	
0.14824	
0.145356	
0.121145	
0.118619	
0.116984	
0.137151	
0.137793	
0.133245	
0.134747	
0.0770806	
0.0737398	
0.159903	
0.0794989	
0.0814572	
0.0879192	
0.148964	
0.1447	
0.144491	
0.0721493	
0.065977	
0.114632	
0.110574	
0.116565	
0.113783	
0.142021	
0.142787	
0.137969	
0.138827	
0.131557	
0.13156	
0.127369	
0.127333	
0.152225	
0.153151	
0.149049	
0.150907	
0.107185	
0.149125	
0.150748	
0.148004	
0.133631	
0.12865	
0.125504	
0.0926213	
0.107818	
0.106593	
0.149622	
0.148763	
0.135516	
0.129862	
0.131325	
0.134775	
0.137069	
0.133508	
0.125903	
0.130606	
0.132397	
0.150805	
0.153877	
0.152211	
0.149336	
0.151833	
0.147638	
0.125304	
0.12075	
0.124964	
0.120919	
0.135957	
0.132878	
0.130591	
0.0967584	
0.124918	
0.122537	
0.116913	
0.0632381	
0.0647629	
0.0705125	
0.0732018	
0.140575	
0.112651	
0.112964	
0.118263	
0.123732	
0.126674	
0.131271	
0.139101	
0.139488	
0.136222	
0.136524	
0.103358	
0.106832	
0.107187	
0.109314	
0.102904	
0.107595	
0.115861	
0.11793	
0.114632	
0.153865	
0.151645	
0.157941	
0.107703	
0.111959	
0.106022	
0.110388	
0.12609	
0.132355	
0.135645	
0.0958251	
0.151686	
0.154009	
0.0394057	
0.0494958	
0.0624976	
0.0418603	
0.115201	
0.10966	
0.117571	
0.0985008	
0.101967	
0.14099	
0.14384	
0.140815	
0.130145	
0.134637	
0.13144	
0.1199	
0.115526	
0.100771	
0.103513	
0.103536	
0.107593	
0.107345	
0.116561	
0.110101	
0.114147	
0.116481	
0.121096	
0.123021	
0.143392	
0.140343	
0.13395	
0.13087	
0.114885	
0.107824	
0.161734	
0.151894	
0.158635	
0.160236	
0.155778	
0.164266	
0.158252	
0.166135	
0.163438	
0.164058	
0.160368	
0.143417	
0.144862	
0.145394	
0.147036	
0.139539	
0.140756	
0.141862	
0.143018	
0.132507	
0.135215	
0.136056	
0.137224	
0.155529	
0.133521	
0.13111	
0.126274	
0.124633	
0.161132	
0.14924	
0.152854	
0.101545	
0.1025	
0.103871	
0.108557	
0.104496	
0.105846	
0.107205	
0.111638	
0.144875	
0.151154	
0.14157	
0.096666	
0.0987069	
0.0958606	
0.0983239	
0.13211	
0.129039	
0.141978	
0.138683	
0.141213	
0.136786	
0.13761	
0.13168	
0.136059	
0.133052	
0.126757	
0.120908	
0.128318	
0.122605	
0.106341	
0.103928	
0.116433	
0.113834	
0.126489	
0.123494	
0.128142	
0.123437	
0.155423	
0.155142	
0.159638	
0.109214	
0.107901	
0.104514	
0.10229	
0.0999586	
0.0996263	
0.101428	
0.10236	
0.0979563	
0.0953891	
0.139434	
0.129924	
0.136317	
0.134407	
0.155292	
0.155282	
0.102441	
0.105626	
0.111193	
0.10941	
0.116415	
0.107278	
0.109853	
0.114907	
0.128823	
0.108239	
0.0992191	
0.0841106	
0.121504	
0.125635	
0.0864839	
0.103671	
0.144767	
0.143469	
0.141942	
0.139908	
0.115776	
0.113997	
0.0903821	
0.0988549	
0.103262	
0.10246	
0.0994355	
0.0963628	
0.0959868	
0.0982694	
0.0981925	
0.0751041	
0.0916525	
0.10373	
0.156595	
0.151864	
0.15844	
0.156705	
0.142561	
0.145673	
0.141875	
0.144396	
0.146014	
0.146529	
0.148576	
0.103748	
0.136918	
0.131749	
0.134077	
0.109562	
0.152527	
0.147632	
0.153965	
0.141758	
0.141975	
0.151785	
0.148832	
0.153839	
0.112527	
0.0596205	
0.058467	
0.0503853	
0.04197	
0.133081	
0.135975	
0.16322	
0.159203	
0.0654799	
0.0650411	
0.0720899	
0.0638386	
0.0933493	
0.116016	
0.123391	
0.122299	
0.119568	
0.121572	
0.125129	
0.119656	
0.123899	
0.118849	
0.123365	
0.0876547	
0.094484	
0.0816399	
0.0940197	
0.116969	
0.11255	
0.117001	
0.143025	
0.140011	
0.157395	
0.156832	
0.152453	
0.153568	
0.110058	
0.105192	
0.101581	
0.0997614	
0.127343	
0.124281	
0.12081	
0.120456	
0.119369	
0.118554	
0.124146	
0.123695	
0.144167	
0.156275	
0.154686	
0.157154	
0.150932	
0.153371	
0.159252	
0.159061	
0.145483	
0.140912	
0.134112	
0.130994	
0.146464	
0.149422	
0.136763	
0.1408	
0.135149	
0.137964	
0.0940231	
0.0927707	
0.0962294	
0.0854388	
0.126541	
0.121023	
0.162248	
0.157815	
0.155479	
0.15491	
0.158122	
0.159144	
0.165345	
0.159034	
0.162405	
0.142802	
0.147299	
0.144261	
0.147888	
0.144481	
0.080649	
0.0484412	
0.0401612	
0.123546	
0.119365	
0.109778	
0.112707	
0.103563	
0.108034	
0.101306	
0.0980089	
0.101686	
0.0906357	
0.15957	
0.163025	
0.0860092	
0.0779614	
0.0787549	
0.081369	
0.0854191	
0.0910428	
0.086419	
0.089166	
0.0900384	
0.0929154	
0.0502546	
0.0621337	
0.0386272	
0.102569	
0.0938694	
0.0940939	
0.0897913	
0.0936952	
0.0852168	
0.0876887	
0.0896776	
0.14822	
0.111982	
0.109201	
0.108325	
0.105207	
0.147679	
0.1452	
0.14553	
0.142615	
0.0614446	
0.0483887	
0.0942093	
0.0904571	
0.0856402	
0.0841998	
0.0829247	
0.0949568	
0.0947704	
0.0969814	
0.126901	
0.122238	
0.122451	
0.093516	
0.0880384	
0.08388	
0.152218	
0.101369	
0.0906049	
0.104169	
0.0991565	
0.140845	
0.141502	
0.143246	
0.145312	
0.0665993	
0.0769402	
0.0719936	
0.0783834	
0.126258	
0.128766	
0.0594746	
0.0498856	
0.0571834	
0.039727	
0.144343	
0.145342	
0.147291	
0.14918	
0.100488	
0.102649	
0.104107	
0.105897	
0.152975	
0.157643	
0.153426	
0.156243	
0.143236	
0.138133	
0.157657	
0.161879	
0.158143	
0.161615	
0.166686	
0.111296	
0.111141	
0.103986	
0.0951464	
0.0727015	
0.0720424	
0.0918851	
0.0899351	
0.110672	
0.108035	
0.107742	
0.104114	
0.114624	
0.111577	
0.099579	
0.105758	
0.106299	
0.103753	
0.102683	
0.153077	
0.156832	
0.149497	
0.150517	
0.110641	
0.10377	
0.105816	
0.0942691	
0.107478	
0.10484	
0.0505555	
0.0511619	
0.0405782	
0.0507886	
0.052457	
-0.225349	
-0.223172	
0.0511511	
0.0430742	
0.0381248	
-0.0400269	
-0.197825	
0.0522692	
0.0516524	
-0.0715552	
-0.0759827	
-0.152795	
0.0495913	
-0.0811843	
0.0483821	
0.0476819	
-0.223621	
-0.0906505	
-0.072152	
-0.109579	
-0.0255214	
-0.0402569	
0.0301637	
0.00639429	
-0.192069	
-0.190597	
-0.158754	
-0.0591444	
-0.213304	
-0.182716	
-0.0611084	
-0.0791584	
-0.0418879	
-0.172856	
-0.171654	
-0.194296	
-0.208342	
-0.219423	
-0.202832	
0.00632375	
-0.0158844	
-0.123907	
-0.160706	
-0.167339	
-0.164377	
-0.137062	
-0.139945	
-0.120944	
-0.101236	
-0.0749063	
-0.18747	
-0.0957845	
-0.0723201	
-0.0775604	
-0.0939926	
-0.0701524	
-0.0920047	
-0.0666772	
-0.0784398	
-0.21273	
-0.189967	
-0.106661	
-0.13741	
-0.198718	
-0.0472239	
-0.156791	
-0.0762201	
-0.0552695	
-0.115857	
-0.129908	
-0.201572	
-0.226403	
0.047725	
0.038278	
-0.0033469	
-0.146339	
-0.0402585	
-0.0319029	
-0.172763	
-0.188152	
-0.169421	
-0.201552	
-0.189169	
-0.128982	
-0.134213	
-0.184014	
-0.19639	
-0.175896	
-0.016351	
-0.2005	
-0.00389576	
0.00144966	
-0.0480197	
-0.0405761	
-0.155631	
-0.114979	
-0.13917	
-0.199936	
-0.0736484	
-0.100784	
-0.124827	
-0.111096	
-0.132858	
-0.0578291	
-0.191107	
-0.173116	
-0.176544	
-0.150727	
-0.156277	
-0.165433	
-0.0601176	
-0.182337	
-0.0257699	
-0.0414528	
-0.0925856	
-0.205699	
-0.199362	
-0.206329	
-0.219577	
-0.145865	
-0.147051	
-0.213049	
-0.206016	
-0.130446	
0.0425972	
0.00926219	
-0.211658	
-0.211792	
-0.226262	
-0.203676	
-0.137346	
-0.136398	
0.043076	
0.0129275	
-0.21563	
-0.221697	
-0.219945	
0.037855	
0.0479667	
-0.0899787	
-0.114311	
-0.045628	
-0.0354024	
-0.0515959	
-0.167864	
-0.138272	
-0.104136	
-0.128883	
-0.131604	
-0.131887	
-0.0911894	
0.0474965	
-0.127075	
-0.129049	
-0.223837	
-0.225029	
-0.100939	
-0.0453776	
-0.183905	
-0.162755	
-0.161749	
-0.108243	
-0.132164	
-0.122495	
-0.138381	
0.0367678	
-0.194581	
-0.0655263	
-0.118256	
-0.184281	
-0.145214	
-0.158657	
-0.178986	
-0.184952	
-0.224288	
-0.185515	
-0.185479	
-0.168275	
-0.166459	
0.00173774	
-0.160118	
-0.152544	
-0.135444	
-0.0603893	
-0.0606329	
-0.0811169	
-0.00684486	
-0.0199571	
-0.0900742	
-0.0669489	
-0.096948	
-0.162504	
-0.067674	
-0.227208	
-0.225767	
-0.222346	
-0.0337149	
-0.201543	
-0.194007	
-0.194024	
-0.146458	
-0.179163	
-0.145765	
-0.158046	
-0.125855	
-0.0980397	
-0.217018	
-0.218494	
-0.153269	
-0.146774	
-0.138127	
-0.134252	
-0.0937239	
-0.188123	
-0.205298	
-0.212998	
-0.124099	
-0.0944225	
-0.125221	
0.0304618	
0.0041903	
-0.0513694	
-0.0397158	
0.00213925	
-0.0139128	
-0.181472	
-0.190629	
-0.0724845	
-0.0443537	
-0.0613785	
-0.0427638	
-0.0611899	
-0.04595	
-0.0632095	
-0.204117	
-0.20718	
-0.215065	
-0.222	
-0.226295	
-0.0105153	
-0.0647265	
-0.0230213	
-0.0678541	
-0.0958645	
-0.113741	
-0.183955	
-0.133879	
-0.0946438	
-0.119521	
-0.179219	
-0.170932	
-0.143097	
-0.117538	
-0.137808	
-0.0170611	
-0.0118532	
-0.0350692	
-0.0322863	
-0.0854544	
-0.134128	
-0.078119	
-0.052347	
-0.157438	
-0.132416	
-0.151741	
-0.136141	
-0.192388	
-0.176218	
-0.188165	
-0.176944	
-0.0901002	
-0.210919	
-0.199699	
-0.215592	
-0.206837	
-0.0971634	
-0.0846955	
-0.132456	
-0.153115	
-0.0696529	
-0.0393102	
-0.0817477	
-0.0488444	
-0.150638	
-0.165341	
-0.0480108	
-0.0350939	
-0.00780931	
-0.182413	
-0.186201	
-0.171351	
-0.174249	
-0.039459	
-0.0422165	
-0.173597	
-0.167483	
-0.116762	
-0.102227	
-0.124851	
-0.123872	
-0.10786	
-0.168574	
-0.148802	
-0.167263	
-0.156394	
-0.00669224	
0.0131426	
-0.218943	
-0.213398	
-0.0934404	
-0.0793963	
-0.105851	
-0.0944954	
-0.116011	
-0.105365	
-0.150034	
-0.167967	
-0.153066	
-0.194235	
-0.200634	
-0.189805	
-0.0953995	
-0.104387	
-0.0855956	
-0.0605304	
-0.0715761	
-0.0266933	
-0.0207217	
0.00309028	
-0.0118301	
0.0111037	
-0.0272644	
-0.00146844	
-0.0255585	
-0.0325546	
-0.026993	
-0.00710092	
-0.0656822	
-0.0422513	
-0.0733579	
-0.0502941	
-0.0948699	
-0.0259596	
-0.0418173	
-0.00804657	
-0.0312041	
-0.108255	
-0.0781287	
-0.0957724	
-0.0768169	
-0.00410649	
-0.032178	
-0.0267016	
-0.0424752	
-0.113971	
-0.133137	
-0.130375	
-0.147932	
-0.146172	
-0.148125	
-0.115706	
-0.112883	
-0.161448	
-0.171577	
-0.179454	
-0.181152	
-0.187934	
-0.196635	
-0.201419	
-0.203809	
-0.202258	
-0.204836	
-0.208767	
-0.214487	
-0.00145654	
-0.0184053	
-0.044564	
-0.209851	
-0.200784	
-0.213819	
-0.216436	
-0.217008	
-0.212609	
-0.212009	
-0.00473708	
0.0077507	
-0.160864	
-0.16089	
-0.142158	
-0.223681	
-0.225831	
-0.126429	
-0.130367	
-0.108208	
-0.109781	
-0.223323	
-0.221911	
-0.223095	
-0.223762	
-0.223524	
-0.0769464	
-0.154048	
-0.138387	
-0.158031	
-0.144768	
0.0504317	
0.0438893	
-0.03361	
0.01012	
-0.0061136	
-0.00872665	
0.00937645	
0.04973	
0.043008	
-0.0552112	
-0.0279418	
-0.0638831	
-0.0434469	
-0.108376	
-0.120381	
-0.133856	
-0.141562	
-0.150258	
-0.151462	
-0.174722	
-0.176515	
-0.000349427	
0.00281078	
-0.222323	
-0.216833	
-0.0119796	
0.00782973	
-0.00754327	
0.0117779	
0.038338	
-0.00288738	
-0.224308	
-0.190719	
-0.200832	
-0.204829	
-0.00629177	
0.0159788	
-0.191003	
-0.196082	
0.0193373	
-0.147668	
-0.147872	
-0.214738	
-0.207709	
-0.215734	
-0.221007	
-0.213803	
-0.222468	
-0.155187	
-0.168765	
-0.0951753	
-0.0954926	
-0.0866702	
-0.205763	
-0.180438	
-0.175398	
-0.0817825	
-0.0890505	
-0.121814	
-0.109101	
0.0101796	
0.0493971	
0.029331	
0.0405304	
0.00131798	
0.036	
0.0508766	
0.00611386	
-0.180373	
-0.185995	
-0.18373	
-0.222607	
-0.223318	
-0.220083	
0.0399915	
-0.218847	
-0.216099	
-0.0899343	
-0.10528	
-0.100433	
0.0495834	
0.0391079	
-0.212944	
-0.211498	
-0.21782	
0.0197536	
0.0449485	
0.0424873	
0.043771	
-0.129773	
-0.119658	
-0.146702	
-0.148899	
-0.221768	
-0.225724	
-0.223767	
0.0394934	
0.0495008	
0.0114248	
0.0447817	
-0.197128	
-0.193965	
-0.110379	
-0.110385	
0.0473513	
0.0425071	
0.0423836	
-0.214348	
-0.201408	
-0.219105	
-0.215674	
-0.194094	
-0.189925	
-0.20417	
-0.196222	
-0.117137	
-0.108581	
-0.215264	
-0.218144	
-0.180217	
0.000709995	
-0.00238003	
-0.0275703	
-0.0294433	