<VTKFile type="UnstructuredGrid" version="0.1" byte_order="LittleEndian">
	<UnstructuredGrid>
		<Piece NumberOfPoints="1647" NumberOfCells="3046">
			<CellData Scalars="scalars">
				<DataArray type="Float64" Name="Doublet Strengths" NumberOfComponents="1" Format="ascii">
0.288023	
0.245614	
0.271451	
0.0577236	
0.0968247	
0.113921	
0.112263	
0.112793	
0.0592096	
0.0565022	
0.109031	
0.0997963	
0.0548515	
0.106636	
0.112029	
0.0862906	
0.22917	
0.109269	
0.275676	
0.204559	
0.22471	
0.142551	
0.19648	
0.223688	
0.177725	
0.196966	
0.149033	
0.182069	
0.12543	
0.220027	
0.224052	
0.169562	
0.222345	
0.24902	
0.126418	
0.220748	
0.223314	
0.157184	
0.17818	
0.155875	
0.169382	
0.181511	
0.178957	
0.205994	
0.210293	
0.176032	
0.223346	
0.145748	
0.143815	
0.158567	
0.240487	
0.229521	
0.216697	
0.209795	
0.214261	
0.204366	
0.237931	
0.162974	
0.178525	
0.179576	
0.175811	
0.142277	
0.0995467	
0.131212	
0.194458	
0.196609	
0.201346	
0.204334	
0.262582	
0.265554	
0.255988	
0.112985	
0.0520412	
0.190759	
0.192801	
0.199655	
0.20441	
0.185527	
0.172467	
0.17525	
0.165847	
0.1931	
0.184709	
0.192715	
0.189307	
0.196132	
0.194494	
0.202086	
0.172589	
0.16098	
0.104499	
0.118531	
0.125457	
0.219476	
0.230161	
0.224668	
0.233614	
0.117415	
0.126752	
0.164778	
0.238958	
0.242273	
0.254821	
0.207018	
0.195328	
0.197139	
0.1532	
0.221847	
0.107402	
0.120645	
0.12938	
0.140822	
0.138151	
0.14863	
0.132984	
0.132084	
0.259064	
0.270422	
0.228841	
0.244215	
0.222261	
0.0548291	
0.148846	
0.090773	
0.0794763	
0.0858318	
0.187767	
0.205824	
0.0970084	
0.0729376	
0.138931	
0.139501	
0.131887	
0.132552	
0.104842	
0.254704	
0.244643	
0.163623	
0.148824	
0.165958	
0.152131	
0.113813	
0.149935	
0.152429	
0.159963	
0.158839	
0.119085	
0.106198	
0.287196	
0.272919	
0.251515	
0.265662	
0.226289	
0.196828	
0.197216	
0.204552	
0.0992701	
0.0790376	
0.26886	
0.189965	
0.178975	
0.187605	
0.174993	
0.184423	
0.169201	
0.191268	
0.192631	
0.18436	
0.092197	
0.162945	
0.145193	
0.15662	
0.255037	
0.262306	
0.268659	
0.252015	
0.263001	
0.247145	
0.171938	
0.179857	
0.181249	
0.185164	
0.264555	
0.258185	
0.250771	
0.212117	
0.194364	
0.0597182	
0.0755059	
0.0979357	
0.0992516	
0.0929086	
0.289697	
0.284439	
0.178871	
0.168371	
0.263753	
0.207858	
0.204448	
0.192509	
0.162806	
0.163731	
0.207238	
0.202278	
0.218488	
0.207692	
0.247469	
0.241895	
0.237343	
0.231874	
0.235608	
0.251276	
0.242893	
0.243109	
0.209161	
0.218479	
0.221015	
0.146529	
0.146572	
0.164339	
0.166297	
0.174492	
0.181575	
0.104449	
0.110016	
0.0968256	
0.109856	
0.117041	
0.170909	
0.174926	
0.159496	
0.156863	
0.155908	
0.159211	
0.139278	
0.149481	
0.245335	
0.238804	
0.169868	
0.171754	
0.180392	
0.20664	
0.212978	
0.219385	
0.220739	
0.0886696	
0.0921246	
0.105796	
0.105936	
0.118407	
0.227647	
0.229955	
0.238111	
0.0958533	
0.10645	
0.156049	
0.165665	
0.154835	
0.170097	
0.215188	
0.219627	
0.22697	
0.231736	
0.191638	
0.196228	
0.20633	
0.211103	
0.249192	
0.256057	
0.259605	
0.26245	
0.147417	
0.109345	
0.255255	
0.245577	
0.256144	
0.212456	
0.19729	
0.20039	
0.113967	
0.154438	
0.153136	
0.25148	
0.25199	
0.21579	
0.205115	
0.202091	
0.215267	
0.204632	
0.210242	
0.20467	
0.203984	
0.189284	
0.193852	
0.257417	
0.26795	
0.249646	
0.245826	
0.257034	
0.249808	
0.287178	
0.18127	
0.196536	
0.176782	
0.191034	
0.209727	
0.217609	
0.20428	
0.126491	
0.181445	
0.188748	
0.172351	
0.175532	
0.0814371	
0.0873183	
0.0909744	
0.231317	
0.161745	
0.161241	
0.173398	
0.194499	
0.190768	
0.205088	
0.281477	
0.269031	
0.275361	
0.216495	
0.217039	
0.223947	
0.22816	
0.142758	
0.153743	
0.154167	
0.141971	
0.150816	
0.14422	
0.173638	
0.165941	
0.168647	
0.265649	
0.258313	
0.252973	
0.160194	
0.148358	
0.164527	
0.145778	
0.217056	
0.208815	
0.265252	
0.259075	
0.119127	
0.0735868	
0.0587327	
0.0819858	
0.0538656	
0.166722	
0.158841	
0.141331	
0.141006	
0.228108	
0.224642	
0.235679	
0.207819	
0.200131	
0.21231	
0.180263	
0.169684	
0.13796	
0.131225	
0.148791	
0.138423	
0.164562	
0.155156	
0.157449	
0.169809	
0.169909	
0.179591	
0.179815	
0.229459	
0.237515	
0.205617	
0.213313	
0.172508	
0.149677	
0.166159	
0.284955	
0.287877	
0.27535	
0.281813	
0.243215	
0.278526	
0.275115	
0.285623	
0.280793	
0.268442	
0.276661	
0.279745	
0.276904	
0.238101	
0.234103	
0.243285	
0.239088	
0.231384	
0.228503	
0.217476	
0.222724	
0.209306	
0.2145	
0.2698	
0.199264	
0.199064	
0.189122	
0.187415	
0.235492	
0.2385	
0.137572	
0.135872	
0.146571	
0.149325	
0.14457	
0.14163	
0.154287	
0.156275	
0.222291	
0.224799	
0.129298	
0.117325	
0.128999	
0.122217	
0.199337	
0.209673	
0.223422	
0.23444	
0.218781	
0.222968	
0.219221	
0.208187	
0.215776	
0.184212	
0.192769	
0.183519	
0.191905	
0.138999	
0.144278	
0.138871	
0.164069	
0.174458	
0.185694	
0.197533	
0.185158	
0.190589	
0.274856	
0.271237	
0.259315	
0.263348	
0.152274	
0.139953	
0.140221	
0.133393	
0.133483	
0.146181	
0.139453	
0.131355	
0.209167	
0.202079	
0.215428	
0.212637	
0.272626	
0.142263	
0.149288	
0.153219	
0.157492	
0.174364	
0.16421	
0.218627	
0.210424	
0.261074	
0.248715	
0.154315	
0.067452	
0.172703	
0.156926	
0.198036	
0.164092	
0.191852	
0.183232	
0.121445	
0.132636	
0.165976	
0.227024	
0.231343	
0.235229	
0.23739	
0.122022	
0.170725	
0.168297	
0.10434	
0.121447	
0.124102	
0.132425	
0.11109	
0.124307	
0.127014	
0.136809	
0.137398	
0.266269	
0.273424	
0.272988	
0.277007	
0.238405	
0.226233	
0.228554	
0.0771434	
0.0822408	
0.0736507	
0.0704929	
0.244594	
0.245672	
0.234558	
0.239355	
0.23658	
0.234784	
0.132745	
0.204405	
0.209861	
0.216761	
0.0613681	
0.0612839	
0.0736397	
0.0742024	
0.159816	
0.265549	
0.250651	
0.253328	
0.163547	
0.214902	
0.207922	
0.277043	
0.283387	
0.183723	
0.184823	
0.169806	
0.174091	
0.25501	
0.262877	
0.255422	
0.262518	
0.177124	
0.18945	
0.181522	
0.179252	
0.192535	
0.180493	
0.188615	
0.146289	
0.128929	
0.1401	
0.115784	
0.160628	
0.172195	
0.172234	
0.226303	
0.233934	
0.260904	
0.263314	
0.267833	
0.27139	
0.156676	
0.160174	
0.147028	
0.149098	
0.181741	
0.18092	
0.192923	
0.190061	
0.194044	
0.188479	
0.177865	
0.169967	
0.244218	
0.23168	
0.244752	
0.238256	
0.241959	
0.282108	
0.289391	
0.274721	
0.277683	
0.256337	
0.250862	
0.221087	
0.229658	
0.20261	
0.211134	
0.117525	
0.0992811	
0.122718	
0.10984	
0.180518	
0.188279	
0.283842	
0.276958	
0.283958	
0.277962	
0.268486	
0.279928	
0.270891	
0.263062	
0.267941	
0.261665	
0.248314	
0.24664	
0.238575	
0.159872	
0.145335	
0.148314	
0.133644	
0.105728	
0.0980543	
0.0854187	
0.0716106	
0.11145	
0.12439	
0.111718	
0.0987731	
0.0935604	
0.131184	
0.122944	
0.142891	
0.0543626	
0.0696198	
0.0866818	
0.1279	
0.118234	
0.126234	
0.127764	
0.115551	
0.12013	
0.142132	
0.23583	
0.235584	
0.249364	
0.248818	
0.0868587	
0.0686181	
0.125116	
0.117743	
0.132419	
0.12142	
0.128203	
0.120113	
0.132712	
0.115416	
0.128091	
0.219616	
0.215955	
0.210549	
0.120191	
0.113482	
0.114034	
0.110299	
0.0946934	
0.183397	
0.184261	
0.19381	
0.116558	
0.132608	
0.124226	
0.135209	
0.122498	
0.127465	
0.109055	
0.198972	
0.200971	
0.236293	
0.239901	
0.230356	
0.232289	
0.0961933	
0.0903797	
0.108084	
0.0992461	
0.192229	
0.19772	
0.109186	
0.10411	
0.0622895	
0.0527106	
0.0800435	
0.0672556	
0.12758	
0.108755	
0.137866	
0.119836	
0.266182	
0.260006	
0.216981	
0.223848	
0.158699	
0.148098	
0.145301	
0.134249	
0.134107	
0.149177	
0.119952	
0.155471	
0.14319	
0.132586	
0.131655	
0.145048	
0.115469	
0.138649	
0.151151	
0.158997	
0.139915	
0.14912	
0.252349	
0.254997	
0.259563	
0.144106	
0.15138	
0.123739	
0.129633	
0.246634	
0.248849	
0.235955	
0.237642	
0.244781	
0.251989	
0.239234	
0.241303	
0.100593	
0.106128	
0.101204	
0.106613	
0.0312772	
0.0432863	
0.0372314	
0.041814	
0.0451324	
-0.34177	
-0.332061	
0.0402739	
0.0407481	
0.0437084	
0.039895	
0.0362598	
-0.291067	
0.0435005	
-0.087821	
-0.0931727	
-0.227744	
-0.125892	
0.0384841	
0.0372342	
-0.145986	
-0.0876303	
-0.170239	
-0.081886	
-0.0861896	
0.0109026	
-0.0188521	
-0.275117	
-0.280281	
-0.232788	
-0.106132	
-0.320338	
-0.269182	
-0.0885164	
-0.130731	
-0.0779603	
-0.23956	
-0.25338	
-0.26852	
-0.302984	
-0.320543	
-0.28966	
-0.0170756	
-0.0455945	
-0.180516	
-0.231114	
-0.200075	
-0.226698	
-0.222402	
-0.242449	
-0.156228	
-0.177674	
-0.129636	
-0.271566	
-0.150868	
-0.10876	
-0.1159	
-0.127571	
-0.120309	
-0.115647	
-0.147972	
-0.113946	
-0.308982	
-0.264137	
-0.134219	
-0.180468	
-0.282683	
-0.0841768	
-0.218256	
-0.126694	
-0.0997777	
-0.169192	
-0.170343	
-0.283928	
-0.344405	
0.0225778	
0.0215893	
-0.0311055	
-0.209813	
-0.0645647	
-0.0744998	
-0.259896	
-0.237288	
-0.234922	
-0.274493	
-0.292774	
-0.18606	
-0.179872	
-0.280512	
-0.262666	
-0.251861	
-0.0509649	
-0.296739	
-0.0152433	
-0.0573812	
-0.0447499	
-0.0875381	
-0.231691	
-0.160104	
-0.177935	
-0.293524	
-0.116565	
-0.171924	
-0.205393	
-0.158355	
-0.168925	
-0.0709192	
-0.248765	
-0.274553	
-0.220518	
-0.255821	
-0.195915	
-0.214836	
-0.0736441	
-0.103159	
-0.243673	
-0.035675	
-0.0513703	
-0.083785	
-0.159973	
-0.278122	
-0.287216	
-0.303912	
-0.325739	
-0.225874	
-0.217452	
-0.296303	
-0.306979	
-0.164851	
0.0301256	
-0.0128254	
-0.335264	
-0.278055	
-0.189742	
-0.206211	
-0.20365	
0.0300954	
-0.0112259	
-0.315042	
-0.321939	
-0.320766	
0.0256624	
0.0370517	
-0.111035	
-0.142605	
-0.060939	
-0.069308	
-0.0519718	
0.0462196	
-0.248423	
-0.208574	
-0.184891	
-0.192908	
-0.143397	
-0.190329	
-0.13882	
-0.16554	
-0.145798	
-0.166337	
-0.334113	
-0.342852	
-0.130113	
-0.0867153	
-0.240647	
-0.254941	
-0.270293	
-0.200484	
-0.164624	
-0.208698	
-0.187898	
0.020633	
-0.280866	
-0.0991281	
-0.110467	
-0.174731	
-0.244088	
-0.193009	
-0.210938	
-0.23523	
-0.251798	
-0.332156	
-0.235393	
-0.242397	
-0.245571	
-0.25964	
-0.0274261	
-0.231422	
-0.198448	
-0.220717	
-0.101679	
-0.101898	
-0.132226	
-0.127932	
-0.0148226	
-0.0304306	
-0.117363	
-0.0957104	
-0.217379	
-0.1125	
-0.325773	
-0.333251	
-0.0564771	
-0.287525	
-0.277694	
-0.272212	
-0.191557	
-0.236965	
-0.198007	
-0.234919	
-0.192156	
-0.130727	
-0.317302	
-0.311336	
-0.175354	
-0.183367	
-0.206042	
-0.211574	
-0.0902199	
-0.113584	
-0.313849	
-0.301329	
-0.155461	
-0.178413	
0.0108796	
-0.0351938	
-0.0234773	
-0.0772519	
-0.0447212	
-0.0236413	
-0.267573	
-0.2809	
-0.344167	
-0.0997295	
-0.0877825	
-0.0673236	
-0.0682695	
-0.0878289	
-0.0548075	
-0.0841742	
-0.301685	
-0.318697	
-0.306334	
-0.342542	
-0.322032	
-0.0839692	
-0.116624	
-0.112289	
-0.153304	
-0.201277	
-0.245356	
-0.198299	
-0.122464	
-0.123955	
-0.139665	
-0.223987	
-0.236002	
-0.157473	
-0.174998	
-0.15499	
-0.173125	
-0.0212187	
-0.0341347	
-0.0494976	
-0.0626354	
-0.307278	
-0.208471	
-0.139349	
-0.0827464	
-0.11877	
-0.207036	
-0.220813	
-0.192806	
-0.212533	
-0.258803	
-0.267604	
-0.245584	
-0.2607	
-0.309318	
-0.298076	
-0.305626	
-0.290883	
-0.155733	
-0.112022	
-0.201032	
-0.18893	
-0.0766716	
-0.102486	
-0.0762925	
-0.103738	
-0.20823	
-0.215701	
-0.0618818	
-0.0655074	
-0.0290916	
-0.2501	
-0.254692	
-0.265322	
-0.276047	
-0.0588139	
-0.0805855	
-0.226732	
-0.227244	
-0.140538	
-0.173436	
-0.13672	
-0.171082	
-0.241764	
-0.199757	
-0.226502	
0.00179686	
-0.0263262	
-0.314196	
-0.323665	
-0.0973291	
-0.115204	
-0.159103	
-0.145403	
-0.147494	
-0.133041	
-0.237752	
-0.21648	
-0.245973	
-0.283482	
-0.271131	
-0.291654	
-0.1696	
-0.152942	
-0.140576	
-0.101461	
-0.10852	
-0.0395525	
-0.0339639	
-0.0304292	
-0.0130376	
-0.028265	
-0.00940039	
-0.0557983	
-0.0258423	
-0.0568299	
-0.0468773	
-0.0473821	
-0.12097	
-0.111509	
-0.081887	
-0.148006	
-0.0268412	
-0.0546196	
-0.0248206	
-0.0662599	
-0.153121	
-0.128943	
-0.169426	
-0.156301	
-0.0364747	
-0.0339278	
-0.0837337	
-0.0634508	
-0.218276	
-0.221068	
-0.176514	
-0.176101	
-0.168363	
-0.190013	
-0.189029	
-0.210441	
-0.26269	
-0.264655	
-0.246085	
-0.25127	
-0.287558	
-0.279041	
-0.298515	
-0.295051	
-0.298712	
-0.295192	
-0.312126	
-0.305545	
-0.0822918	
-0.0278285	
-0.0493233	
-0.292321	
-0.281422	
-0.313898	
-0.302934	
-0.313393	
-0.29897	
-0.299472	
-0.0142126	
-0.0306705	
-0.207566	
-0.196616	
-0.184518	
-0.333746	
-0.335104	
-0.335658	
-0.16607	
-0.145561	
-0.153054	
-0.137102	
-0.337848	
-0.330135	
-0.323365	
-0.330294	
-0.326134	
-0.138468	
-0.201174	
-0.22166	
-0.195008	
-0.226391	
0.0316344	
0.0420559	
-0.0720034	
-0.0702565	
-0.0146154	
-0.0398553	
-0.0158683	
0.0287714	
0.0402449	
-0.0662549	
-0.122519	
-0.0630063	
-0.112449	
-0.13513	
-0.15087	
-0.182159	
-0.179258	
-0.194755	
-0.202384	
-0.235076	
-0.238725	
-0.00854051	
-0.0111877	
-0.330869	
-0.320692	
-0.0290402	
-0.00593527	
-0.273989	
-0.0247337	
0.0340212	
-0.254993	
-0.00690216	
-0.341854	
-0.283417	
-0.026458	
-0.00257431	
0.0100512	
-0.190042	
-0.177459	
-0.29709	
-0.306379	
-0.308629	
-0.312974	
-0.322848	
-0.325869	
-0.200011	
-0.218425	
-0.127566	
-0.116277	
-0.125412	
-0.281815	
-0.237791	
-0.25965	
-0.262905	
-0.123516	
-0.154338	
-0.163617	
-0.182809	
-0.00825034	
0.00943596	
0.0393181	
-0.0365599	
0.0246114	
0.044126	
0.0225055	
-0.0139699	
-0.294724	
-0.328976	
-0.322109	
-0.329036	
0.0312948	
-0.322616	
-0.318792	
-0.154053	
-0.134523	
-0.148762	
0.0280097	
0.0414124	
-0.310585	
-0.312952	
-0.307623	
-0.267953	
0.00908008	
-0.273838	
-0.264395	
-0.255667	
0.0368197	
0.0412104	
0.043468	
-0.204422	
-0.189676	
-0.183288	
-0.165321	
-0.329115	
-0.331033	
-0.333648	
0.0442134	
0.0304219	
0.0376175	
0.00336611	
-0.295264	
-0.293472	
-0.287521	
-0.143922	
-0.145276	
0.0433123	
0.0270215	
-0.326825	
-0.318527	
-0.31675	
-0.156817	
-0.14547	
-0.314179	
-0.32032	
-0.258264	
-0.0307798	
-0.027131	
-0.0655373	
-0.0633793	
0.045488	
0.0392017	
-0.0730179	
-0.083444	
-0.101907	
-0.103785	
-0.340008	
-0.340399	
-0.330646	
-0.339825	
-0.107147	
-0.075841	
-0.0912596	
-0.0968508	
-0.117706	
0.0358032	
0.0260649	
0.0212129	
-0.189932	
-0.200951	
-0.173803	
-0.198475	
0.0387998	
-0.11	
-0.109562	
-0.0944536	
-0.33607	
-0.343035	
-0.260793	
-0.270879	
-0.102132	
-0.122365	
-0.28423	
-0.273205	
0.000573884	
0.00457863	
-0.254757	
-0.279294	
-0.269171	
-0.205234	
-0.226259	
-0.193909	
-0.209682	
-0.0406555	
-0.0913625	
-0.049839	
-0.0430552	
-0.0912839	
-0.073793	
-0.337596	
-0.342845	
-0.338121	
-0.342192	
-0.0364106	
-0.0440567	
0.0234305	
-0.253183	
-0.233613	
-0.303065	
-0.295545	
-0.161385	
-0.156707	
-0.116493	
-0.100195	
-0.321853	
-0.314068	
-0.334198	
-0.330424	
-0.323071	
-0.314751	
-0.166026	
-0.169474	
-0.142686	
-0.14652	
-0.255999	
-0.271712	
-0.186273	
-0.200797	
-0.220454	
-0.222256	
-0.332251	
-0.333984	
-0.335534	
-0.334873	
-0.285906	
-0.29955	
-0.309256	
-0.302439	
-0.310399	
-0.263662	
-0.252419	
-0.273103	
-0.282915	
-0.0314876	
0.0127361	
0.0373056	
-0.286426	
-0.282795	
-0.0861946	
-0.0697379	
-0.119097	
-0.212564	
-0.230016	
-0.21218	
-0.247263	
-0.244122	
-0.252927	
-0.255757	
-0.261502	
-0.339471	
-0.334577	
-0.333305	
-0.325711	
-0.292358	
-0.273869	
-0.286524	
-0.315046	
0.017603	
-0.0431673	
0.0326529	
0.00808662	
-0.220887	
-0.24656	
-0.242746	
-0.21802	
-0.233816	
-0.0257802	
0.032437	
0.0296175	
-0.0208726	
0.0411938	
0.0217216	
-0.28035	
-0.28768	
-0.286522	
-0.296811	
0.0343656	
0.0110851	
-0.230621	
-0.261277	
-0.239139	
-0.266517	
-0.256454	
-0.261502	
-0.273654	
-0.252364	
-0.2459	
-0.262077	
-0.120084	
-0.12606	
-0.139393	
-0.152045	
-0.324521	
-0.3248	
-0.326959	
-0.229227	
-0.218054	
-0.313227	
-0.308567	
-0.296736	
-0.298311	
-0.211608	
-0.229661	
-0.223476	
-0.240333	
-0.0986353	
-0.123088	
-0.306512	
-0.308853	
-0.331699	
-0.33645	
-0.052012	
-0.0658133	
-0.0720388	
-0.0814499	
-0.236344	
-0.223832	
-0.21937	
-0.213879	
-0.1237	
-0.147613	
-0.156539	
-0.175479	
-0.283564	
-0.296494	
-0.296291	
-0.307114	
-0.160413	
-0.152196	
-0.196957	
-0.189107	
-0.244624	
-0.23475	
-0.0625243	
-0.0399019	
-0.0873647	
-0.072346	
-0.277444	
-0.273959	
-0.340827	
-0.338601	
-0.34159	
-0.343542	
-0.318831	
-0.317907	
-0.144492	
-0.158916	
-0.187234	
-0.19732	
-0.0242722	
-0.0117675	
0.0334084	
0.030804	
-0.196585	
-0.161531	
-0.186247	
-0.149109	
-0.010615	
-0.00425828	
-0.00732098	
-0.000579813	
0.00251057	
0.0144823	
0.020622	
0.0229932	
0.0171659	
-0.0089594	
-0.000391469	
0.00796945	
0.00357239	
0.00998728	
0.0187106	
0.0230468	
0.0101198	
0.014456	
0.00643602	
-0.00465877	
0.00395054	
-0.0109971	
-0.0148614	
-0.00390353	
-0.0226542	
-0.0225891	
-0.016499	
-0.0237262	
-0.0203858	
0.0145022	
0.0123984	
-0.00121954	
0.00502881	
-0.00630259	
-0.017828	
-0.0171111	
-0.0163836	
-0.0143546	
-0.00987612	
0.0179159	
0.283387	
0.246676	
0.271497	
0.057497	
0.102748	
0.0596809	
0.205917	
0.11381	
0.111605	
0.112118	
0.11292	
0.0843466	
0.0558517	
0.109171	
0.0997062	
0.0951318	
0.0548595	
0.106658	
0.0874565	
0.230714	
0.213924	
0.145944	
0.196452	
0.22319	
0.177741	
0.197407	
0.148757	
0.125614	
0.224932	
0.218602	
0.169586	
0.221825	
0.248981	
0.130762	
0.12531	
0.221077	
0.223798	
0.164898	
0.178109	
0.156275	
0.16904	
0.181559	
0.179076	
0.210763	
0.209954	
0.170098	
0.223706	
0.145835	
0.144059	
0.147974	
0.228982	
0.209939	
0.21693	
0.204491	
0.207323	
0.237737	
0.178854	
0.180105	
0.176366	
0.142472	
0.0990544	
0.131124	
0.208261	
0.204003	
0.194262	
0.191727	
0.255412	
0.261815	
0.269549	
0.11193	
0.0613379	
0.200546	
0.200032	
0.191607	
0.188234	
0.175127	
0.165761	
0.185951	
0.1847	
0.184683	
0.197113	
0.192654	
0.194617	
0.202429	
0.189379	
0.190648	
0.171355	
0.15949	
0.119827	
0.10631	
0.12524	
0.111823	
0.224148	
0.234994	
0.219101	
0.222674	
0.126615	
0.117334	
0.164972	
0.238904	
0.247868	
0.19505	
0.197973	
0.154295	
0.199176	
0.216001	
0.120695	
0.107337	
0.133486	
0.130311	
0.157607	
0.138394	
0.133414	
0.141842	
0.256194	
0.2702	
0.243761	
0.228389	
0.222692	
0.0674221	
0.054783	
0.117484	
0.148733	
0.0796007	
0.0917431	
0.200747	
0.187889	
0.0951045	
0.0722487	
0.132081	
0.132656	
0.139152	
0.139624	
0.104234	
0.252837	
0.245048	
0.166035	
0.146585	
0.163653	
0.156392	
0.126764	
0.160119	
0.158987	
0.153843	
0.152501	
0.099038	
0.28587	
0.27161	
0.252677	
0.264903	
0.224276	
0.208489	
0.196754	
0.193033	
0.108955	
0.099249	
0.174582	
0.189668	
0.174836	
0.190545	
0.169176	
0.175695	
0.190834	
0.172438	
0.192464	
0.0963285	
0.155665	
0.161616	
0.154986	
0.260807	
0.253986	
0.25414	
0.247003	
0.251834	
0.259283	
0.181227	
0.185132	
0.172512	
0.179851	
0.263446	
0.249518	
0.255803	
0.203696	
0.195542	
0.208217	
0.0623751	
0.0984547	
0.0873766	
0.0993742	
0.28612	
0.282645	
0.178999	
0.168356	
0.262936	
0.204874	
0.205313	
0.197778	
0.154786	
0.162767	
0.202328	
0.214512	
0.208058	
0.2157	
0.241292	
0.245492	
0.234032	
0.237133	
0.233019	
0.242127	
0.248374	
0.218038	
0.203682	
0.220594	
0.147003	
0.141247	
0.16658	
0.164859	
0.17664	
0.174576	
0.110181	
0.0923231	
0.10999	
0.0969438	
0.116888	
0.178639	
0.170643	
0.16368	
0.159275	
0.159196	
0.144825	
0.149392	
0.139143	
0.244424	
0.2387	
0.180622	
0.174658	
0.172006	
0.21913	
0.220622	
0.209407	
0.212957	
0.0928192	
0.0887799	
0.279554	
0.10608	
0.105904	
0.118553	
0.239415	
0.233874	
0.232126	
0.104582	
0.0948716	
0.165636	
0.156008	
0.170062	
0.163684	
0.228263	
0.229149	
0.218934	
0.220441	
0.20598	
0.205701	
0.196239	
0.19592	
0.258789	
0.260981	
0.250421	
0.25489	
0.1474	
0.249583	
0.254247	
0.247145	
0.212363	
0.2004	
0.192824	
0.118689	
0.154648	
0.153426	
0.253945	
0.251393	
0.217152	
0.203368	
0.206863	
0.211216	
0.216331	
0.208474	
0.193613	
0.204328	
0.20881	
0.256902	
0.265145	
0.25673	
0.249671	
0.256108	
0.245597	
0.191354	
0.180988	
0.190783	
0.181475	
0.217164	
0.209335	
0.203929	
0.126353	
0.189716	
0.184459	
0.171466	
0.0815364	
0.0790264	
0.0910832	
0.0930331	
0.225899	
0.161342	
0.161786	
0.173522	
0.187359	
0.194192	
0.20476	
0.223795	
0.22451	
0.216515	
0.217155	
0.142621	
0.149989	
0.149369	
0.154249	
0.140266	
0.150892	
0.168615	
0.173479	
0.165803	
0.257757	
0.254212	
0.264998	
0.14825	
0.159831	
0.14424	
0.15599	
0.193793	
0.208426	
0.21663	
0.118903	
0.258909	
0.264894	
0.0578504	
0.0724739	
0.082102	
0.0539361	
0.166745	
0.154519	
0.171949	
0.141742	
0.146906	
0.228155	
0.235542	
0.228017	
0.201117	
0.212357	
0.204459	
0.180291	
0.169538	
0.131264	
0.137916	
0.138484	
0.149026	
0.148799	
0.169905	
0.155164	
0.164553	
0.169766	
0.179787	
0.184149	
0.23745	
0.229474	
0.213019	
0.205349	
0.166176	
0.149958	
0.282414	
0.245177	
0.273765	
0.277482	
0.267185	
0.283073	
0.268144	
0.281005	
0.277069	
0.280383	
0.276145	
0.234163	
0.237978	
0.239072	
0.243213	
0.224174	
0.22734	
0.229598	
0.23274	
0.206873	
0.213686	
0.215525	
0.218588	
0.265984	
0.205955	
0.200495	
0.193867	
0.190592	
0.279008	
0.237652	
0.241457	
0.135877	
0.137568	
0.142007	
0.152153	
0.142343	
0.145446	
0.148923	
0.158967	
0.225852	
0.237032	
0.225294	
0.12268	
0.129293	
0.122199	
0.129012	
0.20655	
0.199249	
0.231531	
0.223131	
0.229814	
0.218488	
0.218982	
0.204431	
0.215354	
0.207919	
0.192677	
0.179528	
0.196423	
0.183432	
0.143628	
0.138544	
0.170083	
0.16422	
0.192667	
0.185808	
0.196151	
0.185349	
0.263486	
0.263087	
0.271521	
0.152264	
0.149244	
0.144265	
0.139831	
0.133514	
0.133289	
0.139054	
0.142309	
0.131411	
0.126723	
0.217501	
0.200671	
0.213921	
0.209892	
0.267166	
0.266838	
0.135123	
0.141872	
0.157322	
0.152804	
0.175033	
0.157713	
0.154041	
0.173336	
0.198717	
0.160698	
0.147211	
0.123467	
0.183882	
0.192575	
0.126758	
0.132148	
0.240796	
0.237677	
0.233607	
0.228346	
0.171181	
0.168669	
0.108789	
0.122385	
0.137132	
0.135603	
0.121932	
0.11623	
0.115818	
0.126047	
0.126036	
0.0859397	
0.110962	
0.131946	
0.27175	
0.259556	
0.275637	
0.271634	
0.230964	
0.238164	
0.22874	
0.234566	
0.238705	
0.239448	
0.244272	
0.137935	
0.216776	
0.204338	
0.209871	
0.160168	
0.261516	
0.248658	
0.265285	
0.233269	
0.233815	
0.259373	
0.251793	
0.264713	
0.163809	
0.0736379	
0.0742728	
0.0613239	
0.0520562	
0.207803	
0.214799	
0.281254	
0.275401	
0.0770823	
0.073636	
0.0822072	
0.070499	
0.113742	
0.175323	
0.185468	
0.186011	
0.177087	
0.181436	
0.189334	
0.18159	
0.189676	
0.180284	
0.188523	
0.127377	
0.138539	
0.118812	
0.138439	
0.172149	
0.159629	
0.172016	
0.233825	
0.22622	
0.271464	
0.270123	
0.259829	
0.262427	
0.164495	
0.156419	
0.149237	
0.146894	
0.197097	
0.189863	
0.181635	
0.18077	
0.177863	
0.175984	
0.189075	
0.188285	
0.239615	
0.270967	
0.267138	
0.273428	
0.250221	
0.255646	
0.278496	
0.279881	
0.228719	
0.222549	
0.211286	
0.203588	
0.239032	
0.243782	
0.220274	
0.230644	
0.21632	
0.22342	
0.117288	
0.109769	
0.117442	
0.0992656	
0.19273	
0.180457	
0.275793	
0.268928	
0.263006	
0.261558	
0.267693	
0.276887	
0.287614	
0.27682	
0.283188	
0.235405	
0.245983	
0.238076	
0.247819	
0.239374	
0.117895	
0.0715138	
0.0594184	
0.186405	
0.176974	
0.145055	
0.160651	
0.133643	
0.14845	
0.132769	
0.119931	
0.127742	
0.108958	
0.270911	
0.275135	
0.124108	
0.111325	
0.111444	
0.0927873	
0.0989103	
0.131261	
0.123009	
0.111675	
0.105743	
0.117401	
0.0695482	
0.0866475	
0.0543031	
0.129245	
0.125816	
0.12773	
0.117287	
0.111716	
0.0987426	
0.115025	
0.120155	
0.249999	
0.159367	
0.152157	
0.149449	
0.141112	
0.248402	
0.241518	
0.242647	
0.234899	
0.0867193	
0.0684352	
0.132655	
0.125322	
0.117929	
0.103545	
0.103604	
0.119967	
0.113015	
0.142613	
0.194404	
0.183784	
0.184779	
0.132866	
0.124392	
0.116749	
0.247734	
0.127497	
0.109091	
0.138858	
0.122431	
0.229743	
0.231689	
0.235763	
0.241409	
0.0904637	
0.104604	
0.0993613	
0.108241	
0.192469	
0.19814	
0.0801226	
0.067297	
0.0756126	
0.0527744	
0.240059	
0.242492	
0.247684	
0.252625	
0.125466	
0.129483	
0.13954	
0.143567	
0.259613	
0.269994	
0.260206	
0.266466	
0.227765	
0.218406	
0.272629	
0.280996	
0.274183	
0.2798	
0.286452	
0.15839	
0.158145	
0.133982	
0.118477	
0.105878	
0.105498	
0.135358	
0.132655	
0.154563	
0.14196	
0.148193	
0.132928	
0.172138	
0.167655	
0.147712	
0.157803	
0.144974	
0.131862	
0.130049	
0.252536	
0.256085	
0.24521	
0.246633	
0.165203	
0.153846	
0.143947	
0.11647	
0.147844	
0.135005	
0.0405828	
0.043347	
0.0257555	
0.0418955	
0.0451533	
-0.342003	
-0.331733	
0.0435392	
0.0310749	
0.0362365	
-0.0529776	
-0.290226	
0.0438732	
0.0433254	
-0.0877116	
-0.0928659	
-0.227572	
0.0460747	
-0.0998724	
0.0385571	
0.0372237	
-0.334397	
-0.145783	
-0.0963536	
-0.169992	
-0.062998	
-0.0817984	
0.0110273	
-0.0187436	
-0.279766	
-0.27854	
-0.232448	
-0.106012	
-0.311441	
-0.268421	
-0.0886737	
-0.130545	
-0.0779448	
-0.254441	
-0.252937	
-0.268306	
-0.302602	
-0.320222	
-0.289297	
-0.0170596	
-0.0455772	
-0.182717	
-0.230927	
-0.245749	
-0.24194	
-0.205077	
-0.209361	
-0.156528	
-0.156385	
-0.123536	
-0.271299	
-0.136836	
-0.10391	
-0.108934	
-0.127781	
-0.120165	
-0.147777	
-0.115499	
-0.114099	
-0.308739	
-0.260859	
-0.133231	
-0.173591	
-0.282137	
-0.0841655	
-0.218239	
-0.126501	
-0.0995944	
-0.165331	
-0.170742	
-0.29576	
-0.341988	
0.0371516	
0.0226348	
-0.0310112	
-0.209721	
-0.0745009	
-0.0645585	
-0.23744	
-0.259991	
-0.234683	
-0.292416	
-0.274136	
-0.175574	
-0.180183	
-0.262206	
-0.280168	
-0.251424	
-0.0508938	
-0.294259	
-0.0281747	
-0.0206829	
-0.0827692	
-0.0723556	
-0.231317	
-0.144874	
-0.178276	
-0.292622	
-0.116556	
-0.158125	
-0.188823	
-0.171669	
-0.199761	
-0.072481	
-0.274415	
-0.248875	
-0.255699	
-0.220378	
-0.203682	
-0.216377	
-0.103068	
-0.244797	
-0.0359322	
-0.0837621	
-0.144396	
-0.287489	
-0.278156	
-0.303055	
-0.324967	
-0.216149	
-0.217127	
-0.306734	
-0.295809	
-0.164505	
0.0300501	
-0.0128063	
-0.296308	
-0.29571	
-0.335457	
-0.280925	
-0.18985	
-0.189721	
0.0288192	
-0.0112182	
-0.313312	
-0.321013	
-0.319929	
0.0217263	
0.0373607	
-0.110851	
-0.142345	
-0.0621054	
-0.0524755	
-0.0704682	
-0.247926	
-0.208333	
-0.161312	
-0.192673	
-0.190295	
-0.189941	
-0.13881	
0.0399199	
-0.159976	
-0.165028	
-0.333239	
-0.341227	
-0.154287	
-0.0865512	
-0.269777	
-0.24034	
-0.239147	
-0.169481	
-0.200281	
-0.187853	
-0.208529	
0.0206269	
-0.280649	
-0.11036	
-0.174655	
-0.245724	
-0.193475	
-0.211462	
-0.238285	
-0.251931	
-0.332793	
-0.258567	
-0.259519	
-0.235329	
-0.234553	
-0.0271053	
-0.231319	
-0.220584	
-0.198345	
-0.10187	
-0.101665	
-0.127915	
-0.0149461	
-0.0308045	
-0.11788	
-0.0887817	
-0.124977	
-0.217737	
-0.102023	
-0.341392	
-0.333295	
-0.325728	
-0.0625601	
-0.290641	
-0.273539	
-0.271978	
-0.189812	
-0.238843	
-0.217968	
-0.234487	
-0.191933	
-0.156165	
-0.310592	
-0.315691	
-0.206321	
-0.199876	
-0.186333	
-0.183516	
-0.116613	
-0.25453	
-0.30062	
-0.312727	
-0.155315	
-0.139284	
-0.1784	
0.0109334	
-0.0234332	
-0.0913091	
-0.077154	
-0.0235751	
-0.0446329	
-0.266732	
-0.279848	
-0.0999399	
-0.0674794	
-0.0879477	
-0.0629543	
-0.0844957	
-0.0684416	
-0.088045	
-0.299775	
-0.304425	
-0.317049	
-0.329623	
-0.340474	
-0.0430774	
-0.112139	
-0.0587343	
-0.116468	
-0.153148	
-0.175873	
-0.246217	
-0.198179	
-0.1196	
-0.153398	
-0.237196	
-0.225102	
-0.189439	
-0.155303	
-0.179807	
-0.0342986	
-0.0265338	
-0.0549972	
-0.0498565	
-0.132201	
-0.194894	
-0.118779	
-0.0875494	
-0.220843	
-0.188984	
-0.212519	
-0.192789	
-0.267628	
-0.245386	
-0.260762	
-0.245577	
-0.143203	
-0.305232	
-0.287242	
-0.312668	
-0.297759	
-0.139484	
-0.126088	
-0.17537	
-0.201558	
-0.102658	
-0.0659838	
-0.11608	
-0.0765292	
-0.193951	
-0.217778	
-0.0770842	
-0.0622371	
-0.02948	
-0.264779	
-0.270729	
-0.249633	
-0.254053	
-0.0804728	
-0.0838532	
-0.228956	
-0.217566	
-0.157789	
-0.140742	
-0.17357	
-0.17123	
-0.151018	
-0.229435	
-0.203775	
-0.226422	
-0.211584	
-0.0213873	
0.00166292	
-0.323722	
-0.314271	
-0.115088	
-0.097227	
-0.147664	
-0.133206	
-0.159313	
-0.145602	
-0.222067	
-0.245657	
-0.225533	
-0.282673	
-0.291356	
-0.275643	
-0.152835	
-0.164562	
-0.140551	
-0.108491	
-0.122459	
-0.0401168	
-0.0344148	
-0.015506	
-0.0333209	
-0.00933353	
-0.0573669	
-0.0258344	
-0.0557988	
-0.0567973	
-0.047532	
-0.0250978	
-0.111364	
-0.0817513	
-0.120833	
-0.0911703	
-0.147889	
-0.0470414	
-0.0664129	
-0.0268776	
-0.0545252	
-0.169255	
-0.130626	
-0.152952	
-0.128822	
-0.0339079	
-0.0701546	
-0.063378	
-0.0836359	
-0.176302	
-0.200983	
-0.197756	
-0.220717	
-0.206883	
-0.210339	
-0.168336	
-0.165519	
-0.2374	
-0.250969	
-0.262341	
-0.264395	
-0.27442	
-0.286813	
-0.294374	
-0.297713	
-0.294488	
-0.298075	
-0.304641	
-0.313773	
-0.0277916	
-0.0493047	
-0.0822569	
-0.296571	
-0.28127	
-0.305611	
-0.31135	
-0.312176	
-0.298531	
-0.301047	
-0.030665	
-0.0142106	
-0.208854	
-0.207847	
-0.180901	
-0.334646	
-0.334999	
-0.159953	
-0.166273	
-0.137132	
-0.140457	
-0.335968	
-0.326638	
-0.330146	
-0.330275	
-0.325524	
-0.123459	
-0.221473	
-0.201046	
-0.226142	
-0.208326	
0.0419851	
0.0316494	
-0.0718449	
-0.0147374	
-0.036473	
-0.0396409	
-0.0156769	
0.039594	
0.0286199	
-0.101433	
-0.0663038	
-0.112389	
-0.0861346	
-0.134798	
-0.15059	
-0.173442	
-0.182599	
-0.196514	
-0.196032	
-0.234798	
-0.238329	
-0.0114093	
-0.00872523	
-0.329386	
-0.319478	
-0.0291753	
-0.00604296	
-0.0275082	
-0.00383891	
0.0339663	
-0.024301	
-0.334121	
-0.255748	
-0.27451	
-0.281933	
-0.0363694	
0.00327189	
-0.25638	
-0.26546	
0.00992228	
-0.18909	
-0.188719	
-0.305255	
-0.292287	
-0.307271	
-0.322519	
-0.309067	
-0.325532	
-0.200159	
-0.22008	
-0.127782	
-0.125694	
-0.116497	
-0.285528	
-0.259616	
-0.253102	
-0.130043	
-0.138436	
-0.180427	
-0.163548	
-0.00535092	
0.0396217	
0.00961632	
0.0251003	
-0.026224	
0.022643	
0.0442049	
-0.0139187	
-0.238314	
-0.247401	
-0.244085	
-0.327909	
-0.328954	
-0.322012	
0.0292046	
-0.321801	
-0.317674	
-0.134519	
-0.154048	
-0.148753	
0.044047	
0.029597	
-0.31178	
-0.309576	
-0.312677	
0.00896203	
0.0411481	
0.0367072	
0.0334566	
-0.183293	
-0.169239	
-0.204411	
-0.206262	
-0.327775	
-0.338104	
-0.331887	
0.0303511	
0.0444909	
-0.00282117	
0.0376175	
-0.268988	
-0.262434	
-0.145562	
-0.144243	
0.0400379	
0.0331098	
0.0278858	
-0.31591	
-0.295155	
-0.324205	
-0.31773	
-0.263476	
-0.256209	
-0.280367	
-0.265803	
-0.157105	
-0.145711	
-0.313874	
-0.319379	
-0.25813	
-0.0270054	
-0.0306617	
-0.0632366	
-0.0654033	
0.0389459	
0.045043	
-0.112594	
-0.10384	
-0.073119	
-0.0565464	
-0.338228	
-0.329789	
-0.337832	
-0.329249	
-0.107159	
-0.0967231	
-0.110099	
-0.075913	
-0.089149	
0.026067	
0.0357765	
0.0214154	
-0.183878	
-0.198392	
-0.177053	
-0.199572	
0.0394854	
-0.112852	
-0.0975167	
-0.338988	
-0.337946	
-0.122359	
-0.102136	
0.000468204	
0.00442566	
-0.273018	