<VTKFile type="UnstructuredGrid" version="0.1" byte_order="LittleEndian">
	<UnstructuredGrid>
		<Piece NumberOfPoints="1647" NumberOfCells="3046">
			<CellData Scalars="scalars">
				<DataArray type="Float64" Name="Doublet Strengths" NumberOfComponents="1" Format="ascii">
0.292647	
0.249592	
0.275758	
0.0585325	
0.0972253	
0.114595	
0.112887	
0.113441	
0.0601438	
0.0572935	
0.109588	
0.100166	
0.0550847	
0.107137	
0.112672	
0.0866676	
0.232296	
0.109862	
0.280174	
0.2076	
0.227185	
0.14388	
0.198948	
0.226706	
0.179688	
0.19949	
0.150387	
0.18416	
0.126591	
0.22286	
0.227093	
0.171334	
0.225377	
0.252646	
0.127431	
0.223863	
0.226488	
0.158833	
0.180232	
0.157413	
0.171221	
0.183556	
0.180923	
0.208581	
0.212999	
0.177981	
0.226528	
0.147089	
0.145165	
0.160165	
0.244191	
0.232735	
0.219678	
0.212619	
0.217044	
0.207038	
0.241363	
0.165093	
0.18026	
0.181315	
0.177555	
0.143935	
0.100893	
0.132076	
0.196863	
0.199009	
0.203914	
0.206898	
0.266715	
0.269718	
0.259915	
0.113809	
0.0525111	
0.193124	
0.195192	
0.202235	
0.207072	
0.187784	
0.174548	
0.177262	
0.167755	
0.195341	
0.186699	
0.195083	
0.191524	
0.198337	
0.196874	
0.204585	
0.174455	
0.162556	
0.104999	
0.119193	
0.126242	
0.222386	
0.233432	
0.227704	
0.236928	
0.118104	
0.127556	
0.16633	
0.242396	
0.245862	
0.258738	
0.209209	
0.197737	
0.199618	
0.154618	
0.225337	
0.107945	
0.12134	
0.130314	
0.141947	
0.139258	
0.149945	
0.133879	
0.133045	
0.262811	
0.274603	
0.232099	
0.247883	
0.225439	
0.055206	
0.150178	
0.0912313	
0.0798253	
0.0863066	
0.19013	
0.208832	
0.0983366	
0.0739126	
0.140214	
0.140772	
0.133094	
0.133743	
0.105278	
0.258522	
0.248309	
0.165277	
0.150063	
0.167688	
0.153571	
0.114462	
0.151381	
0.15389	
0.161549	
0.160344	
0.120763	
0.107686	
0.291849	
0.277342	
0.255609	
0.26995	
0.229602	
0.199138	
0.199687	
0.207023	
0.100456	
0.0796762	
0.273262	
0.192208	
0.180972	
0.189798	
0.176881	
0.186553	
0.170956	
0.193789	
0.195171	
0.186696	
0.093153	
0.164553	
0.146423	
0.158097	
0.258957	
0.266439	
0.272967	
0.255738	
0.267044	
0.250774	
0.173635	
0.181847	
0.183152	
0.187286	
0.268686	
0.262035	
0.254628	
0.214437	
0.19647	
0.0604717	
0.0763941	
0.0986463	
0.100082	
0.0937446	
0.294439	
0.289142	
0.180999	
0.170213	
0.267893	
0.21018	
0.206761	
0.19453	
0.164503	
0.165455	
0.209902	
0.204627	
0.221265	
0.210133	
0.251164	
0.245443	
0.240762	
0.235191	
0.239011	
0.255138	
0.246494	
0.246732	
0.21191	
0.221438	
0.224066	
0.148117	
0.148017	
0.166021	
0.168026	
0.176409	
0.183678	
0.105535	
0.111101	
0.0977523	
0.110846	
0.117774	
0.172724	
0.176846	
0.161064	
0.158383	
0.157368	
0.160743	
0.140402	
0.150818	
0.248858	
0.242207	
0.171597	
0.173405	
0.182208	
0.209365	
0.215853	
0.222409	
0.223773	
0.0893087	
0.0927551	
0.106698	
0.106931	
0.119478	
0.230441	
0.232695	
0.24102	
0.0971443	
0.107908	
0.157588	
0.167434	
0.156359	
0.171976	
0.217795	
0.222253	
0.229936	
0.234698	
0.193952	
0.198611	
0.208944	
0.213805	
0.252959	
0.260022	
0.263706	
0.266629	
0.148775	
0.110236	
0.259147	
0.249205	
0.260013	
0.215342	
0.199793	
0.202991	
0.114776	
0.155869	
0.15457	
0.255342	
0.255848	
0.218824	
0.207853	
0.204793	
0.217731	
0.206848	
0.212511	
0.207303	
0.206624	
0.191566	
0.196254	
0.261376	
0.272168	
0.253342	
0.249435	
0.260904	
0.253489	
0.291908	
0.183362	
0.198957	
0.178755	
0.19335	
0.212424	
0.22049	
0.206876	
0.127477	
0.183509	
0.191013	
0.174174	
0.17743	
0.0822635	
0.088039	
0.091853	
0.234448	
0.163386	
0.162884	
0.175251	
0.196846	
0.193047	
0.207683	
0.286104	
0.273346	
0.279807	
0.219422	
0.219974	
0.227035	
0.231336	
0.144093	
0.155252	
0.15569	
0.143229	
0.152284	
0.145569	
0.175541	
0.167677	
0.170458	
0.269606	
0.262133	
0.256658	
0.161788	
0.149668	
0.166214	
0.147047	
0.219946	
0.211515	
0.26948	
0.26324	
0.120004	
0.0745771	
0.0595234	
0.082874	
0.0544483	
0.168315	
0.160261	
0.142792	
0.142367	
0.231271	
0.227732	
0.239031	
0.210522	
0.202689	
0.215138	
0.182506	
0.171686	
0.13908	
0.132205	
0.150157	
0.139546	
0.166232	
0.15662	
0.158862	
0.171642	
0.171591	
0.181612	
0.181711	
0.232754	
0.241009	
0.20831	
0.216195	
0.174199	
0.150986	
0.16773	
0.289659	
0.292582	
0.279829	
0.286464	
0.246223	
0.283236	
0.279751	
0.290478	
0.285549	
0.272578	
0.281214	
0.284426	
0.281552	
0.241501	
0.237403	
0.246807	
0.242513	
0.234594	
0.231553	
0.220346	
0.225755	
0.212014	
0.217361	
0.274243	
0.202328	
0.201852	
0.191937	
0.190117	
0.238268	
0.241186	
0.138603	
0.136904	
0.1478	
0.150741	
0.1457	
0.142693	
0.15562	
0.157671	
0.225222	
0.227359	
0.130183	
0.117969	
0.129918	
0.122973	
0.201858	
0.212452	
0.22654	
0.237822	
0.221763	
0.226045	
0.222058	
0.210746	
0.218492	
0.186289	
0.19501	
0.185652	
0.194232	
0.140107	
0.145479	
0.140015	
0.165736	
0.176276	
0.187615	
0.199716	
0.187195	
0.192759	
0.279303	
0.275651	
0.263316	
0.267475	
0.153733	
0.141233	
0.141474	
0.13453	
0.134586	
0.147564	
0.140736	
0.132518	
0.211535	
0.204369	
0.218324	
0.21573	
0.277153	
0.143452	
0.150667	
0.154643	
0.159036	
0.176192	
0.16601	
0.221744	
0.213349	
0.265283	
0.252688	
0.155953	
0.0678043	
0.175128	
0.159213	
0.200079	
0.16634	
0.193805	
0.185027	
0.123141	
0.133543	
0.168357	
0.230397	
0.235076	
0.238842	
0.241162	
0.122638	
0.172334	
0.169925	
0.104844	
0.122161	
0.124815	
0.133338	
0.111718	
0.12508	
0.127821	
0.137888	
0.138485	
0.270438	
0.2778	
0.277409	
0.281457	
0.241914	
0.229366	
0.231857	
0.0776643	
0.0826849	
0.0740371	
0.0707943	
0.248103	
0.249421	
0.238027	
0.242934	
0.240106	
0.238292	
0.133758	
0.207062	
0.212687	
0.219745	
0.0618739	
0.0619043	
0.0742791	
0.0749343	
0.161345	
0.269758	
0.254509	
0.257312	
0.165072	
0.217755	
0.210521	
0.281741	
0.288191	
0.186097	
0.187529	
0.172048	
0.176608	
0.258947	
0.266965	
0.259375	
0.266608	
0.179143	
0.191753	
0.183641	
0.18171	
0.195204	
0.182714	
0.190777	
0.148405	
0.130706	
0.142067	
0.11646	
0.162212	
0.174045	
0.174102	
0.229451	
0.237254	
0.265018	
0.267518	
0.272138	
0.275857	
0.158909	
0.162245	
0.149057	
0.151036	
0.183831	
0.18298	
0.19533	
0.192378	
0.196437	
0.190752	
0.179858	
0.171778	
0.247922	
0.23508	
0.248448	
0.241783	
0.24556	
0.286848	
0.29417	
0.279241	
0.28227	
0.260298	
0.254712	
0.22354	
0.232163	
0.205255	
0.213956	
0.118102	
0.0996523	
0.123443	
0.110297	
0.182592	
0.190579	
0.288358	
0.281375	
0.288548	
0.282403	
0.272785	
0.284502	
0.275281	
0.267163	
0.272186	
0.265717	
0.252097	
0.250396	
0.242042	
0.161444	
0.146518	
0.149631	
0.13462	
0.107186	
0.0994762	
0.0865534	
0.0727055	
0.112799	
0.126047	
0.113196	
0.0992383	
0.0939472	
0.132752	
0.124355	
0.144947	
0.0551123	
0.0705226	
0.0877785	
0.128729	
0.119203	
0.127331	
0.1289	
0.11652	
0.121186	
0.143313	
0.239252	
0.238991	
0.253147	
0.25258	
0.0880269	
0.0695725	
0.126322	
0.118913	
0.133726	
0.122375	
0.129301	
0.120987	
0.133877	
0.116084	
0.128917	
0.222859	
0.219325	
0.213526	
0.12093	
0.11399	
0.114724	
0.110815	
0.0950501	
0.185192	
0.186072	
0.195797	
0.117798	
0.133982	
0.125569	
0.136281	
0.123256	
0.128312	
0.109658	
0.20172	
0.203761	
0.23969	
0.24343	
0.233558	
0.235566	
0.097216	
0.0914026	
0.109253	
0.100377	
0.194234	
0.199805	
0.109856	
0.104572	
0.0630389	
0.0533669	
0.0809757	
0.0680731	
0.128426	
0.109337	
0.138992	
0.12053	
0.270445	
0.264042	
0.219414	
0.226408	
0.160333	
0.149418	
0.146476	
0.135217	
0.135204	
0.150676	
0.120841	
0.157009	
0.144407	
0.134477	
0.132691	
0.146453	
0.11622	
0.139782	
0.15253	
0.160548	
0.14105	
0.150453	
0.255552	
0.25852	
0.262906	
0.146124	
0.153402	
0.125498	
0.131483	
0.249888	
0.252285	
0.239182	
0.241015	
0.247819	
0.255118	
0.242305	
0.244492	
0.101291	
0.10692	
0.101828	
0.107349	
0.0309468	
0.0430571	
0.0369237	
0.0415708	
0.0449387	
-0.346064	
-0.336147	
0.0400067	
0.0405214	
0.0435044	
0.0397112	
0.0361243	
-0.294803	
0.0432772	
-0.0886089	
-0.0939139	
-0.230755	
-0.127022	
0.0382136	
0.0369287	
-0.147899	
-0.0885489	
-0.172354	
-0.083273	
-0.0877228	
0.0103415	
-0.0196111	
-0.278294	
-0.283504	
-0.235417	
-0.107697	
-0.324243	
-0.272403	
-0.089465	
-0.132449	
-0.0791143	
-0.242407	
-0.256418	
-0.270933	
-0.306448	
-0.324277	
-0.292637	
-0.0177819	
-0.0465325	
-0.182605	
-0.233623	
-0.202425	
-0.22932	
-0.224923	
-0.245218	
-0.157512	
-0.179789	
-0.131272	
-0.274615	
-0.15228	
-0.109811	
-0.117028	
-0.128681	
-0.12198	
-0.117263	
-0.149913	
-0.115137	
-0.312464	
-0.266332	
-0.135481	
-0.18223	
-0.285586	
-0.0853415	
-0.220409	
-0.12837	
-0.101226	
-0.170842	
-0.171651	
-0.287295	
-0.348891	
0.0221049	
0.0211066	
-0.0319554	
-0.211928	
-0.0655708	
-0.0755288	
-0.262289	
-0.239314	
-0.237201	
-0.277612	
-0.296119	
-0.187465	
-0.181229	
-0.283465	
-0.265432	
-0.254554	
-0.0520973	
-0.300352	
-0.015838	
-0.0582152	
-0.0454576	
-0.0885356	
-0.23453	
-0.161615	
-0.17958	
-0.296987	
-0.117934	
-0.174035	
-0.207767	
-0.160338	
-0.170985	
-0.0716668	
-0.251482	
-0.277554	
-0.223063	
-0.258715	
-0.197438	
-0.21679	
-0.0748412	
-0.104576	
-0.245487	
-0.036209	
-0.0520247	
-0.0851934	
-0.161926	
-0.280918	
-0.290059	
-0.307793	
-0.329851	
-0.228391	
-0.219886	
-0.299537	
-0.31039	
-0.166407	
0.0297732	
-0.0134816	
-0.339538	
-0.28093	
-0.191434	
-0.208111	
-0.205301	
0.0297041	
-0.0119523	
-0.318595	
-0.325843	
-0.324704	
0.0252307	
0.0367443	
-0.111982	
-0.143876	
-0.061726	
-0.0701324	
-0.0527448	
0.0460394	
-0.251454	
-0.211182	
-0.187035	
-0.195131	
-0.145199	
-0.19233	
-0.140379	
-0.167187	
-0.147187	
-0.168002	
-0.338352	
-0.347307	
-0.131746	
-0.0880427	
-0.243452	
-0.257968	
-0.273463	
-0.203067	
-0.166911	
-0.211484	
-0.1905	
0.0201449	
-0.283991	
-0.100497	
-0.111948	
-0.176707	
-0.246126	
-0.194424	
-0.212471	
-0.236942	
-0.253765	
-0.336451	
-0.237819	
-0.244748	
-0.248088	
-0.262376	
-0.0283217	
-0.233989	
-0.200714	
-0.223164	
-0.103037	
-0.103289	
-0.133806	
-0.129548	
-0.015231	
-0.0309823	
-0.118422	
-0.0966659	
-0.218963	
-0.113724	
-0.329592	
-0.337425	
-0.0572702	
-0.290688	
-0.280704	
-0.275135	
-0.193526	
-0.239265	
-0.200453	
-0.237772	
-0.194555	
-0.132574	
-0.320939	
-0.314922	
-0.176741	
-0.184839	
-0.207553	
-0.213156	
-0.0911213	
-0.114661	
-0.317622	
-0.304904	
-0.156884	
-0.180168	
0.0102998	
-0.0361718	
-0.0243195	
-0.0784552	
-0.0456903	
-0.0244503	
-0.270793	
-0.284317	
-0.34869	
-0.100701	
-0.0887131	
-0.0681558	
-0.0690993	
-0.0887391	
-0.0555784	
-0.0850648	
-0.305293	
-0.3227	
-0.310208	
-0.347049	
-0.325965	
-0.0853039	
-0.11824	
-0.113852	
-0.15533	
-0.203715	
-0.248089	
-0.200638	
-0.123595	
-0.125064	
-0.140891	
-0.225809	
-0.238206	
-0.15873	
-0.176322	
-0.156219	
-0.17451	
-0.0218446	
-0.0348046	
-0.0502659	
-0.063437	
-0.310913	
-0.21068	
-0.14069	
-0.083725	
-0.119969	
-0.209025	
-0.223062	
-0.194707	
-0.21467	
-0.261498	
-0.270267	
-0.248031	
-0.263207	
-0.312754	
-0.301359	
-0.309024	
-0.29411	
-0.157252	
-0.11325	
-0.202544	
-0.190328	
-0.0776385	
-0.10359	
-0.0772274	
-0.104793	
-0.210216	
-0.217758	
-0.0627586	
-0.0663948	
-0.0297033	
-0.252943	
-0.25756	
-0.268347	
-0.279217	
-0.0599351	
-0.0819021	
-0.229087	
-0.229431	
-0.141748	
-0.175023	
-0.138085	
-0.172595	
-0.243738	
-0.201311	
-0.228228	
0.00128928	
-0.0269776	
-0.318123	
-0.327666	
-0.0981064	
-0.116155	
-0.160434	
-0.146687	
-0.148851	
-0.134313	
-0.240433	
-0.218926	
-0.248703	
-0.286758	
-0.274232	
-0.29505	
-0.17194	
-0.155077	
-0.142542	
-0.103133	
-0.110178	
-0.0402133	
-0.0346213	
-0.03109	
-0.0135495	
-0.0289597	
-0.00999391	
-0.0566904	
-0.0265631	
-0.0576544	
-0.0476231	
-0.0481243	
-0.122526	
-0.112981	
-0.0831284	
-0.149841	
-0.0274828	
-0.0554231	
-0.0254468	
-0.0671134	
-0.155131	
-0.130737	
-0.171614	
-0.158382	
-0.0374102	
-0.0348454	
-0.0850595	
-0.0646063	
-0.220919	
-0.223718	
-0.178742	
-0.178311	
-0.169959	
-0.1919	
-0.190801	
-0.212471	
-0.26567	
-0.267632	
-0.248875	
-0.254073	
-0.290922	
-0.282292	
-0.302036	
-0.298519	
-0.30226	
-0.298689	
-0.315874	
-0.309184	
-0.0835448	
-0.0286643	
-0.0503262	
-0.295397	
-0.284435	
-0.317051	
-0.305907	
-0.316706	
-0.301783	
-0.30235	
-0.0148656	
-0.0314562	
-0.20968	
-0.198572	
-0.186333	
-0.338249	
-0.339545	
-0.339922	
-0.167551	
-0.14692	
-0.15436	
-0.138347	
-0.342419	
-0.334346	
-0.327195	
-0.334453	
-0.330091	
-0.140173	
-0.203399	
-0.224058	
-0.197144	
-0.228784	
0.0312878	
0.0418298	
-0.073226	
-0.0714605	
-0.0153607	
-0.0408066	
-0.0166221	
0.0283588	
0.039975	
-0.0676203	
-0.124401	
-0.0643578	
-0.114213	
-0.136344	
-0.152251	
-0.183692	
-0.180642	
-0.19641	
-0.204043	
-0.236794	
-0.240537	
-0.00908125	
-0.0117194	
-0.335009	
-0.324587	
-0.0296804	
-0.00645912	
-0.276835	
-0.0253646	
0.0337723	
-0.257466	
-0.00736446	
-0.346302	
-0.285872	
-0.0272964	
-0.00307279	
0.00960718	
-0.191878	
-0.179173	
-0.300382	
-0.309677	
-0.31184	
-0.316479	
-0.326568	
-0.329757	
-0.201929	
-0.220669	
-0.128662	
-0.117319	
-0.126504	
-0.284156	
-0.24019	
-0.262497	
-0.26583	
-0.125086	
-0.156202	
-0.165521	
-0.184897	
-0.00878177	
0.00885385	
0.0390493	
-0.0374925	
0.0241625	
0.0439843	
0.0221844	
-0.0144832	
-0.297444	
-0.333088	
-0.325968	
-0.333141	
0.0310244	
-0.326579	
-0.32264	
-0.155511	
-0.135823	
-0.150193	
0.0276959	
0.0412244	
-0.314265	
-0.316682	
-0.3111	
-0.270999	
0.00861978	
-0.276075	
-0.2665	
-0.257667	
0.0365251	
0.0409934	
0.0433159	
-0.206385	
-0.191439	
-0.185086	
-0.16695	
-0.333201	
-0.335227	
-0.337904	
0.0440429	
0.0301296	
0.0373363	
0.00290256	
-0.297932	
-0.296071	
-0.290017	
-0.145117	
-0.146462	
0.0431465	
0.0265971	
-0.330796	
-0.322341	
-0.320538	
-0.158059	
-0.146655	
-0.317884	
-0.324196	
-0.261048	
-0.0316478	
-0.0279826	
-0.0666572	
-0.0645004	
0.0452878	
0.0389216	
-0.0739773	
-0.0844162	
-0.103052	
-0.104952	
-0.344522	
-0.34502	
-0.334856	
-0.344369	
-0.108287	
-0.0765968	
-0.0921599	
-0.0977775	
-0.118827	
0.0354956	
0.0256606	
0.0206188	
-0.191808	
-0.202992	
-0.175468	
-0.200484	
0.0385156	
-0.111037	
-0.1106	
-0.0954048	
-0.340366	
-0.347518	
-0.262994	
-0.273215	
-0.103278	
-0.123657	
-0.287284	
-0.276155	
0.000245571	
0.0042062	
-0.257722	
-0.282548	
-0.272309	
-0.207694	
-0.22891	
-0.196246	
-0.212144	
-0.0415983	
-0.0926959	
-0.0508358	
-0.0439982	
-0.0925888	
-0.0749648	
-0.341803	
-0.347263	
-0.342378	
-0.346584	
-0.0374343	
-0.0451021	
0.0229428	
-0.255987	
-0.236244	
-0.306116	
-0.298539	
-0.162947	
-0.158195	
-0.117591	
-0.101153	
-0.325622	
-0.317647	
-0.338545	
-0.334654	
-0.327048	
-0.318555	
-0.167901	
-0.171336	
-0.1444	
-0.148222	
-0.258936	
-0.274855	
-0.188492	
-0.203157	
-0.222944	
-0.224778	
-0.336531	
-0.338343	
-0.339959	
-0.339336	
-0.289109	
-0.30291	
-0.312685	
-0.305661	
-0.313794	
-0.265727	
-0.254451	
-0.275318	
-0.285307	
-0.0325514	
0.0120633	
0.0369377	
-0.288805	
-0.285171	
-0.0875025	
-0.0709275	
-0.120688	
-0.214768	
-0.232379	
-0.214275	
-0.249909	
-0.246795	
-0.255939	
-0.2585	
-0.26449	
-0.343829	
-0.338789	
-0.33746	
-0.329657	
-0.2956	
-0.276759	
-0.289644	
-0.318818	
0.0169855	
-0.0441961	
0.0322525	
0.00745815	
-0.222784	
-0.248645	
-0.244938	
-0.220259	
-0.236281	
-0.0267694	
0.0319953	
0.0292865	
-0.0214547	
0.0409978	
0.0213798	
-0.282933	
-0.290442	
-0.289094	
-0.299658	
0.0340056	
0.0104461	
-0.232885	
-0.263882	
-0.241613	
-0.269207	
-0.259111	
-0.263741	
-0.275939	
-0.25547	
-0.249001	
-0.265465	
-0.121375	
-0.127388	
-0.140801	
-0.153562	
-0.328239	
-0.328717	
-0.330983	
-0.231063	
-0.219818	
-0.316874	
-0.312145	
-0.300053	
-0.301682	
-0.214033	
-0.232286	
-0.226052	
-0.243079	
-0.100069	
-0.124722	
-0.309561	
-0.311859	
-0.335826	
-0.340739	
-0.0527165	
-0.0666385	
-0.0728278	
-0.0823241	
-0.238135	
-0.225512	
-0.220965	
-0.215467	
-0.125294	
-0.149442	
-0.158439	
-0.177545	
-0.286895	
-0.300018	
-0.299795	
-0.310774	
-0.162395	
-0.154111	
-0.199231	
-0.191325	
-0.247147	
-0.23703	
-0.0633498	
-0.0405682	
-0.0883637	
-0.0732379	
-0.280986	
-0.277338	
-0.345265	
-0.342908	
-0.346101	
-0.348	
-0.322395	
-0.321538	
-0.146265	
-0.160859	
-0.189438	
-0.19963	
-0.0248444	
-0.0122603	
0.0331635	
0.0305368	
-0.198828	
-0.163484	
-0.188421	
-0.150984	
-0.0105507	
-0.00420789	
-0.00723685	
-0.000616044	
0.00246519	
0.0145522	
0.0207395	
0.0230866	
0.0172852	
-0.00895221	
-0.000249194	
0.00801432	
0.00368898	
0.010023	
0.0187801	
0.0230909	
0.0101633	
0.0145171	
0.00640624	
-0.00453531	
0.00386282	
-0.0112178	
-0.0150936	
-0.00403483	
-0.0228299	
-0.0226864	
-0.0165819	
-0.0237986	
-0.0206419	
0.0144763	
0.0123842	
-0.00130948	
0.00497676	
-0.00647245	
-0.0178456	
-0.0171311	
-0.0164636	
-0.0145356	
-0.0100524	
0.0178914	
0.287891	
0.250636	
0.275817	
0.0582807	
0.103233	
0.0603971	
0.208947	
0.11448	
0.112241	
0.112759	
0.113586	
0.0853949	
0.0566085	
0.109747	
0.100087	
0.0955228	
0.0550942	
0.107165	
0.0878488	
0.234018	
0.216841	
0.147354	
0.199067	
0.226278	
0.179815	
0.199984	
0.150143	
0.126754	
0.228113	
0.221514	
0.17145	
0.224929	
0.252785	
0.131927	
0.126293	
0.224295	
0.227041	
0.166675	
0.180193	
0.157841	
0.170906	
0.183732	
0.181169	
0.213537	
0.212745	
0.171937	
0.227079	
0.147193	
0.145407	
0.149291	
0.232277	
0.212924	
0.220064	
0.207315	
0.210163	
0.241249	
0.180721	
0.181941	
0.178141	
0.144068	
0.100358	
0.132008	
0.211031	
0.206651	
0.196731	
0.194129	
0.259449	
0.266061	
0.274034	
0.112737	
0.0619094	
0.203181	
0.202648	
0.194011	
0.190577	
0.177157	
0.167685	
0.188247	
0.187063	
0.186721	
0.199702	
0.195149	
0.197157	
0.205022	
0.191746	
0.192983	
0.173241	
0.161087	
0.120523	
0.106844	
0.126046	
0.112479	
0.227267	
0.23848	
0.222087	
0.22579	
0.127439	
0.118039	
0.166592	
0.242449	
0.251748	
0.197519	
0.200522	
0.155766	
0.201974	
0.219394	
0.12141	
0.107895	
0.134497	
0.131283	
0.159063	
0.13953	
0.134351	
0.142974	
0.260033	
0.274637	
0.247526	
0.231746	
0.225969	
0.0677631	
0.055144	
0.118199	
0.150092	
0.0799397	
0.0922018	
0.203584	
0.190264	
0.0963695	
0.0731934	
0.133277	
0.133847	
0.14043	
0.140899	
0.104675	
0.256711	
0.248725	
0.167856	
0.147854	
0.165388	
0.157846	
0.127588	
0.161775	
0.160551	
0.155411	
0.154007	
0.10039	
0.290568	
0.276064	
0.25682	
0.269258	
0.227595	
0.211517	
0.19914	
0.195351	
0.109831	
0.100366	
0.176534	
0.191971	
0.176765	
0.192895	
0.170973	
0.17765	
0.193373	
0.174524	
0.195013	
0.0973019	
0.157165	
0.163245	
0.156477	
0.265031	
0.25803	
0.258201	
0.250726	
0.2557	
0.263444	
0.1832	
0.187363	
0.174266	
0.181948	
0.267529	
0.253539	
0.259737	
0.206046	
0.197722	
0.210599	
0.0630855	
0.0991494	
0.0880546	
0.100159	
0.290918	
0.287377	
0.181137	
0.170198	
0.267219	
0.207382	
0.207712	
0.200175	
0.156329	
0.164499	
0.205019	
0.217464	
0.2107	
0.218503	
0.244914	
0.249219	
0.237482	
0.240636	
0.236443	
0.2458	
0.252206	
0.221066	
0.206365	
0.223722	
0.148562	
0.142586	
0.168352	
0.166589	
0.178655	
0.176537	
0.111223	
0.0932321	
0.110951	
0.0978287	
0.117641	
0.180664	
0.17248	
0.165381	
0.160863	
0.160771	
0.146085	
0.15076	
0.140296	
0.248307	
0.242159	
0.182578	
0.176593	
0.173757	
0.222209	
0.223727	
0.212215	
0.215893	
0.0934357	
0.0893893	
0.284199	
0.107037	
0.106785	
0.119603	
0.242537	
0.237056	
0.23512	
0.105973	
0.0961152	
0.167407	
0.157556	
0.171946	
0.165431	
0.231433	
0.232163	
0.221886	
0.223268	
0.208651	
0.208361	
0.198721	
0.198365	
0.262986	
0.265239	
0.254381	
0.258923	
0.148782	
0.2534	
0.258238	
0.250891	
0.215317	
0.203048	
0.195249	
0.119567	
0.156108	
0.154876	
0.257961	
0.255343	
0.220296	
0.206144	
0.209701	
0.21368	
0.219006	
0.210994	
0.196056	
0.20701	
0.211607	
0.260964	
0.269423	
0.260742	
0.25347	
0.260121	
0.249315	
0.193721	
0.18312	
0.193152	
0.183625	
0.220114	
0.212098	
0.206589	
0.127335	
0.192063	
0.186665	
0.173324	
0.0823066	
0.079626	
0.0918869	
0.0938089	
0.229249	
0.163064	
0.163508	
0.175487	
0.189607	
0.196599	
0.207438	
0.226971	
0.227701	
0.219525	
0.220177	
0.14399	
0.151482	
0.150841	
0.155837	
0.141559	
0.152416	
0.170473	
0.175424	
0.167584	
0.261805	
0.258214	
0.269365	
0.149585	
0.161449	
0.145494	
0.157515	
0.196234	
0.211195	
0.219584	
0.119775	
0.263105	
0.269165	
0.058618	
0.0734264	
0.0829379	
0.0544865	
0.168405	
0.155897	
0.17372	
0.143163	
0.148338	
0.23143	
0.239004	
0.231291	
0.20375	
0.215265	
0.207185	
0.182546	
0.171534	
0.132266	
0.139061	
0.139631	
0.150405	
0.150147	
0.171627	
0.156659	
0.166257	
0.171623	
0.181707	
0.186214	
0.241053	
0.232892	
0.215965	
0.208092	
0.167796	
0.151301	
0.287229	
0.248408	
0.278528	
0.282381	
0.271696	
0.287984	
0.272568	
0.285739	
0.281809	
0.285261	
0.280992	
0.23758	
0.241497	
0.242592	
0.246857	
0.227238	
0.230546	
0.232858	
0.236044	
0.209634	
0.216615	
0.21845	
0.221619	
0.270438	
0.208895	
0.2035	
0.196519	
0.193427	
0.283872	
0.240588	
0.244256	
0.136916	
0.138607	
0.143304	
0.153654	
0.143455	
0.146621	
0.150207	
0.160443	
0.22819	
0.239576	
0.228111	
0.123422	
0.130196	
0.122973	
0.129954	
0.209297	
0.201816	
0.234901	
0.226307	
0.233153	
0.221505	
0.221974	
0.207009	
0.218179	
0.210572	
0.194973	
0.181577	
0.198906	
0.185611	
0.14486	
0.139681	
0.171911	
0.165969	
0.194918	
0.187892	
0.198547	
0.187538	
0.267765	
0.267316	
0.276135	
0.153759	
0.150675	
0.145661	
0.141143	
0.134646	
0.134447	
0.140359	
0.143655	
0.132567	
0.127803	
0.219886	
0.203413	
0.216359	
0.212262	
0.271588	
0.271287	
0.136232	
0.143098	
0.158922	
0.154281	
0.17686	
0.159348	
0.155693	
0.175734	
0.20091	
0.162733	
0.149273	
0.125165	
0.185767	
0.194645	
0.128505	
0.13309	
0.244669	
0.241375	
0.237398	
0.231956	
0.172859	
0.17035	
0.109392	
0.12315	
0.138239	
0.136683	
0.122563	
0.116847	
0.116451	
0.126899	
0.126911	
0.0863907	
0.111612	
0.132888	
0.276175	
0.263703	
0.280197	
0.276123	
0.234437	
0.241914	
0.232247	
0.238204	
0.242489	
0.243083	
0.248179	
0.139076	
0.219946	
0.207132	
0.212855	
0.161721	
0.265679	
0.252558	
0.269534	
0.2368	
0.237362	
0.263651	
0.25577	
0.268964	
0.165389	
0.0742344	
0.0749461	
0.0617928	
0.0524916	
0.210525	
0.217821	
0.286141	
0.280191	
0.0775715	
0.0740089	
0.0826318	
0.0707971	
0.114404	
0.177862	
0.187868	
0.188741	
0.179128	
0.183597	
0.191692	
0.183607	
0.191834	
0.182701	
0.191209	
0.129066	
0.140419	
0.120415	
0.14037	
0.174034	
0.161235	
0.173915	
0.237237	
0.229454	
0.276103	
0.274695	
0.264078	
0.266761	
0.166714	
0.1586	
0.15113	
0.148876	
0.199632	
0.192216	
0.183756	
0.182864	
0.179898	
0.17797	
0.191406	
0.190598	
0.243292	
0.27547	
0.271456	
0.277899	
0.25428	
0.259811	
0.283237	
0.284638	
0.231162	
0.225099	
0.214177	
0.206306	
0.242529	
0.247084	
0.223748	
0.23417	
0.219509	
0.226734	
0.11795	
0.110238	
0.118036	
0.0996494	
0.195175	
0.182571	
0.280456	
0.273407	
0.267291	
0.26581	
0.272162	
0.281292	
0.292232	
0.281275	
0.287799	
0.238932	
0.249847	
0.241652	
0.251741	
0.24299	
0.119582	
0.0725201	
0.0602042	
0.188671	
0.178988	
0.146272	
0.16227	
0.134648	
0.149799	
0.133805	
0.120645	
0.128601	
0.109558	
0.275495	
0.27979	
0.125686	
0.112748	
0.112715	
0.0931732	
0.0993897	
0.132759	
0.124342	
0.112434	
0.10624	
0.118208	
0.070402	
0.0876825	
0.055019	
0.130114	
0.12691	
0.128864	
0.118239	
0.112259	
0.0991519	
0.115978	
0.121199	
0.254098	
0.160955	
0.153583	
0.150816	
0.142292	
0.252285	
0.245217	
0.246374	
0.238399	
0.0878361	
0.0693611	
0.133922	
0.126494	
0.119054	
0.10422	
0.104337	
0.120716	
0.113531	
0.144595	
0.196549	
0.185751	
0.186721	
0.134186	
0.125665	
0.117917	
0.25109	
0.128367	
0.109714	
0.140039	
0.123215	
0.233014	
0.235035	
0.239223	
0.245092	
0.091433	
0.10564	
0.10043	
0.109349	
0.194657	
0.200403	
0.0810068	
0.0680738	
0.0764524	
0.0534009	
0.243783	
0.246396	
0.251597	
0.256768	
0.126277	
0.130353	
0.140697	
0.144801	
0.263805	
0.274603	
0.264387	
0.270884	
0.230546	
0.221061	
0.277253	
0.285807	
0.278841	
0.284665	
0.291377	
0.159979	
0.159767	
0.13494	
0.119364	
0.107298	
0.106931	
0.137258	
0.134457	
0.156167	
0.143197	
0.149705	
0.134023	
0.17443	
0.170062	
0.149811	
0.160039	
0.146397	
0.132853	
0.13098	
0.256205	
0.25964	
0.248721	
0.250054	
0.167372	
0.155899	
0.145277	
0.117208	
0.149225	
0.13599	
0.040322	
0.0431421	
0.0253202	
0.0416529	
0.0449607	
-0.346401	
-0.335814	
0.0433474	
0.0307444	
0.0361171	
-0.0536087	
-0.293966	
0.0436494	
0.043097	
-0.0884261	
-0.0935199	
-0.230707	
0.0459153	
-0.10061	
0.0382873	
0.0369186	
-0.339028	
-0.147728	
-0.0972308	
-0.172147	
-0.0643511	
-0.0832251	
0.0104625	
-0.0195142	
-0.283075	
-0.281881	
-0.235129	
-0.107612	
-0.315288	
-0.271703	
-0.0895832	
-0.132295	
-0.0791097	
-0.257549	
-0.256043	
-0.270868	
-0.306193	
-0.32413	
-0.292401	
-0.0177748	
-0.0465219	
-0.184833	
-0.233485	
-0.248596	
-0.244773	
-0.207506	
-0.211869	
-0.157698	
-0.158324	
-0.125155	
-0.274419	
-0.138242	
-0.104947	
-0.10995	
-0.128837	
-0.121868	
-0.149751	
-0.117145	
-0.115302	
-0.31236	
-0.263238	
-0.134385	
-0.175129	
-0.285146	
-0.0853473	
-0.220536	
-0.128206	
-0.101062	
-0.167065	
-0.171982	
-0.299352	
-0.346553	
0.0368421	
0.0221566	
-0.0318912	
-0.211885	
-0.0755496	
-0.0655813	
-0.239681	
-0.262542	
-0.237117	
-0.295859	
-0.277313	
-0.176984	
-0.181529	
-0.265025	
-0.283224	
-0.254177	
-0.0521125	
-0.297895	
-0.0288621	
-0.0212528	
-0.0837464	
-0.073244	
-0.234208	
-0.146088	
-0.179678	
-0.296161	
-0.117951	
-0.160149	
-0.191099	
-0.173825	
-0.202161	
-0.0731611	
-0.277514	
-0.25167	
-0.258636	
-0.222963	
-0.205168	
-0.217995	
-0.104505	
-0.246623	
-0.0364006	
-0.0851703	
-0.146177	
-0.290481	
-0.281103	
-0.306944	
-0.329063	
-0.218641	
-0.219622	
-0.310276	
-0.29916	
-0.16593	
0.0296945	
-0.0134796	
-0.298886	
-0.298438	
-0.339933	
-0.283009	
-0.191632	
-0.191587	
0.0284082	
-0.0119553	
-0.316938	
-0.324993	
-0.323756	
0.0212361	
0.0370552	
-0.11172	
-0.143504	
-0.0628077	
-0.053166	
-0.0712095	
-0.251027	
-0.211021	
-0.16331	
-0.194958	
-0.192276	
-0.191879	
-0.140385	
0.0397453	
-0.161346	
-0.166634	
-0.337451	
-0.34572	
-0.156138	
-0.0878857	
-0.273029	
-0.24323	
-0.242073	
-0.171865	
-0.203001	
-0.190478	
-0.211388	
0.020145	
-0.283848	
-0.111857	
-0.176668	
-0.247562	
-0.194868	
-0.212999	
-0.239989	
-0.254074	
-0.337278	
-0.261445	
-0.262436	
-0.237921	
-0.237095	
-0.027994	
-0.233942	
-0.223078	
-0.200639	
-0.103267	
-0.103024	
-0.12952	
-0.0152951	
-0.0312811	
-0.118851	
-0.0896196	
-0.125984	
-0.21936	
-0.103189	
-0.346078	
-0.337657	
-0.329738	
-0.0633878	
-0.293974	
-0.276639	
-0.275084	
-0.191711	
-0.241068	
-0.22067	
-0.237407	
-0.194388	
-0.158293	
-0.314141	
-0.319346	
-0.20787	
-0.201499	
-0.187749	
-0.185037	
-0.117625	
-0.257347	
-0.304255	
-0.316584	
-0.156626	
-0.140777	
-0.180264	
0.0103405	
-0.0242927	
-0.0926561	
-0.0784011	
-0.0243991	
-0.0456272	
-0.270012	
-0.283322	
-0.100851	
-0.0682602	
-0.0888294	
-0.0636899	
-0.085316	
-0.0692146	
-0.0888916	
-0.303428	
-0.308298	
-0.321031	
-0.333733	
-0.344958	
-0.0441338	
-0.113729	
-0.0598761	
-0.118114	
-0.155213	
-0.178116	
-0.248825	
-0.20052	
-0.120592	
-0.15457	
-0.239007	
-0.226717	
-0.190786	
-0.156462	
-0.181128	
-0.034912	
-0.0271196	
-0.0557064	
-0.0505289	
-0.133798	
-0.197067	
-0.120041	
-0.0885654	
-0.223246	
-0.19087	
-0.214799	
-0.194813	
-0.270444	
-0.248065	
-0.263413	
-0.248175	
-0.145035	
-0.30876	
-0.290512	
-0.316327	
-0.301163	
-0.140945	
-0.12748	
-0.176638	
-0.202995	
-0.103765	
-0.066871	
-0.117203	
-0.0774529	
-0.19579	
-0.219808	
-0.0780568	
-0.0631244	
-0.0300934	
-0.267868	
-0.273915	
-0.252538	
-0.256987	
-0.0818186	
-0.0852139	
-0.231086	
-0.219676	
-0.159024	
-0.141941	
-0.175229	
-0.172797	
-0.152469	
-0.2314	
-0.205518	
-0.228246	
-0.21323	
-0.0219572	
0.00120008	
-0.327748	
-0.31822	
-0.115954	
-0.0979368	
-0.149046	
-0.134492	
-0.16066	
-0.146889	
-0.224644	
-0.248461	
-0.228114	
-0.286059	
-0.294842	
-0.278895	
-0.155008	
-0.166869	
-0.142522	
-0.110151	
-0.124349	
-0.0407016	
-0.0349919	
-0.0160294	
-0.0339953	
-0.00992692	
-0.0582042	
-0.0265622	
-0.0567028	
-0.0576055	
-0.0482188	
-0.0256882	
-0.112861	
-0.0830133	
-0.122412	
-0.0924983	
-0.14974	
-0.0477354	
-0.0672327	
-0.0274917	
-0.0553043	
-0.171492	
-0.132556	
-0.154991	
-0.130652	
-0.0348321	
-0.0713718	
-0.0645499	
-0.0849725	
-0.178571	
-0.203471	
-0.200253	
-0.223428	
-0.209097	
-0.212502	
-0.169999	
-0.167198	
-0.240135	
-0.253839	
-0.265383	
-0.267446	
-0.277665	
-0.290254	
-0.297946	
-0.301355	
-0.298091	
-0.301693	
-0.308401	
-0.317695	
-0.0286332	
-0.0503029	
-0.0835162	
-0.299872	
-0.284431	
-0.308784	
-0.314679	
-0.315613	
-0.301442	
-0.304075	
-0.0314633	
-0.0148717	
-0.210778	
-0.209818	
-0.182512	
-0.339312	
-0.339546	
-0.161322	
-0.167592	
-0.138242	
-0.141558	
-0.340618	
-0.330837	
-0.334538	
-0.33461	
-0.329667	
-0.125051	
-0.223908	
-0.203308	
-0.22856	
-0.210574	
0.0417576	
0.0312993	
-0.0730818	
-0.0154924	
-0.0374141	
-0.0406026	
-0.0164384	
0.0393154	
0.0282004	
-0.103104	
-0.0676128	
-0.114181	
-0.0876896	
-0.135914	
-0.151861	
-0.174736	
-0.183981	
-0.197921	
-0.197528	
-0.236559	
-0.240215	
-0.0118847	
-0.00921201	
-0.33362	
-0.323456	
-0.0297654	
-0.00652463	
-0.0281443	
-0.0043269	
0.0337404	
-0.0248723	
-0.338502	
-0.258211	
-0.276621	
-0.284359	
-0.0373112	
0.00284538	
-0.258401	
-0.267523	
0.00952116	
-0.190744	
-0.190428	
-0.308628	
-0.295477	
-0.310572	
-0.326454	
-0.312643	
-0.329591	
-0.20191	
-0.222056	
-0.128814	
-0.126701	
-0.117472	
-0.288222	
-0.262547	
-0.255977	
-0.131688	
-0.140142	
-0.18254	
-0.165462	
-0.00584604	
0.0393552	
0.00903065	
0.0246524	
-0.0270705	
0.0223329	
0.0440721	
-0.0144289	
-0.240479	
-0.249837	
-0.246593	
-0.332174	
-0.333267	
-0.326049	
0.0289264	
-0.325899	
-0.321632	
-0.135891	
-0.155582	
-0.150242	
0.0438996	
0.0293139	
-0.315671	
-0.313394	
-0.316456	
0.00854101	
0.0409536	
0.0364488	
0.0332188	
-0.185204	
-0.170983	
-0.206502	
-0.208288	
-0.331972	
-0.342726	
-0.336266	
0.0300807	
0.0443458	
-0.00328708	
0.0373809	
-0.271636	
-0.26514	
-0.14667	
-0.145343	
0.0398552	
0.0328528	
0.0274675	
-0.319743	
-0.298726	
-0.3282	
-0.321623	
-0.265568	
-0.258185	
-0.282632	
-0.267851	
-0.158305	
-0.146844	
-0.317725	
-0.323396	
-0.260995	
-0.0278639	
-0.031535	
-0.0643619	
-0.0665382	
0.0386912	
0.044865	
-0.11385	
-0.105051	
-0.0740901	
-0.0573296	
-0.342898	
-0.334094	
-0.342426	
-0.333582	
-0.108333	
-0.0975759	
-0.11104	
-0.0765926	
-0.089944	
0.0256605	
0.0354705	
0.0208205	
-0.18555	
-0.200261	
-0.178629	
-0.201443	
0.0392063	
-0.113802	
-0.0983892	
-0.343552	
-0.342531	
-0.123688	
-0.103311	
0.00017887	
0.00409196	