<VTKFile type="UnstructuredGrid" version="0.1" byte_order="LittleEndian">
	<UnstructuredGrid>
		<Piece NumberOfPoints="1647" NumberOfCells="3046">
			<CellData Scalars="scalars">
				<DataArray type="Float64" Name="Doublet Strengths" NumberOfComponents="1" Format="ascii">
0.295314	
0.251642	
0.278275	
0.0589007	
0.0976665	
0.114943	
0.113292	
0.113905	
0.0604903	
0.0577458	
0.109993	
0.100627	
0.0552355	
0.107589	
0.11308	
0.0869581	
0.235187	
0.110212	
0.282855	
0.209246	
0.230389	
0.145188	
0.200966	
0.228397	
0.181372	
0.200896	
0.151365	
0.185443	
0.127738	
0.225081	
0.229202	
0.172866	
0.227008	
0.255121	
0.128374	
0.225476	
0.229119	
0.160527	
0.181602	
0.159077	
0.172303	
0.185362	
0.182749	
0.210063	
0.214554	
0.179042	
0.229037	
0.148509	
0.146584	
0.160895	
0.246051	
0.234457	
0.222196	
0.214883	
0.2197	
0.209227	
0.243435	
0.166412	
0.182406	
0.183546	
0.179697	
0.145275	
0.101617	
0.132979	
0.198516	
0.200788	
0.205649	
0.208804	
0.268845	
0.271887	
0.261974	
0.114651	
0.0527667	
0.194546	
0.196742	
0.203785	
0.208758	
0.189038	
0.175505	
0.178393	
0.168665	
0.197163	
0.188378	
0.196975	
0.193507	
0.200723	
0.198932	
0.206901	
0.175633	
0.163574	
0.105381	
0.119693	
0.126754	
0.224031	
0.235239	
0.229407	
0.238738	
0.118533	
0.128064	
0.168151	
0.244523	
0.247744	
0.260826	
0.211951	
0.199017	
0.201067	
0.155415	
0.226948	
0.108323	
0.121836	
0.131032	
0.142905	
0.140092	
0.150972	
0.134794	
0.133829	
0.266004	
0.277519	
0.233813	
0.249794	
0.227084	
0.0554322	
0.150952	
0.0915573	
0.080048	
0.086606	
0.191194	
0.210167	
0.0989794	
0.0744598	
0.141545	
0.1421	
0.134341	
0.134991	
0.105788	
0.261137	
0.250931	
0.166718	
0.151235	
0.169242	
0.154837	
0.114838	
0.152748	
0.155354	
0.163116	
0.161983	
0.121453	
0.108424	
0.294512	
0.279736	
0.257721	
0.272216	
0.231376	
0.201051	
0.20161	
0.209027	
0.101218	
0.0800575	
0.275653	
0.193494	
0.182097	
0.191067	
0.177989	
0.187807	
0.172	
0.194949	
0.196405	
0.187837	
0.0937819	
0.165555	
0.147214	
0.159047	
0.261041	
0.268583	
0.275186	
0.258154	
0.269549	
0.253022	
0.175155	
0.183523	
0.184793	
0.189032	
0.271564	
0.265089	
0.257465	
0.217292	
0.198938	
0.060821	
0.0768092	
0.0992654	
0.100779	
0.0943337	
0.296919	
0.291599	
0.181958	
0.171047	
0.270736	
0.212901	
0.209443	
0.196986	
0.165601	
0.166584	
0.21228	
0.207134	
0.224084	
0.212824	
0.253298	
0.247459	
0.242786	
0.237083	
0.240869	
0.257226	
0.248475	
0.24863	
0.213354	
0.223012	
0.225663	
0.149577	
0.149489	
0.166944	
0.168972	
0.177445	
0.184797	
0.10633	
0.11199	
0.0984591	
0.111745	
0.118284	
0.173759	
0.177908	
0.161955	
0.159235	
0.158283	
0.161676	
0.141099	
0.151614	
0.251472	
0.244568	
0.173378	
0.175368	
0.18432	
0.21092	
0.217541	
0.224136	
0.225579	
0.0897414	
0.0932304	
0.107514	
0.107775	
0.12051	
0.233381	
0.235648	
0.244053	
0.0978275	
0.108606	
0.158635	
0.168642	
0.157364	
0.173221	
0.22062	
0.225118	
0.23287	
0.237648	
0.195214	
0.199968	
0.210396	
0.215336	
0.255055	
0.262281	
0.265925	
0.268953	
0.149656	
0.11109	
0.261419	
0.251338	
0.262315	
0.216842	
0.201104	
0.20437	
0.115611	
0.157494	
0.156177	
0.257325	
0.257836	
0.220418	
0.209363	
0.206244	
0.220563	
0.209539	
0.21527	
0.208693	
0.208003	
0.192766	
0.197514	
0.263443	
0.274372	
0.255562	
0.251611	
0.263272	
0.255758	
0.29438	
0.184491	
0.200271	
0.179824	
0.194579	
0.213911	
0.222081	
0.208272	
0.128385	
0.184759	
0.192346	
0.175288	
0.178564	
0.0827535	
0.0885168	
0.0924459	
0.236869	
0.164823	
0.164383	
0.176984	
0.198195	
0.194372	
0.209179	
0.288534	
0.275551	
0.282117	
0.221245	
0.221842	
0.228963	
0.233357	
0.145316	
0.156669	
0.157048	
0.14434	
0.153609	
0.146771	
0.176758	
0.168802	
0.17164	
0.272505	
0.26493	
0.259396	
0.162667	
0.150408	
0.167149	
0.147765	
0.221516	
0.212972	
0.271828	
0.26548	
0.120388	
0.0751348	
0.0600006	
0.0833773	
0.0547457	
0.169763	
0.161583	
0.144159	
0.143734	
0.233355	
0.229732	
0.241156	
0.212361	
0.204347	
0.216958	
0.183502	
0.172578	
0.139853	
0.132899	
0.151106	
0.140362	
0.167502	
0.157725	
0.160151	
0.17295	
0.173051	
0.183093	
0.183326	
0.23448	
0.242837	
0.209712	
0.217694	
0.17571	
0.152069	
0.169167	
0.292058	
0.295048	
0.282125	
0.288873	
0.249301	
0.285774	
0.282213	
0.292863	
0.287932	
0.275566	
0.283913	
0.287061	
0.284119	
0.243705	
0.239584	
0.249147	
0.244819	
0.236873	
0.233915	
0.222393	
0.227788	
0.213929	
0.219259	
0.276672	
0.203666	
0.203669	
0.19329	
0.191622	
0.24135	
0.244377	
0.1396	
0.137884	
0.148948	
0.151981	
0.146797	
0.143766	
0.156887	
0.158965	
0.228333	
0.230351	
0.131058	
0.118653	
0.13081	
0.123748	
0.203311	
0.214032	
0.228305	
0.239714	
0.223439	
0.227758	
0.224309	
0.212823	
0.2207	
0.187898	
0.196815	
0.18716	
0.195886	
0.140834	
0.146264	
0.140747	
0.167352	
0.178126	
0.189832	
0.202254	
0.189239	
0.19489	
0.282068	
0.278333	
0.265864	
0.270034	
0.154668	
0.14238	
0.142577	
0.135546	
0.135575	
0.148906	
0.141931	
0.133682	
0.214293	
0.206906	
0.22117	
0.217593	
0.279475	
0.144213	
0.151551	
0.155572	
0.160036	
0.178242	
0.167822	
0.223445	
0.214918	
0.267418	
0.254646	
0.156714	
0.0680184	
0.176498	
0.160266	
0.20267	
0.167663	
0.196294	
0.187344	
0.123957	
0.134153	
0.169527	
0.232179	
0.236838	
0.240715	
0.243073	
0.123312	
0.174364	
0.171901	
0.105244	
0.122751	
0.125436	
0.133936	
0.112127	
0.125528	
0.128303	
0.13851	
0.139121	
0.272651	
0.28008	
0.279744	
0.283821	
0.244476	
0.231743	
0.234404	
0.0779744	
0.0829636	
0.0742729	
0.0709792	
0.251116	
0.252206	
0.240733	
0.245607	
0.241927	
0.240088	
0.13445	
0.209107	
0.21488	
0.222055	
0.0621522	
0.062226	
0.0746424	
0.0753467	
0.163102	
0.271959	
0.25647	
0.259308	
0.166905	
0.219962	
0.212588	
0.284163	
0.290592	
0.187602	
0.188851	
0.173429	
0.177853	
0.260967	
0.269115	
0.261401	
0.268755	
0.180456	
0.193295	
0.185049	
0.183277	
0.196943	
0.184809	
0.193033	
0.149374	
0.131588	
0.143059	
0.116928	
0.16319	
0.175086	
0.175214	
0.231376	
0.239292	
0.2672	
0.269764	
0.27438	
0.278205	
0.160047	
0.163855	
0.150194	
0.152446	
0.18499	
0.184109	
0.196607	
0.193597	
0.197697	
0.191944	
0.180928	
0.172769	
0.249824	
0.236832	
0.250362	
0.243621	
0.247446	
0.289225	
0.296598	
0.281535	
0.284592	
0.263111	
0.257484	
0.226557	
0.235409	
0.206817	
0.215665	
0.118744	
0.100083	
0.124192	
0.110834	
0.183925	
0.192009	
0.291012	
0.283986	
0.291224	
0.28498	
0.275337	
0.287195	
0.277983	
0.269798	
0.27499	
0.268402	
0.254069	
0.252368	
0.243906	
0.162421	
0.147268	
0.150474	
0.135287	
0.107826	
0.10011	
0.0870297	
0.0731687	
0.113698	
0.127022	
0.114067	
0.0996981	
0.0943524	
0.133895	
0.125422	
0.145875	
0.055488	
0.0709903	
0.0884029	
0.129298	
0.120174	
0.128438	
0.13006	
0.117475	
0.122233	
0.143987	
0.241058	
0.240787	
0.255108	
0.254542	
0.0886281	
0.070027	
0.127457	
0.119921	
0.134965	
0.123329	
0.130383	
0.121867	
0.134966	
0.116484	
0.129397	
0.224521	
0.220829	
0.215063	
0.121688	
0.11458	
0.11547	
0.111396	
0.095456	
0.187486	
0.188397	
0.198324	
0.118767	
0.135201	
0.126672	
0.136965	
0.123742	
0.128861	
0.110045	
0.202946	
0.20506	
0.241514	
0.245283	
0.235322	
0.237331	
0.0978934	
0.0920061	
0.110098	
0.101103	
0.196726	
0.202386	
0.110558	
0.105085	
0.0633523	
0.0536397	
0.0814604	
0.0684527	
0.128977	
0.109728	
0.139734	
0.121006	
0.272853	
0.266363	
0.222257	
0.229324	
0.161084	
0.150037	
0.147033	
0.135701	
0.135713	
0.151414	
0.121274	
0.157898	
0.145074	
0.135324	
0.133151	
0.14709	
0.116576	
0.140317	
0.153316	
0.161427	
0.141733	
0.151249	
0.258766	
0.261753	
0.26617	
0.147061	
0.154463	
0.126324	
0.132341	
0.253	
0.255462	
0.242193	
0.243953	
0.250927	
0.25828	
0.245309	
0.247539	
0.101941	
0.107686	
0.102438	
0.108085	
0.0306698	
0.0429218	
0.0367304	
0.0414085	
0.0447987	
-0.348614	
-0.338541	
0.0398661	
0.0403241	
0.0433382	
0.0394419	
0.0360735	
-0.296728	
0.0431023	
-0.0888698	
-0.094295	
-0.232193	
-0.127447	
0.0380389	
0.0367355	
-0.148912	
-0.0891269	
-0.173479	
-0.0841207	
-0.0884909	
0.00999231	
-0.0201142	
-0.280015	
-0.285257	
-0.236936	
-0.108658	
-0.326458	
-0.274084	
-0.0904166	
-0.133387	
-0.0799414	
-0.243911	
-0.258011	
-0.273711	
-0.308559	
-0.326576	
-0.294997	
-0.0182843	
-0.0471814	
-0.184003	
-0.235356	
-0.2037	
-0.230747	
-0.226339	
-0.246739	
-0.158581	
-0.181024	
-0.132251	
-0.276453	
-0.15369	
-0.110884	
-0.118156	
-0.12981	
-0.122985	
-0.118192	
-0.150949	
-0.11626	
-0.314651	
-0.26904	
-0.136064	
-0.182986	
-0.287833	
-0.0862242	
-0.222351	
-0.129291	
-0.102026	
-0.172371	
-0.173008	
-0.289074	
-0.351276	
0.0218038	
0.0207932	
-0.0325185	
-0.213702	
-0.066351	
-0.0764009	
-0.264934	
-0.241747	
-0.239367	
-0.27942	
-0.298081	
-0.189257	
-0.182908	
-0.285613	
-0.267418	
-0.256434	
-0.0528053	
-0.302172	
-0.0163918	
-0.0590509	
-0.0461912	
-0.0895187	
-0.236147	
-0.162418	
-0.18064	
-0.298839	
-0.119029	
-0.175167	
-0.209085	
-0.161399	
-0.172108	
-0.0718686	
-0.253282	
-0.279527	
-0.224563	
-0.260428	
-0.199008	
-0.218442	
-0.0756111	
-0.1055	
-0.24791	
-0.0363906	
-0.0521616	
-0.0858437	
-0.163138	
-0.283643	
-0.29295	
-0.309737	
-0.332017	
-0.229843	
-0.221304	
-0.30174	
-0.312759	
-0.167102	
0.0294962	
-0.0139662	
-0.342162	
-0.284032	
-0.193209	
-0.210018	
-0.207328	
0.0294651	
-0.0124387	
-0.321738	
-0.328603	
-0.327508	
0.0249454	
0.0365465	
-0.112437	
-0.144408	
-0.0621043	
-0.0706377	
-0.053203	
0.0459402	
-0.253133	
-0.212677	
-0.188274	
-0.196426	
-0.146232	
-0.193908	
-0.14161	
-0.168667	
-0.147731	
-0.168637	
-0.340641	
-0.349879	
-0.132822	
-0.0888035	
-0.244961	
-0.259561	
-0.27516	
-0.204448	
-0.167944	
-0.212813	
-0.191663	
0.0198264	
-0.285954	
-0.101372	
-0.112899	
-0.17812	
-0.248381	
-0.196203	
-0.214478	
-0.239225	
-0.256339	
-0.339073	
-0.23983	
-0.24673	
-0.250265	
-0.264622	
-0.0287691	
-0.235666	
-0.202198	
-0.224797	
-0.103989	
-0.104228	
-0.13495	
-0.13063	
-0.0153939	
-0.0312048	
-0.119241	
-0.0973689	
-0.221095	
-0.114847	
-0.332035	
-0.340025	
-0.0580569	
-0.292722	
-0.283095	
-0.277528	
-0.194373	
-0.240716	
-0.201775	
-0.239297	
-0.195935	
-0.133624	
-0.323932	
-0.317738	
-0.178436	
-0.186631	
-0.209593	
-0.215294	
-0.0914369	
-0.115154	
-0.319619	
-0.306793	
-0.15747	
-0.181721	
0.00987819	
-0.0368119	
-0.024886	
-0.079249	
-0.0463165	
-0.0249682	
-0.272472	
-0.286063	
-0.351048	
-0.101617	
-0.0896227	
-0.0689484	
-0.0698533	
-0.0895521	
-0.0562324	
-0.0857939	
-0.307161	
-0.324743	
-0.312117	
-0.34941	
-0.328028	
-0.0860796	
-0.119127	
-0.114712	
-0.156494	
-0.205003	
-0.24935	
-0.202002	
-0.124206	
-0.12583	
-0.14174	
-0.22768	
-0.240164	
-0.160163	
-0.177804	
-0.157456	
-0.175734	
-0.0222823	
-0.0353713	
-0.0507662	
-0.0640667	
-0.312867	
-0.212359	
-0.141985	
-0.0847214	
-0.121132	
-0.210763	
-0.224936	
-0.196362	
-0.216502	
-0.263845	
-0.272903	
-0.250288	
-0.265815	
-0.315045	
-0.30352	
-0.311202	
-0.296141	
-0.158688	
-0.114369	
-0.20428	
-0.191975	
-0.0785468	
-0.104637	
-0.0781614	
-0.105837	
-0.211204	
-0.219001	
-0.0635819	
-0.06725	
-0.0303622	
-0.254551	
-0.259176	
-0.270061	
-0.280981	
-0.0606024	
-0.0827307	
-0.230173	
-0.230749	
-0.143066	
-0.176629	
-0.139377	
-0.174198	
-0.24627	
-0.203305	
-0.230569	
0.000961096	
-0.0273903	
-0.320235	
-0.3299	
-0.0985189	
-0.116628	
-0.161954	
-0.148045	
-0.150234	
-0.135572	
-0.241935	
-0.220316	
-0.250266	
-0.288542	
-0.275944	
-0.296936	
-0.173052	
-0.15614	
-0.143441	
-0.103909	
-0.110944	
-0.0405227	
-0.034962	
-0.0318015	
-0.014156	
-0.0295886	
-0.0104941	
-0.0574612	
-0.0271533	
-0.0584926	
-0.0483637	
-0.0488386	
-0.123488	
-0.11388	
-0.0838994	
-0.15094	
-0.0281538	
-0.05624	
-0.0260876	
-0.0679714	
-0.156236	
-0.131797	
-0.172877	
-0.159552	
-0.037948	
-0.035389	
-0.0857994	
-0.0652729	
-0.222326	
-0.225117	
-0.179938	
-0.179485	
-0.171423	
-0.193551	
-0.192409	
-0.214226	
-0.267313	
-0.269292	
-0.250422	
-0.25566	
-0.292725	
-0.284038	
-0.303934	
-0.300367	
-0.304187	
-0.300562	
-0.317959	
-0.311166	
-0.08437	
-0.0292099	
-0.0509878	
-0.298186	
-0.287003	
-0.320287	
-0.308956	
-0.31991	
-0.304784	
-0.305421	
-0.0153764	
-0.0320504	
-0.210554	
-0.199433	
-0.187096	
-0.340692	
-0.342112	
-0.342476	
-0.168511	
-0.147642	
-0.155338	
-0.139084	
-0.344772	
-0.337021	
-0.329801	
-0.337055	
-0.332959	
-0.14132	
-0.204968	
-0.225754	
-0.1987	
-0.230559	
0.0310318	
0.0416573	
-0.0739052	
-0.0721355	
-0.0157939	
-0.0413485	
-0.0170556	
0.0280648	
0.039777	
-0.0682447	
-0.125293	
-0.0649914	
-0.115099	
-0.136911	
-0.15287	
-0.184919	
-0.182011	
-0.197762	
-0.205596	
-0.239148	
-0.242966	
-0.00937969	
-0.011991	
-0.337149	
-0.326628	
-0.03027	
-0.00693503	
-0.279671	
-0.0260447	
0.0336613	
-0.259809	
-0.00788981	
-0.348614	
-0.288719	
-0.0277786	
-0.00358392	
0.00935622	
-0.192841	
-0.179897	
-0.303089	
-0.312644	
-0.314985	
-0.318774	
-0.329004	
-0.332272	
-0.203185	
-0.221786	
-0.129753	
-0.118302	
-0.127447	
-0.287123	
-0.24171	
-0.264352	
-0.267655	
-0.126134	
-0.157413	
-0.166828	
-0.186332	
-0.00936036	
0.00850691	
0.0388907	
-0.0380281	
0.0239018	
0.0437798	
0.0217852	
-0.0150727	
-0.300427	
-0.335403	
-0.328244	
-0.335501	
0.0306628	
-0.328725	
-0.324709	
-0.156891	
-0.137086	
-0.151532	
0.0273205	
0.040974	
-0.316273	
-0.31873	
-0.313708	
-0.272811	
0.00829527	
-0.278907	
-0.269182	
-0.260227	
0.0363685	
0.0408941	
0.043071	
-0.208214	
-0.193174	
-0.186704	
-0.168431	
-0.33534	
-0.337444	
-0.340125	
0.0438498	
0.0297876	
0.0370992	
0.00245362	
-0.300947	
-0.299182	
-0.292937	
-0.146174	
-0.147587	
0.0429077	
0.0263517	
-0.332898	
-0.324372	
-0.322559	
-0.159433	
-0.147905	
-0.320068	
-0.326412	
-0.262947	
-0.0321957	
-0.0284991	
-0.0673532	
-0.0651685	
0.0451506	
0.0387398	
-0.074859	
-0.0853594	
-0.1041	
-0.106018	
-0.346837	
-0.347345	
-0.337147	
-0.346753	
-0.109431	
-0.0768337	
-0.092494	
-0.0981056	
-0.119297	
0.0352871	
0.025377	
0.0203372	
-0.192672	
-0.203868	
-0.176183	
-0.201309	
0.0383513	
-0.111622	
-0.111109	
-0.0959086	
-0.342579	
-0.34991	
-0.265561	
-0.275958	
-0.104375	
-0.124872	
-0.289396	
-0.278149	
9.78326e-05	
0.00402527	
-0.259314	
-0.284305	
-0.273999	
-0.208996	
-0.230326	
-0.197487	
-0.213469	
-0.0422062	
-0.0935633	
-0.0514947	
-0.0446247	
-0.0934375	
-0.0757181	
-0.344305	
-0.349839	
-0.34485	
-0.349165	
-0.0379253	
-0.0456012	
0.0227013	
-0.257763	
-0.237875	
-0.309213	
-0.301497	
-0.163584	
-0.158797	
-0.117992	
-0.101454	
-0.328134	
-0.320045	
-0.340857	
-0.336952	
-0.329227	
-0.320647	
-0.169254	
-0.172735	
-0.145585	
-0.149458	
-0.260535	
-0.276558	
-0.189816	
-0.204558	
-0.224525	
-0.226349	
-0.338886	
-0.340709	
-0.342442	
-0.341729	
-0.291098	
-0.305028	
-0.315153	
-0.308159	
-0.316387	
-0.268391	
-0.257042	
-0.278099	
-0.28852	
-0.0330539	
0.0117612	
0.0367801	
-0.291974	
-0.288074	
-0.0882684	
-0.0716049	
-0.121592	
-0.21572	
-0.233645	
-0.215507	
-0.251365	
-0.248058	
-0.257195	
-0.260201	
-0.266052	
-0.346118	
-0.34097	
-0.33964	
-0.331751	
-0.298169	
-0.279043	
-0.292	
-0.320812	
0.0166526	
-0.0448824	
0.0320255	
0.0070197	
-0.224984	
-0.251227	
-0.247381	
-0.221197	
-0.23745	
-0.0272718	
0.0317869	
0.0289827	
-0.0220796	
0.0407982	
0.0209854	
-0.285758	
-0.293375	
-0.291989	
-0.302629	
0.0338347	
0.0101424	
-0.23481	
-0.266009	
-0.243494	
-0.271309	
-0.261087	
-0.266467	
-0.278746	
-0.25717	
-0.250637	
-0.267198	
-0.122549	
-0.1286	
-0.14211	
-0.154958	
-0.331051	
-0.331627	
-0.333692	
-0.233448	
-0.222032	
-0.319588	
-0.314827	
-0.302538	
-0.304261	
-0.215442	
-0.233799	
-0.227553	
-0.244672	
-0.100869	
-0.125635	
-0.312709	
-0.315055	
-0.337975	
-0.343007	
-0.0529115	
-0.0669428	
-0.0730755	
-0.0826914	
-0.240373	
-0.227509	
-0.223036	
-0.217395	
-0.126234	
-0.150496	
-0.159567	
-0.178752	
-0.28868	
-0.301866	
-0.30167	
-0.312699	
-0.163483	
-0.155151	
-0.200517	
-0.19256	
-0.249203	
-0.238961	
-0.0641723	
-0.0412725	
-0.0893315	
-0.0741199	
-0.282822	
-0.279134	
-0.347625	
-0.345195	
-0.348483	
-0.350352	
-0.325067	
-0.324122	
-0.147376	
-0.162031	
-0.190806	
-0.201044	
-0.025465	
-0.0128147	
0.0328424	
0.0301792	
-0.20013	
-0.164611	
-0.189656	
-0.152019	
-0.0105679	
-0.00414909	
-0.00723609	
-0.000441413	
0.00269193	
0.0147735	
0.0208597	
0.0231788	
0.0174345	
-0.00888944	
-0.000201498	
0.00823291	
0.00385694	
0.01027	
0.0188628	
0.0231585	
0.0102946	
0.0146237	
0.00661758	
-0.00451787	
0.00386708	
-0.0111493	
-0.014995	
-0.00402203	
-0.0228136	
-0.0227589	
-0.0165579	
-0.0238895	
-0.0205891	
0.0144951	
0.0124178	
-0.00124788	
0.00502027	
-0.00633775	
-0.0178979	
-0.017185	
-0.0164726	
-0.0144421	
-0.00990243	
0.0179174	
0.290546	
0.252754	
0.278338	
0.0586451	
0.103602	
0.0607395	
0.210276	
0.114826	
0.112595	
0.11315	
0.11405	
0.0860081	
0.0570226	
0.110143	
0.100537	
0.0959332	
0.055241	
0.107602	
0.0881443	
0.236971	
0.218691	
0.148664	
0.201039	
0.227899	
0.181461	
0.201366	
0.151063	
0.127882	
0.230126	
0.223653	
0.172947	
0.226493	
0.255104	
0.133017	
0.127186	
0.225842	
0.229777	
0.168478	
0.181519	
0.159499	
0.171975	
0.185498	
0.182957	
0.21501	
0.214233	
0.172915	
0.229564	
0.148589	
0.146806	
0.149911	
0.233931	
0.215156	
0.222588	
0.209465	
0.212507	
0.243221	
0.182828	
0.184121	
0.180225	
0.145417	
0.101065	
0.132897	
0.212882	
0.208485	
0.19832	
0.195708	
0.261472	
0.268174	
0.276245	
0.113535	
0.0622275	
0.204708	
0.204257	
0.195402	
0.191969	
0.178279	
0.168588	
0.18949	
0.188199	
0.188359	
0.201564	
0.196994	
0.199173	
0.20747	
0.193685	
0.195066	
0.174365	
0.162051	
0.121019	
0.107229	
0.126541	
0.112875	
0.228902	
0.240268	
0.223668	
0.227435	
0.127933	
0.11846	
0.168385	
0.244505	
0.253625	
0.198751	
0.201934	
0.156561	
0.203198	
0.220887	
0.121894	
0.10826	
0.1353	
0.131995	
0.160323	
0.140348	
0.135269	
0.143974	
0.26333	
0.277531	
0.249373	
0.233379	
0.22755	
0.0679724	
0.0553669	
0.118677	
0.150848	
0.0801669	
0.092532	
0.204847	
0.191327	
0.0970703	
0.0736839	
0.134504	
0.13507	
0.141742	
0.142206	
0.105167	
0.259329	
0.251184	
0.16938	
0.148978	
0.166796	
0.15911	
0.12807	
0.163316	
0.162164	
0.156802	
0.155445	
0.101128	
0.293285	
0.278448	
0.258956	
0.271492	
0.229289	
0.212934	
0.200935	
0.197112	
0.110658	
0.101122	
0.177563	
0.193202	
0.177841	
0.194175	
0.17199	
0.178757	
0.19451	
0.17548	
0.196243	
0.0979718	
0.158063	
0.164215	
0.157379	
0.267142	
0.260031	
0.260187	
0.252891	
0.257985	
0.265845	
0.184802	
0.189068	
0.175741	
0.183586	
0.270683	
0.256463	
0.262908	
0.20847	
0.20007	
0.213134	
0.0633901	
0.0997644	
0.0885213	
0.100846	
0.293412	
0.289884	
0.182096	
0.171032	
0.270175	
0.210005	
0.210298	
0.202638	
0.1573	
0.165554	
0.207293	
0.220109	
0.213364	
0.221303	
0.246845	
0.251254	
0.239303	
0.24257	
0.238186	
0.247705	
0.254222	
0.222575	
0.207697	
0.225251	
0.150004	
0.143935	
0.169277	
0.167495	
0.179691	
0.177546	
0.112102	
0.0938552	
0.111839	
0.0985342	
0.118143	
0.181762	
0.173496	
0.166283	
0.161732	
0.16168	
0.146852	
0.151537	
0.140975	
0.250851	
0.244534	
0.184646	
0.178408	
0.175688	
0.223863	
0.225452	
0.213725	
0.217509	
0.0939049	
0.0898158	
0.286623	
0.107872	
0.10759	
0.12062	
0.245354	
0.240033	
0.237914	
0.106636	
0.0967458	
0.168578	
0.158569	
0.17315	
0.166521	
0.234398	
0.235054	
0.2247	
0.226082	
0.210058	
0.209781	
0.199985	
0.199666	
0.265101	
0.267406	
0.25637	
0.261038	
0.149632	
0.255505	
0.260379	
0.25295	
0.216764	
0.204392	
0.196505	
0.120427	
0.15771	
0.156469	
0.25994	
0.257286	
0.221845	
0.207584	
0.211193	
0.216271	
0.221749	
0.213636	
0.197282	
0.208347	
0.212996	
0.263014	
0.271576	
0.262964	
0.255622	
0.26229	
0.25138	
0.194936	
0.184212	
0.19434	
0.184709	
0.221641	
0.213528	
0.20793	
0.128212	
0.19337	
0.187885	
0.174402	
0.0827941	
0.0800039	
0.0924996	
0.0943944	
0.231567	
0.164535	
0.164915	
0.177186	
0.190833	
0.197897	
0.20887	
0.22881	
0.229611	
0.221268	
0.221971	
0.145183	
0.152824	
0.152055	
0.157169	
0.142641	
0.153717	
0.171601	
0.176596	
0.168662	
0.264499	
0.260684	
0.272135	
0.150308	
0.162303	
0.146179	
0.158338	
0.197455	
0.212585	
0.221089	
0.120154	
0.265404	
0.271524	
0.0590322	
0.0739322	
0.0834358	
0.0547711	
0.169816	
0.157099	
0.175203	
0.144518	
0.149793	
0.23343	
0.241032	
0.233219	
0.205424	
0.217018	
0.208813	
0.183539	
0.172439	
0.13294	
0.139809	
0.140426	
0.151355	
0.151154	
0.173055	
0.157736	
0.167495	
0.172897	
0.183294	
0.187834	
0.242814	
0.234531	
0.217407	
0.209447	
0.169201	
0.152369	
0.289644	
0.251353	
0.280837	
0.284695	
0.273912	
0.290369	
0.275384	
0.28824	
0.284369	
0.287671	
0.283317	
0.239667	
0.243592	
0.244821	
0.249075	
0.229447	
0.232687	
0.235125	
0.238357	
0.211408	
0.218437	
0.220418	
0.223547	
0.272652	
0.210599	
0.204836	
0.198589	
0.194744	
0.286211	
0.24342	
0.247207	
0.137877	
0.139584	
0.144394	
0.154891	
0.144525	
0.147717	
0.151356	
0.161727	
0.231033	
0.242567	
0.230811	
0.124154	
0.131052	
0.123729	
0.130826	
0.210792	
0.203217	
0.23673	
0.227998	
0.23489	
0.22311	
0.224153	
0.208924	
0.220317	
0.212579	
0.196718	
0.183026	
0.200606	
0.187068	
0.145619	
0.140382	
0.173661	
0.167556	
0.197298	
0.190058	
0.200877	
0.189537	
0.270165	
0.269638	
0.278654	
0.154658	
0.151524	
0.146838	
0.142262	
0.135613	
0.135437	
0.141516	
0.144929	
0.133601	
0.128819	
0.222512	
0.205596	
0.218984	
0.214805	
0.273764	
0.273464	
0.136887	
0.143823	
0.159869	
0.155157	
0.178869	
0.161035	
0.156444	
0.177081	
0.203335	
0.164352	
0.150274	
0.126042	
0.187975	
0.196983	
0.12939	
0.133662	
0.246633	
0.243259	
0.239198	
0.233719	
0.174849	
0.172274	
0.109741	
0.123578	
0.138861	
0.137283	
0.123222	
0.117356	
0.116929	
0.127628	
0.127609	
0.0866929	
0.112002	
0.133453	
0.278448	
0.265783	
0.282596	
0.278441	
0.236769	
0.244416	
0.23476	
0.240887	
0.245136	
0.246037	
0.251041	
0.139792	
0.222197	
0.209115	
0.215001	
0.16346	
0.267788	
0.254467	
0.271702	
0.238511	
0.239094	
0.265728	
0.25771	
0.271131	
0.167194	
0.0745953	
0.0753488	
0.0620764	
0.0527526	
0.212519	
0.219953	
0.288515	
0.282565	
0.0778837	
0.0742407	
0.0829083	
0.0709786	
0.114777	
0.179051	
0.189271	
0.189987	
0.180392	
0.184954	
0.193176	
0.185656	
0.194051	
0.184262	
0.192764	
0.129949	
0.141425	
0.121244	
0.141324	
0.175066	
0.162204	
0.175021	
0.239181	
0.23129	
0.278362	
0.276957	
0.26615	
0.268891	
0.168046	
0.159744	
0.152557	
0.150014	
0.200909	
0.193411	
0.184949	
0.183985	
0.180944	
0.179014	
0.19257	
0.191762	
0.245076	
0.277704	
0.273641	
0.280205	
0.257019	
0.262599	
0.285614	
0.287088	
0.234083	
0.227843	
0.215819	
0.20783	
0.245618	
0.25024	
0.225331	
0.235975	
0.221095	
0.228439	
0.118617	
0.110762	
0.118662	
0.10007	
0.196675	
0.183859	
0.282947	
0.275791	
0.269771	
0.268342	
0.274801	
0.283918	
0.294921	
0.283876	
0.29051	
0.240659	
0.251745	
0.243445	
0.253632	
0.244783	
0.120341	
0.0730703	
0.060666	
0.189963	
0.180164	
0.147007	
0.163245	
0.135307	
0.150649	
0.134473	
0.121106	
0.129132	
0.109936	
0.27803	
0.282389	
0.126662	
0.113609	
0.113614	
0.0935547	
0.0998406	
0.133896	
0.125407	
0.113191	
0.106767	
0.118997	
0.0708617	
0.0883013	
0.0553879	
0.130694	
0.127975	
0.129997	
0.119168	
0.112843	
0.0995982	
0.116901	
0.122225	
0.256091	
0.161832	
0.154371	
0.151653	
0.142991	
0.254184	
0.247026	
0.248204	
0.240123	
0.0884444	
0.0698103	
0.135123	
0.12761	
0.120051	
0.104876	
0.105031	
0.121451	
0.114101	
0.145556	
0.198979	
0.188003	
0.189023	
0.135394	
0.126764	
0.11889	
0.254127	
0.128895	
0.110086	
0.140742	
0.12368	
0.234711	
0.236743	
0.240977	
0.246906	
0.0920293	
0.106428	
0.10115	
0.11019	
0.197084	
0.202895	
0.0814839	
0.0684461	
0.0768597	
0.0536662	
0.245599	
0.248364	
0.253487	
0.258746	
0.126726	
0.130854	
0.14133	
0.14548	
0.265978	
0.276867	
0.266573	
0.27315	
0.233288	
0.223723	
0.27951	
0.288152	
0.281112	
0.287003	
0.293733	
0.160713	
0.160534	
0.13542	
0.119777	
0.108061	
0.107717	
0.138167	
0.135425	
0.156981	
0.143838	
0.150414	
0.134513	
0.175736	
0.171177	
0.150794	
0.161097	
0.147033	
0.133311	
0.13142	
0.259525	
0.262937	
0.251976	
0.253245	
0.168636	
0.157016	
0.145895	
0.117562	
0.149874	
0.136468	
0.0401821	
0.0429741	
0.0250385	
0.0414907	
0.0448217	
-0.348998	
-0.338156	
0.0431712	
0.0304663	
0.0360656	
-0.053814	
-0.29589	
0.0435217	
0.0429258	
-0.0887044	
-0.0938975	
-0.232108	
0.0458147	
-0.101065	
0.0381107	
0.0367287	
-0.341285	
-0.148712	
-0.0979361	
-0.173232	
-0.064965	
-0.084034	
0.0101103	
-0.0200105	
-0.284758	
-0.283551	
-0.236592	
-0.108548	
-0.317292	
-0.27333	
-0.0905108	
-0.133202	
-0.0799208	
-0.259067	
-0.257572	
-0.273641	
-0.308213	
-0.326292	
-0.294737	
-0.0182672	
-0.0471572	
-0.186239	
-0.235187	
-0.250083	
-0.24623	
-0.208775	
-0.21314	
-0.158767	
-0.159426	
-0.126079	
-0.27619	
-0.139514	
-0.105959	
-0.110968	
-0.129951	
-0.122851	
-0.150757	
-0.118049	
-0.116412	
-0.314438	
-0.265909	
-0.134983	
-0.175942	
-0.287402	
-0.0862139	
-0.222448	
-0.129097	
-0.101842	
-0.16852	
-0.173329	
-0.301169	
-0.34897	
0.0366499	
0.0218631	
-0.0324275	
-0.21366	
-0.0764053	
-0.0663482	
-0.242052	
-0.2652	
-0.239251	
-0.297745	
-0.279078	
-0.17865	
-0.183181	
-0.266999	
-0.285327	
-0.25602	
-0.0527371	
-0.29968	
-0.0294904	
-0.0218782	
-0.0847201	
-0.0741112	
-0.235724	
-0.146838	
-0.180814	
-0.297932	
-0.119028	
-0.161174	
-0.192284	
-0.174916	
-0.203386	
-0.0733866	
-0.279412	
-0.253409	
-0.260307	
-0.22441	
-0.206744	
-0.219676	
-0.105405	
-0.248868	
-0.0365812	
-0.0858176	
-0.147278	
-0.293428	
-0.283904	
-0.308948	
-0.331234	
-0.219996	
-0.220987	
-0.312615	
-0.301294	
-0.166656	
0.029421	
-0.0139554	
-0.301782	
-0.301168	
-0.34237	
-0.285785	
-0.193374	
-0.19329	
0.0281647	
-0.0124348	
-0.320241	
-0.327941	
-0.326909	
0.0209328	
0.0368625	
-0.112149	
-0.144181	
-0.0631982	
-0.0536352	
-0.071725	
-0.252638	
-0.212402	
-0.164397	
-0.196213	
-0.193916	
-0.193537	
-0.1416	
0.0394809	
-0.162141	
-0.167379	
-0.339765	
-0.348354	
-0.157325	
-0.0886381	
-0.274657	
-0.24466	
-0.243501	
-0.172931	
-0.204249	
-0.191621	
-0.212667	
0.0198331	
-0.285735	
-0.112789	
-0.17805	
-0.249686	
-0.196616	
-0.21493	
-0.242109	
-0.256559	
-0.339751	
-0.26377	
-0.264673	
-0.239913	
-0.239015	
-0.0284372	
-0.235567	
-0.224671	
-0.202099	
-0.104185	
-0.103959	
-0.130579	
-0.0154686	
-0.0315089	
-0.11967	
-0.0902054	
-0.126765	
-0.221401	
-0.104224	
-0.348361	
-0.34009	
-0.332051	
-0.0641956	
-0.295953	
-0.278916	
-0.277479	
-0.192615	
-0.242426	
-0.222016	
-0.238856	
-0.195705	
-0.159417	
-0.317222	
-0.322538	
-0.209851	
-0.203449	
-0.189505	
-0.186796	
-0.118127	
-0.25856	
-0.306098	
-0.318536	
-0.157347	
-0.142046	
-0.181794	
0.00993146	
-0.0248475	
-0.0934994	
-0.0791629	
-0.0249021	
-0.046232	
-0.271639	
-0.285038	
-0.101757	
-0.0690444	
-0.0897248	
-0.0643276	
-0.0860463	
-0.0699644	
-0.0897005	
-0.305258	
-0.310204	
-0.323078	
-0.335902	
-0.347376	
-0.0447968	
-0.11456	
-0.0605242	
-0.118975	
-0.156351	
-0.179252	
-0.250014	
-0.201844	
-0.121222	
-0.155538	
-0.240964	
-0.228587	
-0.19241	
-0.157692	
-0.182496	
-0.035479	
-0.0275399	
-0.0563611	
-0.0510596	
-0.134927	
-0.198602	
-0.121181	
-0.0895293	
-0.2251	
-0.192459	
-0.216605	
-0.196447	
-0.273097	
-0.250224	
-0.266024	
-0.250413	
-0.146042	
-0.310843	
-0.292468	
-0.318523	
-0.303242	
-0.142233	
-0.12867	
-0.178111	
-0.204696	
-0.104792	
-0.0677047	
-0.118304	
-0.0783362	
-0.196704	
-0.221024	
-0.0789472	
-0.0639309	
-0.0307409	
-0.269526	
-0.275569	
-0.254091	
-0.258552	
-0.0826244	
-0.0859683	
-0.232347	
-0.220655	
-0.160444	
-0.14324	
-0.176806	
-0.174372	
-0.153857	
-0.233701	
-0.2075	
-0.23049	
-0.215304	
-0.0223979	
0.000868798	
-0.329995	
-0.320405	
-0.116422	
-0.0983156	
-0.150409	
-0.135733	
-0.162157	
-0.148228	
-0.226011	
-0.24997	
-0.229517	
-0.287774	
-0.296664	
-0.280599	
-0.156029	
-0.167881	
-0.143414	
-0.110909	
-0.125223	
-0.0410094	
-0.0353311	
-0.0166359	
-0.0347044	
-0.0104224	
-0.0590271	
-0.0271429	
-0.0574589	
-0.0584187	
-0.0489254	
-0.0263203	
-0.113747	
-0.0837849	
-0.123356	
-0.0933284	
-0.150815	
-0.0484651	
-0.0680722	
-0.0281498	
-0.0561013	
-0.172707	
-0.133519	
-0.156114	
-0.131678	
-0.0353633	
-0.0720292	
-0.0651972	
-0.0856899	
-0.179736	
-0.204708	
-0.201523	
-0.224767	
-0.21082	
-0.214249	
-0.171445	
-0.168669	
-0.241581	
-0.255367	
-0.266973	
-0.269045	
-0.279322	
-0.291973	
-0.299703	
-0.303136	
-0.299898	
-0.303574	
-0.310285	
-0.319682	
-0.0291657	
-0.0509494	
-0.0843221	
-0.302828	
-0.287083	
-0.311958	
-0.317962	
-0.318939	
-0.304181	
-0.306954	
-0.0320475	
-0.0153732	
-0.211845	
-0.210748	
-0.183405	
-0.34164	
-0.34186	
-0.16217	
-0.168585	
-0.139007	
-0.142425	
-0.342892	
-0.333455	
-0.337094	
-0.337091	
-0.332572	
-0.126061	
-0.225594	
-0.204852	
-0.230343	
-0.212245	
0.0415856	
0.0310459	
-0.0737448	
-0.0159177	
-0.0379397	
-0.0411331	
-0.0168629	
0.0391162	
0.0279106	
-0.103866	
-0.0682246	
-0.115024	
-0.0884269	
-0.136463	
-0.152466	
-0.17597	
-0.185239	
-0.199501	
-0.198932	
-0.238792	
-0.242525	
-0.0121597	
-0.0095151	
-0.335727	
-0.325476	
-0.030352	
-0.00699983	
-0.0288231	
-0.0048736	
0.0336297	
-0.0254763	
-0.340682	
-0.259802	
-0.279106	
-0.286968	
-0.0378413	
0.00239618	
-0.260528	
-0.269859	
0.00926715	
-0.191951	
-0.191401	
-0.311738	
-0.298405	
-0.313829	
-0.32878	
-0.314853	
-0.332034	
-0.203258	
-0.22336	
-0.129893	
-0.127636	
-0.118444	
-0.291019	
-0.264331	
-0.257686	
-0.132737	
-0.141252	
-0.183907	
-0.16675	
-0.00639603	
0.0391884	
0.00867494	
0.0243947	
-0.0275451	
0.0219434	
0.0438713	
-0.0149787	
-0.242251	
-0.251276	
-0.247814	
-0.334349	
-0.335463	
-0.328184	
0.0285532	
-0.327931	
-0.323617	
-0.137123	
-0.156937	
-0.151559	
0.043684	
0.0289624	
-0.317599	
-0.315288	
-0.319235	
0.0082139	
0.0408544	
0.0362918	
0.0329049	
-0.186793	
-0.172486	
-0.208297	
-0.210157	
-0.334061	
-0.345	
-0.338436	
0.0297407	
0.044151	
-0.00379443	
0.0371235	
-0.273336	
-0.266608	
-0.147786	
-0.146372	
0.0395852	
0.0325103	
0.0272315	
-0.32175	
-0.300528	
-0.330279	
-0.323632	
-0.267989	
-0.260522	
-0.285273	
-0.270255	
-0.159667	
-0.148082	
-0.319819	
-0.325511	
-0.262836	
-0.0283891	
-0.0320872	
-0.065036	
-0.067239	
0.0385054	
0.0447191	
-0.114956	
-0.106099	
-0.074956	
-0.0581007	
-0.34525	
-0.336233	
-0.344748	
-0.335747	
-0.109409	
-0.0979241	
-0.111554	
-0.0768452	
-0.0902962	
0.0253819	
0.0352652	
0.0205531	
-0.186407	
-0.201165	
-0.179478	
-0.202399	
0.0390467	
-0.114419	
-0.0989121	
-0.345814	
-0.344874	
-0.124883	
-0.104384	
2.91746e-05	
0.00391059	
-0.277991	
-0.288965	