<VTKFile type="UnstructuredGrid" version="0.1" byte_order="LittleEndian">
	<UnstructuredGrid>
		<Piece NumberOfPoints="1647" NumberOfCells="3046">
			<CellData Scalars="scalars">
				<DataArray type="Float64" Name="Doublet Strengths" NumberOfComponents="1" Format="ascii">
0.176348	
0.15477	
0.166549	
0.0416687	
0.0851111	
0.0942683	
0.0942944	
0.0943029	
0.0419333	
0.0395422	
0.0928233	
0.0871528	
0.0504176	
0.0913352	
0.0938495	
0.0775005	
0.149686	
0.0922296	
0.171925	
0.138917	
0.148409	
0.105607	
0.133902	
0.14564	
0.124857	
0.132862	
0.111063	
0.12662	
0.0941013	
0.144721	
0.146565	
0.120761	
0.144874	
0.15801	
0.0986632	
0.143885	
0.146744	
0.111092	
0.125009	
0.110755	
0.120167	
0.126658	
0.125319	
0.137833	
0.139911	
0.123324	
0.146653	
0.106959	
0.104757	
0.115339	
0.152471	
0.148033	
0.143574	
0.140229	
0.14241	
0.137666	
0.152521	
0.113909	
0.124518	
0.124489	
0.121978	
0.101534	
0.0723487	
0.102983	
0.132971	
0.134032	
0.136175	
0.137592	
0.162925	
0.164154	
0.159835	
0.0906187	
0.04281	
0.130962	
0.132082	
0.13525	
0.137519	
0.127396	
0.121407	
0.122715	
0.118421	
0.13231	
0.128271	
0.132148	
0.13038	
0.133552	
0.132882	
0.136484	
0.122066	
0.116769	
0.0899333	
0.0991999	
0.102816	
0.14391	
0.148818	
0.146187	
0.150253	
0.0975504	
0.103565	
0.117437	
0.153117	
0.153724	
0.159526	
0.138583	
0.13254	
0.133927	
0.113333	
0.144227	
0.091709	
0.100473	
0.102263	
0.107184	
0.106277	
0.110733	
0.103972	
0.103706	
0.165693	
0.172655	
0.147613	
0.154404	
0.144519	
0.0471778	
0.111206	
0.0805944	
0.0721284	
0.0759179	
0.128228	
0.136886	
0.0692874	
0.0525215	
0.102343	
0.103218	
0.0982685	
0.099231	
0.090495	
0.160923	
0.156593	
0.117791	
0.110594	
0.118903	
0.112015	
0.0950932	
0.110157	
0.111217	
0.115465	
0.114592	
0.0853597	
0.0756245	
0.175759	
0.167418	
0.157395	
0.163885	
0.146257	
0.134038	
0.134299	
0.137648	
0.0735145	
0.0659595	
0.1665	
0.130163	
0.124813	
0.129093	
0.122989	
0.127602	
0.120251	
0.129984	
0.130655	
0.126783	
0.071281	
0.117499	
0.109792	
0.114668	
0.159541	
0.162851	
0.165996	
0.159267	
0.16446	
0.156897	
0.1219	
0.125928	
0.126576	
0.128535	
0.1689	
0.164693	
0.160196	
0.141406	
0.131873	
0.0450476	
0.0586197	
0.0807302	
0.0796049	
0.074713	
0.178311	
0.174248	
0.124097	
0.119397	
0.167856	
0.139159	
0.13753	
0.131634	
0.11752	
0.117987	
0.138995	
0.136514	
0.144462	
0.139138	
0.156694	
0.154118	
0.152197	
0.149739	
0.151207	
0.158167	
0.154507	
0.154002	
0.138888	
0.143073	
0.144133	
0.104601	
0.105415	
0.118064	
0.118944	
0.122653	
0.126005	
0.0790909	
0.083462	
0.0753979	
0.0848362	
0.0964215	
0.12101	
0.122853	
0.115899	
0.114614	
0.114238	
0.115749	
0.107151	
0.111557	
0.156649	
0.153392	
0.120507	
0.121146	
0.125689	
0.138377	
0.14131	
0.144165	
0.144809	
0.0748674	
0.077881	
0.0833205	
0.0815345	
0.0902525	
0.149172	
0.150488	
0.155588	
0.0691801	
0.0763061	
0.114407	
0.118919	
0.113844	
0.121063	
0.142847	
0.145078	
0.148719	
0.151198	
0.130903	
0.13315	
0.137858	
0.140122	
0.157256	
0.160481	
0.161885	
0.163348	
0.110571	
0.086424	
0.160245	
0.155927	
0.160885	
0.140155	
0.133149	
0.134505	
0.0916596	
0.111402	
0.110158	
0.157528	
0.157896	
0.141589	
0.136668	
0.135222	
0.142832	
0.13748	
0.140295	
0.136899	
0.13643	
0.129613	
0.131585	
0.160399	
0.165202	
0.157825	
0.156167	
0.161419	
0.158031	
0.175991	
0.125893	
0.133204	
0.12373	
0.130531	
0.139377	
0.142898	
0.136832	
0.0990528	
0.126249	
0.129782	
0.121815	
0.123285	
0.0646577	
0.0719887	
0.0720962	
0.150074	
0.116841	
0.116424	
0.122574	
0.1324	
0.13067	
0.137523	
0.172378	
0.165948	
0.168889	
0.142968	
0.143253	
0.146332	
0.14828	
0.106484	
0.112281	
0.112792	
0.106854	
0.110929	
0.107586	
0.122598	
0.118931	
0.120255	
0.167703	
0.16327	
0.160234	
0.116132	
0.111178	
0.118118	
0.10989	
0.142598	
0.138873	
0.163707	
0.160855	
0.0978131	
0.0523667	
0.0416753	
0.0640145	
0.0428034	
0.1193	
0.11539	
0.101794	
0.10256	
0.148393	
0.14676	
0.151726	
0.139161	
0.13556	
0.141138	
0.124816	
0.120158	
0.106418	
0.103308	
0.110972	
0.106437	
0.118325	
0.113852	
0.114773	
0.120935	
0.120895	
0.12579	
0.125866	
0.147804	
0.151368	
0.13712	
0.140619	
0.122186	
0.111219	
0.119017	
0.175781	
0.177404	
0.169263	
0.172593	
0.158603	
0.171422	
0.169657	
0.176533	
0.172821	
0.168278	
0.173092	
0.173917	
0.171143	
0.152891	
0.151144	
0.155356	
0.153456	
0.149947	
0.148664	
0.143598	
0.145945	
0.139856	
0.142176	
0.167311	
0.136286	
0.134884	
0.129412	
0.128238	
0.154608	
0.157609	
0.105351	
0.10428	
0.109412	
0.110487	
0.108873	
0.107503	
0.113217	
0.114127	
0.148775	
0.148166	
0.101151	
0.0959031	
0.100739	
0.0979476	
0.13491	
0.139745	
0.14593	
0.150807	
0.143775	
0.14559	
0.144417	
0.139311	
0.142791	
0.128033	
0.132158	
0.127684	
0.131787	
0.106978	
0.109713	
0.107084	
0.11769	
0.122908	
0.128348	
0.134147	
0.128205	
0.130891	
0.172761	
0.16927	
0.162871	
0.164786	
0.112827	
0.105278	
0.105802	
0.102289	
0.102573	
0.107832	
0.104546	
0.0996433	
0.14003	
0.136182	
0.144637	
0.144403	
0.168176	
0.10885	
0.111377	
0.113187	
0.115092	
0.120811	
0.114948	
0.142854	
0.139119	
0.161778	
0.156184	
0.113675	
0.0603086	
0.119542	
0.10982	
0.134009	
0.11449	
0.130577	
0.126097	
0.0866607	
0.106291	
0.115437	
0.146537	
0.14842	
0.150128	
0.151099	
0.101339	
0.119881	
0.118153	
0.0896274	
0.100273	
0.10258	
0.106345	
0.093352	
0.102033	
0.10371	
0.105903	
0.106242	
0.164223	
0.167796	
0.167522	
0.169601	
0.153628	
0.147814	
0.149048	
0.0665071	
0.072973	
0.0657868	
0.0644066	
0.157307	
0.157622	
0.152055	
0.154268	
0.150819	
0.150029	
0.103935	
0.137672	
0.140249	
0.143452	
0.0513503	
0.0493551	
0.0608003	
0.0597219	
0.113405	
0.163872	
0.157075	
0.158199	
0.116402	
0.142466	
0.13921	
0.170577	
0.175109	
0.127563	
0.127068	
0.118088	
0.120374	
0.159157	
0.162761	
0.159225	
0.162452	
0.124365	
0.130523	
0.126585	
0.123424	
0.13112	
0.124229	
0.12868	
0.103036	
0.0920918	
0.0993181	
0.0962783	
0.116655	
0.121543	
0.121582	
0.147321	
0.150778	
0.162353	
0.16355	
0.165636	
0.167598	
0.109847	
0.112349	
0.103936	
0.10556	
0.125817	
0.125461	
0.131051	
0.129747	
0.131824	
0.12913	
0.124203	
0.120509	
0.154233	
0.148713	
0.154511	
0.151651	
0.153717	
0.17378	
0.179729	
0.169205	
0.170756	
0.162726	
0.159918	
0.146296	
0.152306	
0.136589	
0.140503	
0.0979939	
0.0865613	
0.0987795	
0.0941806	
0.125978	
0.129834	
0.17341	
0.169398	
0.17354	
0.170011	
0.167197	
0.175229	
0.169392	
0.164989	
0.168038	
0.164396	
0.156623	
0.156021	
0.152387	
0.116527	
0.112792	
0.1113	
0.106093	
0.0759037	
0.0699995	
0.0620543	
0.0506847	
0.0815289	
0.0894762	
0.081085	
0.0864504	
0.0828163	
0.0944073	
0.0894574	
0.100724	
0.0400095	
0.0519457	
0.0642385	
0.104035	
0.0923427	
0.0965222	
0.0967324	
0.0900513	
0.0920353	
0.10838	
0.150783	
0.150722	
0.156853	
0.156667	
0.0636988	
0.0502345	
0.0931423	
0.08814	
0.0971857	
0.0954349	
0.098437	
0.0955103	
0.101124	
0.0961269	
0.104216	
0.143224	
0.141576	
0.139126	
0.0970327	
0.0965123	
0.0934108	
0.0941442	
0.0835922	
0.126837	
0.127065	
0.131918	
0.086459	
0.0965871	
0.0909474	
0.105224	
0.101154	
0.103562	
0.0921487	
0.133636	
0.13461	
0.151281	
0.152714	
0.148579	
0.149353	
0.0734368	
0.0685137	
0.0807392	
0.0741918	
0.131398	
0.134072	
0.0903539	
0.0903643	
0.0487138	
0.0407587	
0.0611252	
0.0513038	
0.103779	
0.0920561	
0.106593	
0.0998017	
0.165671	
0.162614	
0.143703	
0.147422	
0.115725	
0.111036	
0.112771	
0.10642	
0.107145	
0.111548	
0.097961	
0.114651	
0.111539	
0.0940503	
0.105856	
0.109722	
0.0949812	
0.107687	
0.112275	
0.115728	
0.107531	
0.11155	
0.163616	
0.163857	
0.168694	
0.102316	
0.106529	
0.0878782	
0.0919516	
0.159246	
0.159958	
0.153063	
0.153724	
0.15856	
0.163951	
0.155269	
0.156145	
0.0830101	
0.085651	
0.0849375	
0.087093	
0.0422296	
0.0512239	
0.0470568	
0.0500539	
0.0518766	
-0.236809	
-0.232744	
0.0496002	
0.048569	
0.0508143	
0.046929	
0.0379914	
-0.206026	
0.0511331	
-0.0730523	
-0.0777839	
-0.158843	
-0.103459	
0.0475721	
0.0468643	
-0.0952425	
-0.0677062	
-0.114646	
-0.0435781	
-0.0468394	
0.0285615	
0.00435507	
-0.195548	
-0.199695	
-0.165047	
-0.0629171	
-0.227374	
-0.190286	
-0.0631544	
-0.0834518	
-0.0448494	
-0.168324	
-0.178591	
-0.20053	
-0.216635	
-0.228418	
-0.210385	
0.00441463	
-0.0183235	
-0.126685	
-0.166659	
-0.13852	
-0.158921	
-0.156102	
-0.171055	
-0.123682	
-0.122659	
-0.0838569	
-0.194695	
-0.111095	
-0.0799065	
-0.0843059	
-0.0965314	
-0.0742068	
-0.0706548	
-0.0965986	
-0.0810965	
-0.22118	
-0.198527	
-0.109774	
-0.14552	
-0.206061	
-0.0502393	
-0.161661	
-0.0804376	
-0.0589898	
-0.123472	
-0.132955	
-0.201073	
-0.238401	
0.0369917	
0.0364918	
-0.00560044	
-0.15148	
-0.0345573	
-0.0430051	
-0.193953	
-0.177806	
-0.174802	
-0.196536	
-0.209471	
-0.141743	
-0.137639	
-0.203731	
-0.190879	
-0.182511	
-0.0191077	
-0.210009	
0.00427132	
-0.0296256	
-0.0201991	
-0.0550459	
-0.162003	
-0.129465	
-0.142365	
-0.208333	
-0.0771222	
-0.116166	
-0.1428	
-0.105577	
-0.114129	
-0.0577156	
-0.179389	
-0.198267	
-0.15658	
-0.183242	
-0.153689	
-0.168837	
-0.0402075	
-0.0636385	
-0.186647	
-0.0263899	
-0.0407383	
-0.0448064	
-0.109563	
-0.205934	
-0.212452	
-0.214988	
-0.22913	
-0.159186	
-0.152989	
-0.214074	
-0.221347	
-0.133708	
0.0416515	
0.00746639	
-0.23553	
-0.207608	
-0.141407	
-0.153366	
-0.153071	
0.0427713	
0.0109871	
-0.225951	
-0.231152	
-0.229538	
0.0393751	
0.0468287	
-0.0919581	
-0.117062	
-0.0459284	
-0.0520907	
-0.0363354	
0.0494333	
-0.174691	
-0.14404	
-0.127651	
-0.134228	
-0.0945059	
-0.136311	
-0.0950647	
-0.117083	
-0.11939	
-0.133713	
-0.233953	
-0.236493	
-0.0857508	
-0.0487794	
-0.16929	
-0.179867	
-0.191345	
-0.137729	
-0.109197	
-0.144082	
-0.127726	
0.0354717	
-0.202039	
-0.0597101	
-0.069203	
-0.122918	
-0.188427	
-0.148748	
-0.162535	
-0.181215	
-0.190895	
-0.233397	
-0.173675	
-0.177181	
-0.181914	
-0.19157	
-0.000726514	
-0.166116	
-0.140701	
-0.158274	
-0.0640159	
-0.0638207	
-0.0892981	
-0.0849906	
-0.00741977	
-0.020539	
-0.0919212	
-0.0735494	
-0.16668	
-0.0785555	
-0.231439	
-0.235105	
-0.0314142	
-0.207367	
-0.203945	
-0.200598	
-0.151799	
-0.183071	
-0.13594	
-0.164531	
-0.131276	
-0.0823373	
-0.228382	
-0.225821	
-0.132479	
-0.138006	
-0.157296	
-0.160779	
-0.0735334	
-0.0928181	
-0.222294	
-0.213826	
-0.127025	
-0.129369	
0.0288604	
-0.00700722	
0.00193921	
-0.042786	
-0.0164436	
1.63527e-05	
-0.18904	
-0.198699	
-0.239672	
-0.0745075	
-0.0633487	
-0.0460488	
-0.0475884	
-0.0650135	
-0.0364889	
-0.062783	
-0.213452	
-0.224823	
-0.216627	
-0.237845	
-0.226899	
-0.0456485	
-0.0718576	
-0.0686466	
-0.100515	
-0.138799	
-0.188797	
-0.139256	
-0.0992884	
-0.0984628	
-0.11176	
-0.174842	
-0.183561	
-0.119795	
-0.135665	
-0.120374	
-0.136905	
-0.00771292	
-0.0182835	
-0.0333786	
-0.0440929	
-0.217579	
-0.150045	
-0.0978716	
-0.0507002	
-0.081231	
-0.151004	
-0.162442	
-0.140587	
-0.156544	
-0.19163	
-0.198579	
-0.182484	
-0.194066	
-0.222242	
-0.214879	
-0.219317	
-0.209321	
-0.113551	
-0.0766623	
-0.156732	
-0.146485	
-0.0499318	
-0.0720937	
-0.0508094	
-0.0746671	
-0.164753	
-0.168543	
-0.0369101	
-0.0409882	
-0.0091771	
-0.17812	
-0.181237	
-0.189621	
-0.197225	
-0.0259571	
-0.0428251	
-0.177832	
-0.177302	
-0.105114	
-0.128559	
-0.0988668	
-0.127457	
-0.182474	
-0.150883	
-0.172063	
0.0123482	
-0.012849	
-0.221849	
-0.227848	
-0.0810639	
-0.0954911	
-0.119241	
-0.108363	
-0.108972	
-0.0973797	
-0.167869	
-0.15178	
-0.174529	
-0.202125	
-0.19347	
-0.20847	
-0.113176	
-0.100012	
-0.0899701	
-0.0589022	
-0.0643486	
-0.027293	
-0.0214435	
-0.0111719	
0.00355554	
-0.00590018	
0.00939819	
-0.0279814	
-0.0034456	
-0.0344737	
-0.0274691	
-0.0284801	
-0.0772569	
-0.0694285	
-0.0454761	
-0.0992434	
-0.009437	
-0.033102	
-0.00823056	
-0.0436132	
-0.100443	
-0.081006	
-0.113212	
-0.102729	
-0.00856891	
-0.0065285	
-0.045879	
-0.029718	
-0.151789	
-0.154048	
-0.119102	
-0.118878	
-0.119859	
-0.136547	
-0.136876	
-0.153107	
-0.186518	
-0.18818	
-0.173989	
-0.178279	
-0.204676	
-0.198223	
-0.212232	
-0.209663	
-0.213139	
-0.210477	
-0.222154	
-0.217491	
-0.0476835	
-0.00362693	
-0.0209538	
-0.214964	
-0.207625	
-0.227337	
-0.221914	
-0.226709	
-0.219719	
-0.218382	
0.0059711	
-0.00684445	
-0.165012	
-0.156649	
-0.14872	
-0.231339	
-0.233967	
-0.236095	
-0.133326	
-0.118136	
-0.122122	
-0.110697	
-0.234656	
-0.23262	
-0.23068	
-0.233219	
-0.232971	
-0.0931209	
-0.143623	
-0.159738	
-0.139176	
-0.163786	
0.0429077	
0.0498226	
-0.0368147	
-0.0353254	
0.00820146	
-0.0113585	
0.00723186	
0.0419847	
0.0494039	
-0.0309991	
-0.0756346	
-0.0284868	
-0.067748	
-0.110957	
-0.123272	
-0.144739	
-0.140858	
-0.154298	
-0.15932	
-0.179792	
-0.181803	
0.00202459	
-0.00107079	
-0.232799	
-0.226549	
-0.0132141	
0.00683927	
-0.206554	
-0.00679832	
0.0380245	
-0.195785	
0.00987253	
-0.238319	
-0.211334	
-0.00105072	
0.0105577	
0.018678	
-0.151993	
-0.143349	
-0.217644	
-0.223367	
-0.224734	
-0.224236	
-0.230092	
-0.231785	
-0.158965	
-0.172429	
-0.0976358	
-0.0888993	
-0.0977382	
-0.210828	
-0.185119	
-0.187125	
-0.188845	
-0.0807739	
-0.105342	
-0.113603	
-0.128794	
0.00667704	
0.0276382	
0.0484192	
-0.00883887	
0.0389694	
0.0503136	
0.0348636	
0.00453471	
-0.217737	
-0.232498	
-0.229006	
-0.232711	
0.0406895	
-0.228298	
-0.225588	
-0.109067	
-0.0933715	
-0.104216	
0.0373501	
0.0474175	
-0.220501	
-0.222153	
-0.223002	
-0.202831	
0.0190119	
-0.206505	
-0.200407	
-0.195087	
0.0421038	
0.0446892	
0.0498195	
-0.151237	
-0.140532	
-0.133935	
-0.119675	
-0.231961	
-0.233149	
-0.234467	
0.0489394	
0.0389002	
0.0442525	
0.0150781	
-0.21787	
-0.216149	
-0.213962	
-0.112926	
-0.113027	
0.0491236	
0.0406666	
-0.230104	
-0.225052	
-0.223659	
-0.120129	
-0.111382	
-0.223979	
-0.227547	
-0.186864	
-0.00468124	
-0.00156111	
-0.0323775	
-0.0304922	
0.0496397	
0.0448928	
-0.0457346	
-0.0532476	
-0.070229	
-0.070702	
-0.237133	
-0.236439	
-0.233041	
-0.237194	
-0.0704912	
-0.0627622	
-0.0749293	
-0.0801176	
-0.0966258	
0.0458463	
0.0389948	
0.0370561	
-0.152373	
-0.160502	
-0.140849	
-0.15878	
0.0484101	
-0.0879172	
-0.0884932	
-0.0747695	
-0.23546	
-0.237537	
-0.198955	
-0.204914	
-0.0659365	
-0.0822484	
-0.205915	
-0.197762	
0.00661497	
0.011447	
-0.18004	
-0.198162	
-0.190686	
-0.141983	
-0.158373	
-0.133315	
-0.145826	
-0.0135673	
-0.0546752	
-0.0201255	
-0.0146889	
-0.0536322	
-0.0392207	
-0.235529	
-0.236231	
-0.235767	
-0.236975	
-0.0075301	
-0.0133617	
0.0387228	
-0.181964	
-0.16698	
-0.222007	
-0.217417	
-0.13119	
-0.127085	
-0.0963958	
-0.083329	
-0.22993	
-0.225478	
-0.234665	
-0.233045	
-0.228728	
-0.223641	
-0.116195	
-0.11936	
-0.0972085	
-0.100669	
-0.181118	
-0.192828	
-0.13024	
-0.141516	
-0.157396	
-0.158482	
-0.233756	
-0.234539	
-0.234341	
-0.23355	
-0.205261	
-0.214704	
-0.222976	
-0.218995	
-0.224303	
-0.199429	
-0.190695	
-0.205309	
-0.209404	
-0.0038164	
0.0308661	
0.0472687	
-0.212852	
-0.211453	
-0.0485186	
-0.0352641	
-0.074834	
-0.168568	
-0.180174	
-0.167668	
-0.191232	
-0.188992	
-0.192832	
-0.19635	
-0.199356	
-0.236751	
-0.234562	
-0.233652	
-0.229326	
-0.214155	
-0.200757	
-0.209216	
-0.222482	
0.0346086	
-0.0131823	
0.0441295	
0.0271686	
-0.165391	
-0.185318	
-0.181363	
-0.172239	
-0.182664	
0.000422571	
0.0443282	
0.0408037	
-0.000410251	
0.0483702	
0.0344094	
-0.208647	
-0.213068	
-0.212972	
-0.218793	
0.0456003	
0.0296774	
-0.167801	
-0.191224	
-0.173787	
-0.194474	
-0.186713	
-0.196179	
-0.205239	
-0.177561	
-0.172718	
-0.184912	
-0.0839173	
-0.0878887	
-0.100364	
-0.109808	
-0.231423	
-0.228965	
-0.231564	
-0.17329	
-0.164051	
-0.226461	
-0.224142	
-0.216254	
-0.217696	
-0.14907	
-0.162959	
-0.158584	
-0.171398	
-0.0581843	
-0.0778576	
-0.222697	
-0.224906	
-0.232736	
-0.235182	
-0.040251	
-0.0510353	
-0.0578389	
-0.0646759	
-0.182594	
-0.17401	
-0.169502	
-0.166174	
-0.0789123	
-0.0980472	
-0.105798	
-0.120597	
-0.20095	
-0.209959	
-0.210069	
-0.217333	
-0.107626	
-0.100982	
-0.136512	
-0.130204	
-0.18002	
-0.17194	
-0.0358951	
-0.0167114	
-0.055939	
-0.0430229	
-0.196227	
-0.193666	
-0.236253	
-0.236334	
-0.235407	
-0.238345	
-0.228836	
-0.228158	
-0.0968557	
-0.108171	
-0.13153	
-0.139257	
-0.00451587	
0.00536406	
0.0429521	
0.0407371	
-0.136633	
-0.108903	
-0.128294	
-0.0988034	
-0.0113094	
-0.00551881	
-0.0083545	
-0.00212328	
0.00101426	
0.0113844	
0.0180355	
0.0208712	
0.0143569	
-0.0101644	
-0.00280444	
0.00475007	
0.000765148	
0.00711512	
0.017156	
0.0214141	
0.00858562	
0.0129019	
0.00487449	
-0.00657851	
0.00552674	
-0.00827769	
-0.0121942	
-0.00169378	
-0.0197093	
-0.0201006	
-0.0159814	
-0.0214538	
-0.0173466	
0.014829	
0.012554	
-0.000106652	
0.00576013	
-0.00499312	
-0.0169283	
-0.0159669	
-0.0149711	
-0.0128642	
-0.00862123	
0.0176862	
0.173095	
0.155257	
0.166554	
0.0415386	
0.0889669	
0.0450226	
0.136925	
0.0942729	
0.0937084	
0.0942282	
0.094367	
0.0611557	
0.0390925	
0.0929354	
0.0871329	
0.0839569	
0.0504317	
0.0915566	
0.0783409	
0.150607	
0.145784	
0.107897	
0.134081	
0.145345	
0.125026	
0.133	
0.110998	
0.0943219	
0.147053	
0.144124	
0.120902	
0.144539	
0.158122	
0.099543	
0.0983906	
0.143929	
0.147157	
0.11563	
0.125031	
0.111227	
0.119934	
0.12688	
0.125604	
0.139946	
0.139755	
0.120546	
0.147008	
0.107193	
0.105062	
0.110918	
0.147687	
0.140517	
0.143903	
0.137952	
0.139288	
0.152467	
0.125019	
0.125152	
0.122625	
0.101787	
0.0720686	
0.102865	
0.139446	
0.137518	
0.132941	
0.131773	
0.159187	
0.162181	
0.165775	
0.0903126	
0.0493925	
0.135707	
0.135567	
0.131394	
0.129851	
0.122568	
0.118221	
0.127514	
0.126848	
0.128353	
0.134387	
0.132277	
0.133189	
0.136925	
0.130647	
0.131184	
0.121494	
0.116114	
0.100066	
0.0912005	
0.102719	
0.0937589	
0.145892	
0.150865	
0.143714	
0.145428	
0.103503	
0.0975207	
0.117788	
0.153201	
0.156006	
0.132375	
0.134356	
0.113784	
0.13373	
0.141585	
0.100534	
0.0916897	
0.10406	
0.102729	
0.114869	
0.10642	
0.103793	
0.107462	
0.163479	
0.172737	
0.153998	
0.147273	
0.144624	
0.0602795	
0.047142	
0.0972989	
0.111141	
0.0722278	
0.0812977	
0.134481	
0.128271	
0.0680064	
0.0520729	
0.0985146	
0.0994396	
0.102624	
0.103453	
0.0901084	
0.160289	
0.156568	
0.119115	
0.109458	
0.117921	
0.114231	
0.103581	
0.115752	
0.114887	
0.112515	
0.111453	
0.0707345	
0.17473	
0.166536	
0.157875	
0.163353	
0.145295	
0.138145	
0.134108	
0.132389	
0.0863467	
0.0735229	
0.122676	
0.130023	
0.122923	
0.130594	
0.12025	
0.123392	
0.129715	
0.121217	
0.130502	
0.0735646	
0.114137	
0.116914	
0.113973	
0.161809	
0.15881	
0.159085	
0.156961	
0.159318	
0.16305	
0.126672	
0.128662	
0.122274	
0.126069	
0.168212	
0.159581	
0.163124	
0.137819	
0.133116	
0.139983	
0.0487835	
0.0810369	
0.0720556	
0.0797163	
0.175665	
0.172853	
0.1241	
0.119338	
0.167457	
0.138167	
0.138374	
0.134641	
0.113863	
0.117543	
0.136906	
0.142781	
0.139705	
0.143465	
0.153791	
0.155894	
0.150592	
0.152119	
0.149929	
0.154076	
0.156808	
0.142778	
0.136219	
0.143829	
0.105063	
0.102848	
0.119039	
0.118271	
0.123638	
0.122668	
0.0836321	
0.0714014	
0.0850009	
0.0755244	
0.096325	
0.12465	
0.120884	
0.117721	
0.115785	
0.115748	
0.109636	
0.111513	
0.10709	
0.156593	
0.153374	
0.126104	
0.123264	
0.121555	
0.14405	
0.144792	
0.139608	
0.141327	
0.0783719	
0.0749776	
0.170333	
0.0816889	
0.0834587	
0.0904452	
0.157181	
0.152604	
0.152342	
0.0750891	
0.068554	
0.118947	
0.114427	
0.121087	
0.118008	
0.149554	
0.150437	
0.144949	
0.145955	
0.137669	
0.137695	
0.133042	
0.132996	
0.161399	
0.162499	
0.157677	
0.15986	
0.110602	
0.157838	
0.159687	
0.156502	
0.14002	
0.134436	
0.130931	
0.0947539	
0.111731	
0.110529	
0.158376	
0.157363	
0.142134	
0.135769	
0.137412	
0.141492	
0.143988	
0.13998	
0.131419	
0.136676	
0.138649	
0.159766	
0.163375	
0.161409	
0.158092	
0.160961	
0.156121	
0.130751	
0.125722	
0.130386	
0.125933	
0.142636	
0.139154	
0.136625	
0.0991846	
0.130307	
0.127667	
0.121419	
0.064744	
0.0659615	
0.0722006	
0.0748248	
0.147793	
0.116652	
0.116996	
0.122852	
0.128994	
0.132263	
0.137382	
0.146309	
0.146753	
0.143023	
0.143372	
0.106585	
0.110368	
0.110627	
0.112986	
0.105946	
0.111129	
0.12028	
0.122553	
0.1189	
0.16307	
0.160742	
0.167546	
0.111086	
0.115945	
0.109215	
0.114183	
0.131661	
0.138632	
0.142331	
0.0977172	
0.160672	
0.163386	
0.0410677	
0.0516019	
0.0641146	
0.0428616	
0.119395	
0.113317	
0.122003	
0.102198	
0.105787	
0.148467	
0.151749	
0.148278	
0.136129	
0.141221	
0.137595	
0.124732	
0.11986	
0.103369	
0.106441	
0.106503	
0.111102	
0.110831	
0.120959	
0.113898	
0.118378	
0.120973	
0.125928	
0.128082	
0.151161	
0.147663	
0.140387	
0.13692	
0.119084	
0.111339	
0.172322	
0.160419	
0.168838	
0.170732	
0.165554	
0.174783	
0.168174	
0.176536	
0.17379	
0.17454	
0.17075	
0.151245	
0.152927	
0.153506	
0.155422	
0.146678	
0.148142	
0.149298	
0.150662	
0.138793	
0.141874	
0.142783	
0.144147	
0.165244	
0.140296	
0.137675	
0.13245	
0.130837	
0.171499	
0.157301	
0.16099	
0.104333	
0.105356	
0.106972	
0.112124	
0.107635	
0.109092	
0.11064	
0.115488	
0.152358	
0.159061	
0.149049	
0.0988039	
0.101208	
0.098018	
0.100835	
0.138333	
0.134888	
0.149569	
0.145794	
0.148642	
0.143616	
0.144421	
0.137697	
0.142677	
0.139278	
0.132203	
0.125829	
0.134025	
0.12771	
0.109432	
0.106791	
0.120866	
0.117977	
0.13208	
0.128697	
0.133851	
0.12858	
0.165085	
0.164745	
0.169791	
0.112862	
0.111397	
0.107755	
0.105371	
0.102707	
0.102388	
0.104525	
0.105663	
0.100705	
0.0979615	
0.14663	
0.136428	
0.143303	
0.141239	
0.164915	
0.164904	
0.105212	
0.108679	
0.115045	
0.113023	
0.121528	
0.111638	
0.113383	
0.120234	
0.134929	
0.112905	
0.103765	
0.0878023	
0.12688	
0.131485	
0.0902001	
0.106077	
0.152636	
0.151176	
0.149403	
0.147079	
0.12044	
0.118639	
0.0919446	
0.100841	
0.106096	
0.105236	
0.101313	
0.0980874	
0.0976962	
0.100657	
0.100559	
0.0760229	
0.0933067	
0.106121	
0.166474	
0.160914	
0.168548	
0.166545	
0.150081	
0.15364	
0.149291	
0.152172	
0.154035	
0.154642	
0.156965	
0.106658	
0.143633	
0.137793	
0.140432	
0.113844	
0.161755	
0.156046	
0.163426	
0.149265	
0.1495	
0.16082	
0.157419	
0.16323	
0.116801	
0.0607997	
0.0597733	
0.0513136	
0.0428247	
0.139278	
0.142562	
0.173704	
0.169489	
0.0664637	
0.0657777	
0.0729516	
0.0644147	
0.0950711	
0.121531	
0.129317	
0.128311	
0.124382	
0.126594	
0.130522	
0.125147	
0.129765	
0.124418	
0.129364	
0.0912157	
0.098467	
0.0850155	
0.0981074	
0.121483	
0.116358	
0.121422	
0.1508	
0.147343	
0.167328	
0.166737	
0.161637	
0.162974	
0.114977	
0.109863	
0.105812	
0.104006	
0.132989	
0.129599	
0.125707	
0.125341	
0.124175	
0.123268	
0.129481	
0.128995	
0.152049	
0.166162	
0.164296	
0.167183	
0.159662	
0.162438	
0.16966	
0.169642	
0.153111	
0.148306	
0.140615	
0.137086	
0.154592	
0.157903	
0.1435	
0.148103	
0.141704	
0.144898	
0.0959347	
0.0941757	
0.0979901	
0.0865948	
0.132098	
0.125985	
0.172516	
0.167766	
0.165138	
0.164487	
0.168052	
0.169292	
0.176047	
0.169196	
0.172932	
0.150469	
0.155639	
0.152117	
0.156334	
0.152381	
0.0842647	
0.0506224	
0.0420039	
0.128778	
0.124142	
0.112637	
0.116635	
0.106072	
0.111374	
0.103988	
0.0998893	
0.103912	
0.0922122	
0.169684	
0.173264	
0.0893755	
0.0808843	
0.0815684	
0.0823052	
0.0865252	
0.094547	
0.0895636	
0.0910042	
0.0913211	
0.0949193	
0.0518954	
0.0642294	
0.0399742	
0.104801	
0.0964955	
0.0968674	
0.0920429	
0.0951692	
0.0863254	
0.0899283	
0.0921845	
0.156658	
0.115897	
0.112767	
0.111731	
0.108193	
0.156126	
0.153222	
0.153619	
0.150262	
0.0636398	
0.0501328	
0.0974442	
0.0933674	
0.0883345	
0.085778	
0.0846119	
0.0970045	
0.0962669	
0.101403	
0.132722	
0.127432	
0.12775	
0.0968577	
0.0911289	
0.0866473	
0.160915	
0.103602	
0.0921946	
0.107113	
0.101146	
0.148205	
0.148977	
0.150956	
0.153366	
0.0685928	
0.0792421	
0.0743	
0.0808915	
0.131908	
0.134753	
0.0611951	
0.0513407	
0.0587082	
0.0408127	
0.152218	
0.153325	
0.155605	
0.15779	
0.102591	
0.104901	
0.107071	
0.109039	
0.162278	
0.167621	
0.162794	
0.166014	
0.15086	
0.145221	
0.167626	
0.172303	
0.168205	
0.171992	
0.177236	
0.115079	
0.114916	
0.106406	
0.0970573	
0.0759008	
0.0751808	
0.0960785	
0.093992	
0.114189	
0.110774	
0.110982	
0.10646	
0.120108	
0.116832	
0.104068	
0.110586	
0.109413	
0.106034	
0.1049	
0.162022	
0.165826	
0.158013	
0.159156	
0.115893	
0.10857	
0.108886	
0.0960721	
0.110724	
0.107274	
0.0498155	
0.0505449	
0.0394205	
0.0501021	
0.0518825	
-0.235635	
-0.232515	
0.0505123	
0.0421033	
0.0379781	
-0.0410772	
-0.205455	
0.0516169	
0.0510062	
-0.0729728	
-0.0775659	
-0.158791	
0.0493184	
-0.0829928	
0.0476144	
0.0468445	
-0.233619	
-0.0951177	
-0.0741179	
-0.114494	
-0.0284651	
-0.0435067	
0.0286293	
0.00439598	
-0.199388	
-0.197895	
-0.164878	
-0.0628285	
-0.221763	
-0.18975	
-0.0633261	
-0.083359	
-0.0448883	
-0.179529	
-0.178285	
-0.200674	
-0.216478	
-0.228367	
-0.210261	
0.00439424	
-0.0183489	
-0.128808	
-0.166632	
-0.173786	
-0.17073	
-0.142613	
-0.145589	
-0.123933	
-0.105756	
-0.0788531	
-0.19459	
-0.0990763	
-0.0748719	
-0.0801019	
-0.0967515	
-0.0741039	
-0.0964714	
-0.0705473	
-0.0813107	
-0.22115	
-0.19605	
-0.108972	
-0.140738	
-0.205819	
-0.0502874	
-0.161857	
-0.0803405	
-0.0588998	
-0.119845	
-0.133324	
-0.209433	
-0.236591	
0.0468836	
0.0370102	
-0.00557442	
-0.151549	
-0.0430581	
-0.0346003	
-0.178186	
-0.194276	
-0.174859	
-0.209308	
-0.19637	
-0.132785	
-0.137998	
-0.190673	
-0.203608	
-0.182318	
-0.0190442	
-0.208275	
-0.00585858	
-0.000296353	
-0.0507646	
-0.0430782	
-0.161739	
-0.117557	
-0.14257	
-0.207694	
-0.0771903	
-0.105451	
-0.13003	
-0.116021	
-0.138325	
-0.0590495	
-0.198278	
-0.179554	
-0.18323	
-0.156543	
-0.160385	
-0.169894	
-0.0636282	
-0.18775	
-0.0265917	
-0.0447851	
-0.0968384	
-0.212855	
-0.206162	
-0.214397	
-0.228568	
-0.151603	
-0.152829	
-0.22134	
-0.213877	
-0.133476	
0.0415855	
0.0074448	
-0.219456	
-0.219457	
-0.236212	
-0.21083	
-0.14167	
-0.140751	
0.0419419	
0.0109818	
-0.224503	
-0.230651	
-0.229012	
0.0365603	
0.0471328	
-0.0918334	
-0.116903	
-0.0469568	
-0.0367678	
-0.0531172	
-0.174357	
-0.143884	
-0.108809	
-0.134141	
-0.136428	
-0.136635	
-0.0951352	
0.0469279	
-0.130218	
-0.132572	
-0.233282	
-0.235274	
-0.105345	
-0.0487066	
-0.190985	
-0.169087	
-0.168049	
-0.113101	
-0.137606	
-0.127702	
-0.143992	
0.0354529	
-0.201976	
-0.0691814	
-0.122953	
-0.189729	
-0.149228	
-0.163099	
-0.18416	
-0.190694	
-0.234246	
-0.191687	
-0.191701	
-0.173844	
-0.172077	
-0.000508893	
-0.166125	
-0.158267	
-0.1407	
-0.0638517	
-0.0640564	
-0.0850227	
-0.00750903	
-0.020843	
-0.0923583	
-0.0687221	
-0.0992725	
-0.167152	
-0.0704098	
-0.23733	
-0.235555	
-0.231634	
-0.0359769	
-0.209271	
-0.200739	
-0.200642	
-0.150688	
-0.184883	
-0.151583	
-0.164233	
-0.131129	
-0.102636	
-0.225353	
-0.227267	
-0.15768	
-0.151158	
-0.142092	
-0.138281	
-0.0956948	
-0.194432	
-0.213311	
-0.221469	
-0.126955	
-0.0980082	
-0.129523	
0.0288955	
0.00196544	
-0.0546857	
-0.0427763	
2.68139e-05	
-0.0164263	
-0.188449	
-0.197957	
-0.0747068	
-0.0462007	
-0.0635165	
-0.0443784	
-0.0630689	
-0.0477482	
-0.0652115	
-0.212108	
-0.215305	
-0.223689	
-0.23125	
-0.236314	
-0.0131066	
-0.0685923	
-0.0259067	
-0.0717767	
-0.100404	
-0.11872	
-0.189855	
-0.139212	
-0.096741	
-0.122385	
-0.184371	
-0.175666	
-0.146968	
-0.12067	
-0.141363	
-0.0184225	
-0.0130185	
-0.0366556	
-0.0336871	
-0.0893552	
-0.139198	
-0.0813509	
-0.0551218	
-0.162666	
-0.137011	
-0.156733	
-0.140751	
-0.198817	
-0.182008	
-0.194342	
-0.182701	
-0.0944274	
-0.219193	
-0.207292	
-0.224198	
-0.214801	
-0.100561	
-0.0880309	
-0.136031	
-0.157219	
-0.0723116	
-0.0414414	
-0.0845281	
-0.0510634	
-0.154833	
-0.170413	
-0.0503392	
-0.0372577	
-0.00951888	
-0.189328	
-0.193265	
-0.177885	
-0.180871	
-0.0427023	
-0.0455681	
-0.178893	
-0.17216	
-0.120132	
-0.105366	
-0.128821	
-0.127721	
-0.111339	
-0.173682	
-0.153362	
-0.172237	
-0.160986	
-0.00785105	
0.0122408	
-0.227865	
-0.221897	
-0.0954313	
-0.0810084	
-0.109222	
-0.0976125	
-0.119524	
-0.108623	
-0.155914	
-0.174372	
-0.159011	
-0.201652	
-0.20834	
-0.197021	
-0.0999385	
-0.109159	
-0.0899529	
-0.0643202	
-0.0755821	
-0.0277717	
-0.021817	
0.0016307	
-0.0135297	
0.00943911	
-0.0296567	
-0.00346131	
-0.0280214	
-0.0344858	
-0.0286206	
-0.00851611	
-0.0693834	
-0.0454322	
-0.0772185	
-0.0536065	
-0.0992129	
-0.02763	
-0.0437814	
-0.00952973	
-0.0330595	
-0.113097	
-0.0822606	
-0.100319	
-0.0809135	
-0.00652047	
-0.0352762	
-0.0296782	
-0.0458297	
-0.118949	
-0.138605	
-0.135771	
-0.153815	
-0.151146	
-0.153223	
-0.119965	
-0.117172	
-0.167669	
-0.178118	
-0.18631	
-0.188044	
-0.195099	
-0.204165	
-0.209203	
-0.211699	
-0.210063	
-0.212779	
-0.216933	
-0.223042	
-0.00363405	
-0.0209712	
-0.0477037	
-0.217429	
-0.207708	
-0.222146	
-0.225089	
-0.225627	
-0.220444	
-0.220187	
-0.00687505	
0.00594976	
-0.16548	
-0.165321	
-0.145844	
-0.233746	
-0.235709	
-0.129355	
-0.133465	
-0.11066	
-0.112358	
-0.233408	
-0.231484	
-0.232943	
-0.233512	
-0.232773	
-0.0807857	
-0.159713	
-0.143629	
-0.163732	
-0.150061	
0.0497622	
0.0429016	
-0.0367352	
0.008108	
-0.00857852	
-0.0112444	
0.00734571	
0.0489356	
0.0418656	
-0.0588615	
-0.0309554	
-0.0676899	
-0.0467869	
-0.110716	
-0.123088	
-0.137218	
-0.145098	
-0.15421	
-0.155345	
-0.179847	
-0.181784	
-0.00125002	
0.00187561	
-0.231593	
-0.225607	
-0.0133335	
0.00674642	
-0.0091185	
0.0105577	
0.0379851	
-0.00457273	
-0.233881	
-0.196708	
-0.207633	
-0.211734	
-0.00873742	
0.0149919	
-0.196891	
-0.20235	
0.0185777	
-0.151346	
-0.151556	
-0.222755	
-0.215081	
-0.223925	
-0.230121	
-0.222234	
-0.231805	
-0.159182	
-0.173379	
-0.097844	
-0.0979751	
-0.0891029	
-0.212821	
-0.187191	
-0.181989	
-0.0857535	
-0.0931426	
-0.126692	
-0.113625	
0.00896645	
0.0486307	
0.0277461	
0.039297	
-0.00092057	
0.0349573	
0.0503767	
0.00454185	
-0.185619	
-0.191651	
-0.189381	
-0.231954	
-0.232755	
-0.229103	
0.0391646	
-0.227743	
-0.224785	
-0.0934888	
-0.109191	
-0.104319	
0.0491771	
0.0383832	
-0.221382	
-0.219825	
-0.226238	
0.0189119	
0.0446456	
0.0420242	
0.042979	
-0.134112	
-0.123669	
-0.151427	
-0.153608	
-0.230944	
-0.235668	
-0.233217	
0.0387987	
0.0491344	
0.0103151	
0.0442375	
-0.203878	
-0.200391	
-0.113289	
-0.113195	
0.0468043	
0.0417919	
0.0412279	
-0.222976	
-0.209259	
-0.228122	
-0.224378	
-0.200206	
-0.195746	
-0.211052	
-0.202447	
-0.120431	
-0.111633	
-0.223865	
-0.227002	
-0.186871	
-0.00150618	
-0.00463523	
-0.0304352	
-0.0323297	
0.0446867	