<VTKFile type="UnstructuredGrid" version="0.1" byte_order="LittleEndian">
	<UnstructuredGrid>
		<Piece NumberOfPoints="1647" NumberOfCells="3046">
			<CellData Scalars="scalars">
				<DataArray type="Float64" Name="Doublet Strengths" NumberOfComponents="1" Format="ascii">
0.232646	
0.203447	
0.220132	
0.0499133	
0.0914394	
0.105019	
0.104189	
0.104489	
0.0506202	
0.0481402	
0.101787	
0.0940731	
0.0528079	
0.0997449	
0.103857	
0.0822131	
0.192306	
0.101595	
0.224902	
0.173444	
0.18814	
0.125794	
0.168319	
0.188304	
0.154073	
0.168311	
0.132092	
0.157196	
0.111051	
0.185785	
0.188687	
0.147733	
0.187361	
0.206059	
0.113823	
0.186078	
0.188231	
0.135566	
0.154452	
0.134982	
0.147441	
0.156922	
0.154861	
0.175378	
0.178564	
0.152527	
0.188311	
0.128114	
0.125898	
0.139007	
0.199835	
0.192485	
0.183384	
0.178256	
0.181484	
0.174197	
0.198277	
0.13883	
0.1539	
0.154196	
0.15063	
0.123027	
0.0864749	
0.118572	
0.16694	
0.16863	
0.172075	
0.174329	
0.214723	
0.216603	
0.210509	
0.102731	
0.0477434	
0.163958	
0.165604	
0.170717	
0.174316	
0.159566	
0.149629	
0.151841	
0.144699	
0.165846	
0.159519	
0.165529	
0.162787	
0.167752	
0.166746	
0.172396	
0.149926	
0.141162	
0.0979761	
0.109901	
0.115314	
0.185259	
0.193002	
0.189011	
0.195393	
0.108493	
0.116357	
0.14329	
0.198973	
0.201265	
0.209521	
0.174754	
0.167303	
0.168764	
0.135339	
0.186573	
0.10037	
0.111635	
0.117299	
0.125819	
0.123933	
0.131741	
0.120025	
0.119435	
0.21423	
0.22354	
0.192018	
0.202498	
0.187105	
0.0512882	
0.131968	
0.0860525	
0.0760526	
0.081217	
0.160808	
0.174697	
0.0834163	
0.0629541	
0.122202	
0.12297	
0.116503	
0.117349	
0.0983243	
0.210193	
0.203299	
0.143102	
0.131652	
0.144826	
0.134123	
0.105389	
0.132002	
0.13381	
0.139913	
0.138844	
0.102343	
0.0911197	
0.231752	
0.221213	
0.20725	
0.216386	
0.189799	
0.168745	
0.168927	
0.174439	
0.0871602	
0.0729615	
0.218998	
0.163233	
0.15477	
0.161387	
0.151729	
0.158944	
0.147291	
0.163645	
0.164779	
0.158601	
0.0825122	
0.142546	
0.129372	
0.137819	
0.209738	
0.21454	
0.218863	
0.20804	
0.215267	
0.204684	
0.149565	
0.155749	
0.156808	
0.159832	
0.218796	
0.213532	
0.207772	
0.178501	
0.164836	
0.0528382	
0.0676729	
0.090013	
0.0901979	
0.0845216	
0.234025	
0.22966	
0.154065	
0.146162	
0.21794	
0.176156	
0.173836	
0.164769	
0.142533	
0.14327	
0.176282	
0.17241	
0.184467	
0.176363	
0.204834	
0.201032	
0.197892	
0.194229	
0.196811	
0.207088	
0.201661	
0.201816	
0.177658	
0.184528	
0.186358	
0.126847	
0.127541	
0.143644	
0.145119	
0.151342	
0.156777	
0.0927007	
0.0977501	
0.0869264	
0.0983421	
0.10781	
0.148596	
0.151659	
0.139982	
0.137938	
0.137247	
0.139753	
0.124911	
0.132495	
0.203734	
0.19909	
0.14758	
0.148766	
0.155547	
0.175909	
0.180618	
0.185301	
0.186283	
0.0822832	
0.0855482	
0.0954509	
0.0946814	
0.105486	
0.190424	
0.191996	
0.198195	
0.082917	
0.0917964	
0.137461	
0.144803	
0.136491	
0.148202	
0.181901	
0.184747	
0.190626	
0.193418	
0.164519	
0.168019	
0.175662	
0.179179	
0.20569	
0.210286	
0.212516	
0.214516	
0.130899	
0.0988154	
0.209842	
0.20359	
0.210507	
0.179998	
0.168656	
0.170948	
0.103756	
0.134808	
0.133448	
0.207214	
0.207729	
0.182289	
0.17439	
0.172016	
0.181375	
0.17347	
0.177362	
0.17433	
0.173774	
0.162669	
0.166063	
0.211426	
0.218107	
0.206332	
0.203738	
0.211089	
0.206449	
0.231702	
0.156545	
0.168249	
0.153083	
0.164039	
0.178167	
0.183921	
0.174103	
0.114054	
0.156682	
0.162304	
0.149665	
0.152096	
0.0736808	
0.0802297	
0.0822669	
0.193715	
0.141605	
0.141097	
0.150549	
0.16666	
0.163815	
0.174704	
0.227266	
0.2189	
0.222822	
0.183224	
0.183638	
0.188619	
0.191624	
0.126384	
0.135081	
0.135591	
0.126185	
0.132886	
0.127735	
0.150756	
0.144892	
0.147001	
0.218581	
0.212922	
0.208993	
0.140468	
0.131674	
0.143761	
0.129671	
0.183513	
0.177432	
0.216137	
0.212131	
0.109614	
0.063153	
0.050332	
0.0736613	
0.0487389	
0.145496	
0.139394	
0.122938	
0.123292	
0.191605	
0.189164	
0.196737	
0.176892	
0.17113	
0.180179	
0.155251	
0.147427	
0.123852	
0.118748	
0.131905	
0.124145	
0.143978	
0.136748	
0.138471	
0.148015	
0.148114	
0.155598	
0.155782	
0.192408	
0.198052	
0.174957	
0.180673	
0.150093	
0.132544	
0.145198	
0.230765	
0.232815	
0.223289	
0.22758	
0.202194	
0.225812	
0.223506	
0.231933	
0.227696	
0.220197	
0.226162	
0.227718	
0.224907	
0.19845	
0.195726	
0.202129	
0.199236	
0.193833	
0.191886	
0.183949	
0.187748	
0.177995	
0.181798	
0.219708	
0.168861	
0.168696	
0.160232	
0.15929	
0.19639	
0.199359	
0.12308	
0.121632	
0.129874	
0.131895	
0.128653	
0.126392	
0.135989	
0.13737	
0.187409	
0.188153	
0.116573	
0.107651	
0.116197	
0.111197	
0.170408	
0.17816	
0.188197	
0.196022	
0.18481	
0.187835	
0.185104	
0.177121	
0.182679	
0.159172	
0.165727	
0.158611	
0.16506	
0.124685	
0.128818	
0.12457	
0.143177	
0.151198	
0.15966	
0.168679	
0.159435	
0.163623	
0.225224	
0.221662	
0.213136	
0.2157	
0.134584	
0.12431	
0.12473	
0.119336	
0.119526	
0.128826	
0.123662	
0.116938	
0.176296	
0.170799	
0.181898	
0.180339	
0.221687	
0.127249	
0.132265	
0.135265	
0.138491	
0.149139	
0.141001	
0.184272	
0.178183	
0.213439	
0.205379	
0.136202	
0.0641445	
0.147426	
0.134079	
0.168068	
0.140548	
0.163103	
0.156544	
0.104531	
0.120829	
0.141357	
0.190293	
0.193423	
0.196159	
0.197714	
0.112742	
0.147366	
0.14515	
0.0977282	
0.11197	
0.114463	
0.120725	
0.103103	
0.114298	
0.116552	
0.122918	
0.123399	
0.216732	
0.221527	
0.22135	
0.224025	
0.198898	
0.190277	
0.192021	
0.072189	
0.0779166	
0.0699856	
0.0676484	
0.203283	
0.204033	
0.19615	
0.199528	
0.197132	
0.195876	
0.119833	
0.174274	
0.178327	
0.183441	
0.0567029	
0.0557461	
0.0676723	
0.067497	
0.13845	
0.216291	
0.206612	
0.208392	
0.142057	
0.182012	
0.176832	
0.224961	
0.230298	
0.156237	
0.156755	
0.144469	
0.148102	
0.20965	
0.214764	
0.209762	
0.21424	
0.153546	
0.163095	
0.156987	
0.152819	
0.163468	
0.15396	
0.160263	
0.125255	
0.111281	
0.120566	
0.107019	
0.141015	
0.149606	
0.149643	
0.190243	
0.1955	
0.213534	
0.215058	
0.218231	
0.220813	
0.134309	
0.137605	
0.126518	
0.128497	
0.156789	
0.156177	
0.165322	
0.163158	
0.166256	
0.161993	
0.153921	
0.147895	
0.202273	
0.193775	
0.202687	
0.198443	
0.20112	
0.228727	
0.235013	
0.223071	
0.225137	
0.211774	
0.20778	
0.185385	
0.192541	
0.172919	
0.179266	
0.108745	
0.0935411	
0.111934	
0.10277	
0.156085	
0.162106	
0.229217	
0.224026	
0.229183	
0.224748	
0.219173	
0.228601	
0.221578	
0.215958	
0.219651	
0.215002	
0.205122	
0.204007	
0.198794	
0.140571	
0.130887	
0.131769	
0.121351	
0.0909007	
0.0841718	
0.0737505	
0.0612638	
0.0972449	
0.107753	
0.0970912	
0.0930942	
0.0886086	
0.113751	
0.107115	
0.122242	
0.0475591	
0.0612946	
0.0760893	
0.117198	
0.106393	
0.11269	
0.113601	
0.103866	
0.107265	
0.126973	
0.19695	
0.196781	
0.206087	
0.205706	
0.075754	
0.0597649	
0.110364	
0.104045	
0.116141	
0.109579	
0.114674	
0.108904	
0.118395	
0.106736	
0.117338	
0.184897	
0.182275	
0.178218	
0.109656	
0.10579	
0.104599	
0.102907	
0.0896381	
0.15751	
0.157964	
0.165093	
0.102557	
0.115873	
0.108692	
0.121715	
0.112894	
0.116693	
0.10143	
0.169458	
0.171016	
0.197245	
0.199759	
0.193085	
0.194454	
0.0856436	
0.0802051	
0.0953492	
0.0875376	
0.164399	
0.168399	
0.100558	
0.0978054	
0.0559983	
0.0471635	
0.0712397	
0.0598154	
0.116878	
0.101224	
0.123848	
0.110833	
0.217302	
0.213103	
0.182415	
0.187481	
0.139319	
0.131299	
0.130649	
0.121628	
0.122112	
0.132461	
0.110159	
0.137342	
0.129146	
0.11355	
0.120134	
0.129254	
0.106243	
0.124747	
0.133736	
0.139648	
0.12539	
0.132306	
0.209414	
0.211205	
0.215583	
0.123495	
0.129283	
0.106067	
0.111163	
0.204623	
0.206341	
0.196998	
0.198259	
0.203053	
0.209356	
0.19893	
0.20055	
0.0925075	
0.096713	
0.0937274	
0.0976438	
0.0360548	
0.0467091	
0.0415056	
0.0453743	
0.0480379	
-0.289834	
-0.283487	
0.044217	
0.0441591	
0.0467709	
0.0430469	
0.0370355	
-0.251696	
0.0467574	
-0.0805847	
-0.0855542	
-0.196688	
-0.114663	
0.0424187	
0.0414128	
-0.123651	
-0.0784311	
-0.14569	
-0.0651017	
-0.0689216	
0.018638	
-0.00866156	
-0.238908	
-0.243398	
-0.202391	
-0.0871259	
-0.27563	
-0.233161	
-0.0769857	
-0.109874	
-0.0633285	
-0.207688	
-0.219589	
-0.237387	
-0.262313	
-0.276145	
-0.252921	
-0.00758376	
-0.0335384	
-0.15661	
-0.2022	
-0.172775	
-0.196479	
-0.192823	
-0.210469	
-0.141117	
-0.15322	
-0.109305	
-0.236549	
-0.133079	
-0.0956705	
-0.101653	
-0.113453	
-0.10001	
-0.0958424	
-0.125343	
-0.099217	
-0.267514	
-0.23378	
-0.122471	
-0.163214	
-0.247387	
-0.0691972	
-0.192912	
-0.106272	
-0.081762	
-0.148836	
-0.153124	
-0.245589	
-0.291385	
0.0289148	
0.0281306	
-0.0198639	
-0.183859	
-0.051335	
-0.0606215	
-0.229913	
-0.210404	
-0.207886	
-0.238929	
-0.254066	
-0.165947	
-0.160677	
-0.245093	
-0.230032	
-0.220481	
-0.0370869	
-0.256153	
-0.00666858	
-0.0451674	
-0.0339174	
-0.0731989	
-0.200321	
-0.145519	
-0.161119	
-0.254023	
-0.0991722	
-0.147313	
-0.177596	
-0.135077	
-0.144727	
-0.0647134	
-0.217448	
-0.239453	
-0.191925	
-0.223012	
-0.176115	
-0.193182	
-0.058813	
-0.0856563	
-0.216991	
-0.0313629	
-0.0464205	
-0.066332	
-0.137605	
-0.245016	
-0.252395	
-0.261896	
-0.278902	
-0.196024	
-0.188643	
-0.25791	
-0.266649	
-0.149902	
0.035145	
-0.00388347	
-0.286393	
-0.244632	
-0.168082	
-0.182527	
-0.18083	
0.0356204	
-0.00149243	
-0.272277	
-0.278631	
-0.277149	
0.0316513	
0.0413159	
-0.101663	
-0.130038	
-0.0540118	
-0.0613677	
-0.0447814	
0.0476984	
-0.215027	
-0.179656	
-0.159466	
-0.166792	
-0.121774	
-0.166414	
-0.119512	
-0.144122	
-0.132725	
-0.150112	
-0.284996	
-0.289901	
-0.110458	
-0.0699514	
-0.208718	
-0.221107	
-0.234434	
-0.172387	
-0.139842	
-0.179731	
-0.160988	
0.0271678	
-0.244533	
-0.0816394	
-0.0921892	
-0.151791	
-0.217772	
-0.172758	
-0.188635	
-0.209909	
-0.223552	
-0.284027	
-0.207627	
-0.212945	
-0.216852	
-0.228825	
-0.0155804	
-0.202122	
-0.172716	
-0.192778	
-0.0850035	
-0.0850241	
-0.113243	
-0.108921	
-0.0113663	
-0.0258383	
-0.105635	
-0.0855056	
-0.194066	
-0.0973506	
-0.28003	
-0.285352	
-0.0452337	
-0.250309	
-0.244017	
-0.239639	
-0.1719	
-0.21052	
-0.170424	
-0.203301	
-0.165082	
-0.109399	
-0.274861	
-0.270798	
-0.156035	
-0.162935	
-0.18377	
-0.188416	
-0.0823743	
-0.103758	
-0.270428	
-0.260487	
-0.141552	
-0.15663	
0.0187012	
-0.0229352	
-0.0123434	
-0.0619767	
-0.032192	
-0.0131519	
-0.231736	
-0.243077	
-0.292507	
-0.0881993	
-0.0766423	
-0.0576063	
-0.0588034	
-0.0773758	
-0.0464126	
-0.0743484	
-0.260235	
-0.273544	
-0.263807	
-0.290499	
-0.276136	
-0.0671212	
-0.0969237	
-0.0930601	
-0.130008	
-0.173566	
-0.217835	
-0.171986	
-0.111579	
-0.112125	
-0.126658	
-0.200792	
-0.211237	
-0.140406	
-0.156964	
-0.139106	
-0.156163	
-0.0150223	
-0.0268805	
-0.0420978	
-0.0541178	
-0.265059	
-0.182464	
-0.120898	
-0.0686329	
-0.10208	
-0.182	
-0.194661	
-0.169573	
-0.187509	
-0.228393	
-0.236176	
-0.2171	
-0.230428	
-0.268128	
-0.259157	
-0.265005	
-0.252946	
-0.136909	
-0.0962842	
-0.180355	
-0.169419	
-0.0646413	
-0.0888229	
-0.0647749	
-0.0905977	
-0.186761	
-0.192429	
-0.0506577	
-0.0544457	
-0.020085	
-0.217653	
-0.221518	
-0.230986	
-0.240048	
-0.0443619	
-0.0640064	
-0.202847	
-0.202715	
-0.124559	
-0.153354	
-0.119823	
-0.151519	
-0.214772	
-0.177612	
-0.201625	
0.00664498	
-0.0201291	
-0.270065	
-0.277309	
-0.0892637	
-0.105473	
-0.141185	
-0.128745	
-0.130236	
-0.117048	
-0.206419	
-0.187661	
-0.213803	
-0.246113	
-0.235771	
-0.253027	
-0.144422	
-0.129383	
-0.117899	
-0.0825683	
-0.0887549	
-0.0338874	
-0.0281869	
-0.0217013	
-0.0055021	
-0.0184384	
-0.00115806	
-0.0435468	
-0.0160134	
-0.0467019	
-0.0380308	
-0.0387517	
-0.101555	
-0.0928282	
-0.0657804	
-0.12636	
-0.0189201	
-0.0448527	
-0.017257	
-0.0559663	
-0.12989	
-0.107822	
-0.144519	
-0.132551	
-0.0241668	
-0.0218629	
-0.0670439	
-0.0485891	
-0.188611	
-0.191208	
-0.151142	
-0.150831	
-0.146916	
-0.166323	
-0.165815	
-0.18482	
-0.228229	
-0.229966	
-0.213698	
-0.218337	
-0.249309	
-0.242191	
-0.258295	
-0.255443	
-0.258571	
-0.25563	
-0.269357	
-0.264007	
-0.0669445	
-0.0170884	
-0.0367427	
-0.256252	
-0.247571	
-0.272031	
-0.264107	
-0.27177	
-0.260713	
-0.260198	
-0.00536302	
-0.0201758	
-0.186692	
-0.176862	
-0.166936	
-0.283356	
-0.285394	
-0.286798	
-0.150578	
-0.132505	
-0.138623	
-0.124702	
-0.287291	
-0.282711	
-0.278869	
-0.283148	
-0.28152	
-0.118397	
-0.175543	
-0.193966	
-0.170228	
-0.198365	
0.0365491	
0.0454067	
-0.0564624	
-0.0548377	
-0.00455527	
-0.0272589	
-0.00566948	
0.0345163	
0.0441938	
-0.0506995	
-0.101736	
-0.0478705	
-0.0927619	
-0.123389	
-0.137486	
-0.164517	
-0.16143	
-0.175624	
-0.182083	
-0.209391	
-0.212393	
-0.0036536	
-0.00649593	
-0.283203	
-0.27559	
-0.0218131	
-0.000101634	
-0.242036	
-0.0165924	
0.035849	
-0.227014	
0.000575845	
-0.290509	
-0.249415	
-0.0152307	
0.00340397	
0.0140389	
-0.171947	
-0.161055	
-0.259928	
-0.267166	
-0.26861	
-0.270741	
-0.278069	
-0.280412	
-0.180565	
-0.196526	
-0.113895	
-0.103749	
-0.112689	
-0.247978	
-0.212827	
-0.226751	
-0.229278	
-0.104585	
-0.132601	
-0.141466	
-0.158828	
-0.00146131	
0.0174183	
0.0432549	
-0.0243115	
0.0308934	
0.0468393	
0.0279586	
-0.00575931	
-0.257915	
-0.282034	
-0.277119	
-0.282075	
0.0355584	
-0.277218	
-0.274208	
-0.134083	
-0.116254	
-0.129093	
0.0322495	
0.0441259	
-0.267953	
-0.269815	
-0.2677	
-0.237055	
0.013632	
-0.241836	
-0.234271	
-0.227216	
0.0392625	
0.042818	
0.0462818	
-0.180638	
-0.167723	
-0.161333	
-0.14503	
-0.282112	
-0.283518	
-0.285379	
0.0463558	
0.0342758	
0.0406421	
0.00870485	
-0.257899	
-0.256077	
-0.252494	
-0.129622	
-0.130461	
0.0459101	
0.0330102	
-0.279933	
-0.273984	
-0.272408	
-0.140112	
-0.12995	
-0.271107	
-0.275755	
-0.225832	
-0.0193072	
-0.0158885	
-0.0508897	
-0.0488553	
0.0473868	
0.0418158	
-0.0607923	
-0.0699686	
-0.0877432	
-0.0890372	
-0.289453	
-0.289291	
-0.283261	
-0.289585	
-0.0909851	
-0.0696083	
-0.0835373	
-0.0887586	
-0.107584	
0.0402028	
0.0317511	
0.0280381	
-0.171933	
-0.181355	
-0.157699	
-0.17905	
0.0429657	
-0.099719	
-0.0997029	
-0.0853232	
-0.286731	
-0.290445	
-0.231471	
-0.239492	
-0.0862005	
-0.104693	
-0.247974	
-0.238512	
0.00340135	
0.00778151	
-0.221156	
-0.242106	
-0.233592	
-0.177167	
-0.196002	
-0.167084	
-0.181303	
-0.0286303	
-0.0750947	
-0.0367116	
-0.0305645	
-0.0746084	
-0.0585305	
-0.287365	
-0.289947	
-0.28767	
-0.289973	
-0.0236625	
-0.0303845	
0.0300674	
-0.221014	
-0.203717	
-0.264523	
-0.258869	
-0.146431	
-0.141957	
-0.106532	
-0.0917865	
-0.277836	
-0.272055	
-0.285722	
-0.283145	
-0.277617	
-0.271343	
-0.14397	
-0.147292	
-0.122558	
-0.126232	
-0.222272	
-0.235902	
-0.161357	
-0.174368	
-0.192242	
-0.193716	
-0.284098	
-0.285468	
-0.2858	
-0.285222	
-0.248638	
-0.259887	
-0.268553	
-0.26334	
-0.269628	
-0.233552	
-0.224074	
-0.241206	
-0.247666	
-0.0194303	
0.0205808	
0.0415372	
-0.251142	
-0.248909	
-0.0695363	
-0.0544964	
-0.0995335	
-0.191285	
-0.206278	
-0.191124	
-0.220591	
-0.217404	
-0.223793	
-0.22757	
-0.231698	
-0.288559	
-0.285425	
-0.284469	
-0.279109	
-0.256088	
-0.240513	
-0.250826	
-0.270982	
0.0249463	
-0.0300772	
0.0375896	
0.0163854	
-0.195912	
-0.218742	
-0.215024	
-0.195669	
-0.209035	
-0.0143967	
0.0375168	
0.0345347	
-0.0118643	
0.0443374	
0.0273142	
-0.247155	
-0.25281	
-0.251792	
-0.259582	
0.0391885	
0.0191711	
-0.202452	
-0.229438	
-0.209756	
-0.233765	
-0.224897	
-0.231595	
-0.241635	
-0.218421	
-0.212757	
-0.226964	
-0.103963	
-0.109075	
-0.121978	
-0.13323	
-0.279783	
-0.278469	
-0.280782	
-0.203817	
-0.193637	
-0.272099	
-0.268715	
-0.259271	
-0.260665	
-0.183683	
-0.19978	
-0.194442	
-0.209361	
-0.0807612	
-0.103107	
-0.265999	
-0.268338	
-0.28339	
-0.286632	
-0.0465599	
-0.0589777	
-0.0654121	
-0.0736566	
-0.21104	
-0.200377	
-0.196123	
-0.191554	
-0.10383	
-0.125632	
-0.134	
-0.151089	
-0.245481	
-0.256052	
-0.256154	
-0.264818	
-0.137096	
-0.129585	
-0.170165	
-0.163037	
-0.215487	
-0.20644	
-0.0506274	
-0.0296217	
-0.0733879	
-0.0594043	
-0.240214	
-0.237198	
-0.288842	
-0.287988	
-0.288603	
-0.291101	
-0.275954	
-0.275199	
-0.123344	
-0.136385	
-0.162466	
-0.171449	
-0.0153874	
-0.00403076	
0.0376444	
0.0352537	
-0.169926	
-0.138244	
-0.160576	
-0.12689	
-0.0109514	
-0.00477649	
-0.00772286	
-0.00126633	
0.00185046	
0.013083	
0.0194474	
0.0220262	
0.0158978	
-0.00955413	
-0.00146056	
0.00648663	
0.00230536	
0.00868581	
0.0180138	
0.0222871	
0.00945278	
0.0137689	
0.00575748	
-0.00558112	
0.0047132	
-0.00968507	
-0.0135617	
-0.00283665	
-0.021163	
-0.0212766	
-0.0162447	
-0.0225909	
-0.0189037	
0.0146703	
0.0124966	
-0.000655312	
0.00540492	
-0.00563935	
-0.0173776	
-0.0164493	
-0.0156062	
-0.0135912	
-0.00923685	
0.0178069	
0.228828	
0.204169	
0.220156	
0.04979	
0.0965724	
0.0528274	
0.174772	
0.104961	
0.103548	
0.104087	
0.104595	
0.0728484	
0.0475968	
0.101941	
0.0940369	
0.0900174	
0.0528261	
0.0998809	
0.0832522	
0.193486	
0.181691	
0.128808	
0.168513	
0.187889	
0.154273	
0.168576	
0.131936	
0.111311	
0.18945	
0.18486	
0.147913	
0.186922	
0.20615	
0.11663	
0.113129	
0.186266	
0.188782	
0.14181	
0.154465	
0.135539	
0.147181	
0.157176	
0.155188	
0.178924	
0.178335	
0.147982	
0.188816	
0.12835	
0.126248	
0.131177	
0.192028	
0.178593	
0.183752	
0.174518	
0.176563	
0.198169	
0.154458	
0.154935	
0.15136	
0.123369	
0.0861924	
0.118515	
0.177315	
0.174188	
0.166871	
0.165013	
0.209853	
0.213934	
0.218988	
0.102064	
0.0558005	
0.17144	
0.171122	
0.16464	
0.162126	
0.151705	
0.144559	
0.159827	
0.158811	
0.159617	
0.169022	
0.165673	
0.167087	
0.172863	
0.163087	
0.163945	
0.149025	
0.140075	
0.11104	
0.0995771	
0.11516	
0.103713	
0.188604	
0.196352	
0.184978	
0.1876	
0.11626	
0.10844	
0.14367	
0.199026	
0.204891	
0.167076	
0.169439	
0.136154	
0.169633	
0.18231	
0.111719	
0.100352	
0.120428	
0.118066	
0.13867	
0.124177	
0.120235	
0.126586	
0.21187	
0.223597	
0.20207	
0.19162	
0.187378	
0.0641186	
0.0512221	
0.10842	
0.131884	
0.0761823	
0.0869215	
0.170848	
0.160897	
0.0818749	
0.0624559	
0.116782	
0.117564	
0.1225	
0.123213	
0.0978389	
0.209045	
0.203642	
0.145075	
0.129968	
0.143273	
0.13756	
0.116361	
0.140234	
0.139163	
0.135336	
0.134049	
0.0850855	
0.23061	
0.220151	
0.207844	
0.215757	
0.188357	
0.176704	
0.168821	
0.165933	
0.0986194	
0.0872354	
0.151398	
0.163018	
0.151626	
0.163693	
0.14729	
0.152256	
0.163292	
0.149521	
0.164636	
0.0858056	
0.137082	
0.141576	
0.136628	
0.213235	
0.208835	
0.208966	
0.204684	
0.208019	
0.213249	
0.156925	
0.15998	
0.150215	
0.155918	
0.218004	
0.207001	
0.2117	
0.172512	
0.166182	
0.176246	
0.0560958	
0.0904719	
0.0803132	
0.0903617	
0.230949	
0.228111	
0.154137	
0.146126	
0.217444	
0.174574	
0.17447	
0.16923	
0.136506	
0.142557	
0.172832	
0.181919	
0.177029	
0.182703	
0.200598	
0.20355	
0.195727	
0.197767	
0.194954	
0.201111	
0.205116	
0.184151	
0.173505	
0.18599	
0.127426	
0.123637	
0.145324	
0.14403	
0.15297	
0.151398	
0.0979622	
0.0826686	
0.0985362	
0.0870864	
0.107688	
0.154521	
0.148402	
0.143119	
0.139813	
0.139758	
0.129108	
0.132435	
0.124817	
0.203314	
0.199104	
0.156011	
0.151603	
0.149221	
0.185127	
0.186234	
0.177957	
0.180635	
0.0861777	
0.0824159	
0.225194	
0.0948719	
0.0956208	
0.105706	
0.199826	
0.195371	
0.194233	
0.0903628	
0.08221	
0.14483	
0.137479	
0.148221	
0.143288	
0.191744	
0.192062	
0.185088	
0.186062	
0.175388	
0.175171	
0.168016	
0.167791	
0.211989	
0.213412	
0.206468	
0.209535	
0.130936	
0.206331	
0.209196	
0.204603	
0.179864	
0.170903	
0.165194	
0.10781	
0.135167	
0.13387	
0.208748	
0.207164	
0.183216	
0.172893	
0.175587	
0.178661	
0.182851	
0.177114	
0.165853	
0.174035	
0.177349	
0.210788	
0.215931	
0.210973	
0.206446	
0.210556	
0.203628	
0.164301	
0.156328	
0.163838	
0.156693	
0.183555	
0.177851	
0.173815	
0.114077	
0.163105	
0.159028	
0.149027	
0.0737979	
0.0729706	
0.0824023	
0.0846642	
0.190245	
0.141359	
0.141795	
0.150869	
0.16123	
0.166452	
0.174492	
0.188562	
0.189138	
0.183294	
0.183794	
0.12643	
0.132215	
0.132061	
0.135814	
0.124888	
0.133105	
0.14703	
0.150711	
0.144841	
0.212649	
0.209923	
0.218347	
0.131579	
0.140188	
0.128517	
0.137264	
0.166043	
0.177107	
0.183151	
0.109444	
0.211923	
0.215775	
0.0496367	
0.0622422	
0.0738091	
0.0488184	
0.145637	
0.136233	
0.149705	
0.123445	
0.12799	
0.191722	
0.196723	
0.191589	
0.17198	
0.180287	
0.174418	
0.155229	
0.147208	
0.118833	
0.123875	
0.12425	
0.132149	
0.131933	
0.148206	
0.136825	
0.144052	
0.148058	
0.155859	
0.159226	
0.19792	
0.192347	
0.180402	
0.174713	
0.145309	
0.132815	
0.227522	
0.204247	
0.222376	
0.224887	
0.217719	
0.229729	
0.220086	
0.229771	
0.226733	
0.228302	
0.224286	
0.195864	
0.198459	
0.199308	
0.202175	
0.188878	
0.191153	
0.192701	
0.194915	
0.176272	
0.181283	
0.182633	
0.184855	
0.216971	
0.174886	
0.170269	
0.164891	
0.161813	
0.226091	
0.198978	
0.202639	
0.121701	
0.123122	
0.126324	
0.134266	
0.126905	
0.129303	
0.131796	
0.139585	
0.190745	
0.199636	
0.189267	
0.111962	
0.116641	
0.11126	
0.116297	
0.175844	
0.17037	
0.193989	
0.187995	
0.192751	
0.184579	
0.185094	
0.174487	
0.182495	
0.177047	
0.16577	
0.155637	
0.168591	
0.158627	
0.128348	
0.12436	
0.147986	
0.143501	
0.165259	
0.160043	
0.168072	
0.159862	
0.215941	
0.215488	
0.2221	
0.134629	
0.13229	
0.127912	
0.124354	
0.119661	
0.11938	
0.123505	
0.125766	
0.117548	
0.113702	
0.18373	
0.170343	
0.180468	
0.177318	
0.217546	
0.217338	
0.121689	
0.126982	
0.138411	
0.134992	
0.149961	
0.136222	
0.135919	
0.148247	
0.169053	
0.138276	
0.126054	
0.106051	
0.157416	
0.164087	
0.109028	
0.120476	
0.200134	
0.197893	
0.195037	
0.191284	
0.147996	
0.145697	
0.101206	
0.112702	
0.123193	
0.121956	
0.112715	
0.108117	
0.107745	
0.114733	
0.114713	
0.0813397	
0.103027	
0.120375	
0.220078	
0.212496	
0.22287	
0.22022	
0.193714	
0.198936	
0.192404	
0.196458	
0.199288	
0.199775	
0.203263	
0.123943	
0.183672	
0.174411	
0.178546	
0.138953	
0.213634	
0.205255	
0.215902	
0.194837	
0.195183	
0.212234	
0.207344	
0.215618	
0.142493	
0.0676821	
0.0675704	
0.0566641	
0.0477655	
0.176904	
0.182125	
0.228443	
0.223526	
0.0721478	
0.0699818	
0.0779024	
0.0676675	
0.105338	
0.149486	
0.158166	
0.15813	
0.15356	
0.156985	
0.163076	
0.154999	
0.161448	
0.153961	
0.160518	
0.110202	
0.119484	
0.102601	
0.118975	
0.14956	
0.140373	
0.149461	
0.195482	
0.190237	
0.220632	
0.219707	
0.212634	
0.214342	
0.141155	
0.134332	
0.128818	
0.12661	
0.168465	
0.162979	
0.156681	
0.156042	
0.153909	
0.152478	
0.162494	
0.161824	
0.199275	
0.219677	
0.217212	
0.220997	
0.207469	
0.211412	
0.224454	
0.224927	
0.192564	
0.187228	
0.179427	
0.173703	
0.199401	
0.202663	
0.185427	
0.192908	
0.182488	
0.187682	
0.107681	
0.102755	
0.108729	
0.0935705	
0.165615	
0.156096	
0.225259	
0.219676	
0.216042	
0.215046	
0.219594	
0.223925	
0.232287	
0.223782	
0.228513	
0.196574	
0.203514	
0.198425	
0.204751	
0.199293	
0.101358	
0.0611934	
0.0507349	
0.160598	
0.153303	
0.130675	
0.141032	
0.121353	
0.131914	
0.119904	
0.110959	
0.117054	
0.101461	
0.221767	
0.225652	
0.107687	
0.0969239	
0.0974693	
0.0879827	
0.0932385	
0.113994	
0.10742	
0.102248	
0.0991576	
0.107188	
0.0612684	
0.0761269	
0.0475452	
0.118294	
0.112508	
0.113704	
0.105791	
0.104169	
0.0930736	
0.103574	
0.107402	
0.206182	
0.139936	
0.134522	
0.132585	
0.126362	
0.20523	
0.200625	
0.201376	
0.196199	
0.0757367	
0.0596827	
0.116464	
0.110643	
0.104295	
0.0954315	
0.0949231	
0.109559	
0.105451	
0.122459	
0.165977	
0.158172	
0.158723	
0.116231	
0.108977	
0.102823	
0.205986	
0.116757	
0.101491	
0.124608	
0.112872	
0.192544	
0.193941	
0.196793	
0.200652	
0.080302	
0.0928814	
0.0877055	
0.0955657	
0.164953	
0.169141	
0.0713213	
0.0598595	
0.0678044	
0.0472366	
0.199525	
0.201273	
0.20461	
0.207909	
0.115164	
0.118427	
0.124953	
0.128072	
0.212757	
0.219914	
0.213277	
0.217623	
0.191135	
0.184138	
0.221211	
0.227019	
0.222174	
0.226625	
0.232258	
0.138787	
0.138641	
0.121475	
0.108941	
0.0911013	
0.0906131	
0.116122	
0.113759	
0.136644	
0.128131	
0.131666	
0.121153	
0.146863	
0.143097	
0.12657	
0.135045	
0.129071	
0.120301	
0.118755	
0.209293	
0.212676	
0.203847	
0.204749	
0.141163	
0.131743	
0.128198	
0.107277	
0.13112	
0.12249	
0.0444864	
0.0464533	
0.0317345	
0.0454517	
0.0480601	
-0.289214	
-0.283204	
0.0465758	
0.0358836	
0.0370233	
-0.0474557	
-0.251001	
0.0472176	
0.0466115	
-0.080524	
-0.0852883	
-0.196618	
0.047576	
-0.0914206	
0.0424886	
0.0414435	
-0.284764	
-0.123466	
-0.0861131	
-0.145468	
-0.0478195	
-0.0650035	
0.0187487	
-0.00857186	
-0.242953	
-0.241737	
-0.20211	
-0.0870037	
-0.268777	
-0.23249	
-0.0771691	
-0.109711	
-0.0633507	
-0.22065	
-0.21918	
-0.237482	
-0.262014	
-0.27594	
-0.25272	
-0.00758912	
-0.0335457	
-0.158796	
-0.202108	
-0.213394	
-0.210022	
-0.177351	
-0.181013	
-0.141459	
-0.133901	
-0.10371	
-0.236335	
-0.120045	
-0.0908148	
-0.0958801	
-0.113693	
-0.0998693	
-0.125162	
-0.095702	
-0.0994442	
-0.267357	
-0.231367	
-0.121624	
-0.157619	
-0.24705	
-0.0692337	
-0.193107	
-0.106107	
-0.0816072	
-0.145206	
-0.153574	
-0.255392	
-0.28928	
0.0414102	
0.0289725	
-0.0197919	
-0.183891	
-0.0606751	
-0.0513714	
-0.210806	
-0.230242	
-0.207907	
-0.25377	
-0.238638	
-0.156327	
-0.161071	
-0.229728	
-0.24489	
-0.220186	
-0.0370061	
-0.254118	
-0.0183929	
-0.0117254	
-0.0687063	
-0.0594605	
-0.199977	
-0.131909	
-0.16143	
-0.253189	
-0.0992297	
-0.134878	
-0.162801	
-0.14709	
-0.172506	
-0.066163	
-0.239393	
-0.217589	
-0.222924	
-0.191819	
-0.183331	
-0.19449	
-0.0856003	
-0.218242	
-0.0315881	
-0.0663056	
-0.123277	
-0.25285	
-0.245256	
-0.261213	
-0.278226	
-0.187385	
-0.188382	
-0.266543	
-0.25758	
-0.149696	
0.0350728	
-0.00389423	
-0.259147	
-0.25893	
-0.286789	
-0.247372	
-0.168345	
-0.167941	
0.0345522	
-0.00148016	
-0.270811	
-0.277896	
-0.276493	
0.0282487	
0.041623	
-0.101559	
-0.129858	
-0.0551097	
-0.0452499	
-0.0624608	
-0.214604	
-0.179445	
-0.138071	
-0.166627	
-0.166487	
-0.166385	
-0.119565	
0.043061	
-0.14533	
-0.149045	
-0.284201	
-0.288498	
-0.132559	
-0.0698147	
-0.233956	
-0.208426	
-0.207294	
-0.144315	
-0.172218	
-0.160953	
-0.179609	
0.0271738	
-0.244366	
-0.0921166	
-0.151786	
-0.219294	
-0.173304	
-0.189274	
-0.212897	
-0.224005	
-0.284757	
-0.228417	
-0.228944	
-0.207792	
-0.206564	
-0.0152967	
-0.202075	
-0.192713	
-0.172664	
-0.0850281	
-0.085022	
-0.108922	
-0.0114659	
-0.0261678	
-0.106099	
-0.0795153	
-0.113057	
-0.194594	
-0.0879351	
-0.289888	
-0.285582	
-0.280093	
-0.0507107	
-0.252789	
-0.240448	
-0.239654	
-0.170651	
-0.212544	
-0.188322	
-0.202883	
-0.164878	
-0.132417	
-0.270243	
-0.273559	
-0.1842	
-0.177885	
-0.166336	
-0.163181	
-0.10661	
-0.225561	
-0.259817	
-0.26938	
-0.141494	
-0.12104	
-0.156784	
0.0187552	
-0.0122982	
-0.0750709	
-0.061925	
-0.0131053	
-0.0321336	
-0.231008	
-0.242196	
-0.0884183	
-0.0577694	
-0.0768244	
-0.0544275	
-0.0746579	
-0.0589774	
-0.077592	
-0.25863	
-0.262415	
-0.272205	
-0.281594	
-0.288696	
-0.0299872	
-0.0929246	
-0.0442853	
-0.0967822	
-0.129851	
-0.15061	
-0.218944	
-0.171876	
-0.108896	
-0.138973	
-0.212234	
-0.201838	
-0.169983	
-0.139456	
-0.162065	
-0.0270346	
-0.0203172	
-0.0465951	
-0.0424339	
-0.113278	
-0.170203	
-0.102206	
-0.0732804	
-0.194894	
-0.165942	
-0.187699	
-0.169736	
-0.236417	
-0.216919	
-0.230706	
-0.217316	
-0.121623	
-0.264735	
-0.25013	
-0.270567	
-0.258965	
-0.12219	
-0.109225	
-0.15739	
-0.180943	
-0.0890544	
-0.0549402	
-0.101889	
-0.0650464	
-0.174782	
-0.19463	
-0.0650852	
-0.0510402	
-0.0204723	
-0.230537	
-0.235441	
-0.217268	
-0.220986	
-0.063899	
-0.0670132	
-0.20458	
-0.195622	
-0.140744	
-0.124822	
-0.153625	
-0.151786	
-0.133333	
-0.204245	
-0.181092	
-0.20182	
-0.18863	
-0.015176	
0.00652637	
-0.277348	
-0.270141	
-0.105401	
-0.0892255	
-0.130498	
-0.117293	
-0.141477	
-0.129018	
-0.192542	
-0.213543	
-0.195746	
-0.245453	
-0.252779	
-0.239713	
-0.129277	
-0.139787	
-0.117875	
-0.0887175	
-0.101659	
-0.0344051	
-0.028592	
-0.00774553	
-0.0243782	
-0.00111621	
-0.045225	
-0.0160323	
-0.0435938	
-0.04671	
-0.0388986	
-0.0175414	
-0.0927273	
-0.0656791	
-0.101462	
-0.0745324	
-0.126277	
-0.038195	
-0.0561417	
-0.0189893	
-0.0447985	
-0.144357	
-0.109271	
-0.129719	
-0.107688	
-0.0218338	
-0.054744	
-0.0485165	
-0.0669449	
-0.150939	
-0.173293	
-0.17019	
-0.19087	
-0.182133	
-0.184918	
-0.147014	
-0.144195	
-0.20611	
-0.218077	
-0.227915	
-0.229733	
-0.238297	
-0.248651	
-0.254832	
-0.257597	
-0.255045	
-0.25804	
-0.263245	
-0.27051	
-0.0170672	
-0.0367357	
-0.0669363	
-0.259646	
-0.247633	
-0.265568	
-0.26981	
-0.270762	
-0.260841	
-0.261911	
-0.0201997	
-0.00538173	
-0.187638	
-0.187157	
-0.163728	
-0.284965	
-0.286222	
-0.14545	
-0.150802	
-0.124725	
-0.127385	
-0.285591	
-0.280594	
-0.282878	
-0.28328	
-0.281158	
-0.104558	
-0.193878	
-0.175497	
-0.198245	
-0.18243	
0.0453445	
0.0365561	
-0.0563265	
-0.00465453	
-0.0241553	
-0.0270796	
-0.00550389	
0.0436323	
0.0343878	
-0.0825155	
-0.0506523	
-0.0926601	
-0.0688397	
-0.123163	
-0.137325	
-0.15667	
-0.165008	
-0.176757	
-0.176865	
-0.209448	
-0.212469	
-0.00669143	
-0.00381655	
-0.281794	
-0.274441	
-0.0219428	
-0.000202472	
-0.0191811	
0.00269693	
0.0358078	
-0.0154448	
-0.28493	
-0.227809	
-0.242575	
-0.248684	
-0.0241514	
0.00861473	
-0.22816	
-0.235475	
0.0139293	
-0.171237	
-0.171043	
-0.266404	
-0.256384	
-0.267659	
-0.277943	
-0.268003	
-0.280261	
-0.180841	
-0.198076	
-0.114132	
-0.112942	
-0.103976	
-0.251343	
-0.226763	
-0.220974	
-0.110417	
-0.118381	
-0.15657	
-0.141447	
0.00116082	
0.043527	
0.0175773	
0.0313199	
-0.015034	
0.0280736	
0.0469137	
-0.00574183	
-0.213432	
-0.220963	
-0.217724	
-0.28118	
-0.281975	
-0.277092	
0.0337203	
-0.27647	
-0.273188	
-0.116374	
-0.134206	
-0.129193	
0.0463703	
0.0335898	
-0.268828	
-0.267076	
-0.271757	
0.0135251	
0.0427724	
0.039177	
0.0376811	
-0.161512	
-0.149041	
-0.180825	
-0.182767	
-0.280858	
-0.287668	
-0.283804	
0.0341949	
0.0466025	
0.00315828	
0.04064	
-0.23813	
-0.23302	
-0.130774	
-0.129954	
0.043097	
0.0370439	
0.033747	
-0.271569	
-0.255128	
-0.277685	
-0.273185	
-0.233857	
-0.227947	
-0.247396	
-0.235796	
-0.140438	
-0.130206	
-0.270855	
-0.274953	
-0.225782	
-0.0157827	
-0.0192097	
-0.0487413	
-0.0507856	
0.0415889	
0.0469861	
-0.0975366	
-0.0891953	
-0.0609491	
-0.0453342	
-0.287351	
-0.282368	
-0.287768	
-0.282017	
-0.0910794	
-0.0886609	
-0.100512	
-0.0696636	
-0.0815353	
0.0317498	
0.0401844	
0.0282411	
-0.166549	
-0.179198	
-0.160831	