<VTKFile type="UnstructuredGrid" version="0.1" byte_order="LittleEndian">
	<UnstructuredGrid>
		<Piece NumberOfPoints="1647" NumberOfCells="3046">
			<CellData Scalars="scalars">
				<DataArray type="Float64" Name="Doublet Strengths" NumberOfComponents="1" Format="ascii">
0.196085	
0.171687	
0.185301	
0.0447233	
0.0875196	
0.0981187	
0.0979266	
0.0980054	
0.045225	
0.0427568	
0.0961566	
0.0897699	
0.0512966	
0.0945311	
0.0975295	
0.0792881	
0.164863	
0.0956331	
0.191078	
0.151556	
0.163422	
0.113106	
0.146355	
0.160707	
0.135463	
0.14523	
0.118734	
0.137508	
0.100405	
0.15944	
0.161564	
0.13066	
0.159847	
0.175006	
0.104369	
0.158542	
0.161479	
0.120472	
0.135564	
0.119958	
0.129852	
0.137667	
0.136173	
0.15105	
0.153535	
0.133692	
0.161466	
0.114838	
0.112682	
0.123805	
0.169027	
0.163685	
0.15781	
0.153948	
0.156385	
0.150887	
0.168825	
0.123304	
0.135529	
0.13575	
0.132966	
0.109706	
0.0775765	
0.108843	
0.145116	
0.146448	
0.149004	
0.150792	
0.181092	
0.182484	
0.177458	
0.0951896	
0.0446222	
0.142677	
0.144025	
0.147786	
0.150554	
0.138688	
0.131346	
0.132992	
0.127709	
0.144399	
0.139512	
0.144196	
0.142175	
0.146109	
0.145178	
0.149539	
0.132055	
0.125548	
0.0930139	
0.103242	
0.107409	
0.158516	
0.164441	
0.161333	
0.166266	
0.101532	
0.108221	
0.127102	
0.169381	
0.170418	
0.177297	
0.152226	
0.144744	
0.146198	
0.121253	
0.159087	
0.0949055	
0.104599	
0.107905	
0.114118	
0.112811	
0.118416	
0.109975	
0.109622	
0.182921	
0.190694	
0.163086	
0.171239	
0.159321	
0.0486909	
0.118717	
0.0826607	
0.0736124	
0.0779149	
0.139653	
0.150125	
0.0745633	
0.0563939	
0.109749	
0.110569	
0.105052	
0.105966	
0.0934643	
0.178349	
0.172996	
0.127131	
0.118413	
0.128461	
0.120178	
0.0988319	
0.118261	
0.119618	
0.124527	
0.123613	
0.0918112	
0.0814569	
0.19544	
0.186201	
0.174678	
0.182213	
0.161489	
0.146528	
0.146785	
0.150892	
0.0785605	
0.0685694	
0.185265	
0.141796	
0.135382	
0.140503	
0.133213	
0.138751	
0.129908	
0.141759	
0.142578	
0.137941	
0.0754471	
0.126497	
0.116877	
0.123001	
0.177266	
0.181035	
0.184675	
0.176632	
0.182724	
0.173875	
0.131943	
0.136705	
0.137479	
0.139817	
0.186472	
0.181906	
0.176931	
0.155417	
0.144395	
0.047916	
0.0619554	
0.0842096	
0.0835631	
0.0783599	
0.198032	
0.193754	
0.134645	
0.128946	
0.185496	
0.152762	
0.150825	
0.143967	
0.126517	
0.127083	
0.152489	
0.149618	
0.158778	
0.152666	
0.173784	
0.170812	
0.168453	
0.165478	
0.167366	
0.175617	
0.171309	
0.170687	
0.152541	
0.157618	
0.158856	
0.113083	
0.113772	
0.127169	
0.128253	
0.132776	
0.136828	
0.0841557	
0.0887909	
0.0796849	
0.0898856	
0.100588	
0.130828	
0.133034	
0.124541	
0.123002	
0.122507	
0.124361	
0.113603	
0.119146	
0.173168	
0.169483	
0.130562	
0.131474	
0.136795	
0.151571	
0.155148	
0.158651	
0.159433	
0.077665	
0.080781	
0.0878591	
0.0864399	
0.0959488	
0.164301	
0.165848	
0.171525	
0.0742693	
0.0820613	
0.122775	
0.128236	
0.122103	
0.130804	
0.156915	
0.159541	
0.163724	
0.166622	
0.142709	
0.145401	
0.15116	
0.15389	
0.174528	
0.178218	
0.179994	
0.181598	
0.118021	
0.0910732	
0.177899	
0.172841	
0.178603	
0.154012	
0.145615	
0.147235	
0.0962517	
0.120176	
0.118921	
0.174741	
0.175165	
0.15576	
0.149811	
0.148064	
0.156986	
0.150872	
0.154138	
0.150067	
0.149577	
0.141232	
0.14376	
0.1781	
0.183692	
0.175063	
0.173079	
0.179258	
0.175265	
0.195737	
0.136679	
0.145523	
0.134073	
0.142308	
0.153033	
0.157353	
0.149923	
0.104719	
0.13711	
0.141309	
0.131789	
0.133576	
0.0679892	
0.0750661	
0.0758666	
0.165416	
0.125971	
0.125538	
0.132896	
0.144472	
0.142383	
0.150618	
0.191819	
0.184603	
0.187864	
0.157182	
0.157542	
0.161282	
0.163627	
0.113859	
0.120718	
0.121206	
0.11403	
0.119043	
0.115054	
0.132667	
0.128273	
0.12985	
0.18575	
0.180829	
0.177467	
0.124856	
0.118577	
0.127265	
0.117041	
0.15701	
0.152441	
0.181985	
0.178663	
0.102075	
0.0563882	
0.0449002	
0.0675782	
0.0449877	
0.128898	
0.124264	
0.109788	
0.110346	
0.163741	
0.161785	
0.167677	
0.152649	
0.148227	
0.154972	
0.135518	
0.129796	
0.112833	
0.109006	
0.118631	
0.112966	
0.127574	
0.122173	
0.123452	
0.130676	
0.130725	
0.136502	
0.136623	
0.16333	
0.167627	
0.150371	
0.154569	
0.132258	
0.119039	
0.128476	
0.195458	
0.197244	
0.188408	
0.192165	
0.174871	
0.190988	
0.188913	
0.196234	
0.192356	
0.18673	
0.192159	
0.193379	
0.190536	
0.169035	
0.166936	
0.17191	
0.169588	
0.165432	
0.163825	
0.158054	
0.160822	
0.153526	
0.156264	
0.186161	
0.148359	
0.147354	
0.140883	
0.139686	
0.170338	
0.173384	
0.111961	
0.110772	
0.117001	
0.118391	
0.116215	
0.114504	
0.121619	
0.122755	
0.162973	
0.163161	
0.106965	
0.10034	
0.10657	
0.102968	
0.147393	
0.153252	
0.160833	
0.166814	
0.158231	
0.16049	
0.158987	
0.152954	
0.157112	
0.139259	
0.144266	
0.138783	
0.143702	
0.113406	
0.11664	
0.113503	
0.127133	
0.133393	
0.139983	
0.146918	
0.139725	
0.142885	
0.191636	
0.18806	
0.180792	
0.183058	
0.120768	
0.112336	
0.112834	
0.108643	
0.108912	
0.115627	
0.111639	
0.106081	
0.153759	
0.149314	
0.158333	
0.157537	
0.187186	
0.115568	
0.119009	
0.121189	
0.123568	
0.131618	
0.124934	
0.157342	
0.15279	
0.17977	
0.173333	
0.121751	
0.0617212	
0.129841	
0.118914	
0.146859	
0.12418	
0.142913	
0.13769	
0.0933328	
0.111599	
0.125137	
0.161897	
0.16422	
0.166243	
0.167438	
0.105682	
0.130288	
0.128424	
0.0927173	
0.10472	
0.107088	
0.1116	
0.0969285	
0.106483	
0.108375	
0.112071	
0.112466	
0.182488	
0.186599	
0.186286	
0.188649	
0.169515	
0.162871	
0.16428	
0.0686299	
0.0748295	
0.0673511	
0.0656229	
0.173572	
0.173961	
0.167609	
0.17021	
0.166993	
0.166057	
0.109788	
0.150868	
0.153968	
0.157735	
0.0533297	
0.051702	
0.0633387	
0.0625942	
0.122903	
0.182092	
0.174331	
0.175693	
0.126037	
0.156661	
0.152751	
0.189906	
0.19473	
0.138313	
0.138147	
0.127992	
0.1307	
0.176632	
0.180834	
0.176751	
0.180438	
0.134786	
0.142152	
0.137444	
0.134284	
0.143066	
0.135346	
0.140624	
0.111375	
0.0992108	
0.107219	
0.100175	
0.125371	
0.131529	
0.131594	
0.162508	
0.166695	
0.180594	
0.181966	
0.184282	
0.18655	
0.11895	
0.121818	
0.11234	
0.114149	
0.13679	
0.136388	
0.143104	
0.141586	
0.143941	
0.140725	
0.134697	
0.13026	
0.170979	
0.164425	
0.171279	
0.167957	
0.170399	
0.193351	
0.199507	
0.188325	
0.190065	
0.18004	
0.176787	
0.161039	
0.167497	
0.149397	
0.154165	
0.102067	
0.0892287	
0.10374	
0.0974288	
0.136718	
0.141321	
0.192951	
0.188491	
0.193057	
0.189141	
0.185922	
0.194549	
0.188152	
0.183163	
0.186478	
0.182414	
0.173841	
0.1731	
0.168867	
0.125165	
0.119421	
0.118694	
0.111648	
0.081593	
0.0753483	
0.0664995	
0.0546642	
0.0874149	
0.0962707	
0.0870229	
0.0889711	
0.0850182	
0.101731	
0.0961174	
0.108827	
0.0427899	
0.0553913	
0.0686016	
0.108805	
0.0976221	
0.102574	
0.103009	
0.0952344	
0.0977362	
0.115103	
0.166914	
0.166868	
0.174041	
0.173866	
0.0681689	
0.0537582	
0.0995595	
0.094059	
0.104281	
0.100768	
0.10452	
0.10059	
0.107553	
0.0999786	
0.108984	
0.15786	
0.15584	
0.152822	
0.101823	
0.100026	
0.0976703	
0.0974836	
0.0858817	
0.138338	
0.138705	
0.144378	
0.0924528	
0.103832	
0.0975959	
0.111271	
0.105465	
0.108407	
0.0955675	
0.146167	
0.147341	
0.167557	
0.169221	
0.1643	
0.165228	
0.0779686	
0.0728392	
0.0861587	
0.0791231	
0.143716	
0.146846	
0.0942403	
0.0931975	
0.0513868	
0.0431078	
0.0648563	
0.0544338	
0.108608	
0.0954434	
0.112934	
0.103875	
0.184213	
0.180646	
0.158049	
0.162316	
0.124147	
0.118305	
0.119173	
0.111885	
0.112614	
0.119086	
0.10247	
0.122843	
0.118017	
0.101439	
0.11099	
0.116718	
0.0990132	
0.113788	
0.12001	
0.124319	
0.11399	
0.119041	
0.180282	
0.180759	
0.185656	
0.110346	
0.11513	
0.0947417	
0.0991767	
0.175641	
0.176513	
0.1687	
0.169481	
0.174945	
0.180601	
0.171239	
0.172194	
0.0865912	
0.0898126	
0.0882657	
0.09109	
0.039848	
0.0496081	
0.0450206	
0.0483375	
0.0504812	
-0.25544	
-0.250561	
0.0477335	
0.04687	
0.0492428	
0.0454554	
0.0376598	
-0.221933	
0.0495684	
-0.0758454	
-0.0807017	
-0.172116	
-0.107728	
0.0456959	
0.0448884	
-0.105212	
-0.0716609	
-0.125526	
-0.0511759	
-0.0546147	
0.0249774	
-0.000378746	
-0.210884	
-0.215229	
-0.17822	
-0.0714454	
-0.2446	
-0.205304	
-0.0683062	
-0.0927085	
-0.0515137	
-0.182009	
-0.19289	
-0.213718	
-0.232851	
-0.245574	
-0.225432	
2.16034e-05	
-0.0238739	
-0.137321	
-0.17935	
-0.150538	
-0.172138	
-0.16904	
-0.184957	
-0.130206	
-0.133434	
-0.0929181	
-0.209498	
-0.119191	
-0.0857345	
-0.0907105	
-0.102796	
-0.0833131	
-0.0795963	
-0.106753	
-0.0877737	
-0.237705	
-0.211393	
-0.114465	
-0.152204	
-0.220613	
-0.0570825	
-0.172952	
-0.0894803	
-0.0669984	
-0.13276	
-0.140547	
-0.216735	
-0.257219	
0.0340517	
0.0334487	
-0.0107948	
-0.163139	
-0.0406507	
-0.0494365	
-0.206793	
-0.189691	
-0.186766	
-0.211533	
-0.225341	
-0.150807	
-0.146273	
-0.218437	
-0.204879	
-0.196059	
-0.0255679	
-0.226165	
9.05848e-05	
-0.0354445	
-0.0253557	
-0.0617615	
-0.175414	
-0.135415	
-0.149364	
-0.224314	
-0.0850329	
-0.127067	
-0.155012	
-0.115892	
-0.124838	
-0.0602679	
-0.192858	
-0.212859	
-0.16899	
-0.197267	
-0.162298	
-0.17802	
-0.0469222	
-0.0715236	
-0.198141	
-0.0281912	
-0.0427923	
-0.052483	
-0.119504	
-0.219788	
-0.226738	
-0.231343	
-0.246478	
-0.172187	
-0.165546	
-0.22965	
-0.23741	
-0.139692	
0.0392014	
0.00330254	
-0.253992	
-0.221174	
-0.151193	
-0.16398	
-0.163328	
0.0402083	
0.00651074	
-0.242409	
-0.247893	
-0.246325	
0.0365399	
0.0448234	
-0.0955632	
-0.121914	
-0.04888	
-0.0554991	
-0.0394351	
0.0487876	
-0.18882	
-0.156491	
-0.13882	
-0.145676	
-0.104089	
-0.147136	
-0.103795	
-0.126735	
-0.124418	
-0.139952	
-0.251822	
-0.255327	
-0.0945356	
-0.0563348	
-0.183017	
-0.194227	
-0.206396	
-0.149843	
-0.119925	
-0.156552	
-0.139374	
0.0324403	
-0.217175	
-0.0675591	
-0.077417	
-0.133214	
-0.199561	
-0.157817	
-0.172466	
-0.192165	
-0.203087	
-0.251641	
-0.185905	
-0.19004	
-0.194495	
-0.204867	
-0.00602133	
-0.178842	
-0.152072	
-0.170511	
-0.0715272	
-0.0714115	
-0.0978475	
-0.0935243	
-0.0088437	
-0.022458	
-0.0969727	
-0.077971	
-0.177056	
-0.0854632	
-0.248984	
-0.253303	
-0.0366029	
-0.222611	
-0.218166	
-0.214467	
-0.159427	
-0.193366	
-0.147942	
-0.178032	
-0.143039	
-0.0917977	
-0.244783	
-0.241663	
-0.141234	
-0.147261	
-0.167272	
-0.171149	
-0.0767757	
-0.0968331	
-0.239182	
-0.2302	
-0.132439	
-0.139165	
0.0252073	
-0.0127653	
-0.00318198	
-0.0497087	
-0.0221713	
-0.00478904	
-0.204003	
-0.214271	
-0.258586	
-0.0795959	
-0.0683009	
-0.0503538	
-0.0517574	
-0.0696053	
-0.0401685	
-0.0670682	
-0.22981	
-0.241781	
-0.233091	
-0.256442	
-0.244036	
-0.0532858	
-0.0807081	
-0.0772729	
-0.110846	
-0.150889	
-0.199627	
-0.150753	
-0.103813	
-0.103505	
-0.117283	
-0.184767	
-0.193883	
-0.127465	
-0.143685	
-0.127376	
-0.144208	
-0.010417	
-0.0214666	
-0.036588	
-0.0478005	
-0.23407	
-0.161671	
-0.106302	
-0.0573286	
-0.0889297	
-0.162109	
-0.174035	
-0.150982	
-0.167692	
-0.20475	
-0.211923	
-0.194964	
-0.207017	
-0.238642	
-0.230629	
-0.235608	
-0.224824	
-0.122124	
-0.0838724	
-0.165814	
-0.155181	
-0.0553765	
-0.0782641	
-0.0560174	
-0.0805531	
-0.173061	
-0.177554	
-0.0420413	
-0.0460149	
-0.0133057	
-0.192076	
-0.19549	
-0.204242	
-0.212382	
-0.0325447	
-0.0503515	
-0.187193	
-0.18685	
-0.112313	
-0.13768	
-0.106567	
-0.136342	
-0.194355	
-0.16085	
-0.183115	
0.0102105	
-0.015541	
-0.238642	
-0.245131	
-0.0841323	
-0.0992211	
-0.127368	
-0.115912	
-0.116816	
-0.104643	
-0.181486	
-0.164396	
-0.18842	
-0.217774	
-0.208453	
-0.224277	
-0.124081	
-0.11026	
-0.0997581	
-0.0672457	
-0.0729729	
-0.0297023	
-0.0239192	
-0.0151618	
0.00011186	
-0.0106528	
0.00539154	
-0.0337507	
-0.00815261	
-0.0390551	
-0.0314163	
-0.0323098	
-0.0859327	
-0.0777849	
-0.052744	
-0.108891	
-0.0130182	
-0.0375035	
-0.0116159	
-0.0482274	
-0.110774	
-0.0904168	
-0.124106	
-0.113109	
-0.0141703	
-0.0120341	
-0.0533886	
-0.0364676	
-0.164571	
-0.166951	
-0.130312	
-0.130039	
-0.129522	
-0.147196	
-0.147225	
-0.164468	
-0.201285	
-0.203006	
-0.188032	
-0.192465	
-0.220476	
-0.213748	
-0.22854	
-0.225777	
-0.229321	
-0.226558	
-0.238982	
-0.234048	
-0.0546673	
-0.00855269	
-0.0267215	
-0.229574	
-0.221747	
-0.243514	
-0.237233	
-0.242808	
-0.235016	
-0.233994	
0.00177461	
-0.0117376	
-0.173174	
-0.164308	
-0.155571	
-0.250104	
-0.252603	
-0.254482	
-0.139805	
-0.123487	
-0.128278	
-0.11588	
-0.253427	
-0.250692	
-0.247904	
-0.25118	
-0.250204	
-0.102132	
-0.155023	
-0.171989	
-0.150269	
-0.176208	
0.0405807	
0.0481961	
-0.0438258	
-0.0422956	
0.00361185	
-0.0170703	
0.00258773	
0.0393104	
0.0475399	
-0.0379943	
-0.0848072	
-0.0353767	
-0.0765111	
-0.115555	
-0.128533	
-0.152251	
-0.148651	
-0.162427	
-0.168042	
-0.190958	
-0.193271	
-7.95213e-05	
-0.0030728	
-0.250664	
-0.243788	
-0.0164102	
0.00423806	
-0.219547	
-0.0105122	
0.0372413	
-0.207384	
0.00636166	
-0.257055	
-0.225333	
-0.00615691	
0.00786457	
0.0169524	
-0.15941	
-0.149903	
-0.232573	
-0.238823	
-0.240385	
-0.240928	
-0.247441	
-0.249289	
-0.167029	
-0.181378	
-0.103656	
-0.0943883	
-0.10326	
-0.224818	
-0.19535	
-0.201136	
-0.20314	
-0.0892703	
-0.115021	
-0.123519	
-0.139487	
0.0035895	
0.0239556	
0.0465644	
-0.0144105	
0.0360684	
0.0489682	
0.0322109	
0.000649295	
-0.232543	
-0.250318	
-0.246294	
-0.250534	
0.0387342	
-0.245814	
-0.242777	
-0.11809	
-0.101709	
-0.113138	
0.0354197	
0.0461703	
-0.237381	
-0.239125	
-0.238789	
-0.215321	
0.016986	
-0.219838	
-0.213195	
-0.207241	
0.0410504	
0.0440025	
0.0484782	
-0.161882	
-0.150471	
-0.143823	
-0.128901	
-0.249731	
-0.251129	
-0.252572	
0.0479527	
0.0371506	
0.0428827	
0.0126804	
-0.232903	
-0.231234	
-0.228298	
-0.119139	
-0.119521	
0.0479112	
0.0379117	
-0.24765	
-0.242134	
-0.240616	
-0.127586	
-0.118284	
-0.240784	
-0.24476	
-0.200718	
-0.00998445	
-0.00674649	
-0.0390475	
-0.0371157	
0.0487911	
0.0437385	
-0.0513106	
-0.0594386	
-0.0766876	
-0.077444	
-0.255818	
-0.255336	
-0.251003	
-0.255886	
-0.0779655	
-0.0652663	
-0.0780851	
-0.0833019	
-0.100675	
0.0437833	
0.0363442	
0.0337543	
-0.15963	
-0.1683	
-0.147149	
-0.166399	
0.0464575	
-0.0922821	
-0.0926312	
-0.0786562	
-0.253713	
-0.256542	
-0.211263	
-0.217934	
-0.0733347	
-0.0903849	
-0.220856	
-0.212226	
0.00544367	
0.0101031	
-0.194391	
-0.213603	
-0.205674	
-0.154277	
-0.171502	
-0.145166	
-0.15829	
-0.0190601	
-0.0620255	
-0.0261347	
-0.0204286	
-0.0611479	
-0.0461346	
-0.253706	
-0.255122	
-0.253963	
-0.255626	
-0.0132658	
-0.0194369	
0.0356795	
-0.195741	
-0.179903	
-0.23725	
-0.232172	
-0.136953	
-0.132738	
-0.100219	
-0.0865467	
-0.247048	
-0.242052	
-0.252928	
-0.250973	
-0.246243	
-0.240657	
-0.126114	
-0.129348	
-0.106246	
-0.109792	
-0.195557	
-0.207969	
-0.141188	
-0.15306	
-0.169677	
-0.170877	
-0.251883	
-0.252793	
-0.252938	
-0.252068	
-0.220712	
-0.230757	
-0.239117	
-0.234669	
-0.240332	
-0.212247	
-0.203008	
-0.218645	
-0.223857	
-0.00938607	
0.027202	
0.0452004	
-0.227297	
-0.225437	
-0.0560208	
-0.0421569	
-0.0835681	
-0.177068	
-0.189813	
-0.176408	
-0.202047	
-0.19957	
-0.204319	
-0.207826	
-0.21128	
-0.255218	
-0.252655	
-0.251502	
-0.246774	
-0.22897	
-0.214883	
-0.223867	
-0.239351	
0.0310567	
-0.019261	
0.0417473	
0.0232811	
-0.176546	
-0.197474	
-0.193569	
-0.181014	
-0.192484	
-0.00490576	
0.0418041	
0.0384117	
-0.00477857	
0.0468219	
0.0316839	
-0.222478	
-0.227369	
-0.227178	
-0.2337	
0.0433466	
0.0259558	
-0.180267	
-0.204924	
-0.186772	
-0.208515	
-0.200471	
-0.208955	
-0.218608	
-0.191921	
-0.18678	
-0.199692	
-0.0912807	
-0.0956703	
-0.108303	
-0.118397	
-0.248626	
-0.246663	
-0.249222	
-0.18463	
-0.174989	
-0.242584	
-0.239824	
-0.231383	
-0.232844	
-0.16125	
-0.175905	
-0.171175	
-0.184747	
-0.0661732	
-0.0867423	
-0.2386	
-0.240725	
-0.250432	
-0.253225	
-0.0425357	
-0.0539289	
-0.060598	
-0.0679642	
-0.193461	
-0.184162	
-0.179718	
-0.175948	
-0.0877706	
-0.107771	
-0.115811	
-0.131331	
-0.216571	
-0.22609	
-0.226092	
-0.23383	
-0.117948	
-0.110984	
-0.148314	
-0.1417	
-0.192781	
-0.18436	
-0.0413955	
-0.0215676	
-0.0623836	
-0.0490774	
-0.21164	
-0.208931	
-0.254989	
-0.254626	
-0.25433	
-0.25709	
-0.245517	
-0.244874	
-0.106254	
-0.11816	
-0.142483	
-0.150605	
-0.00862974	
0.00179779	
0.0409403	
0.038661	
-0.148322	
-0.119187	
-0.139602	
-0.108641	
-0.0111885	
-0.00528065	
-0.00816473	
-0.00177853	
0.00136053	
0.0120358	
0.0185755	
0.0213177	
0.0149473	
-0.00994534	
-0.00234889	
0.00542516	
0.00130966	
0.0077269	
0.0174967	
0.0217538	
0.00893188	
0.0132436	
0.0052296	
-0.00622378	
0.00524846	
-0.00876922	
-0.0126681	
-0.0020904	
-0.0202674	
-0.0205776	
-0.0160907	
-0.0218949	
-0.0178925	
0.0147925	
0.0125577	
-0.000282125	
0.00565258	
-0.00520182	
-0.017111	
-0.0161911	
-0.0152421	
-0.013108	
-0.00881313	
0.0177498	
0.192631	
0.172261	
0.185316	
0.0446021	
0.091868	
0.0479284	
0.150175	
0.0980995	
0.0972851	
0.097851	
0.0980786	
0.0655964	
0.0422837	
0.0962812	
0.0897445	
0.0862711	
0.0513124	
0.0947219	
0.0802094	
0.165834	
0.159067	
0.115656	
0.146475	
0.160378	
0.135599	
0.145421	
0.118666	
0.100669	
0.162119	
0.158758	
0.130782	
0.159468	
0.1751	
0.105907	
0.10394	
0.158627	
0.161856	
0.125697	
0.135596	
0.120485	
0.129597	
0.137847	
0.136417	
0.153708	
0.15338	
0.130308	
0.161764	
0.115078	
0.113026	
0.118185	
0.163288	
0.154177	
0.158079	
0.151114	
0.15271	
0.16877	
0.136008	
0.136412	
0.133648	
0.110022	
0.0773056	
0.108753	
0.153029	
0.150699	
0.145086	
0.143688	
0.176788	
0.180321	
0.184565	
0.0947552	
0.0517606	
0.148359	
0.148246	
0.143217	
0.141357	
0.132849	
0.127529	
0.138863	
0.138058	
0.139578	
0.146825	
0.144276	
0.145431	
0.149957	
0.142389	
0.143117	
0.13139	
0.124758	
0.104203	
0.0944105	
0.107297	
0.0974225	
0.161015	
0.166992	
0.158326	
0.16036	
0.108155	
0.101499	
0.127445	
0.169465	
0.173118	
0.144566	
0.146736	
0.121832	
0.146288	
0.155855	
0.104668	
0.0948838	
0.110213	
0.108437	
0.123531	
0.112983	
0.109942	
0.114596	
0.180547	
0.19068	
0.170718	
0.162705	
0.159479	
0.0616988	
0.0486578	
0.101332	
0.118658	
0.073727	
0.0834346	
0.147193	
0.139711	
0.0731967	
0.0559299	
0.105335	
0.106194	
0.110065	
0.110821	
0.0930444	
0.177452	
0.17307	
0.128653	
0.117062	
0.127249	
0.122877	
0.10823	
0.124806	
0.123901	
0.120944	
0.119845	
0.0761651	
0.194412	
0.185267	
0.175258	
0.181591	
0.160329	
0.151633	
0.14658	
0.144451	
0.0909649	
0.0786284	
0.132847	
0.141651	
0.133154	
0.142313	
0.129925	
0.133723	
0.141459	
0.131185	
0.142422	
0.0781518	
0.122399	
0.125794	
0.122148	
0.179909	
0.176446	
0.176793	
0.173923	
0.176658	
0.180945	
0.137556	
0.139908	
0.132336	
0.136814	
0.185671	
0.176168	
0.180155	
0.151005	
0.145673	
0.153591	
0.0514892	
0.0845831	
0.0751523	
0.0837051	
0.195285	
0.192342	
0.134671	
0.128894	
0.184985	
0.151385	
0.151699	
0.147315	
0.122131	
0.126555	
0.149901	
0.156692	
0.15316	
0.157467	
0.170453	
0.172816	
0.166588	
0.168377	
0.165909	
0.170827	
0.174011	
0.157278	
0.149335	
0.158515	
0.11362	
0.110683	
0.128396	
0.127443	
0.133991	
0.132812	
0.0890152	
0.0756157	
0.0900886	
0.0798546	
0.100473	
0.135209	
0.130695	
0.126797	
0.12442	
0.124378	
0.116697	
0.119109	
0.113542	
0.172931	
0.169462	
0.137177	
0.133724	
0.131868	
0.158541	
0.159429	
0.153117	
0.155189	
0.0813371	
0.0777972	
0.189772	
0.0866404	
0.0880285	
0.0961781	
0.173004	
0.16808	
0.167696	
0.0807605	
0.0736166	
0.128274	
0.122804	
0.130839	
0.127117	
0.164579	
0.165546	
0.159206	
0.160354	
0.150957	
0.15091	
0.145353	
0.145243	
0.179434	
0.180628	
0.175051	
0.177498	
0.118064	
0.175077	
0.177262	
0.173586	
0.153877	
0.147177	
0.142986	
0.0996875	
0.120519	
0.119323	
0.175828	
0.1746	
0.156446	
0.148742	
0.150733	
0.155272	
0.158084	
0.153509	
0.143577	
0.149818	
0.152265	
0.177454	
0.181754	
0.179209	
0.175312	
0.178664	
0.173021	
0.142555	
0.136523	
0.142157	
0.136764	
0.157061	
0.152787	
0.149696	
0.104813	
0.141949	
0.138847	
0.13133	
0.0681094	
0.0685696	
0.0760061	
0.0785013	
0.162769	
0.125752	
0.126113	
0.133144	
0.140405	
0.144332	
0.150475	
0.161264	
0.161765	
0.157262	
0.157687	
0.113932	
0.118461	
0.118534	
0.121394	
0.112985	
0.119237	
0.129891	
0.132631	
0.128248	
0.180526	
0.17811	
0.185488	
0.118489	
0.124647	
0.116206	
0.122498	
0.143763	
0.152173	
0.156711	
0.101945	
0.17848	
0.181648	
0.0442603	
0.0555812	
0.0677205	
0.0450694	
0.128988	
0.121755	
0.132034	
0.110263	
0.114201	
0.163746	
0.16769	
0.163622	
0.148954	
0.155077	
0.150657	
0.135455	
0.129527	
0.109078	
0.112862	
0.113047	
0.118784	
0.118546	
0.130794	
0.122232	
0.127636	
0.130722	
0.13668	
0.13931	
0.167418	
0.163198	
0.154315	
0.15015	
0.128539	
0.119205	
0.192119	
0.176641	
0.187983	
0.190215	
0.184176	
0.194348	
0.186564	
0.195806	
0.192803	
0.193986	
0.190064	
0.16702	
0.169053	
0.169629	
0.171959	
0.161734	
0.163372	
0.16457	
0.166264	
0.152201	
0.155893	
0.15707	
0.158653	
0.18377	
0.153056	
0.149807	
0.144488	
0.142391	
0.190959	
0.172898	
0.176661	
0.110839	
0.111984	
0.114181	
0.120287	
0.114775	
0.116587	
0.11849	
0.12438	
0.166968	
0.1744	
0.163878	
0.103772	
0.107034	
0.103042	
0.106675	
0.151545	
0.147391	
0.165305	
0.1607	
0.164264	
0.158078	
0.158936	
0.150914	
0.156961	
0.1529	
0.144307	
0.136547	
0.146434	
0.138815	
0.116305	
0.113182	
0.130904	
0.127405	
0.144348	
0.140281	
0.146331	
0.140054	
0.183333	
0.182977	
0.188544	
0.120819	
0.119042	
0.115219	
0.112404	
0.109051	
0.10872	
0.111562	
0.113132	
0.106975	
0.103863	
0.160713	
0.149011	
0.157326	
0.154964	
0.183525	
0.183501	
0.111263	
0.115373	
0.123522	
0.120998	
0.132415	
0.121087	
0.121459	
0.1306	
0.147738	
0.122444	
0.11216	
0.0946747	
0.138477	
0.143809	
0.0972621	
0.111345	
0.16926	
0.167504	
0.165417	
0.16259	
0.130861	
0.128935	
0.0953137	
0.10515	
0.112309	
0.111307	
0.105662	
0.1019	
0.101544	
0.105962	
0.105918	
0.0780347	
0.0968755	
0.11134	
0.185258	
0.178739	
0.187595	
0.185277	
0.165373	
0.169455	
0.164405	
0.167702	
0.169868	
0.170476	
0.173146	
0.113017	
0.157848	
0.150936	
0.15409	
0.123378	
0.179793	
0.173174	
0.181693	
0.165157	
0.165453	
0.178701	
0.174796	
0.181427	
0.126439	
0.0633504	
0.0626721	
0.0532894	
0.044646	
0.152771	
0.156699	
0.193201	
0.18872	
0.0685926	
0.0673495	
0.0748178	
0.0656373	
0.098801	
0.131937	
0.140125	
0.139449	
0.134819	
0.137466	
0.142161	
0.136523	
0.141798	
0.135387	
0.140897	
0.0982631	
0.106292	
0.0915462	
0.105933	
0.131473	
0.124981	
0.131421	
0.166721	
0.162541	
0.186302	
0.185617	
0.179798	
0.18132	
0.124735	
0.11898	
0.114449	
0.112433	
0.145444	
0.141423	
0.136712	
0.136262	
0.134677	
0.133637	
0.14109	
0.140579	
0.168511	
0.185051	
0.182808	
0.186143	
0.176418	
0.179634	
0.189191	
0.189306	
0.168071	
0.162971	
0.154318	
0.150019	
0.170398	
0.174074	
0.158203	
0.163823	
0.155993	
0.15989	
0.100377	
0.0974226	
0.102063	
0.089261	
0.144056	
0.136741	
0.19158	
0.186457	
0.183285	
0.182476	
0.186472	
0.188408	
0.195799	
0.1883	
0.192463	
0.166553	
0.172659	
0.168558	
0.173502	
0.168833	
0.0907471	
0.0546139	
0.0453227	
0.140107	
0.134597	
0.119239	
0.125357	
0.111628	
0.11877	
0.109852	
0.103975	
0.108758	
0.0956169	
0.188403	
0.192109	
0.0961908	
0.0868404	
0.0875136	
0.0844836	
0.0890828	
0.101931	
0.096287	
0.095285	
0.0943117	
0.0995836	
0.0553877	
0.0686489	
0.04279	
0.109687	
0.102499	
0.103147	
0.0972203	
0.0986071	
0.0889012	
0.0950637	
0.0979003	
0.173915	
0.124487	
0.120597	
0.119242	
0.114756	
0.173241	
0.169841	
0.170249	
0.16634	
0.068158	
0.0536933	
0.104596	
0.0998376	
0.0943104	
0.0894395	
0.0884913	
0.101774	
0.09975	
0.109369	
0.14514	
0.138909	
0.139373	
0.104168	
0.0978435	
0.092706	
0.177327	
0.108459	
0.0956196	
0.113544	
0.105456	
0.163873	
0.1648	
0.167182	
0.169993	
0.0729752	
0.0843654	
0.0792951	
0.0863749	
0.144169	
0.147463	
0.0649772	
0.0545139	
0.0620865	
0.0431901	
0.168747	
0.170012	
0.172695	
0.175251	
0.107163	
0.109812	
0.113551	
0.11592	
0.180278	
0.186447	
0.180835	
0.184547	
0.165867	
0.159517	
0.186665	
0.191916	
0.187365	
0.191487	
0.196981	
0.12356	
0.123385	
0.111819	
0.101443	
0.0816623	
0.081001	
0.10366	
0.101451	
0.122285	
0.117156	
0.118432	
0.111814	
0.130123	
0.126644	
0.112529	
0.119759	
0.116453	
0.111159	
0.109858	
0.178768	
0.182619	
0.174264	
0.175527	
0.125376	
0.117284	
0.115794	
0.100079	
0.118019	
0.112723	
0.0479667	
0.048931	
0.0365866	
0.0483854	
0.050472	
-0.254521	
-0.250324	
0.0489675	
0.0396766	
0.0376341	
-0.0434375	
-0.221318	
0.0500329	
0.0494236	
-0.0758111	
-0.0805052	
-0.172058	
0.0486527	
-0.086237	
0.0457364	
0.0448539	
-0.252137	
-0.105079	
-0.0786292	
-0.125365	
-0.0353365	
-0.0511064	
0.025044	
-0.000322717	
-0.214884	
-0.213377	
-0.17804	
-0.0713548	
-0.238533	
-0.20472	
-0.0685344	
-0.0926058	
-0.0515889	
-0.193853	
-0.192552	
-0.213804	
-0.232666	
-0.24549	
-0.225297	
-2.61527e-05	
-0.0239295	
-0.139531	
-0.179347	
-0.187808	
-0.184609	
-0.154814	
-0.158071	
-0.130581	
-0.115784	
-0.0877193	
-0.209394	
-0.106804	
-0.0808082	
-0.0859889	
-0.103088	
-0.0832002	
-0.106611	
-0.0794857	
-0.0880249	
-0.237667	
-0.20874	
-0.113712	
-0.147105	
-0.220376	
-0.057171	
-0.173138	
-0.0893804	
-0.0669071	
-0.12905	
-0.141027	
-0.225526	
-0.255375	
0.0448728	
0.0340582	
-0.0107799	
-0.163239	
-0.0495419	
-0.0407362	
-0.190057	
-0.207104	
-0.186796	
-0.225159	
-0.211357	
-0.141579	
-0.146695	
-0.204679	
-0.218317	
-0.195875	
-0.0255133	
-0.224301	
-0.0106486	
-0.00469076	
-0.0574357	
-0.0491682	
-0.175124	
-0.122992	
-0.149811	
-0.22362	
-0.0851426	
-0.115758	
-0.141536	
-0.126909	
-0.150336	
-0.0617058	
-0.212889	
-0.193063	
-0.197269	
-0.168972	
-0.169325	
-0.179462	
-0.0715346	
-0.199328	
-0.0284425	
-0.052461	
-0.10626	
-0.227109	
-0.220002	
-0.230718	
-0.245931	
-0.164205	
-0.165377	
-0.237391	
-0.229437	
-0.139536	
0.0391056	
0.00325143	
-0.234464	
-0.234293	
-0.254599	
-0.224834	
-0.151498	
-0.150697	
0.0392817	
0.0064975	
-0.240893	
-0.247297	
-0.245725	
0.0335146	
0.0450969	
-0.0954844	
-0.121799	
-0.0499902	
-0.0399308	
-0.0566118	
-0.188454	
-0.156318	
-0.119097	
-0.145596	
-0.147269	
-0.147314	
-0.103904	
0.0454368	
-0.135965	
-0.138857	
-0.251164	
-0.254099	
-0.115052	
-0.0562636	
-0.206001	
-0.182793	
-0.181704	
-0.123997	
-0.149705	
-0.139346	
-0.156452	
0.032403	
-0.217119	
-0.077414	
-0.133282	
-0.201137	
-0.158378	
-0.173108	
-0.195242	
-0.202933	
-0.252466	
-0.204789	
-0.204974	
-0.186067	
-0.184514	
-0.00578283	
-0.178881	
-0.170533	
-0.1521	
-0.0714756	
-0.0716037	
-0.0935897	
-0.00896559	
-0.0228094	
-0.0975116	
-0.072775	
-0.10445	
-0.177574	
-0.0769009	
-0.256228	
-0.253696	
-0.249156	
-0.0415121	
-0.224778	
-0.214831	
-0.214468	
-0.15828	
-0.195295	
-0.164343	
-0.177705	
-0.142876	
-0.113007	
-0.241123	
-0.243561	
-0.167696	
-0.161142	
-0.151203	
-0.147561	
-0.0998033	
-0.206072	
-0.229638	
-0.238304	
-0.132429	
-0.106492	
-0.13933	
0.0252337	
-0.00316576	
-0.0620629	
-0.0497187	
-0.00479537	
-0.0221699	
-0.203361	
-0.213472	
-0.0798681	
-0.0505618	
-0.0685308	
-0.0481504	
-0.0674287	
-0.0519773	
-0.0698743	
-0.228381	
-0.231701	
-0.240671	
-0.248893	
-0.254874	
-0.0192072	
-0.077189	
-0.0325025	
-0.0806145	
-0.110728	
-0.129869	
-0.200776	
-0.150727	
-0.101296	
-0.128675	
-0.195102	
-0.185861	
-0.155767	
-0.127769	
-0.149294	
-0.0216539	
-0.0157532	
-0.0403919	
-0.0369548	
-0.0979417	
-0.150321	
-0.0890867	
-0.061876	
-0.174264	
-0.147414	
-0.16788	
-0.151161	
-0.212219	
-0.194571	
-0.207352	
-0.195176	
-0.104016	
-0.235471	
-0.222541	
-0.24088	
-0.230549	
-0.108523	
-0.0958371	
-0.144146	
-0.166431	
-0.0785229	
-0.04652	
-0.090981	
-0.056318	
-0.162411	
-0.179544	
-0.0558318	
-0.0424341	
-0.0136999	
-0.203921	
-0.208224	
-0.191806	
-0.195087	
-0.0502798	
-0.0532173	
-0.188558	
-0.180968	
-0.127868	
-0.112617	
-0.137966	
-0.136631	
-0.119465	
-0.185018	
-0.163632	
-0.18328	
-0.171367	
-0.010598	
0.010067	
-0.245176	
-0.238706	
-0.0992014	
-0.084114	
-0.117102	
-0.104915	
-0.127692	
-0.116217	
-0.168821	
-0.188245	
-0.171998	
-0.217249	
-0.224123	
-0.212156	
-0.110179	
-0.119882	
-0.0997392	
-0.0729439	
-0.0847509	
-0.0302397	
-0.0243427	
-0.00196711	
-0.0176752	
0.0053948	
-0.0355239	
-0.0082158	
-0.0338726	
-0.0391037	
-0.0324974	
-0.0119343	
-0.0777504	
-0.0527078	
-0.0859078	
-0.0611373	
-0.108878	
-0.0316197	
-0.0484424	
-0.0131183	
-0.037494	
-0.12398	
-0.0917147	
-0.110643	
-0.0903183	
-0.0120327	
-0.0422457	
-0.0364304	
-0.0533337	
-0.130155	
-0.150675	
-0.147756	
-0.166694	
-0.162276	
-0.16464	
-0.129664	
-0.126857	
-0.181257	
-0.192284	
-0.201054	
-0.202847	
-0.210389	
-0.219931	
-0.22526	
-0.227946	
-0.226092	
-0.228911	
-0.233425	
-0.239982	
-0.00858214	
-0.0267662	
-0.0547169	
-0.232286	
-0.221789	
-0.237835	
-0.241174	
-0.241673	
-0.235511	
-0.235702	
-0.0118046	
0.0017161	
-0.173848	
-0.173568	
-0.152629	
-0.252358	
-0.254055	
-0.135406	
-0.140098	
-0.115959	
-0.118026	
-0.252076	
-0.24915	
-0.250989	
-0.251435	
-0.249906	
-0.089311	
-0.171989	
-0.155059	
-0.176177	
-0.161716	
0.0481119	
0.0405539	
-0.0437443	
0.00350252	
-0.0141868	
-0.01695	
0.00270555	
0.0470276	
0.039176	
-0.0672045	
-0.0379519	
-0.0764466	
-0.0545458	
-0.11537	
-0.128411	
-0.144658	
-0.152781	
-0.162974	
-0.163676	
-0.191007	
-0.19322	
-0.00326892	
-0.000244851	
-0.249422	
-0.242803	
-0.0165742	
0.00410588	
-0.0129701	
0.00753698	
0.0371842	
-0.00872056	
-0.252095	
-0.208334	
-0.221005	
-0.225541	
-0.0143077	
0.0125592	
-0.208907	
-0.215089	
0.016825	
-0.158841	
-0.158848	
-0.238108	
-0.22965	
-0.239463	
-0.247448	
-0.238629	
-0.249276	
-0.167373	
-0.18269	
-0.103945	
-0.103593	
-0.094673	
-0.226864	
-0.201231	
-0.19579	
-0.0945655	
-0.102185	
-0.137358	
-0.123573	
0.00597542	
0.0467859	
0.0240651	
0.036418	
-0.00602053	
0.032284	
0.0490136	
0.000627944	
-0.196062	
-0.202593	
-0.200019	
-0.249679	
-0.250557	
-0.246366	
0.037063	
-0.245207	
-0.241921	
-0.101864	
-0.118244	
-0.113277	
0.0480923	
0.0365433	
-0.238299	
-0.236634	
-0.242274	
0.0168516	
0.0439419	
0.0409489	
0.0409461	
-0.143998	
-0.132962	
-0.162064	
-0.164219	
-0.248667	
-0.254296	
-0.251249	
0.0370306	
0.0481471	
0.00758743	
0.0428485	
-0.216625	
-0.212497	
-0.11988	
-0.119518	
0.0453702	
0.0399641	
0.0385244	
-0.239918	
-0.225223	
-0.245538	
-0.241448	
-0.21291	
-0.207965	
-0.224831	
-0.215219	
-0.127964	
-0.118613	
-0.240638	
-0.24414	
-0.20075	
-0.00669297	
-0.00993688	
-0.0370618	
-0.0390046	
0.0435021	
0.0483932	
-0.0856673	
-0.0776189	
-0.0514921	
-0.0367355	
-0.253716	
-0.250188	
-0.254415	
-0.250005	
-0.0780969	