<VTKFile type="UnstructuredGrid" version="0.1" byte_order="LittleEndian">
	<UnstructuredGrid>
		<Piece NumberOfPoints="1647" NumberOfCells="3046">
			<CellData Scalars="scalars">
				<DataArray type="Float64" Name="Doublet Strengths" NumberOfComponents="1" Format="ascii">
0.258876	
0.222593	
0.244187	
0.0536592	
0.0939383	
0.10899	
0.107829	
0.108112	
0.0545931	
0.0520924	
0.1051	
0.0966969	
0.0537445	
0.102915	
0.107563	
0.0841065	
0.210381	
0.104977	
0.250149	
0.188289	
0.206487	
0.133541	
0.181811	
0.204394	
0.165167	
0.180888	
0.139831	
0.168374	
0.117669	
0.202106	
0.205473	
0.157926	
0.203083	
0.226798	
0.119549	
0.201584	
0.205316	
0.146172	
0.165376	
0.145072	
0.157	
0.168518	
0.166241	
0.189077	
0.192886	
0.162676	
0.205308	
0.136325	
0.13433	
0.147656	
0.218315	
0.209307	
0.199593	
0.193537	
0.197458	
0.188786	
0.217066	
0.150319	
0.165768	
0.166628	
0.163118	
0.132406	
0.0927321	
0.124373	
0.179742	
0.18177	
0.185687	
0.188513	
0.237487	
0.239822	
0.231804	
0.107378	
0.0497412	
0.176097	
0.178093	
0.183912	
0.188166	
0.170903	
0.159643	
0.162052	
0.153976	
0.1788	
0.171366	
0.178474	
0.175428	
0.181494	
0.180047	
0.186769	
0.160149	
0.150094	
0.100965	
0.113841	
0.119881	
0.200823	
0.210199	
0.205307	
0.21309	
0.112478	
0.121007	
0.153501	
0.218042	
0.220297	
0.231164	
0.190871	
0.179583	
0.181528	
0.143053	
0.202451	
0.103595	
0.115756	
0.12279	
0.132691	
0.130417	
0.139474	
0.125964	
0.125199	
0.236372	
0.246551	
0.208649	
0.221781	
0.202865	
0.0529118	
0.13935	
0.0882283	
0.0776408	
0.0833398	
0.17267	
0.188539	
0.0899041	
0.0677322	
0.12999	
0.130629	
0.123607	
0.124341	
0.101301	
0.231878	
0.223372	
0.152688	
0.139669	
0.154737	
0.142497	
0.109079	
0.140318	
0.142488	
0.149306	
0.148236	
0.110157	
0.0983282	
0.258154	
0.245474	
0.227525	
0.239304	
0.206204	
0.182053	
0.182448	
0.188832	
0.0928233	
0.0757562	
0.243318	
0.175013	
0.165333	
0.173014	
0.161929	
0.170285	
0.156943	
0.175823	
0.177034	
0.169864	
0.0869853	
0.151636	
0.136392	
0.146254	
0.231242	
0.237332	
0.242787	
0.22929	
0.238742	
0.225058	
0.160037	
0.16706	
0.168299	
0.171769	
0.24122	
0.235434	
0.228789	
0.195324	
0.179539	
0.0560501	
0.0713058	
0.0936505	
0.0943666	
0.0883885	
0.260758	
0.255804	
0.164967	
0.155914	
0.240362	
0.191776	
0.188827	
0.178262	
0.151747	
0.152599	
0.191313	
0.186927	
0.201143	
0.191664	
0.225127	
0.220378	
0.216538	
0.211783	
0.214883	
0.228251	
0.221201	
0.220904	
0.191589	
0.199682	
0.201851	
0.136425	
0.136628	
0.152552	
0.154248	
0.16133	
0.16754	
0.0980934	
0.103372	
0.091491	
0.103581	
0.11186	
0.158325	
0.161763	
0.148494	
0.146173	
0.145501	
0.148315	
0.131299	
0.139952	
0.223881	
0.218173	
0.158136	
0.159757	
0.167466	
0.189827	
0.195429	
0.200946	
0.202184	
0.08522	
0.0885717	
0.100165	
0.0998163	
0.111381	
0.209129	
0.211157	
0.218515	
0.0891078	
0.0988013	
0.145934	
0.154385	
0.14485	
0.158243	
0.198243	
0.202087	
0.208513	
0.212681	
0.176424	
0.180489	
0.189297	
0.193512	
0.226524	
0.232366	
0.235247	
0.23773	
0.138422	
0.1036	
0.231736	
0.223581	
0.232637	
0.194372	
0.181172	
0.183853	
0.108386	
0.144089	
0.142799	
0.227712	
0.228306	
0.197246	
0.187945	
0.185319	
0.198225	
0.188931	
0.193767	
0.187729	
0.187052	
0.174265	
0.178213	
0.23292	
0.241739	
0.227069	
0.223874	
0.233486	
0.227296	
0.258393	
0.167311	
0.180696	
0.163346	
0.175839	
0.192233	
0.199082	
0.187441	
0.119718	
0.167729	
0.17412	
0.159774	
0.162479	
0.0772693	
0.0834923	
0.0862875	
0.211873	
0.151018	
0.15052	
0.161312	
0.179037	
0.175834	
0.188329	
0.253478	
0.242954	
0.248021	
0.198614	
0.199161	
0.205089	
0.208798	
0.133922	
0.143759	
0.144219	
0.133463	
0.141192	
0.135329	
0.161126	
0.15442	
0.156839	
0.241805	
0.235204	
0.230429	
0.148983	
0.138946	
0.152748	
0.136717	
0.198553	
0.191373	
0.238966	
0.233846	
0.113863	
0.0681109	
0.0543421	
0.0775216	
0.0511204	
0.155424	
0.148481	
0.131744	
0.131656	
0.208846	
0.205806	
0.215276	
0.191335	
0.184497	
0.195087	
0.166286	
0.157221	
0.130293	
0.124465	
0.139588	
0.130661	
0.153443	
0.145163	
0.147212	
0.15807	
0.158194	
0.166726	
0.167001	
0.209144	
0.216057	
0.188448	
0.195136	
0.160534	
0.140406	
0.154892	
0.257265	
0.259714	
0.248467	
0.25392	
0.223046	
0.251818	
0.248777	
0.258117	
0.253582	
0.244086	
0.251187	
0.253563	
0.250647	
0.217409	
0.214026	
0.221862	
0.218334	
0.211791	
0.209371	
0.199827	
0.20426	
0.192734	
0.197081	
0.244342	
0.183412	
0.183434	
0.17412	
0.172877	
0.216275	
0.219194	
0.129797	
0.128223	
0.137652	
0.139965	
0.135979	
0.133411	
0.144465	
0.146217	
0.20455	
0.20662	
0.122439	
0.112089	
0.122084	
0.116256	
0.183399	
0.192436	
0.204426	
0.213957	
0.200319	
0.203928	
0.201594	
0.191941	
0.198516	
0.170859	
0.178443	
0.170156	
0.177576	
0.131066	
0.135739	
0.131124	
0.152999	
0.162219	
0.172188	
0.182726	
0.171724	
0.176555	
0.249941	
0.246219	
0.235721	
0.239161	
0.142614	
0.131492	
0.131852	
0.125762	
0.125921	
0.136864	
0.130915	
0.123525	
0.192642	
0.186336	
0.198298	
0.195722	
0.246375	
0.134054	
0.140007	
0.143382	
0.147081	
0.161631	
0.152455	
0.199669	
0.19255	
0.235494	
0.225242	
0.144165	
0.0656538	
0.159662	
0.145209	
0.183018	
0.15195	
0.17744	
0.169777	
0.112679	
0.12617	
0.153328	
0.206806	
0.210557	
0.213827	
0.215671	
0.117006	
0.158695	
0.156441	
0.100774	
0.116327	
0.118891	
0.126033	
0.106754	
0.118684	
0.121164	
0.129011	
0.129552	
0.240004	
0.246162	
0.245604	
0.249087	
0.218051	
0.207578	
0.209689	
0.074466	
0.0799048	
0.0716746	
0.0689733	
0.223518	
0.224367	
0.214827	
0.218904	
0.215048	
0.213488	
0.125757	
0.188762	
0.193566	
0.199535	
0.0588605	
0.058312	
0.0704213	
0.0705973	
0.148742	
0.239262	
0.226905	
0.229074	
0.152315	
0.197886	
0.191814	
0.250333	
0.256172	
0.169391	
0.170252	
0.156613	
0.160711	
0.230723	
0.237332	
0.230909	
0.236766	
0.164314	
0.175274	
0.168262	
0.165651	
0.177596	
0.166975	
0.174291	
0.135479	
0.119747	
0.129978	
0.110835	
0.14949	
0.159384	
0.159476	
0.207068	
0.213686	
0.236321	
0.238377	
0.242118	
0.245342	
0.145139	
0.148583	
0.136422	
0.1385	
0.167666	
0.166918	
0.177361	
0.174892	
0.178417	
0.173536	
0.164262	
0.157397	
0.221514	
0.210967	
0.222078	
0.216636	
0.220134	
0.254746	
0.261625	
0.248095	
0.250618	
0.233577	
0.228806	
0.203312	
0.211136	
0.186429	
0.193882	
0.112774	
0.096181	
0.116873	
0.106013	
0.167214	
0.174043	
0.254993	
0.248928	
0.25518	
0.249819	
0.243513	
0.25415	
0.246064	
0.239115	
0.243607	
0.237938	
0.225595	
0.224251	
0.217337	
0.148929	
0.137165	
0.13891	
0.126691	
0.0978228	
0.0907644	
0.0791451	
0.0661375	
0.104021	
0.115755	
0.104101	
0.0957029	
0.0909091	
0.122199	
0.1147	
0.132242	
0.0507319	
0.0651572	
0.0810352	
0.121847	
0.111759	
0.118859	
0.120076	
0.109164	
0.113121	
0.133578	
0.214717	
0.214544	
0.226283	
0.225897	
0.0810327	
0.0639693	
0.11721	
0.110383	
0.12378	
0.114948	
0.120833	
0.113985	
0.124932	
0.110526	
0.122045	
0.200469	
0.197377	
0.192619	
0.11448	
0.109308	
0.108916	
0.1063	
0.0919376	
0.170092	
0.170849	
0.179329	
0.109088	
0.123796	
0.116031	
0.127889	
0.117302	
0.121668	
0.104952	
0.182503	
0.18426	
0.21532	
0.218299	
0.210133	
0.211748	
0.0904775	
0.084876	
0.101256	
0.0929655	
0.177997	
0.182848	
0.10448	
0.100693	
0.0589191	
0.0497467	
0.0752855	
0.0632693	
0.12181	
0.104702	
0.130281	
0.114976	
0.241278	
0.235914	
0.199695	
0.205735	
0.147888	
0.138772	
0.137159	
0.127271	
0.127412	
0.139769	
0.114486	
0.145211	
0.135288	
0.122542	
0.12527	
0.136269	
0.110351	
0.130914	
0.141255	
0.147991	
0.131693	
0.139561	
0.230957	
0.232894	
0.237506	
0.133215	
0.139791	
0.11455	
0.12009	
0.225605	
0.227354	
0.216208	
0.217554	
0.224086	
0.230802	
0.219224	
0.220922	
0.0962104	
0.100991	
0.0971501	
0.101716	
0.033944	
0.0453415	
0.0396571	
0.0438604	
0.0467779	
-0.314364	
-0.306295	
0.0426016	
0.0426655	
0.0454447	
0.0416463	
0.0366984	
-0.269638	
0.0454718	
-0.0840366	
-0.0891273	
-0.210554	
-0.119831	
0.0407547	
0.039578	
-0.13323	
-0.0826152	
-0.156324	
-0.0722585	
-0.0763651	
0.0153204	
-0.013118	
-0.255503	
-0.260397	
-0.216122	
-0.0952744	
-0.297185	
-0.249568	
-0.0822063	
-0.118755	
-0.0699021	
-0.221904	
-0.234835	
-0.252657	
-0.281705	
-0.297866	
-0.270632	
-0.0118577	
-0.0389557	
-0.167536	
-0.215692	
-0.184758	
-0.209877	
-0.205997	
-0.224773	
-0.14826	
-0.164057	
-0.118191	
-0.252829	
-0.141367	
-0.101646	
-0.108185	
-0.119956	
-0.108731	
-0.104329	
-0.135083	
-0.105973	
-0.287447	
-0.248827	
-0.128073	
-0.171502	
-0.264392	
-0.0759442	
-0.205041	
-0.114971	
-0.0893885	
-0.158334	
-0.161323	
-0.263261	
-0.316846	
0.0260956	
0.0252588	
-0.0248114	
-0.196121	
-0.057295	
-0.0668996	
-0.244541	
-0.223474	
-0.220946	
-0.255464	
-0.272383	
-0.175563	
-0.169824	
-0.26211	
-0.245573	
-0.23529	
-0.0429406	
-0.274833	
-0.0104878	
-0.0506832	
-0.038795	
-0.0797674	
-0.214365	
-0.152518	
-0.16925	
-0.27235	
-0.107094	
-0.157969	
-0.189842	
-0.1451	
-0.155207	
-0.0675736	
-0.232046	
-0.256101	
-0.204878	
-0.238134	
-0.185858	
-0.203812	
-0.0654345	
-0.0934554	
-0.230296	
-0.033336	
-0.0486918	
-0.0738692	
-0.147675	
-0.26121	
-0.269605	
-0.281323	
-0.300732	
-0.209423	
-0.201539	
-0.276391	
-0.286219	
-0.157066	
0.0329306	
-0.00790161	
-0.310699	
-0.261036	
-0.17833	
-0.193803	
-0.191758	
0.0333509	
-0.00556432	
-0.29341	
-0.299839	
-0.298533	
0.0290493	
0.0394537	
-0.106133	
-0.136023	
-0.0571938	
-0.0650144	
-0.0480806	
0.0470201	
-0.230013	
-0.192534	
-0.170687	
-0.1784	
-0.131166	
-0.177615	
-0.128375	
-0.154076	
-0.138943	
-0.157667	
-0.308093	
-0.315139	
-0.119294	
-0.0771483	
-0.222953	
-0.236351	
-0.250751	
-0.184817	
-0.150689	
-0.192549	
-0.172849	
0.0242396	
-0.261681	
-0.0893466	
-0.100306	
-0.16239	
-0.230813	
-0.182526	
-0.199578	
-0.222519	
-0.237611	
-0.307872	
-0.221017	
-0.227185	
-0.23077	
-0.243742	
-0.0207392	
-0.215654	
-0.18449	
-0.205682	
-0.0925556	
-0.0926536	
-0.121935	
-0.117563	
-0.0129493	
-0.0279405	
-0.111007	
-0.0901372	
-0.205501	
-0.104306	
-0.302582	
-0.309088	
-0.0503675	
-0.268087	
-0.260287	
-0.255445	
-0.181153	
-0.223182	
-0.182524	
-0.217444	
-0.17699	
-0.118583	
-0.295684	
-0.29062	
-0.16517	
-0.172635	
-0.194583	
-0.199648	
-0.0859728	
-0.108332	
-0.290922	
-0.279528	
-0.148205	
-0.166805	
0.0154641	
-0.0280634	
-0.0170101	
-0.0687939	
-0.037762	
-0.017857	
-0.247952	
-0.26024	
-0.317697	
-0.0934377	
-0.0816854	
-0.0620006	
-0.0630879	
-0.0821077	
-0.0502218	
-0.0787978	
-0.279396	
-0.294574	
-0.283523	
-0.31536	
-0.297548	
-0.0742503	
-0.105282	
-0.101198	
-0.140094	
-0.185687	
-0.231102	
-0.183796	
-0.116639	
-0.117587	
-0.132741	
-0.212245	
-0.223364	
-0.148404	
-0.165562	
-0.146574	
-0.164348	
-0.01785	
-0.0301868	
-0.0454883	
-0.0580121	
-0.284699	
-0.194684	
-0.129388	
-0.0750694	
-0.109807	
-0.193847	
-0.207183	
-0.180501	
-0.199433	
-0.243159	
-0.251494	
-0.230931	
-0.245183	
-0.288118	
-0.277866	
-0.284531	
-0.271045	
-0.145701	
-0.103538	
-0.190544	
-0.178832	
-0.0700943	
-0.0950597	
-0.0699813	
-0.096587	
-0.196992	
-0.203399	
-0.0557405	
-0.0594423	
-0.0241774	
-0.232455	
-0.236649	
-0.246816	
-0.256748	
-0.0504479	
-0.0710273	
-0.214486	
-0.214466	
-0.131969	
-0.162806	
-0.12765	
-0.160732	
-0.227992	
-0.188241	
-0.213812	
0.00443399	
-0.0229602	
-0.290558	
-0.298913	
-0.0930963	
-0.110079	
-0.149575	
-0.136488	
-0.138265	
-0.12444	
-0.220503	
-0.200475	
-0.228396	
-0.263399	
-0.252075	
-0.271235	
-0.155434	
-0.139654	
-0.127763	
-0.0907615	
-0.0973123	
-0.0364847	
-0.0308338	
-0.0256415	
-0.00893361	
-0.0228341	
-0.00481651	
-0.0490666	
-0.0203973	
-0.0512565	
-0.0420192	
-0.0426499	
-0.110112	
-0.101006	
-0.072784	
-0.135911	
-0.0224822	
-0.0492404	
-0.0206645	
-0.0606019	
-0.139933	
-0.116908	
-0.155384	
-0.142876	
-0.029375	
-0.0269573	
-0.0740708	
-0.054853	
-0.201727	
-0.204396	
-0.162147	
-0.161775	
-0.156893	
-0.177449	
-0.176746	
-0.197031	
-0.243897	
-0.245809	
-0.228265	
-0.233301	
-0.267101	
-0.259068	
-0.277168	
-0.273887	
-0.277631	
-0.274283	
-0.289822	
-0.283746	
-0.0738472	
-0.0219453	
-0.0423887	
-0.273951	
-0.26408	
-0.292987	
-0.283598	
-0.29241	
-0.280169	
-0.280181	
-0.009322	
-0.024879	
-0.196822	
-0.186225	
-0.17544	
-0.308213	
-0.310086	
-0.311049	
-0.158052	
-0.138748	
-0.145444	
-0.130522	
-0.311914	
-0.306345	
-0.300803	
-0.306526	
-0.303484	
-0.127515	
-0.187443	
-0.206918	
-0.181765	
-0.211576	
0.0343782	
0.0439504	
-0.0630072	
-0.0613462	
-0.00879946	
-0.032609	
-0.00998269	
0.0321622	
0.0426111	
-0.0574611	
-0.110762	
-0.054406	
-0.101258	
-0.128991	
-0.14387	
-0.173116	
-0.170013	
-0.185024	
-0.192103	
-0.222136	
-0.225453	
-0.00588157	
-0.00863657	
-0.306155	
-0.297012	
-0.0251025	
-0.00276188	
-0.25766	
-0.0202566	
0.0350257	
-0.240741	
-0.0027956	
-0.315596	
-0.266458	
-0.0200119	
0.000683076	
0.0122223	
-0.180715	
-0.168922	
-0.27808	
-0.286351	
-0.288387	
-0.291307	
-0.300159	
-0.302898	
-0.190035	
-0.207168	
-0.120192	
-0.109481	
-0.118543	
-0.264967	
-0.22497	
-0.242126	
-0.244916	
-0.113115	
-0.142443	
-0.151612	
-0.169872	
-0.00451978	
0.0140372	
0.0416488	
-0.0295535	
0.0282778	
0.0456532	
0.0255275	
-0.00943773	
-0.276543	
-0.304994	
-0.299136	
-0.305209	
0.0336294	
-0.299	
-0.295463	
-0.143372	
-0.124705	
-0.13818	
0.030295	
0.0428757	
-0.288188	
-0.290346	
-0.287159	
-0.251828	
0.0115541	
-0.257853	
-0.249311	
-0.241362	
0.0381476	
0.0420774	
0.0450433	
-0.191928	
-0.178072	
-0.171615	
-0.154464	
-0.304666	
-0.306435	
-0.308676	
0.0453626	
0.0324922	
0.0392454	
0.00626905	
-0.276894	
-0.275022	
-0.270134	
-0.136302	
-0.13738	
0.0447615	
0.0305207	
-0.302293	
-0.294939	
-0.293093	
-0.147958	
-0.137177	
-0.291887	
-0.297256	
-0.241127	
-0.0242659	
-0.0206955	
-0.0572204	
-0.0550984	
0.0465088	
0.0406114	
-0.0663478	
-0.0760995	
-0.0942194	
-0.0957943	
-0.314064	
-0.31422	
-0.30621	
-0.31402	
-0.0983952	
-0.0724817	
-0.0870912	
-0.0925783	
-0.112372	
0.0382493	
0.0292106	
0.0251428	
-0.180616	
-0.190892	
-0.16546	
-0.188492	
0.0412755	
-0.104437	
-0.104241	
-0.0894813	
-0.310613	
-0.316125	
-0.246044	
-0.255105	
-0.0934497	
-0.112773	
-0.265373	
-0.255028	
0.00210782	
0.00631598	
-0.236281	
-0.259232	
-0.249767	
-0.18947	
-0.209393	
-0.178813	
-0.193815	
-0.0340198	
-0.0823866	
-0.0424975	
-0.0360295	
-0.0819941	
-0.0652084	
-0.31103	
-0.315022	
-0.311482	
-0.314782	
-0.0292025	
-0.0363146	
0.0272494	
-0.235914	
-0.217402	
-0.283653	
-0.276985	
-0.153556	
-0.148827	
-0.111204	
-0.0956487	
-0.29948	
-0.292537	
-0.309201	
-0.306127	
-0.299506	
-0.292088	
-0.154139	
-0.157563	
-0.131765	
-0.135549	
-0.237481	
-0.252235	
-0.172545	
-0.186289	
-0.205156	
-0.206741	
-0.307747	
-0.309173	
-0.310388	
-0.309525	
-0.266221	
-0.278737	
-0.288364	
-0.282316	
-0.289575	
-0.248594	
-0.238066	
-0.257163	
-0.265303	
-0.0246231	
0.0172083	
0.0397512	
-0.268884	
-0.265931	
-0.0767125	
-0.0610035	
-0.107944	
-0.201683	
-0.217803	
-0.201365	
-0.233516	
-0.230407	
-0.237779	
-0.241252	
-0.246078	
-0.313208	
-0.309198	
-0.307698	
-0.301157	
-0.273682	
-0.256604	
-0.268081	
-0.291426	
0.0218579	
-0.0355563	
0.0355497	
0.0129416	
-0.207939	
-0.232339	
-0.22852	
-0.206577	
-0.22111	
-0.0192638	
0.0353914	
0.0323582	
-0.0158886	
0.0429636	
0.0248257	
-0.263535	
-0.270115	
-0.269219	
-0.278353	
0.0371597	
0.0157041	
-0.215922	
-0.24485	
-0.223741	
-0.249506	
-0.239957	
-0.246282	
-0.257605	
-0.233661	
-0.227641	
-0.242832	
-0.111403	
-0.116936	
-0.130066	
-0.141994	
-0.3019	
-0.301518	
-0.303739	
-0.21623	
-0.205428	
-0.292198	
-0.288131	
-0.277407	
-0.27893	
-0.1962	
-0.213283	
-0.207579	
-0.223483	
-0.0883556	
-0.111665	
-0.286466	
-0.288726	
-0.306141	
-0.310192	
-0.0490618	
-0.062118	
-0.0684604	
-0.077235	
-0.223637	
-0.212041	
-0.207668	
-0.202639	
-0.11247	
-0.135245	
-0.143922	
-0.161876	
-0.263048	
-0.274774	
-0.274742	
-0.284451	
-0.147199	
-0.139325	
-0.181944	
-0.174432	
-0.229575	
-0.220126	
-0.0560588	
-0.0342543	
-0.0798027	
-0.0652934	
-0.257104	
-0.253842	
-0.314001	
-0.312361	
-0.314148	
-0.316337	
-0.297	
-0.296121	
-0.132765	
-0.146394	
-0.173684	
-0.183179	
-0.0194218	
-0.00755668	
0.035759	
0.0332605	
-0.181725	
-0.148401	
-0.171829	
-0.136495	
-0.0107477	
-0.00452245	
-0.00752177	
-0.000899942	
0.0022149	
0.0137706	
0.020015	
0.0224931	
0.016518	
-0.00924653	
-0.000937887	
0.00722594	
0.00291567	
0.00934337	
0.0183586	
0.0226644	
0.00979832	
0.0141146	
0.00611537	
-0.00510028	
0.00438212	
-0.010261	
-0.0141242	
-0.00330218	
-0.0218552	
-0.0218857	
-0.0163348	
-0.0230863	
-0.0195543	
0.0146127	
0.012473	
-0.00088311	
0.00525676	
-0.00590834	
-0.0175429	
-0.0167508	
-0.0159673	
-0.0139098	
-0.00948262	
0.017884	
0.254602	
0.223415	
0.244225	
0.0535353	
0.0994307	
0.056089	
0.188632	
0.108904	
0.107084	
0.107712	
0.108227	
0.0782182	
0.0515545	
0.105262	
0.0966623	
0.0924312	
0.053765	
0.103015	
0.0852454	
0.211988	
0.197322	
0.136827	
0.182015	
0.20393	
0.165364	
0.181235	
0.139626	
0.117993	
0.206382	
0.201069	
0.15811	
0.202589	
0.226982	
0.123167	
0.118734	
0.201825	
0.206007	
0.153364	
0.165418	
0.145698	
0.156685	
0.168762	
0.166555	
0.193217	
0.192589	
0.157495	
0.205902	
0.136587	
0.134742	
0.138608	
0.208793	
0.193921	
0.200062	
0.189137	
0.191645	
0.216968	
0.166326	
0.167384	
0.163874	
0.132797	
0.0924178	
0.124344	
0.191982	
0.188396	
0.179697	
0.17756	
0.231155	
0.236689	
0.243283	
0.10662	
0.0583991	
0.18478	
0.18452	
0.176892	
0.17408	
0.161909	
0.153849	
0.171234	
0.170116	
0.171515	
0.182699	
0.178647	
0.180391	
0.187367	
0.175716	
0.176851	
0.159124	
0.148851	
0.115072	
0.102674	
0.119707	
0.1074	
0.204842	
0.21435	
0.200495	
0.203656	
0.120891	
0.112413	
0.153891	
0.218137	
0.224973	
0.17933	
0.182328	
0.143991	
0.182728	
0.197417	
0.115843	
0.103565	
0.126416	
0.123668	
0.147462	
0.130701	
0.126317	
0.133627	
0.233911	
0.246779	
0.221302	
0.2082	
0.2032	
0.0656355	
0.0528923	
0.112365	
0.139256	
0.0777928	
0.0891939	
0.184106	
0.172758	
0.0882807	
0.0672019	
0.123949	
0.124602	
0.130368	
0.130916	
0.100799	
0.23064	
0.223918	
0.15498	
0.137769	
0.152865	
0.146444	
0.120951	
0.149634	
0.148564	
0.14402	
0.142735	
0.0917525	
0.25694	
0.24429	
0.228438	
0.238617	
0.204475	
0.190841	
0.18219	
0.178965	
0.10341	
0.0929259	
0.161472	
0.174772	
0.161819	
0.175701	
0.156947	
0.162674	
0.175422	
0.159549	
0.176851	
0.0907123	
0.145315	
0.150524	
0.144885	
0.235923	
0.230225	
0.230481	
0.225101	
0.229375	
0.235918	
0.168456	
0.171936	
0.160691	
0.167237	
0.240481	
0.227976	
0.23352	
0.188231	
0.180985	
0.192343	
0.0590582	
0.0941983	
0.083611	
0.0945656	
0.257462	
0.254127	
0.165029	
0.15587	
0.239938	
0.189512	
0.189877	
0.183239	
0.144879	
0.15179	
0.187251	
0.197947	
0.192292	
0.198998	
0.219875	
0.223566	
0.213626	
0.216416	
0.212584	
0.220527	
0.22579	
0.199256	
0.18675	
0.201438	
0.13708	
0.132064	
0.15449	
0.152998	
0.163224	
0.161399	
0.103658	
0.0872066	
0.103857	
0.0917178	
0.111731	
0.165055	
0.158109	
0.152018	
0.148305	
0.148322	
0.136088	
0.13988	
0.131158	
0.223628	
0.218313	
0.167921	
0.162617	
0.160216	
0.200765	
0.202151	
0.192215	
0.195475	
0.0892823	
0.0853863	
0.251255	
0.100093	
0.100394	
0.111666	
0.220149	
0.214861	
0.213461	
0.0972362	
0.0883385	
0.154435	
0.145965	
0.158287	
0.152637	
0.209919	
0.210802	
0.201809	
0.203143	
0.188988	
0.188831	
0.180437	
0.180232	
0.234493	
0.236385	
0.227474	
0.231315	
0.13847	
0.227093	
0.230856	
0.224896	
0.194249	
0.183823	
0.177225	
0.112832	
0.144483	
0.143273	
0.22969	
0.227687	
0.198383	
0.186366	
0.18942	
0.195035	
0.199548	
0.192661	
0.177979	
0.187397	
0.191241	
0.232328	
0.239256	
0.233395	
0.22732	
0.232704	
0.223774	
0.176182	
0.16707	
0.175617	
0.167451	
0.198671	
0.191879	
0.18712	
0.119727	
0.175055	
0.170395	
0.159061	
0.077432	
0.0757956	
0.086475	
0.0885763	
0.207585	
0.150782	
0.15121	
0.161622	
0.172837	
0.178798	
0.188084	
0.205062	
0.205831	
0.198735	
0.19939	
0.133957	
0.140536	
0.140139	
0.144447	
0.13202	
0.141417	
0.156887	
0.161051	
0.154368	
0.23504	
0.231692	
0.241682	
0.138838	
0.148668	
0.135396	
0.145411	
0.178179	
0.191007	
0.198147	
0.113639	
0.233673	
0.238624	
0.0536226	
0.0671811	
0.0777106	
0.0512312	
0.155591	
0.144773	
0.160205	
0.132321	
0.137145	
0.209051	
0.215304	
0.208802	
0.185614	
0.195258	
0.188317	
0.166232	
0.157007	
0.124556	
0.130318	
0.130779	
0.139876	
0.139708	
0.158322	
0.145261	
0.153547	
0.158141	
0.16712	
0.170956	
0.215928	
0.209098	
0.194837	
0.188176	
0.155039	
0.140741	
0.254339	
0.225231	
0.247539	
0.250848	
0.241807	
0.255762	
0.244107	
0.255344	
0.251857	
0.254195	
0.24999	
0.214254	
0.217473	
0.218506	
0.221983	
0.205897	
0.208519	
0.210622	
0.213217	
0.190652	
0.196519	
0.198298	
0.200861	
0.240925	
0.189971	
0.184974	
0.179215	
0.175865	
0.251896	
0.218863	
0.222566	
0.128308	
0.129862	
0.133614	
0.142648	
0.134074	
0.136793	
0.139856	
0.148716	
0.208349	
0.218696	
0.207524	
0.116913	
0.122522	
0.116338	
0.1222	
0.189772	
0.183371	
0.211526	
0.204206	
0.209908	
0.200053	
0.201638	
0.188946	
0.198367	
0.191909	
0.178535	
0.166802	
0.181768	
0.170206	
0.135207	
0.130696	
0.158542	
0.153323	
0.178718	
0.172554	
0.181777	
0.172134	
0.239499	
0.238999	
0.246775	
0.142673	
0.140039	
0.135514	
0.131528	
0.126068	
0.125801	
0.130721	
0.133498	
0.123946	
0.119704	
0.200687	
0.185327	
0.197428	
0.193771	
0.241379	
0.241181	
0.127859	
0.133755	
0.146996	
0.143073	
0.162551	
0.146908	
0.143875	
0.160563	
0.183981	
0.149366	
0.136331	
0.114533	
0.170665	
0.178435	
0.117701	
0.125775	
0.218547	
0.215891	
0.212477	
0.207988	
0.159358	
0.157026	
0.10455	
0.116952	
0.129322	
0.127946	
0.11698	
0.111864	
0.111468	
0.119938	
0.119911	
0.0834855	
0.106678	
0.125645	
0.244522	
0.234157	
0.247837	
0.244361	
0.211978	
0.218188	
0.210148	
0.215187	
0.218684	
0.219354	
0.223447	
0.130385	
0.199831	
0.188971	
0.193835	
0.149299	
0.236012	
0.225217	
0.239043	
0.212277	
0.212669	
0.234001	
0.227808	
0.238488	
0.152774	
0.0704648	
0.0707102	
0.058852	
0.0497879	
0.191973	
0.19817	
0.254206	
0.248809	
0.0744466	
0.0716877	
0.0799051	
0.069001	
0.109015	
0.162201	
0.171411	
0.171736	
0.16435	
0.168285	
0.175281	
0.168331	
0.175626	
0.166946	
0.174278	
0.118556	
0.128785	
0.110459	
0.128533	
0.159332	
0.148717	
0.159271	
0.21369	
0.207088	
0.245272	
0.244155	
0.235303	
0.237545	
0.15262	
0.145159	
0.13887	
0.136536	
0.180962	
0.174693	
0.167548	
0.166769	
0.164252	
0.162621	
0.17407	
0.173347	
0.217708	
0.244317	
0.240854	
0.246024	
0.228559	
0.233269	
0.250616	
0.25136	
0.210974	
0.205188	
0.194101	
0.187368	
0.219073	
0.223476	
0.201095	
0.209898	
0.197627	
0.203713	
0.112132	
0.106002	
0.112759	
0.0962094	
0.178131	
0.167233	
0.250474	
0.244077	
0.239305	
0.238136	
0.243659	
0.248849	
0.258516	
0.248783	
0.254473	
0.214288	
0.223651	
0.216901	
0.225136	
0.217788	
0.109175	
0.0660746	
0.0547806	
0.17222	
0.16394	
0.136976	
0.149508	
0.126703	
0.139036	
0.125831	
0.115099	
0.121988	
0.104915	
0.246348	
0.250479	
0.115667	
0.10389	
0.104159	
0.0902619	
0.0959255	
0.122453	
0.114921	
0.106598	
0.10222	
0.11195	
0.0651759	
0.0811141	
0.050751	
0.123048	
0.118656	
0.120209	
0.111106	
0.107688	
0.0957103	
0.108875	
0.113302	
0.226217	
0.148311	
0.142135	
0.139857	
0.132758	
0.22529	
0.21957	
0.220417	
0.213886	
0.0810419	
0.063914	
0.124167	
0.117555	
0.110698	
0.0992177	
0.0989703	
0.114401	
0.108954	
0.13218	
0.180187	
0.17075	
0.17161	
0.12421	
0.116343	
0.109407	
0.227186	
0.121731	
0.105011	
0.131165	
0.117278	
0.209553	
0.211179	
0.214803	
0.219589	
0.0850569	
0.0983595	
0.0931902	
0.101531	
0.178515	
0.183545	
0.0754514	
0.0633872	
0.0714812	
0.0498614	
0.217939	
0.21994	
0.22434	
0.228419	
0.119681	
0.123253	
0.13133	
0.134815	
0.235524	
0.244629	
0.236174	
0.24165	
0.209814	
0.201402	
0.246114	
0.253399	
0.24734	
0.252562	
0.258787	
0.147397	
0.14722	
0.127053	
0.113161	
0.0980816	
0.0978277	
0.125368	
0.122891	
0.14446	
0.134205	
0.138895	
0.126352	
0.159119	
0.155092	
0.136961	
0.146243	
0.136103	
0.125413	
0.123755	
0.230853	
0.234426	
0.224465	
0.225839	
0.152778	
0.142432	
0.135159	
0.111358	
0.138521	
0.128045	
0.0428906	
0.0450825	
0.0291193	
0.043927	
0.0467805	
-0.314264	
-0.305995	
0.0452269	
0.0337228	
0.0366781	
-0.0500304	
-0.26886	
0.0458789	
0.0453115	
-0.0840006	
-0.0888939	
-0.210472	
0.0468825	
-0.0953345	
0.0408142	
0.0395539	
-0.309354	
-0.133043	
-0.0908462	
-0.156096	
-0.0543561	
-0.0721788	
0.015421	
-0.0130442	
-0.259998	
-0.258604	
-0.215849	
-0.0951643	
-0.289225	
-0.248795	
-0.0824548	
-0.118593	
-0.0699683	
-0.235865	
-0.234389	
-0.252727	
-0.281408	
-0.297673	
-0.2705	
-0.0118933	
-0.0389999	
-0.169886	
-0.21565	
-0.227959	
-0.224307	
-0.189563	
-0.193513	
-0.148694	
-0.143846	
-0.112359	
-0.252642	
-0.127916	
-0.0968668	
-0.101926	
-0.120281	
-0.108595	
-0.134899	
-0.104191	
-0.106251	
-0.287321	
-0.245966	
-0.127244	
-0.165418	
-0.264128	
-0.0760282	
-0.20525	
-0.114809	
-0.089237	
-0.154693	
-0.161873	
-0.273994	
-0.314647	
0.0395321	
0.026126	
-0.0247602	
-0.196213	
-0.0670024	
-0.0573771	
-0.223895	
-0.244879	
-0.220955	
-0.272099	
-0.255189	
-0.165556	
-0.170298	
-0.24531	
-0.261965	
-0.23503	
-0.0429111	
-0.272504	
-0.0228274	
-0.0157821	
-0.0751943	
-0.0654045	
-0.21394	
-0.138209	
-0.169752	
-0.271493	
-0.107206	
-0.144899	
-0.174188	
-0.15774	
-0.184474	
-0.0690978	
-0.256093	
-0.232259	
-0.238084	
-0.204807	
-0.19355	
-0.205498	
-0.0934307	
-0.231651	
-0.0336063	
-0.073838	
-0.13273	
-0.270113	
-0.261482	
-0.280532	
-0.300013	
-0.200195	
-0.201276	
-0.286178	
-0.276098	
-0.156893	
0.0328258	
-0.00794343	
-0.278359	
-0.277919	
-0.311114	
-0.264222	
-0.178632	
-0.178318	
0.0321895	
-0.00555701	
-0.291969	
-0.29924	
-0.297988	
0.0253642	
0.0397644	
-0.106052	
-0.135895	
-0.0583748	
-0.0486134	
-0.0662	
-0.229556	
-0.192249	
-0.148236	
-0.178246	
-0.177753	
-0.17758	
-0.128485	
0.0416465	
-0.152312	
-0.156575	
-0.307268	
-0.313666	
-0.142441	
-0.077018	
-0.25025	
-0.222658	
-0.221505	
-0.155361	
-0.184625	
-0.172813	
-0.192411	
0.0242161	
-0.26155	
-0.100261	
-0.162437	
-0.232644	
-0.183161	
-0.200297	
-0.22573	
-0.237903	
-0.308752	
-0.243178	
-0.243874	
-0.221209	
-0.220314	
-0.0204324	
-0.215661	
-0.205667	
-0.184484	
-0.0927021	
-0.0926212	
-0.11761	
-0.0130812	
-0.0283168	
-0.111606	
-0.0838093	
-0.118662	
-0.206073	
-0.0944589	
-0.315049	
-0.309383	
-0.302705	
-0.0562057	
-0.270927	
-0.256578	
-0.255471	
-0.179864	
-0.225286	
-0.201421	
-0.217009	
-0.17676	
-0.14274	
-0.290156	
-0.294412	
-0.195058	
-0.18856	
-0.176006	
-0.172965	
-0.111432	
-0.239633	
-0.278854	
-0.289864	
-0.148206	
-0.129677	
-0.167005	
0.015515	
-0.0169692	
-0.0824008	
-0.0687682	
-0.0178343	
-0.0377251	
-0.247173	
-0.259308	
-0.0937366	
-0.0622269	
-0.081936	
-0.0583588	
-0.079197	
-0.063327	
-0.0824018	
-0.277594	
-0.281757	
-0.293057	
-0.304186	
-0.313438	
-0.0354749	
-0.101064	
-0.0503751	
-0.105141	
-0.139943	
-0.161548	
-0.232236	
-0.183719	
-0.113944	
-0.145906	
-0.224776	
-0.213566	
-0.179502	
-0.147022	
-0.170747	
-0.0303893	
-0.0231945	
-0.0504595	
-0.0458798	
-0.122022	
-0.181792	
-0.110009	
-0.0799064	
-0.207471	
-0.176957	
-0.199654	
-0.180713	
-0.251754	
-0.230834	
-0.245475	
-0.231149	
-0.131024	
-0.284287	
-0.267948	
-0.291178	
-0.277718	
-0.130316	
-0.11714	
-0.166088	
-0.191248	
-0.0953437	
-0.0599945	
-0.108483	
-0.0703092	
-0.183996	
-0.205796	
-0.0705942	
-0.0561755	
-0.0246175	
-0.246364	
-0.251752	
-0.232069	
-0.2361	
-0.0709245	
-0.0741447	
-0.216382	
-0.20639	
-0.14886	
-0.132307	
-0.163118	
-0.161051	
-0.141672	
-0.216673	
-0.192087	
-0.213978	
-0.199878	
-0.0180472	
0.00428084	
-0.298972	
-0.290636	
-0.110062	
-0.0930892	
-0.138583	
-0.12474	
-0.149938	
-0.136828	
-0.205705	
-0.228138	
-0.20914	
-0.262721	
-0.270999	
-0.256421	
-0.139557	
-0.150636	
-0.127722	
-0.0972541	
-0.11069	
-0.037061	
-0.0312929	
-0.0113255	
-0.0284718	
-0.00483754	
-0.050764	
-0.0204628	
-0.0491586	
-0.0513143	
-0.0428505	
-0.0209918	
-0.100916	
-0.0726962	
-0.110033	
-0.0819374	
-0.135854	
-0.0422358	
-0.0608367	
-0.0225891	
-0.0492492	
-0.155213	
-0.11848	
-0.139762	
-0.11681	
-0.0269329	
-0.0612567	
-0.0547848	
-0.0739757	
-0.161937	
-0.185404	
-0.182273	
-0.204055	
-0.194147	
-0.197216	
-0.157059	
-0.154214	
-0.220189	
-0.233049	
-0.243593	
-0.24562	
-0.254872	
-0.266419	
-0.273256	
-0.276434	
-0.273679	
-0.277098	
-0.282948	
-0.291216	
-0.0219527	
-0.042417	
-0.0738789	
-0.277871	
-0.264176	
-0.285751	
-0.290707	
-0.291434	
-0.28028	
-0.282033	
-0.0249419	
-0.00937905	
-0.197877	
-0.197208	
-0.171992	
-0.309693	
-0.31051	
-0.152515	
-0.158394	
-0.130651	
-0.133608	
-0.310179	
-0.303668	
-0.306617	
-0.30678	
-0.303223	
-0.113129	
-0.206877	
-0.187445	
-0.211499	
-0.194703	
0.0438616	
0.0343615	
-0.0628733	
-0.00891267	
-0.0293695	
-0.0324249	
-0.00981293	
0.0420087	
0.0320211	
-0.0907054	
-0.0574021	
-0.10118	
-0.076295	
-0.128795	
-0.143758	
-0.164853	
-0.173719	
-0.18663	
-0.186435	
-0.222145	
-0.22535	
-0.00887196	
-0.00608341	
-0.304733	
-0.295854	
-0.0252781	
-0.002899	
-0.0229874	
-0.000315531	
0.0349678	
-0.0195189	
-0.308757	
-0.241604	
-0.258627	
-0.265618	
-0.029395	
0.00614779	
-0.242385	
-0.250665	
0.0120815	
-0.180009	
-0.179664	
-0.28558	
-0.274162	
-0.287386	
-0.300077	
-0.288045	
-0.302804	
-0.190379	
-0.208918	
-0.120519	
-0.118922	
-0.1098	
-0.268661	
-0.242198	
-0.235925	
-0.119292	
-0.127545	
-0.167541	
-0.151641	
-0.00181565	
0.0419252	
0.0141909	
0.0287215	
-0.019811	
0.02562	
0.0457098	
-0.00945645	
-0.225748	
-0.23397	
-0.230625	
-0.304071	
-0.305194	
-0.29913	
0.0316514	
-0.298259	
-0.294422	
-0.124906	
-0.143562	
-0.138343	
0.0452904	
0.0317304	
-0.289309	
-0.287267	
-0.291942	
0.0114173	
0.0420175	
0.038038	
0.0357739	
-0.171831	
-0.158578	
-0.192135	
-0.194069	
-0.303404	
-0.312267	
-0.307064	
0.0323987	
0.0456171	
0.000403316	
0.0392312	
-0.253076	
-0.247277	
-0.137789	
-0.136739	
0.0417128	
0.0352472	
0.0313062	
-0.292287	
-0.273666	
-0.299738	
-0.294158	
-0.248835	
-0.242233	
-0.264205	
-0.251022	
-0.148384	
-0.137547	
-0.291648	
-0.296426	
-0.241135	
-0.0206018	
-0.0241829	
-0.0549944	
-0.0571287	
0.0403598	
0.0460816	
-0.104539	
-0.0960092	
-0.0665513	
-0.0505182	
-0.312213	
-0.305285	
-0.31216	
-0.304928	
-0.0985514	
-0.0925414	
-0.105035	
-0.0725967	
-0.0850914	
0.0291851	
0.0382063	
0.0253559	
-0.175003	
-0.188594	
-0.16871	
-0.1898	
0.0419073	
-0.107265	
-0.0925212	
-0.312792	
-0.311153	