<VTKFile type="UnstructuredGrid" version="0.1" byte_order="LittleEndian">
	<UnstructuredGrid>
		<Piece NumberOfPoints="1647" NumberOfCells="3046">
			<CellData Scalars="scalars">
				<DataArray type="Float64" Name="Doublet Strengths" NumberOfComponents="1" Format="ascii">
0.294705	
0.251189	
0.277741	
0.0588216	
0.0976029	
0.114857	
0.113216	
0.113805	
0.0603885	
0.0576163	
0.109922	
0.100535	
0.0551982	
0.107518	
0.113005	
0.0869116	
0.234768	
0.110141	
0.282248	
0.208913	
0.229994	
0.144986	
0.200679	
0.228055	
0.181134	
0.200613	
0.1512	
0.185201	
0.127561	
0.224728	
0.228841	
0.172647	
0.22667	
0.254665	
0.128217	
0.225127	
0.228735	
0.160297	
0.181368	
0.15885	
0.172088	
0.185112	
0.182502	
0.209777	
0.214252	
0.178811	
0.228659	
0.148303	
0.146378	
0.160707	
0.245628	
0.234104	
0.221842	
0.214557	
0.219352	
0.208917	
0.243035	
0.166161	
0.182143	
0.183269	
0.179427	
0.145062	
0.101463	
0.13285	
0.198238	
0.20051	
0.205344	
0.208499	
0.268381	
0.271407	
0.261528	
0.114523	
0.0527225	
0.194283	
0.196461	
0.2035	
0.208458	
0.188784	
0.175282	
0.178169	
0.168458	
0.196894	
0.188129	
0.1967	
0.193235	
0.200428	
0.198648	
0.206593	
0.175403	
0.163383	
0.105316	
0.119607	
0.126659	
0.223705	
0.234873	
0.229054	
0.238369	
0.118449	
0.127964	
0.167919	
0.244116	
0.247356	
0.260391	
0.211587	
0.198755	
0.200792	
0.15524	
0.226581	
0.108255	
0.121748	
0.130913	
0.142757	
0.139953	
0.150806	
0.134664	
0.133704	
0.265455	
0.276948	
0.233457	
0.249391	
0.22672	
0.0553932	
0.150796	
0.0915042	
0.0800106	
0.0865555	
0.19093	
0.209853	
0.0988724	
0.0743487	
0.141341	
0.141894	
0.134124	
0.134763	
0.105703	
0.260648	
0.250482	
0.166511	
0.151063	
0.169026	
0.154653	
0.114758	
0.152552	
0.155149	
0.162902	
0.161767	
0.121266	
0.108268	
0.293895	
0.279215	
0.2572	
0.271722	
0.230919	
0.200782	
0.201322	
0.208779	
0.101089	
0.079992	
0.275127	
0.193245	
0.181873	
0.190821	
0.177776	
0.187567	
0.171809	
0.194677	
0.19613	
0.187584	
0.0936807	
0.165363	
0.147054	
0.158869	
0.260608	
0.268118	
0.274709	
0.257694	
0.269038	
0.252587	
0.174933	
0.183281	
0.184551	
0.188778	
0.271041	
0.26456	
0.256945	
0.216935	
0.198605	
0.0607527	
0.0767297	
0.0991762	
0.100678	
0.0942423	
0.296299	
0.290996	
0.181717	
0.170833	
0.270268	
0.212557	
0.209116	
0.196683	
0.165404	
0.166385	
0.211959	
0.206826	
0.223712	
0.212511	
0.252879	
0.247062	
0.242395	
0.23671	
0.240493	
0.256799	
0.248077	
0.248234	
0.213053	
0.222682	
0.225324	
0.14936	
0.149276	
0.166747	
0.168773	
0.177226	
0.184566	
0.106206	
0.111854	
0.0983528	
0.111614	
0.118185	
0.173554	
0.177693	
0.161776	
0.15906	
0.158107	
0.161498	
0.140953	
0.151456	
0.251026	
0.244153	
0.173144	
0.175123	
0.184057	
0.210622	
0.217218	
0.223803	
0.22524	
0.0896711	
0.0931571	
0.107396	
0.10765	
0.120355	
0.23295	
0.23523	
0.243624	
0.0976579	
0.108451	
0.158454	
0.168437	
0.157186	
0.173006	
0.220257	
0.224714	
0.232459	
0.237204	
0.194963	
0.199706	
0.210112	
0.215051	
0.254633	
0.261827	
0.26546	
0.26847	
0.149497	
0.110965	
0.260966	
0.250922	
0.261853	
0.216525	
0.200829	
0.204083	
0.115482	
0.157276	
0.155959	
0.256891	
0.257399	
0.220066	
0.209053	
0.205943	
0.220173	
0.209197	
0.214898	
0.208406	
0.207715	
0.192515	
0.197249	
0.262994	
0.273878	
0.255126	
0.251174	
0.262799	
0.255314	
0.29376	
0.184261	
0.200011	
0.179603	
0.194328	
0.213615	
0.221762	
0.207989	
0.128239	
0.184522	
0.192092	
0.175074	
0.178347	
0.0826721	
0.08844	
0.0923525	
0.236472	
0.164618	
0.164174	
0.176748	
0.197933	
0.194117	
0.20889	
0.287942	
0.275058	
0.281584	
0.220914	
0.221508	
0.228611	
0.23299	
0.145133	
0.156469	
0.156854	
0.144175	
0.153419	
0.146594	
0.176533	
0.168597	
0.171429	
0.271926	
0.264414	
0.258911	
0.162483	
0.150251	
0.166957	
0.147616	
0.221198	
0.212676	
0.271329	
0.264991	
0.120295	
0.0749945	
0.0599065	
0.0832913	
0.0546934	
0.169552	
0.161391	
0.143949	
0.143529	
0.232985	
0.229376	
0.240763	
0.212043	
0.204054	
0.216636	
0.183258	
0.172362	
0.139717	
0.132778	
0.150942	
0.140223	
0.1673	
0.157545	
0.159964	
0.172736	
0.172836	
0.182857	
0.183089	
0.234118	
0.242453	
0.209418	
0.217378	
0.175488	
0.1519	
0.16896	
0.291471	
0.294443	
0.281598	
0.288283	
0.248863	
0.285171	
0.28163	
0.292311	
0.287356	
0.274916	
0.283295	
0.286449	
0.283514	
0.2433	
0.239192	
0.248717	
0.244405	
0.236485	
0.233533	
0.222051	
0.227433	
0.213608	
0.218929	
0.276109	
0.203347	
0.203341	
0.192987	
0.191315	
0.240929	
0.243953	
0.139452	
0.137736	
0.148779	
0.1518	
0.146639	
0.143614	
0.156706	
0.158776	
0.227951	
0.229955	
0.130924	
0.118544	
0.130671	
0.123623	
0.203033	
0.213728	
0.22796	
0.239338	
0.223104	
0.22741	
0.223956	
0.212507	
0.220353	
0.187651	
0.196551	
0.186914	
0.195618	
0.1407	
0.146128	
0.140612	
0.167132	
0.177883	
0.189558	
0.201948	
0.188973	
0.194611	
0.28141	
0.277729	
0.265364	
0.269515	
0.154498	
0.142206	
0.142411	
0.135389	
0.135422	
0.148707	
0.141745	
0.133456	
0.213947	
0.206568	
0.220813	
0.217252	
0.278917	
0.144073	
0.151389	
0.155401	
0.159853	
0.177966	
0.167568	
0.223024	
0.214599	
0.26694	
0.254196	
0.156537	
0.0679791	
0.176206	
0.160005	
0.202345	
0.167388	
0.195983	
0.187058	
0.12378	
0.134045	
0.169263	
0.231774	
0.23643	
0.240296	
0.242653	
0.123216	
0.174087	
0.171648	
0.105178	
0.122658	
0.125339	
0.133828	
0.112055	
0.125435	
0.128206	
0.138381	
0.138991	
0.272149	
0.279558	
0.279222	
0.283279	
0.244048	
0.231353	
0.234004	
0.077921	
0.0829171	
0.0742316	
0.0709474	
0.250604	
0.251699	
0.240294	
0.24516	
0.241517	
0.239669	
0.134326	
0.208803	
0.214555	
0.221707	
0.0621033	
0.0621685	
0.0745789	
0.0752765	
0.162869	
0.271454	
0.256033	
0.258856	
0.166669	
0.219626	
0.212286	
0.283587	
0.290036	
0.187318	
0.188557	
0.173165	
0.177579	
0.260521	
0.26863	
0.260951	
0.268275	
0.180223	
0.19303	
0.184806	
0.182972	
0.196625	
0.184503	
0.192709	
0.149138	
0.131433	
0.142851	
0.116775	
0.16294	
0.174854	
0.174989	
0.231018	
0.238905	
0.266736	
0.269281	
0.273878	
0.277652	
0.159786	
0.163601	
0.149967	
0.152217	
0.184748	
0.183867	
0.196341	
0.193339	
0.197434	
0.191691	
0.180701	
0.172554	
0.249405	
0.236447	
0.249944	
0.243228	
0.247072	
0.288647	
0.296025	
0.281004	
0.284033	
0.262599	
0.257002	
0.226173	
0.235008	
0.206525	
0.215345	
0.118652	
0.100021	
0.124077	
0.110748	
0.183684	
0.191749	
0.29044	
0.283441	
0.290623	
0.284434	
0.27477	
0.286582	
0.277374	
0.269265	
0.274355	
0.267865	
0.253659	
0.25196	
0.243526	
0.162214	
0.147119	
0.150293	
0.135156	
0.107659	
0.0999551	
0.0868964	
0.0730378	
0.113528	
0.12684	
0.113874	
0.0996326	
0.0942948	
0.133695	
0.125204	
0.145658	
0.0554172	
0.0709027	
0.0882884	
0.129123	
0.120017	
0.128221	
0.129839	
0.117329	
0.122067	
0.143839	
0.240685	
0.240417	
0.254691	
0.25413	
0.088504	
0.0699321	
0.127281	
0.119764	
0.134748	
0.123167	
0.130174	
0.121701	
0.134786	
0.116387	
0.12929	
0.224157	
0.220483	
0.214734	
0.121562	
0.114462	
0.115349	
0.111305	
0.0953945	
0.187205	
0.188113	
0.198013	
0.118602	
0.134996	
0.126455	
0.13684	
0.123662	
0.128761	
0.109983	
0.202653	
0.204761	
0.241142	
0.244904	
0.23496	
0.236971	
0.0977845	
0.0919075	
0.109964	
0.101011	
0.196385	
0.202062	
0.110451	
0.10501	
0.0632888	
0.0535844	
0.081373	
0.0683791	
0.128876	
0.109657	
0.139599	
0.12092	
0.272331	
0.265882	
0.221862	
0.228925	
0.160896	
0.149876	
0.146892	
0.13558	
0.135594	
0.151248	
0.121176	
0.157718	
0.144932	
0.135114	
0.133038	
0.146935	
0.116487	
0.140183	
0.153139	
0.161233	
0.141568	
0.15107	
0.25829	
0.261127	
0.265638	
0.146836	
0.154226	
0.126131	
0.132136	
0.252516	
0.25492	
0.241726	
0.243494	
0.250493	
0.257891	
0.244857	
0.247061	
0.101848	
0.107576	
0.102351	
0.107979	
0.0307148	
0.0429565	
0.0367701	
0.041443	
0.0448259	
-0.348075	
-0.338053	
0.0399048	
0.0403551	
0.0433666	
0.0394816	
0.0360922	
-0.29631	
0.0431426	
-0.0887906	
-0.0941981	
-0.231859	
-0.127321	
0.03808	
0.0367688	
-0.148685	
-0.0890362	
-0.173236	
-0.0839381	
-0.088311	
0.0100759	
-0.0200157	
-0.279648	
-0.284898	
-0.236628	
-0.108444	
-0.325997	
-0.273703	
-0.0902762	
-0.133185	
-0.0797958	
-0.243582	
-0.257653	
-0.273309	
-0.308153	
-0.326108	
-0.294609	
-0.0181922	
-0.0470632	
-0.183741	
-0.235047	
-0.203434	
-0.230449	
-0.226053	
-0.246418	
-0.158406	
-0.180783	
-0.13206	
-0.276097	
-0.153498	
-0.110696	
-0.117994	
-0.129638	
-0.122717	
-0.117963	
-0.150712	
-0.1161	
-0.314225	
-0.268649	
-0.135948	
-0.1828	
-0.287471	
-0.0860746	
-0.222071	
-0.129096	
-0.101855	
-0.172154	
-0.172815	
-0.288679	
-0.35068	
0.0218571	
0.0208543	
-0.0324105	
-0.213428	
-0.0662198	
-0.0762629	
-0.264595	
-0.241428	
-0.239063	
-0.279063	
-0.297698	
-0.189031	
-0.18269	
-0.285242	
-0.267077	
-0.256089	
-0.0526527	
-0.301756	
-0.0163131	
-0.0589323	
-0.046126	
-0.0893788	
-0.23572	
-0.162274	
-0.180473	
-0.298433	
-0.118853	
-0.174927	
-0.208816	
-0.161173	
-0.171876	
-0.0718252	
-0.252953	
-0.279147	
-0.224268	
-0.260096	
-0.198794	
-0.218201	
-0.0754652	
-0.105325	
-0.247591	
-0.0363494	
-0.0521176	
-0.0856729	
-0.162908	
-0.283234	
-0.292457	
-0.309309	
-0.33155	
-0.229568	
-0.221028	
-0.301329	
-0.31232	
-0.166962	
0.0295441	
-0.0138793	
-0.34157	
-0.283646	
-0.19297	
-0.209754	
-0.207068	
0.0295281	
-0.0122877	
-0.321175	
-0.328157	
-0.326993	
0.0250022	
0.0365848	
-0.112341	
-0.144339	
-0.0620374	
-0.0705594	
-0.0531305	
0.0459564	
-0.252673	
-0.212349	
-0.188033	
-0.196172	
-0.146029	
-0.193658	
-0.141412	
-0.168445	
-0.147612	
-0.168456	
-0.340141	
-0.349284	
-0.13262	
-0.0886471	
-0.244636	
-0.259214	
-0.274798	
-0.204143	
-0.167691	
-0.212503	
-0.191385	
0.0198873	
-0.285581	
-0.101194	
-0.112717	
-0.17788	
-0.248062	
-0.195957	
-0.214222	
-0.238906	
-0.25599	
-0.338478	
-0.239529	
-0.246422	
-0.249947	
-0.264282	
-0.0286534	
-0.23536	
-0.201927	
-0.2245	
-0.103822	
-0.104059	
-0.134757	
-0.130437	
-0.0153599	
-0.0311595	
-0.119115	
-0.0972636	
-0.220825	
-0.114687	
-0.331536	
-0.339448	
-0.0579421	
-0.29233	
-0.282721	
-0.277165	
-0.194157	
-0.240438	
-0.201486	
-0.238941	
-0.195644	
-0.133402	
-0.323406	
-0.31723	
-0.178222	
-0.186404	
-0.209338	
-0.215021	
-0.0914154	
-0.115066	
-0.31918	
-0.306383	
-0.157389	
-0.181492	
0.00997526	
-0.0366725	
-0.0247169	
-0.0790986	
-0.0461957	
-0.0248689	
-0.272066	
-0.285651	
-0.350497	
-0.101486	
-0.089494	
-0.0688411	
-0.0697509	
-0.0894385	
-0.0561436	
-0.0856905	
-0.306743	
-0.324294	
-0.31169	
-0.348827	
-0.327566	
-0.085887	
-0.118924	
-0.114521	
-0.156249	
-0.204724	
-0.249055	
-0.201738	
-0.12411	
-0.125709	
-0.141598	
-0.227418	
-0.239867	
-0.159972	
-0.177596	
-0.157275	
-0.175551	
-0.0222178	
-0.0352949	
-0.0506903	
-0.0639781	
-0.312429	
-0.212082	
-0.141796	
-0.0845825	
-0.120964	
-0.2105	
-0.224655	
-0.196116	
-0.216232	
-0.263502	
-0.272531	
-0.249968	
-0.265461	
-0.314607	
-0.303106	
-0.310782	
-0.295749	
-0.158487	
-0.114209	
-0.204051	
-0.191754	
-0.0784142	
-0.104486	
-0.0780001	
-0.105677	
-0.210971	
-0.218757	
-0.0634621	
-0.0671225	
-0.0302659	
-0.254224	
-0.258844	
-0.269714	
-0.280624	
-0.0604351	
-0.0824917	
-0.22992	
-0.230491	
-0.142887	
-0.17641	
-0.139197	
-0.173984	
-0.245887	
-0.203056	
-0.23023	
0.00101184	
-0.0273265	
-0.319789	
-0.329438	
-0.0984314	
-0.116513	
-0.161757	
-0.147862	
-0.150047	
-0.135398	
-0.241627	
-0.220042	
-0.249943	
-0.288176	
-0.275595	
-0.296555	
-0.172791	
-0.155898	
-0.143214	
-0.103719	
-0.110748	
-0.0404669	
-0.0349041	
-0.0317047	
-0.014074	
-0.0294953	
-0.0104148	
-0.0573407	
-0.0270574	
-0.0583711	
-0.0482655	
-0.0487443	
-0.123298	
-0.113704	
-0.0837555	
-0.150727	
-0.0280661	
-0.0561266	
-0.0260049	
-0.0678516	
-0.155987	
-0.131572	
-0.172616	
-0.15931	
-0.0378212	
-0.0352521	
-0.0856321	
-0.0651138	
-0.222014	
-0.224812	
-0.179675	
-0.179226	
-0.171201	
-0.193303	
-0.192166	
-0.213958	
-0.266966	
-0.26896	
-0.250097	
-0.255348	
-0.292363	
-0.283662	
-0.303539	
-0.299972	
-0.303791	
-0.300174	
-0.317529	
-0.310756	
-0.0842178	
-0.0291065	
-0.0508648	
-0.297737	
-0.286644	
-0.319718	
-0.308428	
-0.319245	
-0.304327	
-0.304954	
-0.01529	
-0.0319475	
-0.210328	
-0.199216	
-0.186905	
-0.340128	
-0.34152	
-0.341892	
-0.168351	
-0.147511	
-0.155154	
-0.138959	
-0.344224	
-0.336383	
-0.329275	
-0.33648	
-0.332373	
-0.141114	
-0.204687	
-0.225455	
-0.198437	
-0.230249	
0.0310788	
0.0416889	
-0.0737565	
-0.071984	
-0.0156916	
-0.041229	
-0.0169572	
0.0281428	
0.039847	
-0.0680879	
-0.125081	
-0.0648358	
-0.114895	
-0.136793	
-0.152725	
-0.184737	
-0.181816	
-0.197573	
-0.20538	
-0.238845	
-0.242639	
-0.00932914	
-0.0119429	
-0.336663	
-0.326177	
-0.0301928	
-0.00687327	
-0.279312	
-0.0259543	
0.0336825	
-0.259469	
-0.00781231	
-0.348047	
-0.288276	
-0.0276732	
-0.00351977	
0.00939798	
-0.192693	
-0.179772	
-0.302623	
-0.312117	
-0.314392	
-0.318329	
-0.32852	
-0.331758	
-0.202986	
-0.221532	
-0.129568	
-0.118155	
-0.127301	
-0.286727	
-0.241414	
-0.264008	
-0.267312	
-0.125942	
-0.157178	
-0.166597	
-0.186076	
-0.00928626	
0.00858553	
0.0389283	
-0.037913	
0.0239608	
0.0438069	
0.0218365	
-0.0149942	
-0.299956	
-0.334891	
-0.327766	
-0.334965	
0.0307092	
-0.328265	
-0.324262	
-0.156685	
-0.1369	
-0.15133	
0.0273651	
0.0410016	
-0.315851	
-0.318302	
-0.313268	
-0.272472	
0.00834308	
-0.278539	
-0.268806	
-0.259874	
0.036395	
0.0409112	
0.0431307	
-0.207952	
-0.192934	
-0.186469	
-0.168217	
-0.334878	
-0.33694	
-0.3396	
0.0438713	
0.0298276	
0.0371305	
0.00251026	
-0.300506	
-0.298746	
-0.292512	
-0.145985	
-0.147412	
0.0429346	
0.0264091	
-0.332423	
-0.323921	
-0.3221	
-0.159245	
-0.147726	
-0.319627	
-0.325951	
-0.262591	
-0.0320783	
-0.0283889	
-0.0672163	
-0.065032	
0.0451696	
0.0387668	
-0.0747308	
-0.085225	
-0.10395	
-0.105865	
-0.346281	
-0.34681	
-0.336641	
-0.346195	
-0.109269	
-0.0767728	
-0.092434	
-0.0980241	
-0.119199	
0.0353281	
0.0254309	
0.0204094	
-0.192496	
-0.203653	
-0.176026	
-0.201093	
0.0383901	
-0.111532	
-0.111059	
-0.0958257	
-0.342042	
-0.349323	
-0.265206	
-0.275603	
-0.104215	
-0.124692	
-0.289013	
-0.277781	
0.000126816	
0.0040586	
-0.258977	
-0.283933	
-0.273642	
-0.208717	
-0.230025	
-0.197222	
-0.213191	
-0.0420902	
-0.0934015	
-0.0513676	
-0.0445046	
-0.0932726	
-0.0755719	
-0.343795	
-0.349257	
-0.344331	
-0.348589	
-0.0377985	
-0.0454682	
0.0227666	
-0.257434	
-0.237569	
-0.308584	
-0.300973	
-0.163428	
-0.158634	
-0.117879	
-0.101359	
-0.327636	
-0.319586	
-0.340313	
-0.336422	
-0.328763	
-0.320211	
-0.169025	
-0.172505	
-0.145379	
-0.14925	
-0.260199	
-0.2762	
-0.189564	
-0.20429	
-0.22423	
-0.226052	
-0.338334	
-0.340149	
-0.341861	
-0.341147	
-0.29072	
-0.304627	
-0.314705	
-0.307736	
-0.315938	
-0.26801	
-0.25668	
-0.277694	
-0.288115	
-0.0329288	
0.0118412	
0.036823	
-0.291565	
-0.287667	
-0.088114	
-0.0714622	
-0.121409	
-0.215481	
-0.233369	
-0.215274	
-0.251065	
-0.247769	
-0.256881	
-0.259884	
-0.265724	
-0.345554	
-0.340459	
-0.339134	
-0.331277	
-0.297753	
-0.278677	
-0.29162	
-0.320367	
0.0167339	
-0.0447236	
0.0320827	
0.00711816	
-0.224696	
-0.250871	
-0.24706	
-0.220966	
-0.237186	
-0.0271509	
0.0318419	
0.029028	
-0.0220031	
0.0408263	
0.0210367	
-0.285294	
-0.292812	
-0.291524	
-0.302114	
0.0338828	
0.0102236	
-0.234512	
-0.265682	
-0.243176	
-0.271036	
-0.260768	
-0.266032	
-0.278327	
-0.256757	
-0.250263	
-0.266809	
-0.122382	
-0.128426	
-0.141926	
-0.154759	
-0.330484	
-0.33099	
-0.333074	
-0.233129	
-0.221745	
-0.319116	
-0.314407	
-0.302131	
-0.303842	
-0.215165	
-0.233495	
-0.227255	
-0.24436	
-0.100701	
-0.125448	
-0.312228	
-0.314532	
-0.337467	
-0.342476	
-0.052861	
-0.0668792	
-0.0730218	
-0.0826237	
-0.240074	
-0.227243	
-0.222769	
-0.217145	
-0.126059	
-0.150288	
-0.159348	
-0.178515	
-0.288295	
-0.301457	
-0.301259	
-0.312269	
-0.163262	
-0.154936	
-0.200262	
-0.19231	
-0.248888	
-0.238662	
-0.0640548	
-0.0411797	
-0.0891951	
-0.0740015	
-0.282411	
-0.278672	
-0.347046	
-0.34464	
-0.347887	
-0.349781	
-0.324573	
-0.323637	
-0.147164	
-0.161806	
-0.19055	
-0.200778	
-0.0253726	
-0.0127293	
0.0328935	
0.0302571	
-0.19989	
-0.164391	
-0.189415	
-0.15181	
-0.0105767	
-0.00404746	
-0.00723255	
-0.000436047	
0.00268719	
0.0147592	
0.0208469	
0.0231684	
0.0174213	
-0.00889824	
-0.000192677	
0.00822406	
0.00388294	
0.0102578	
0.0188557	
0.0231515	
0.0102876	
0.0146143	
0.00661084	
-0.00453377	
0.00387452	
-0.0111365	
-0.0149813	
-0.00401138	
-0.0227607	
-0.0227248	
-0.0165564	
-0.0238791	
-0.0205694	
0.014498	
0.0124193	
-0.00124243	
0.00502191	
-0.00633126	
-0.0178969	
-0.0171683	
-0.0163647	
-0.0144221	
-0.00989434	
0.0179183	
0.289963	
0.252308	
0.277737	
0.0585419	
0.103541	
0.0606577	
0.209961	
0.114741	
0.112514	
0.11307	
0.113956	
0.0858579	
0.0568625	
0.110072	
0.100447	
0.0958734	
0.0552041	
0.107533	
0.0880955	
0.236516	
0.218361	
0.14846	
0.200746	
0.227536	
0.181216	
0.201074	
0.150898	
0.127682	
0.229772	
0.223296	
0.172721	
0.226146	
0.254677	
0.132822	
0.127039	
0.225486	
0.229378	
0.168212	
0.181285	
0.159246	
0.17175	
0.185241	
0.182702	
0.214699	
0.213926	
0.172692	
0.229178	
0.148375	
0.146584	
0.149749	
0.233564	
0.214822	
0.222221	
0.209149	
0.212177	
0.242836	
0.182551	
0.183828	
0.179949	
0.145171	
0.100881	
0.132766	
0.212556	
0.208174	
0.198043	
0.195438	
0.261009	
0.26768	
0.275708	
0.113409	
0.0621626	
0.204421	
0.203956	
0.195135	
0.191699	
0.178042	
0.168377	
0.189227	
0.187941	
0.188103	
0.201274	
0.196709	
0.198883	
0.207148	
0.193408	
0.194781	
0.174143	
0.161859	
0.120932	
0.107163	
0.12644	
0.112794	
0.228544	
0.239889	
0.223333	
0.227085	
0.127829	
0.118369	
0.168142	
0.244106	
0.253189	
0.198479	
0.201657	
0.156378	
0.202903	
0.22054	
0.121806	
0.108192	
0.135168	
0.131874	
0.160132	
0.140208	
0.135133	
0.143821	
0.262746	
0.276916	
0.24896	
0.233014	
0.227182	
0.0679318	
0.0553257	
0.11853	
0.150683	
0.0801293	
0.0924757	
0.204546	
0.191062	
0.0967513	
0.0735401	
0.13427	
0.134832	
0.141524	
0.141989	
0.105086	
0.258858	
0.250746	
0.169156	
0.148804	
0.166583	
0.158916	
0.127956	
0.163094	
0.161938	
0.156595	
0.155232	
0.100924	
0.292635	
0.277915	
0.258494	
0.270989	
0.228848	
0.212608	
0.200646	
0.196834	
0.110526	
0.100973	
0.177338	
0.192931	
0.177606	
0.193915	
0.171773	
0.178527	
0.194236	
0.175253	
0.195964	
0.0978445	
0.157858	
0.164004	
0.157194	
0.266633	
0.259562	
0.259736	
0.252477	
0.257551	
0.265375	
0.184553	
0.188806	
0.175514	
0.183337	
0.270116	
0.25587	
0.26235	
0.208137	
0.199737	
0.212773	
0.0633154	
0.0996667	
0.0884371	
0.100735	
0.292782	
0.289265	
0.181854	
0.170818	
0.269548	
0.209671	
0.209957	
0.202323	
0.157122	
0.165357	
0.206977	
0.219746	
0.21301	
0.220929	
0.246452	
0.250843	
0.238929	
0.242186	
0.237809	
0.247309	
0.253806	
0.222241	
0.207399	
0.224906	
0.149766	
0.143715	
0.16907	
0.16729	
0.179461	
0.177319	
0.111945	
0.0937377	
0.111692	
0.0984126	
0.118045	
0.181525	
0.173277	
0.166083	
0.161542	
0.161485	
0.146691	
0.151369	
0.140831	
0.250394	
0.244132	
0.184374	
0.178156	
0.17543	
0.223534	
0.225119	
0.213422	
0.217191	
0.0938254	
0.0897403	
0.286011	
0.10773	
0.10746	
0.120448	
0.244917	
0.23955	
0.237486	
0.106411	
0.0965351	
0.168373	
0.158388	
0.172935	
0.166321	
0.233881	
0.234611	
0.224305	
0.225691	
0.20976	
0.209483	
0.19971	
0.199381	
0.264636	
0.266931	
0.255943	
0.260596	
0.149472	
0.255069	
0.259935	
0.252536	
0.216438	
0.204095	
0.196219	
0.120286	
0.15748	
0.156234	
0.259481	
0.256843	
0.221487	
0.207274	
0.210873	
0.215895	
0.221377	
0.213291	
0.197007	
0.208051	
0.212687	
0.26254	
0.271075	
0.262517	
0.2552	
0.261843	
0.250956	
0.194671	
0.183972	
0.194078	
0.184469	
0.221311	
0.213221	
0.207637	
0.128069	
0.193111	
0.187637	
0.174178	
0.0827009	
0.0799337	
0.0923936	
0.0942924	
0.231185	
0.164318	
0.164704	
0.176943	
0.190578	
0.197626	
0.208577	
0.228467	
0.229264	
0.220942	
0.221642	
0.144997	
0.152621	
0.151869	
0.156969	
0.142472	
0.15352	
0.17139	
0.176371	
0.168456	
0.263979	
0.260218	
0.271544	
0.150144	
0.162112	
0.146026	
0.158157	
0.197184	
0.21228	
0.22076	
0.12006	
0.264918	
0.27101	
0.058905	
0.0737305	
0.0833358	
0.0547111	
0.1696	
0.156912	
0.174975	
0.14429	
0.149562	
0.233073	
0.240656	
0.232864	
0.205125	
0.216698	
0.208509	
0.183293	
0.17222	
0.132819	
0.139671	
0.140286	
0.151189	
0.150986	
0.172837	
0.157554	
0.167291	
0.172682	
0.183052	
0.187582	
0.24242	
0.234161	
0.217083	
0.209143	
0.16899	
0.152197	
0.289013	
0.250896	
0.280245	
0.284111	
0.273397	
0.289798	
0.274726	
0.287667	
0.283789	
0.287093	
0.282742	
0.239293	
0.243209	
0.244427	
0.248671	
0.229083	
0.232321	
0.234741	
0.237972	
0.211082	
0.218107	
0.220061	
0.223196	
0.272136	
0.210277	
0.204526	
0.198271	
0.194443	
0.285616	
0.243003	
0.246791	
0.137726	
0.139432	
0.144224	
0.154701	
0.144366	
0.147553	
0.151179	
0.161529	
0.230673	
0.242175	
0.230413	
0.124037	
0.130916	
0.123604	
0.130685	
0.210495	
0.202939	
0.236366	
0.227658	
0.234525	
0.222774	
0.2238	
0.208606	
0.219976	
0.21225	
0.196443	
0.182787	
0.200321	
0.18682	
0.145458	
0.140238	
0.173417	
0.167328	
0.196988	
0.189776	
0.200574	
0.189263	
0.269678	
0.269159	
0.278084	
0.154487	
0.15136	
0.146655	
0.142085	
0.135458	
0.135277	
0.141329	
0.144725	
0.133426	
0.128622	
0.222167	
0.205272	
0.218626	
0.214467	
0.273241	
0.272947	
0.136756	
0.143676	
0.159685	
0.154983	
0.178587	
0.160782	
0.156264	
0.176781	
0.203007	
0.164086	
0.150014	
0.125803	
0.187712	
0.196672	
0.129145	
0.133543	
0.246206	
0.242773	
0.238784	
0.233321	
0.174557	
0.172006	
0.109655	
0.12348	
0.138723	
0.137148	
0.123126	
0.117273	
0.116848	
0.127513	
0.127495	
0.0866405	
0.111922	
0.133331	
0.277907	
0.265309	
0.282029	
0.277909	
0.236362	
0.243977	
0.234354	
0.240441	
0.244663	
0.245543	
0.250482	
0.139657	
0.221844	
0.208805	
0.214671	
0.163204	
0.267306	
0.254025	
0.271203	
0.238116	
0.238682	
0.265251	
0.257261	
0.270636	
0.166944	
0.0745265	
0.0752695	
0.0620226	
0.0527032	
0.212198	
0.219611	
0.287959	
0.281985	
0.0778263	
0.0741976	
0.082859	
0.0709465	
0.114688	
0.178763	
0.188985	
0.189692	
0.180159	
0.184711	
0.192913	
0.185344	
0.193725	
0.183951	
0.192456	
0.129712	
0.141182	
0.121007	
0.141071	
0.174834	
0.162004	
0.174781	
0.238808	
0.230941	
0.2778	
0.276401	
0.265674	
0.268403	
0.167762	
0.159471	
0.152307	
0.149764	
0.20062	
0.193138	
0.184645	
0.183725	
0.180708	
0.178777	
0.19231	
0.191501	
0.244669	
0.277166	
0.273133	
0.279656	
0.256509	
0.262047	
0.284991	
0.286461	
0.233706	
0.227469	
0.215503	
0.207538	
0.245094	
0.249745	
0.224967	
0.235559	
0.220741	
0.228044	
0.118507	
0.110678	
0.118569	
0.100009	
0.196399	
0.183616	
0.282381	
0.275256	
0.269267	
0.267827	
0.274182	
0.283293	
0.2943	
0.283305	
0.289887	
0.240274	
0.251332	
0.243055	
0.253208	
0.244372	
0.120139	
0.0728979	
0.0605374	
0.189708	
0.17992	
0.146859	
0.163039	
0.135177	
0.150462	
0.134348	
0.121019	
0.129029	
0.109863	
0.277454	
0.281758	
0.126439	
0.113385	
0.11342	
0.0934986	
0.0997728	
0.133667	
0.125167	
0.113073	
0.106688	
0.118872	
0.0707597	
0.0881689	
0.055303	
0.130564	
0.127761	
0.129768	
0.119011	
0.112753	
0.0995323	
0.116749	
0.122048	
0.255638	
0.161626	
0.154187	
0.15143	
0.142824	
0.253742	
0.246609	
0.247794	
0.239738	
0.0882982	
0.0696959	
0.134906	
0.127385	
0.119866	
0.104775	
0.104923	
0.121327	
0.113986	
0.145315	
0.198655	
0.187701	
0.188689	
0.135172	
0.126527	
0.118704	
0.253641	
0.128792	
0.110012	
0.140604	
0.123586	
0.234319	
0.236362	
0.240588	
0.2465	
0.0919124	
0.106283	
0.101038	
0.110034	
0.196732	
0.202563	
0.0813802	
0.0683582	
0.0767662	
0.0536009	
0.245166	
0.247913	
0.253039	
0.258288	
0.126622	
0.13073	
0.141187	
0.145323	
0.265498	
0.276323	
0.266107	
0.27265	
0.232891	
0.223329	
0.278928	
0.287533	
0.280525	
0.286389	
0.293111	
0.160523	
0.160345	
0.1353	
0.119681	
0.107871	
0.107476	
0.137935	
0.135187	
0.156799	
0.143697	
0.150248	
0.134395	
0.175459	
0.170905	
0.150529	
0.160822	
0.146877	
0.133197	
0.13131	
0.258856	
0.26238	
0.251336	
0.252716	
0.168362	
0.156718	
0.145741	
0.117473	
0.149712	
0.136347	
0.0402199	
0.0430076	
0.0250964	
0.0415244	
0.044851	
-0.348408	
-0.337657	
0.0432053	
0.0305183	
0.0360897	
-0.0537402	
-0.295464	
0.0435478	
0.0429549	
-0.0885911	
-0.0937303	
-0.231784	
0.0458363	
-0.100922	
0.0381486	
0.0367689	
-0.340729	
-0.148498	
-0.0978042	
-0.172997	
-0.0648166	
-0.083868	
0.0101875	
-0.0199088	
-0.284396	
-0.283177	
-0.236288	
-0.108357	
-0.316873	
-0.272972	
-0.0903624	
-0.133005	
-0.0797722	
-0.258733	
-0.257237	
-0.273106	
-0.307818	
-0.325854	
-0.294349	
-0.0181723	
-0.0470365	
-0.185993	
-0.234885	
-0.249761	
-0.245914	
-0.208509	
-0.212867	
-0.158573	
-0.159207	
-0.125886	
-0.275848	
-0.139315	
-0.105793	
-0.110802	
-0.12977	
-0.122645	
-0.150536	
-0.117858	
-0.116234	
-0.314035	
-0.265421	
-0.1348	
-0.175649	
-0.28702	
-0.0860596	
-0.222151	
-0.128905	
-0.101672	
-0.16829	
-0.173111	
-0.300761	
-0.348365	
0.0366901	
0.0219237	
-0.0323181	
-0.213386	
-0.0762592	
-0.0662112	
-0.241702	
-0.264753	
-0.238921	
-0.297369	
-0.278729	
-0.178417	
-0.182942	
-0.266657	
-0.284962	
-0.255683	
-0.0526016	
-0.299271	
-0.0293838	
-0.0217772	
-0.0845665	
-0.0739659	
-0.235402	
-0.146624	
-0.180577	
-0.29753	
-0.118846	
-0.160953	
-0.192035	
-0.174682	
-0.203127	
-0.0732993	
-0.279051	
-0.253089	
-0.259986	
-0.224122	
-0.206485	
-0.219402	
-0.105232	
-0.248543	
-0.0365234	
-0.0856478	
-0.147055	
-0.292919	
-0.283429	
-0.308446	
-0.330757	
-0.219717	
-0.220707	
-0.312194	
-0.300906	
-0.166423	
0.0294736	
-0.0138648	
-0.301347	
-0.300726	
-0.341816	
-0.285415	
-0.193115	
-0.193031	
0.0282162	
-0.0123057	
-0.319513	
-0.327294	
-0.326313	
0.0209955	
0.0369028	
-0.111987	
-0.14381	
-0.0631065	
-0.0535416	
-0.0716211	
-0.252292	
-0.212111	
-0.164161	
-0.195959	
-0.193664	
-0.193285	
-0.141397	
0.0395353	
-0.16191	
-0.167166	
-0.33926	
-0.347731	
-0.157103	
-0.0884766	
-0.274303	
-0.244343	
-0.243183	
-0.17268	
-0.203965	
-0.191347	
-0.21237	
0.0198965	
-0.285377	
-0.112607	
-0.177814	
-0.249359	
-0.196343	
-0.214655	
-0.241802	
-0.256178	
-0.339184	
-0.263398	
-0.264311	
-0.239596	
-0.238707	
-0.0283236	
-0.235268	
-0.224379	
-0.201825	
-0.104016	
-0.103789	
-0.130387	
-0.0154225	
-0.0314482	
-0.119518	
-0.0900853	
-0.126609	
-0.221115	
-0.104053	
-0.347763	
-0.339549	
-0.331584	
-0.0640567	
-0.295566	
-0.27854	
-0.277087	
-0.192368	
-0.242134	
-0.221721	
-0.238536	
-0.195433	
-0.15918	
-0.31666	
-0.321941	
-0.209577	
-0.203178	
-0.18926	
-0.18655	
-0.117978	
-0.258247	
-0.305692	
-0.318102	
-0.156975	
-0.141841	
-0.18155	
0.0100074	
-0.0247338	
-0.0933383	
-0.0790133	
-0.0248007	
-0.0461104	
-0.271277	
-0.284646	
-0.101608	
-0.0689197	
-0.0895815	
-0.0642181	
-0.08592	
-0.0698431	
-0.0895664	
-0.304845	
-0.309764	
-0.322623	
-0.335408	
-0.346787	
-0.0446701	
-0.114378	
-0.0603841	
-0.118788	
-0.156104	
-0.179	
-0.249713	
-0.201585	
-0.121074	
-0.155347	
-0.240649	
-0.228302	
-0.192164	
-0.15749	
-0.182271	
-0.0353855	
-0.0274596	
-0.0562533	
-0.0509637	
-0.134731	
-0.198345	
-0.120995	
-0.0893708	
-0.224806	
-0.192204	
-0.21632	
-0.196187	
-0.27268	
-0.249882	
-0.265614	
-0.250062	
-0.145823	
-0.310445	
-0.292099	
-0.318103	
-0.302855	
-0.142031	
-0.128478	
-0.177878	
-0.204439	
-0.104623	
-0.0675517	
-0.118127	
-0.0781796	
-0.19645	
-0.22074	
-0.0787915	
-0.0637859	
-0.0306129	
-0.269189	
-0.275222	
-0.253771	
-0.258217	
-0.0824644	
-0.0858073	
-0.232063	
-0.220382	
-0.160233	
-0.143044	
-0.176569	
-0.174139	
-0.153645	
-0.233362	
-0.207221	
-0.230135	
-0.215013	
-0.0223177	
0.00093197	
-0.32952	
-0.319942	
-0.116198	
-0.0981667	
-0.150202	
-0.13554	
-0.161941	
-0.148026	
-0.225725	
-0.249646	
-0.229227	
-0.28741	
-0.29629	
-0.280249	
-0.155795	
-0.167633	
-0.143189	
-0.110715	
-0.125017	
-0.0409351	
-0.0352558	
-0.0164901	
-0.034543	
-0.010334	
-0.0588955	
-0.0270391	
-0.0573291	
-0.058254	
-0.0488142	
-0.0262206	
-0.113564	
-0.0836159	
-0.123166	
-0.0931645	
-0.150603	
-0.0483499	
-0.0679368	
-0.028042	
-0.0559643	
-0.172455	
-0.133306	
-0.15583	
-0.131463	
-0.0352416	
-0.0718842	
-0.0650541	
-0.0855321	
-0.179473	
-0.204436	
-0.201247	
-0.224472	
-0.210545	
-0.213971	
-0.171213	
-0.168442	
-0.241275	
-0.255035	
-0.266623	
-0.268695	
-0.278955	
-0.291598	
-0.299311	
-0.302741	
-0.299516	
-0.303186	
-0.30988	
-0.319255	
-0.0290607	
-0.050825	
-0.0841695	
-0.302302	
-0.286643	
-0.311413	
-0.317372	
-0.31822	
-0.303716	
-0.306474	
-0.0319397	
-0.0152808	
-0.211531	
-0.21048	
-0.183154	
-0.341081	
-0.341311	
-0.161954	
-0.168371	
-0.13883	
-0.14225	
-0.342334	
-0.332818	
-0.336462	
-0.336528	
-0.33192	
-0.125872	
-0.225303	
-0.204587	
-0.230046	
-0.211973	
0.0416205	
0.031096	
-0.0735992	
-0.0158232	
-0.0378224	
-0.041016	
-0.0167688	
0.0391526	
0.0279695	
-0.10368	
-0.0680725	
-0.114829	
-0.0882563	
-0.136242	
-0.152222	
-0.175755	
-0.185006	
-0.199248	
-0.198672	
-0.238481	
-0.24219	
-0.0120988	
-0.00945147	
-0.335221	
-0.325017	
-0.0302586	
-0.00692384	
-0.0286946	
-0.00477844	
0.0336582	
-0.0253641	
-0.34013	
-0.259482	
-0.278756	
-0.286559	
-0.0377241	
0.00246639	
-0.2602	
-0.269512	
0.00931975	
-0.191642	
-0.191135	
-0.311171	
-0.297914	
-0.313221	
-0.328323	
-0.314438	
-0.331542	
-0.202986	
-0.223069	
-0.129692	
-0.127471	
-0.118279	
-0.290521	
-0.263999	
-0.257366	
-0.13254	
-0.141049	
-0.183662	
-0.166525	
-0.00630588	
0.039232	
0.00876103	
0.0244534	
-0.0274399	
0.0220085	
0.0439085	
-0.0148807	
-0.241937	
-0.250967	
-0.247519	
-0.33384	
-0.33495	
-0.327733	
0.0286255	
-0.327474	
-0.323171	
-0.136924	
-0.156718	
-0.151347	
0.0437186	
0.0290175	
-0.317175	
-0.314868	
-0.318693	
0.00827345	
0.0408781	
0.0363254	
0.0329688	
-0.186543	
-0.172251	
-0.20802	
-0.209876	
-0.333572	
-0.344412	
-0.337899	
0.029793	
0.0441809	
-0.00371536	
0.0371643	
-0.273007	
-0.266285	
-0.147594	
-0.146189	
0.0396328	
0.0325683	
0.0272837	
-0.321289	
-0.300127	
-0.3298	
-0.323172	
-0.267612	
-0.260163	
-0.284884	
-0.269889	
-0.159459	
-0.147886	
-0.319394	
-0.325062	
-0.262493	
-0.0282699	
-0.0319706	
-0.0648913	
-0.0670838	
0.0385412	
0.0447463	
-0.114777	
-0.105927	
-0.0748064	
-0.0579652	
-0.344661	
-0.335733	
-0.34418	
-0.335253	
-0.109234	
-0.097803	
-0.111418	
-0.0767535	
-0.0901889	
0.0254378	
0.0353079	
0.0206177	
-0.186137	
-0.200893	
-0.179215	
-0.202124	
0.0390825	
-0.114279	
-0.0987893	
-0.345223	
-0.344269	
-0.124695	
-0.104214	
6.76851e-05	
0.0039539	