<VTKFile type="UnstructuredGrid" version="0.1" byte_order="LittleEndian">
	<UnstructuredGrid>
		<Piece NumberOfPoints="1647" NumberOfCells="3046">
			<CellData Scalars="scalars">
				<DataArray type="Float64" Name="Doublet Strengths" NumberOfComponents="1" Format="ascii">
0.266463	
0.228733	
0.251386	
0.0546784	
0.0947271	
0.110197	
0.108961	
0.109332	
0.0559028	
0.0532553	
0.106103	
0.0975562	
0.0540186	
0.103866	
0.108722	
0.0846998	
0.215956	
0.106108	
0.257056	
0.19327	
0.212049	
0.135932	
0.185976	
0.209388	
0.168661	
0.185045	
0.142234	
0.172051	
0.119718	
0.207219	
0.21068	
0.161228	
0.208009	
0.232961	
0.121418	
0.20648	
0.210653	
0.149247	
0.168795	
0.148044	
0.160202	
0.172129	
0.169769	
0.193417	
0.197392	
0.166061	
0.210595	
0.138835	
0.136861	
0.150411	
0.224058	
0.214521	
0.204616	
0.198251	
0.202452	
0.193265	
0.222681	
0.154037	
0.169362	
0.170327	
0.166749	
0.135141	
0.0945356	
0.126144	
0.183731	
0.185828	
0.189988	
0.192882	
0.244132	
0.24664	
0.23817	
0.108943	
0.0503308	
0.180072	
0.182086	
0.18815	
0.192572	
0.174708	
0.162964	
0.165469	
0.15704	
0.182811	
0.175026	
0.182508	
0.179322	
0.185682	
0.184136	
0.191167	
0.163469	
0.15295	
0.101878	
0.115047	
0.121317	
0.205658	
0.215447	
0.210342	
0.218512	
0.113746	
0.122482	
0.15659	
0.223687	
0.226094	
0.237369	
0.195651	
0.183546	
0.185635	
0.14566	
0.207519	
0.104566	
0.117008	
0.124523	
0.134801	
0.132455	
0.141864	
0.127776	
0.127003	
0.24293	
0.253324	
0.213836	
0.227671	
0.207836	
0.0533964	
0.141894	
0.0889235	
0.0781334	
0.0840087	
0.176432	
0.192982	
0.091806	
0.0690597	
0.132358	
0.132979	
0.125791	
0.12651	
0.1023	
0.238195	
0.229607	
0.155771	
0.142102	
0.157811	
0.145159	
0.110327	
0.14289	
0.145154	
0.152192	
0.151106	
0.1127	
0.100473	
0.265809	
0.252758	
0.233884	
0.246332	
0.211384	
0.186169	
0.186735	
0.193243	
0.094552	
0.0766143	
0.250155	
0.178827	
0.168807	
0.176782	
0.165338	
0.174031	
0.160182	
0.179794	
0.18105	
0.173602	
0.0883524	
0.154637	
0.138716	
0.148968	
0.237537	
0.243919	
0.249667	
0.235528	
0.245338	
0.231028	
0.16329	
0.170694	
0.171859	
0.17559	
0.247859	
0.242	
0.235209	
0.200414	
0.183926	
0.0569968	
0.0723925	
0.0947882	
0.0956667	
0.0895741	
0.268505	
0.263428	
0.168425	
0.159033	
0.247063	
0.19651	
0.193383	
0.182365	
0.15468	
0.15554	
0.195929	
0.191352	
0.206235	
0.196346	
0.2311	
0.226046	
0.222082	
0.217095	
0.220342	
0.234289	
0.226927	
0.226737	
0.196072	
0.20447	
0.206737	
0.139209	
0.139315	
0.155547	
0.157297	
0.164626	
0.171061	
0.0998054	
0.105162	
0.0928976	
0.105306	
0.113188	
0.161594	
0.165102	
0.151391	
0.149001	
0.148258	
0.151203	
0.13338	
0.142504	
0.229962	
0.223937	
0.161367	
0.163082	
0.171091	
0.194215	
0.200044	
0.205784	
0.207081	
0.0861364	
0.0895218	
0.101705	
0.101484	
0.113291	
0.214659	
0.21673	
0.224371	
0.0908621	
0.100829	
0.148581	
0.15736	
0.147474	
0.161388	
0.203203	
0.207292	
0.214002	
0.218379	
0.180274	
0.184497	
0.193634	
0.198027	
0.232476	
0.238708	
0.241734	
0.24439	
0.140841	
0.105188	
0.237986	
0.229455	
0.238953	
0.198975	
0.185301	
0.188108	
0.109957	
0.146885	
0.145597	
0.233989	
0.234491	
0.202008	
0.192407	
0.189662	
0.203273	
0.193536	
0.198625	
0.192018	
0.19137	
0.178034	
0.182166	
0.239365	
0.248711	
0.233094	
0.229718	
0.239852	
0.233344	
0.266211	
0.170834	
0.184702	
0.166722	
0.179661	
0.196688	
0.203831	
0.191702	
0.121588	
0.171456	
0.178049	
0.163135	
0.165964	
0.0783478	
0.0845003	
0.0875109	
0.217533	
0.153963	
0.153432	
0.164664	
0.183014	
0.179718	
0.192688	
0.261006	
0.249887	
0.255365	
0.203381	
0.20397	
0.21013	
0.21403	
0.136274	
0.146441	
0.146902	
0.135791	
0.143774	
0.137706	
0.164435	
0.157492	
0.159968	
0.248486	
0.241742	
0.236766	
0.151895	
0.141404	
0.155792	
0.139101	
0.203279	
0.195797	
0.245897	
0.240435	
0.115192	
0.0695437	
0.0554738	
0.0786781	
0.0518355	
0.158519	
0.151258	
0.134329	
0.134149	
0.214158	
0.210915	
0.220858	
0.195908	
0.188781	
0.199743	
0.169833	
0.160429	
0.132307	
0.126219	
0.142006	
0.132703	
0.156378	
0.147796	
0.149933	
0.161181	
0.161312	
0.170183	
0.170462	
0.214364	
0.221617	
0.192836	
0.199757	
0.163771	
0.142828	
0.157893	
0.264657	
0.267262	
0.255606	
0.261383	
0.22911	
0.258863	
0.255744	
0.265391	
0.260812	
0.250862	
0.258148	
0.260628	
0.257678	
0.223082	
0.219553	
0.227831	
0.224117	
0.217384	
0.214922	
0.204778	
0.209351	
0.197345	
0.20187	
0.251213	
0.188239	
0.188128	
0.178601	
0.177164	
0.22205	
0.225069	
0.131841	
0.130248	
0.140034	
0.142497	
0.138214	
0.135552	
0.147062	
0.148939	
0.210486	
0.212061	
0.124245	
0.11348	
0.123927	
0.11786	
0.187551	
0.196926	
0.209414	
0.21936	
0.205137	
0.208935	
0.206686	
0.196481	
0.203423	
0.174482	
0.18238	
0.173751	
0.181457	
0.133155	
0.137989	
0.13317	
0.156015	
0.165624	
0.176006	
0.187032	
0.17549	
0.180514	
0.256793	
0.253038	
0.242225	
0.245818	
0.145235	
0.133748	
0.134101	
0.127813	
0.127985	
0.139346	
0.133182	
0.125601	
0.19776	
0.191116	
0.203986	
0.200994	
0.253383	
0.136235	
0.142502	
0.145965	
0.149868	
0.165291	
0.155792	
0.204577	
0.197212	
0.24229	
0.231387	
0.146811	
0.0660944	
0.163379	
0.148475	
0.187362	
0.1554	
0.181596	
0.173635	
0.115048	
0.127858	
0.156881	
0.212054	
0.216056	
0.219373	
0.221404	
0.118299	
0.162057	
0.159769	
0.101688	
0.117642	
0.120227	
0.127703	
0.107882	
0.120166	
0.122701	
0.131066	
0.131628	
0.24701	
0.253391	
0.252887	
0.256483	
0.223972	
0.213127	
0.215271	
0.0751635	
0.0805176	
0.0721758	
0.0693625	
0.2298	
0.230657	
0.220723	
0.224929	
0.22067	
0.219	
0.127569	
0.193349	
0.198295	
0.204576	
0.0594999	
0.0590857	
0.0712583	
0.0715372	
0.151793	
0.246211	
0.233117	
0.235423	
0.155397	
0.202879	
0.196417	
0.257325	
0.263291	
0.173656	
0.17458	
0.16047	
0.164524	
0.237112	
0.244103	
0.237379	
0.243589	
0.16771	
0.179086	
0.171792	
0.169598	
0.182031	
0.171121	
0.178553	
0.138462	
0.122254	
0.132763	
0.112174	
0.152356	
0.162621	
0.162763	
0.212187	
0.219109	
0.242812	
0.245017	
0.248981	
0.252308	
0.148372	
0.152048	
0.13939	
0.141599	
0.171285	
0.170483	
0.181387	
0.178738	
0.18235	
0.177298	
0.167668	
0.160583	
0.227514	
0.216315	
0.228046	
0.222248	
0.225933	
0.262063	
0.26908	
0.25521	
0.257819	
0.240145	
0.235229	
0.208703	
0.216824	
0.190714	
0.198447	
0.114008	
0.0970186	
0.11842	
0.107059	
0.170748	
0.177886	
0.26251	
0.256353	
0.262745	
0.257252	
0.250239	
0.261126	
0.252852	
0.245637	
0.250325	
0.244455	
0.23161	
0.230151	
0.222965	
0.151752	
0.139288	
0.141381	
0.128497	
0.100035	
0.0927557	
0.0808722	
0.0676261	
0.105989	
0.11816	
0.106171	
0.0965452	
0.0916233	
0.124641	
0.11689	
0.135173	
0.0516977	
0.0663414	
0.0825408	
0.123437	
0.113558	
0.120824	
0.122115	
0.110938	
0.115034	
0.13581	
0.220189	
0.220006	
0.232326	
0.23191	
0.0825484	
0.0651868	
0.119287	
0.11232	
0.126061	
0.116764	
0.122806	
0.115751	
0.127006	
0.111851	
0.123641	
0.205452	
0.202212	
0.19727	
0.116039	
0.110472	
0.110374	
0.107433	
0.0927196	
0.173873	
0.174688	
0.183523	
0.111053	
0.126135	
0.118193	
0.129815	
0.118649	
0.123167	
0.106009	
0.186698	
0.188545	
0.220861	
0.224012	
0.215419	
0.217092	
0.092016	
0.0863519	
0.103086	
0.0946542	
0.182129	
0.187177	
0.105844	
0.10166	
0.0597846	
0.0505075	
0.0765469	
0.0642976	
0.1233	
0.105739	
0.132268	
0.116221	
0.247983	
0.242346	
0.204789	
0.211126	
0.150636	
0.141093	
0.139171	
0.128984	
0.129138	
0.142237	
0.115896	
0.147906	
0.137338	
0.12542	
0.126876	
0.1385	
0.11161	
0.132828	
0.143797	
0.15078	
0.133834	
0.142065	
0.237374	
0.239423	
0.24416	
0.136388	
0.143106	
0.117072	
0.122698	
0.231888	
0.233741	
0.222092	
0.223525	
0.230272	
0.23714	
0.225185	
0.227019	
0.0973883	
0.102408	
0.0982694	
0.10308	
0.0332722	
0.0447645	
0.0390413	
0.0433575	
0.0463845	
-0.321566	
-0.313169	
0.042045	
0.0421901	
0.0450162	
0.0411391	
0.0365977	
-0.275389	
0.0449499	
-0.0849645	
-0.0902059	
-0.215043	
-0.121525	
0.0401908	
0.0389972	
-0.136448	
-0.0839766	
-0.159837	
-0.0747692	
-0.0789245	
0.0141901	
-0.0146005	
-0.2607	
-0.265761	
-0.220527	
-0.0980944	
-0.303501	
-0.254684	
-0.0839524	
-0.121756	
-0.0720142	
-0.226439	
-0.239632	
-0.257409	
-0.287509	
-0.303952	
-0.275951	
-0.01319	
-0.0407009	
-0.171065	
-0.219976	
-0.188654	
-0.214215	
-0.210222	
-0.229345	
-0.150392	
-0.167692	
-0.121287	
-0.257839	
-0.143954	
-0.10355	
-0.110245	
-0.121987	
-0.111713	
-0.107195	
-0.138375	
-0.10811	
-0.293219	
-0.253452	
-0.129678	
-0.173981	
-0.269607	
-0.0780994	
-0.208816	
-0.117908	
-0.0920095	
-0.161328	
-0.163778	
-0.268721	
-0.324261	
0.0252005	
0.0243092	
-0.0264977	
-0.199894	
-0.0591685	
-0.0688644	
-0.249205	
-0.227521	
-0.225005	
-0.260543	
-0.277832	
-0.178494	
-0.172607	
-0.267198	
-0.250353	
-0.239849	
-0.0450724	
-0.28058	
-0.0117386	
-0.0524163	
-0.0403453	
-0.0818267	
-0.218879	
-0.154604	
-0.171725	
-0.278032	
-0.109581	
-0.161489	
-0.19381	
-0.148434	
-0.158669	
-0.0684296	
-0.236559	
-0.261134	
-0.209003	
-0.242835	
-0.188704	
-0.207168	
-0.067625	
-0.0960476	
-0.23427	
-0.0339465	
-0.0493755	
-0.0764704	
-0.151004	
-0.26627	
-0.274926	
-0.287381	
-0.307535	
-0.213693	
-0.205673	
-0.281863	
-0.291922	
-0.159145	
0.0322349	
-0.00915039	
-0.317374	
-0.266918	
-0.181519	
-0.197306	
-0.195132	
0.0324589	
-0.00704456	
-0.299724	
-0.306279	
-0.304927	
0.0281959	
0.0388434	
-0.107377	
-0.137799	
-0.0581675	
-0.0661458	
-0.0490993	
0.0468079	
-0.234799	
-0.196722	
-0.174345	
-0.182175	
-0.13431	
-0.181096	
-0.131145	
-0.15717	
-0.140828	
-0.160166	
-0.315098	
-0.322511	
-0.122151	
-0.0796712	
-0.227498	
-0.241158	
-0.255851	
-0.1889	
-0.154266	
-0.196764	
-0.176753	
0.0233309	
-0.266878	
-0.0919596	
-0.10303	
-0.165709	
-0.234928	
-0.185469	
-0.202852	
-0.226263	
-0.241871	
-0.314541	
-0.225167	
-0.231499	
-0.235102	
-0.248426	
-0.0224081	
-0.219902	
-0.188327	
-0.209801	
-0.0949357	
-0.0950649	
-0.124652	
-0.120303	
-0.0134257	
-0.0285906	
-0.112736	
-0.091671	
-0.208965	
-0.10651	
-0.308839	
-0.315679	
-0.0519996	
-0.273327	
-0.265471	
-0.260395	
-0.184204	
-0.227332	
-0.186521	
-0.221949	
-0.180933	
-0.121778	
-0.301997	
-0.296776	
-0.167987	
-0.175629	
-0.19786	
-0.203092	
-0.0870962	
-0.109722	
-0.297069	
-0.285367	
-0.150157	
-0.170122	
0.0142609	
-0.0299685	
-0.0187005	
-0.0710383	
-0.0396264	
-0.0193757	
-0.253108	
-0.265692	
-0.32486	
-0.0951631	
-0.0833747	
-0.0634854	
-0.0645251	
-0.0836951	
-0.0514783	
-0.0802827	
-0.28526	
-0.3011	
-0.289639	
-0.322671	
-0.304144	
-0.0767075	
-0.108159	
-0.104012	
-0.143558	
-0.189658	
-0.235407	
-0.187631	
-0.118195	
-0.119311	
-0.134575	
-0.215753	
-0.227373	
-0.150864	
-0.16815	
-0.148834	
-0.166741	
-0.0187358	
-0.0312384	
-0.0465436	
-0.0592502	
-0.290727	
-0.198468	
-0.132178	
-0.0770819	
-0.112256	
-0.197617	
-0.211078	
-0.184041	
-0.203166	
-0.247822	
-0.256355	
-0.235237	
-0.249899	
-0.293855	
-0.28334	
-0.290184	
-0.276336	
-0.148451	
-0.105908	
-0.19353	
-0.18165	
-0.0718666	
-0.0970449	
-0.0716931	
-0.0984987	
-0.200212	
-0.207111	
-0.0574509	
-0.061092	
-0.0255271	
-0.237122	
-0.241452	
-0.251736	
-0.261907	
-0.0526298	
-0.0734866	
-0.217957	
-0.218249	
-0.134275	
-0.165744	
-0.130106	
-0.163588	
-0.232112	
-0.191518	
-0.217538	
0.00372986	
-0.0238499	
-0.296788	
-0.30552	
-0.0941876	
-0.111426	
-0.152177	
-0.138898	
-0.14077	
-0.126756	
-0.224984	
-0.204596	
-0.233013	
-0.268873	
-0.257206	
-0.276703	
-0.159162	
-0.143116	
-0.130998	
-0.0935568	
-0.100192	
-0.0372894	
-0.0316567	
-0.0270515	
-0.0101095	
-0.0242614	
-0.00601985	
-0.050799	
-0.0218123	
-0.0528462	
-0.0433921	
-0.0439727	
-0.113045	
-0.103828	
-0.0752103	
-0.139249	
-0.0237359	
-0.0507832	
-0.0218429	
-0.0622069	
-0.143343	
-0.120069	
-0.159041	
-0.146371	
-0.0311767	
-0.0287622	
-0.076534	
-0.0570638	
-0.205965	
-0.208653	
-0.165849	
-0.165448	
-0.16001	
-0.180906	
-0.180169	
-0.200795	
-0.248841	
-0.25082	
-0.23292	
-0.238024	
-0.272606	
-0.264381	
-0.282862	
-0.279512	
-0.283265	
-0.2799	
-0.295818	
-0.289561	
-0.0760495	
-0.0234746	
-0.0442407	
-0.27948	
-0.269293	
-0.29932	
-0.289447	
-0.298673	
-0.28589	
-0.286077	
-0.0105694	
-0.0263791	
-0.199809	
-0.189228	
-0.177937	
-0.315021	
-0.316861	
-0.317701	
-0.160244	
-0.140556	
-0.147474	
-0.132257	
-0.318798	
-0.312913	
-0.307029	
-0.313048	
-0.309911	
-0.130421	
-0.191208	
-0.211006	
-0.185367	
-0.215704	
0.0337028	
0.0434945	
-0.0653432	
-0.063628	
-0.0102801	
-0.0345023	
-0.0115187	
0.0312624	
0.0419476	
-0.0597501	
-0.113844	
-0.0566657	
-0.104199	
-0.130575	
-0.145716	
-0.175635	
-0.172554	
-0.187792	
-0.195064	
-0.22599	
-0.22943	
-0.00658151	
-0.00930227	
-0.312774	
-0.303364	
-0.0261619	
-0.00361095	
-0.263276	
-0.0215911	
0.0347778	
-0.245477	
-0.00387851	
-0.322669	
-0.27157	
-0.0217071	
-0.000228418	
0.0116434	
-0.183314	
-0.171241	
-0.283792	
-0.292366	
-0.29447	
-0.297142	
-0.306293	
-0.309113	
-0.192976	
-0.210379	
-0.122154	
-0.111295	
-0.120371	
-0.270215	
-0.228798	
-0.246844	
-0.249729	
-0.11586	
-0.14562	
-0.154818	
-0.173369	
-0.00562558	
0.012834	
0.0410374	
-0.0314066	
0.0273116	
0.0452339	
0.0247488	
-0.0106331	
-0.282064	
-0.311506	
-0.305315	
-0.311671	
0.0329529	
-0.305416	
-0.301696	
-0.14629	
-0.127385	
-0.141026	
0.0296692	
0.0424786	
-0.294172	
-0.296429	
-0.293291	
-0.256943	
0.0108801	
-0.262863	
-0.253958	
-0.24576	
0.0377955	
0.0418609	
0.0445949	
-0.195451	
-0.181306	
-0.174877	
-0.157464	
-0.311255	
-0.313104	
-0.31546	
0.0450631	
0.0319354	
0.0388148	
0.00547105	
-0.282508	
-0.280748	
-0.275448	
-0.138328	
-0.139484	
0.0443386	
0.0295943	
-0.308873	
-0.301252	
-0.299411	
-0.150353	
-0.1394	
-0.297894	
-0.303516	
-0.245802	
-0.0259873	
-0.0224185	
-0.059437	
-0.0573286	
0.0462364	
0.0402328	
-0.068195	
-0.0781022	
-0.0962874	
-0.0979498	
-0.32104	
-0.321194	
-0.312885	
-0.320935	
-0.100717	
-0.0733598	
-0.0881925	
-0.0936812	
-0.113748	
0.0376501	
0.0284291	
0.0241341	
-0.183184	
-0.193681	
-0.16773	
-0.191254	
0.0406209	
-0.105941	
-0.10567	
-0.0908253	
-0.317445	
-0.323409	
-0.250738	
-0.260186	
-0.0957472	
-0.115308	
-0.270543	
-0.260024	
0.00172504	
0.00587993	
-0.241067	
-0.264523	
-0.254836	
-0.193508	
-0.213712	
-0.182652	
-0.197868	
-0.0357834	
-0.0847455	
-0.0444508	
-0.0378864	
-0.0844523	
-0.0674709	
-0.318143	
-0.322325	
-0.318604	
-0.322059	
-0.0310176	
-0.0382887	
0.0263194	
-0.240526	
-0.221704	
-0.289542	
-0.282595	
-0.155718	
-0.151066	
-0.112664	
-0.096965	
-0.305597	
-0.298413	
-0.316012	
-0.312727	
-0.305899	
-0.298198	
-0.15733	
-0.160775	
-0.134668	
-0.138472	
-0.24229	
-0.257353	
-0.176252	
-0.190147	
-0.20925	
-0.210867	
-0.314348	
-0.315885	
-0.317157	
-0.316313	
-0.271559	
-0.28433	
-0.294171	
-0.288007	
-0.295617	
-0.253145	
-0.242364	
-0.261975	
-0.270865	
-0.0263983	
0.0160896	
0.0391436	
-0.274372	
-0.271109	
-0.0792322	
-0.0633272	
-0.110802	
-0.20473	
-0.221335	
-0.204487	
-0.23766	
-0.234465	
-0.242459	
-0.245724	
-0.250892	
-0.320334	
-0.316043	
-0.314636	
-0.307751	
-0.279291	
-0.26177	
-0.273582	
-0.297714	
0.0207501	
-0.0375772	
0.0347963	
0.011666	
-0.211663	
-0.236599	
-0.232714	
-0.209749	
-0.224766	
-0.020959	
0.0346311	
0.0316642	
-0.0171986	
0.0425241	
0.0240333	
-0.268623	
-0.275443	
-0.274476	
-0.283969	
0.0364843	
0.014565	
-0.220032	
-0.249617	
-0.228077	
-0.254407	
-0.244648	
-0.250861	
-0.262474	
-0.238552	
-0.232421	
-0.24795	
-0.113766	
-0.119499	
-0.132603	
-0.144759	
-0.30827	
-0.308025	
-0.310175	
-0.220055	
-0.209068	
-0.298428	
-0.294284	
-0.283223	
-0.284764	
-0.20026	
-0.217593	
-0.211765	
-0.227933	
-0.0909966	
-0.114564	
-0.292568	
-0.294827	
-0.313001	
-0.317275	
-0.0498289	
-0.0630752	
-0.0693765	
-0.0783336	
-0.227427	
-0.215491	
-0.211074	
-0.205895	
-0.115476	
-0.138465	
-0.147377	
-0.165432	
-0.268452	
-0.280502	
-0.280552	
-0.290473	
-0.150545	
-0.142567	
-0.185779	
-0.178159	
-0.233924	
-0.224284	
-0.0577757	
-0.0357282	
-0.0818362	
-0.0671541	
-0.262494	
-0.259106	
-0.321313	
-0.319406	
-0.321593	
-0.323686	
-0.303209	
-0.302232	
-0.135928	
-0.149814	
-0.177393	
-0.187011	
-0.0207211	
-0.00868691	
0.0351093	
0.0325677	
-0.185549	
-0.15176	
-0.175508	
-0.139696	
-0.0107171	
-0.00442873	
-0.00746552	
-0.000785685	
0.00231337	
0.0139683	
0.0201806	
0.0226529	
0.0166975	
-0.00918443	
-0.000792429	
0.00744845	
0.00316534	
0.00952887	
0.0184644	
0.0227733	
0.00989326	
0.0142115	
0.00621244	
-0.00498634	
0.00427591	
-0.0104451	
-0.014303	
-0.00345317	
-0.0220072	
-0.0220672	
-0.0163995	
-0.0232595	
-0.0197522	
0.0146113	
0.0124671	
-0.000962167	
0.00520355	
-0.00599952	
-0.0176283	
-0.0168445	
-0.0160546	
-0.0139992	
-0.00956767	
0.0179025	
0.262091	
0.229688	
0.251425	
0.0545016	
0.10031	
0.0569892	
0.193058	
0.11014	
0.108283	
0.108852	
0.109452	
0.0799567	
0.0526385	
0.106282	
0.0975354	
0.0931829	
0.0540434	
0.103978	
0.0858465	
0.21772	
0.20229	
0.139299	
0.186234	
0.208954	
0.168915	
0.185419	
0.142063	
0.119982	
0.211583	
0.206127	
0.161469	
0.207577	
0.233123	
0.125205	
0.120643	
0.206754	
0.211433	
0.156608	
0.168846	
0.148602	
0.159869	
0.172435	
0.170145	
0.197755	
0.197147	
0.160695	
0.211266	
0.139073	
0.13722	
0.140967	
0.214049	
0.198697	
0.205159	
0.193679	
0.196331	
0.222598	
0.169951	
0.171071	
0.167463	
0.135428	
0.094127	
0.126151	
0.196572	
0.192769	
0.183695	
0.181449	
0.237586	
0.24338	
0.250275	
0.108122	
0.0591481	
0.189069	
0.188817	
0.180916	
0.177938	
0.165318	
0.156887	
0.17506	
0.173864	
0.175185	
0.186897	
0.182712	
0.18455	
0.191882	
0.179678	
0.180877	
0.162414	
0.151663	
0.116323	
0.10364	
0.121149	
0.108562	
0.209904	
0.219845	
0.205351	
0.208649	
0.122382	
0.113692	
0.156989	
0.223786	
0.231032	
0.18331	
0.186475	
0.146631	
0.186899	
0.202275	
0.117109	
0.104546	
0.128317	
0.12545	
0.150217	
0.132766	
0.128205	
0.135812	
0.240648	
0.253559	
0.227226	
0.213413	
0.208197	
0.0660764	
0.0533563	
0.11376	
0.141816	
0.0782808	
0.089882	
0.188325	
0.176537	
0.0900658	
0.0684127	
0.126082	
0.126729	
0.132689	
0.13323	
0.101797	
0.236911	
0.229971	
0.158112	
0.140201	
0.156005	
0.149213	
0.122493	
0.152552	
0.151449	
0.146737	
0.14541	
0.0937962	
0.264598	
0.251573	
0.234913	
0.245625	
0.209554	
0.195388	
0.186309	
0.182964	
0.10493	
0.0945638	
0.164816	
0.178603	
0.165241	
0.179605	
0.160206	
0.166188	
0.179311	
0.162852	
0.180856	
0.0921921	
0.148084	
0.153493	
0.147553	
0.242526	
0.23656	
0.236765	
0.231053	
0.235539	
0.242379	
0.172038	
0.1758	
0.163956	
0.170923	
0.24719	
0.234482	
0.240226	
0.192866	
0.185249	
0.197034	
0.0599035	
0.0953222	
0.084589	
0.095826	
0.265162	
0.261714	
0.16852	
0.159006	
0.246691	
0.194141	
0.194487	
0.187611	
0.147508	
0.154719	
0.191731	
0.202979	
0.197109	
0.204053	
0.225566	
0.22946	
0.219054	
0.221981	
0.218041	
0.226303	
0.231854	
0.204074	
0.191084	
0.206346	
0.139771	
0.13449	
0.157556	
0.156016	
0.166612	
0.164712	
0.105378	
0.0885192	
0.105508	
0.0930686	
0.113048	
0.168538	
0.161386	
0.155044	
0.15121	
0.15123	
0.138422	
0.142454	
0.133289	
0.229777	
0.22407	
0.171591	
0.166071	
0.163566	
0.205625	
0.20707	
0.196726	
0.200115	
0.0902351	
0.0862817	
0.258882	
0.101685	
0.101884	
0.113515	
0.225883	
0.220717	
0.219063	
0.0991002	
0.0899539	
0.157423	
0.148625	
0.161441	
0.155582	
0.215553	
0.216414	
0.206995	
0.208412	
0.193347	
0.193197	
0.184461	
0.184259	
0.241021	
0.243041	
0.23361	
0.237682	
0.140886	
0.233132	
0.237172	
0.230866	
0.19887	
0.188092	
0.18126	
0.114551	
0.147255	
0.146029	
0.236099	
0.233908	
0.203199	
0.190782	
0.193958	
0.199811	
0.204626	
0.197436	
0.181943	
0.191707	
0.195745	
0.238831	
0.24615	
0.239713	
0.233355	
0.239029	
0.22962	
0.180048	
0.170604	
0.179455	
0.170987	
0.203449	
0.196357	
0.191402	
0.121656	
0.178993	
0.174189	
0.162402	
0.0784708	
0.0766274	
0.0876538	
0.0897232	
0.213183	
0.153749	
0.154214	
0.165031	
0.176622	
0.182792	
0.192464	
0.21012	
0.210955	
0.203525	
0.204223	
0.136332	
0.143132	
0.142799	
0.147198	
0.134382	
0.14405	
0.160013	
0.16436	
0.157402	
0.241549	
0.237963	
0.248343	
0.141251	
0.151567	
0.137731	
0.148222	
0.182127	
0.195456	
0.202908	
0.114977	
0.240283	
0.245567	
0.054632	
0.0684873	
0.0788221	
0.0519263	
0.158726	
0.147412	
0.163494	
0.134821	
0.139758	
0.214383	
0.220892	
0.214046	
0.189924	
0.199936	
0.192745	
0.169814	
0.160229	
0.126326	
0.132341	
0.132842	
0.142327	
0.142128	
0.16146	
0.14792	
0.156502	
0.161267	
0.170595	
0.17459	
0.221523	
0.214353	
0.199474	
0.192578	
0.158065	
0.1432	
0.261882	
0.231226	
0.2545	
0.25789	
0.248619	
0.263024	
0.250858	
0.262289	
0.258719	
0.261269	
0.256996	
0.219792	
0.223144	
0.22429	
0.227944	
0.21119	
0.21389	
0.216234	
0.218828	
0.195206	
0.2013	
0.203203	
0.205841	
0.247676	
0.194811	
0.189643	
0.183866	
0.180237	
0.259136	
0.224403	
0.228106	
0.130378	
0.131947	
0.136019	
0.14538	
0.13629	
0.139105	
0.142336	
0.151535	
0.213536	
0.224034	
0.212808	
0.118487	
0.124365	
0.117966	
0.124085	
0.194182	
0.187544	
0.216859	
0.209216	
0.215178	
0.204892	
0.206759	
0.193358	
0.203276	
0.196452	
0.182481	
0.17027	
0.185833	
0.173812	
0.137447	
0.132785	
0.161812	
0.156382	
0.182871	
0.176417	
0.186038	
0.175962	
0.246103	
0.245577	
0.253544	
0.145264	
0.142527	
0.137952	
0.133829	
0.128197	
0.127946	
0.132989	
0.135868	
0.125996	
0.121623	
0.205647	
0.190229	
0.202301	
0.198563	
0.24827	
0.248039	
0.129787	
0.135928	
0.149769	
0.145646	
0.166102	
0.1499	
0.14651	
0.16416	
0.188239	
0.152713	
0.139402	
0.116981	
0.174473	
0.182494	
0.120147	
0.127454	
0.224477	
0.221587	
0.218095	
0.213389	
0.162705	
0.160313	
0.105678	
0.118393	
0.131406	
0.129976	
0.118296	
0.113021	
0.112622	
0.12158	
0.121561	
0.084141	
0.107797	
0.127306	
0.251808	
0.241016	
0.255255	
0.25167	
0.217681	
0.22426	
0.215793	
0.221066	
0.224738	
0.225505	
0.229842	
0.132378	
0.20491	
0.193565	
0.198606	
0.152298	
0.242815	
0.231421	
0.246079	
0.217695	
0.21812	
0.2408	
0.234131	
0.245554	
0.155847	
0.0712749	
0.0716176	
0.059471	
0.0503617	
0.196566	
0.203084	
0.261319	
0.255805	
0.0751244	
0.0721772	
0.0805067	
0.0693886	
0.110307	
0.16589	
0.175525	
0.175921	
0.16775	
0.171823	
0.179103	
0.172157	
0.179768	
0.170764	
0.178502	
0.120912	
0.131434	
0.11267	
0.131231	
0.162575	
0.151522	
0.162551	
0.21913	
0.212227	
0.252294	
0.251122	
0.241828	
0.244216	
0.155972	
0.148287	
0.141882	
0.139401	
0.185102	
0.178548	
0.171173	
0.170338	
0.167672	
0.166016	
0.177854	
0.177122	
0.223407	
0.251453	
0.247866	
0.253355	
0.235008	
0.239861	
0.258133	
0.259122	
0.216121	
0.210302	
0.198694	
0.191707	
0.225202	
0.229719	
0.206132	
0.215324	
0.202469	
0.208808	
0.113545	
0.107065	
0.114014	
0.0970653	
0.182137	
0.170775	
0.257333	
0.25079	
0.245783	
0.244575	
0.250329	
0.256239	
0.2661	
0.256206	
0.262044	
0.219799	
0.229702	
0.222589	
0.231225	
0.223553	
0.111715	
0.0675954	
0.0560983	
0.176085	
0.167489	
0.139028	
0.152374	
0.128495	
0.141506	
0.127652	
0.116355	
0.123486	
0.105964	
0.253081	
0.257284	
0.117968	
0.105866	
0.106028	
0.0909474	
0.096732	
0.124787	
0.117008	
0.108095	
0.103239	
0.113541	
0.0663014	
0.0825361	
0.0516643	
0.124682	
0.120574	
0.122204	
0.112822	
0.10886	
0.0965954	
0.110567	
0.11516	
0.232555	
0.151117	
0.144708	
0.142371	
0.134939	
0.231415	
0.225413	
0.226299	
0.219386	
0.0824666	
0.0650559	
0.126374	
0.119562	
0.112561	
0.100417	
0.100214	
0.115958	
0.110119	
0.135167	
0.184363	
0.174555	
0.175452	
0.126462	
0.118412	
0.111288	
0.233423	
0.123237	
0.106074	
0.133212	
0.118626	
0.214875	
0.216563	
0.220393	
0.225449	
0.0864757	
0.100002	
0.0947991	
0.103281	
0.18268	
0.187883	
0.0766588	
0.0643681	
0.0725263	
0.0505959	
0.223696	
0.225936	
0.230458	
0.234866	
0.121214	
0.124937	
0.13348	
0.137055	
0.241987	
0.251429	
0.242627	
0.248348	
0.215133	
0.206427	
0.253227	
0.260797	
0.25451	
0.259856	
0.266246	
0.150204	
0.150013	
0.128766	
0.11452	
0.100319	
0.0999176	
0.128224	
0.12564	
0.147068	
0.136172	
0.141314	
0.128038	
0.162889	
0.158653	
0.139931	
0.149449	
0.138368	
0.127027	
0.125315	
0.237509	
0.241201	
0.230883	
0.232264	
0.156375	
0.145688	
0.137375	
0.112614	
0.140864	
0.129763	
0.0423178	
0.0446685	
0.0282757	
0.0434332	
0.0464013	
-0.32155	
-0.312853	
0.0448276	
0.0330715	
0.0365946	
-0.0507423	
-0.274598	
0.0453163	
0.0447862	
-0.0848321	
-0.0898538	
-0.214993	
0.0466858	
-0.096602	
0.0402587	
0.0389831	
-0.316107	
-0.13628	
-0.0922873	
-0.159627	
-0.0566186	
-0.0746837	
0.0143003	
-0.0145161	
-0.265352	
-0.263939	
-0.220249	
-0.0979944	
-0.295238	
-0.253958	
-0.0840803	
-0.121603	
-0.0720614	
-0.240695	
-0.239215	
-0.257464	
-0.287251	
-0.303756	
-0.275786	
-0.0132081	
-0.0407245	
-0.173373	
-0.219918	
-0.232641	
-0.22893	
-0.193546	
-0.197587	
-0.150667	
-0.147286	
-0.115358	
-0.257672	
-0.130344	
-0.098708	
-0.103741	
-0.122212	
-0.111613	
-0.138223	
-0.107127	
-0.108345	
-0.293115	
-0.250486	
-0.128696	
-0.167561	
-0.269291	
-0.0781624	
-0.209032	
-0.117751	
-0.09186	
-0.157661	
-0.164183	
-0.279814	
-0.322035	
0.0389322	
0.0252419	
-0.0264356	
-0.199971	
-0.0689421	
-0.0592282	
-0.227939	
-0.249551	
-0.225022	
-0.277577	
-0.260288	
-0.168306	
-0.172981	
-0.250031	
-0.267027	
-0.239564	
-0.0450004	
-0.278264	
-0.0242227	
-0.0170599	
-0.0771748	
-0.0672295	
-0.218515	
-0.139848	
-0.171979	
-0.277185	
-0.109669	
-0.148243	
-0.177926	
-0.161274	
-0.188387	
-0.0699221	
-0.261129	
-0.236776	
-0.242799	
-0.208931	
-0.196271	
-0.208444	
-0.0960056	
-0.235352	
-0.0341666	
-0.0764085	
-0.135882	
-0.275483	
-0.266587	
-0.286564	
-0.306746	
-0.204325	
-0.205412	
-0.291861	
-0.281551	
-0.158788	
0.0321485	
-0.0091736	
-0.283503	
-0.283092	
-0.317728	
-0.269076	
-0.181797	
-0.181537	
0.0312662	
-0.0070413	
-0.298397	
-0.30568	
-0.304438	
0.0244258	
0.0391589	
-0.107138	
-0.137554	
-0.0592847	
-0.0495719	
-0.0672619	
-0.234339	
-0.196497	
-0.151598	
-0.182011	
-0.181216	
-0.18101	
-0.131232	
0.0411602	
-0.154443	
-0.159024	
-0.31425	
-0.321023	
-0.145608	
-0.07954	
-0.255372	
-0.227227	
-0.226063	
-0.158973	
-0.188709	
-0.176711	
-0.196634	
0.0233196	
-0.266765	
-0.102968	
-0.165742	
-0.236313	
-0.185978	
-0.203423	
-0.229214	
-0.242082	
-0.315297	
-0.247871	
-0.248591	
-0.22537	
-0.224465	
-0.0220961	
-0.219905	
-0.209778	
-0.188312	
-0.0950972	
-0.0949831	
-0.120335	
-0.0135163	
-0.0289175	
-0.113212	
-0.0850859	
-0.120228	
-0.209404	
-0.096495	
-0.322208	
-0.315872	
-0.308934	
-0.0578788	
-0.276225	
-0.261755	
-0.260454	
-0.182702	
-0.22919	
-0.205685	
-0.221542	
-0.180728	
-0.146233	
-0.296362	
-0.300794	
-0.19824	
-0.191784	
-0.178851	
-0.175907	
-0.112662	
-0.243998	
-0.284699	
-0.296014	
-0.150024	
-0.132347	
-0.170307	
0.0143119	
-0.0186641	
-0.084745	
-0.0709984	
-0.0193406	
-0.0395773	
-0.252273	
-0.264709	
-0.0953673	
-0.0636404	
-0.0835331	
-0.0595621	
-0.0805926	
-0.0646951	
-0.0839059	
-0.283464	
-0.287831	
-0.299523	
-0.311017	
-0.320686	
-0.0374968	
-0.103887	
-0.0525633	
-0.108032	
-0.143432	
-0.165256	
-0.236275	
-0.187549	
-0.115349	
-0.147772	
-0.22821	
-0.216721	
-0.182175	
-0.149153	
-0.173119	
-0.0313938	
-0.0240372	
-0.0516604	
-0.0468811	
-0.12472	
-0.18538	
-0.112407	
-0.0819294	
-0.211354	
-0.180337	
-0.203385	
-0.184241	
-0.256643	
-0.235188	
-0.250209	
-0.235478	
-0.134173	
-0.289942	
-0.273188	
-0.297003	
-0.283184	
-0.132832	
-0.119673	
-0.168542	
-0.194044	
-0.0972803	
-0.061606	
-0.110478	
-0.0719665	
-0.186809	
-0.209219	
-0.072329	
-0.0578573	
-0.0259441	
-0.251292	
-0.256857	
-0.236738	
-0.240893	
-0.0734033	
-0.076615	
-0.219968	
-0.209437	
-0.151229	
-0.134539	
-0.16603	
-0.16387	
-0.144221	
-0.220438	
-0.195426	
-0.217614	
-0.203242	
-0.0188913	
0.00360274	
-0.305571	
-0.296866	
-0.111254	
-0.0940214	
-0.141041	
-0.127007	
-0.152478	
-0.139174	
-0.209943	
-0.23276	
-0.213416	
-0.268209	
-0.276506	
-0.261591	
-0.142986	
-0.154189	
-0.130966	
-0.10014	
-0.11376	
-0.0378107	
-0.0320629	
-0.0125067	
-0.0298818	
-0.00598877	
-0.052477	
-0.021848	
-0.0508649	
-0.0528517	
-0.0441167	
-0.0221331	
-0.103728	
-0.0751112	
-0.112956	
-0.0843834	
-0.139176	
-0.0435535	
-0.0623691	
-0.0238261	
-0.0507224	
-0.158884	
-0.121669	
-0.143244	
-0.119955	
-0.0287426	
-0.0635395	
-0.057	
-0.0764443	
-0.165709	
-0.189402	
-0.186299	
-0.208337	
-0.197795	
-0.200942	
-0.160145	
-0.157281	
-0.224685	
-0.237778	
-0.248578	
-0.250622	
-0.260085	
-0.271931	
-0.278893	
-0.282133	
-0.279392	
-0.282799	
-0.288776	
-0.297326	
-0.0234671	
-0.0442499	
-0.0760653	
-0.283601	
-0.269421	
-0.291934	
-0.297144	
-0.297813	
-0.28566	
-0.287718	
-0.0264192	
-0.0106032	
-0.200966	
-0.200141	
-0.174461	
-0.316482	
-0.317152	
-0.154441	
-0.160399	
-0.132234	
-0.135294	
-0.317044	
-0.310061	
-0.313117	
-0.313199	
-0.309703	
-0.115862	
-0.210951	
-0.191198	
-0.215611	
-0.198472	
0.0434211	
0.0337024	
-0.065208	
-0.0103982	
-0.0311746	
-0.0343145	
-0.0113461	
0.0413316	
0.0311169	
-0.0934994	
-0.0597098	
-0.104094	
-0.0788304	
-0.130201	
-0.145404	
-0.16707	
-0.17604	
-0.189274	
-0.189008	
-0.225821	
-0.229183	
-0.00949248	
-0.00674119	
-0.311354	
-0.302213	
-0.0262951	
-0.00373082	
-0.0243159	
-0.00133624	
0.034746	
-0.0207893	
-0.315584	
-0.245614	
-0.263177	
-0.270384	
-0.0312424	
0.00537634	
-0.246377	
-0.25493	
0.0115367	
-0.182561	
-0.182082	
-0.291633	
-0.279747	
-0.293565	
-0.306181	
-0.293769	
-0.308967	
-0.19316	
-0.211942	
-0.12237	
-0.120628	
-0.111507	
-0.273775	
-0.246922	
-0.240545	
-0.122137	
-0.130438	
-0.171059	
-0.154834	
-0.00284664	
0.0413238	
0.0129966	
0.0277678	
-0.0215006	
0.0248672	
0.0453126	
-0.010622	
-0.229196	
-0.237743	
-0.23446	
-0.310564	
-0.311662	
-0.305319	
0.0309568	
-0.304653	
-0.300649	
-0.127535	
-0.146446	
-0.14116	
0.0449672	
0.0311621	
-0.295341	
-0.293239	
-0.298178	
0.0107702	
0.0418219	
0.0377138	
0.0351474	
-0.175079	
-0.16155	
-0.195655	
-0.197566	
-0.309983	
-0.319237	
-0.31379	
0.0318623	
0.0453372	
-0.000478673	
0.0388199	
-0.257688	
-0.251659	
-0.139766	
-0.138628	
0.041235	
0.0346402	
0.0304003	
-0.298606	
-0.279479	
-0.306313	
-0.300489	
-0.253069	
-0.246227	
-0.268894	
-0.255291	
-0.150674	
-0.139663	
-0.297677	
-0.302683	
-0.245803	
-0.0223109	
-0.0258924	
-0.0571868	
-0.05933	
0.0399978	
0.045819	
-0.10672	
-0.0981866	
-0.0683681	
-0.0521167	
-0.31917	
-0.311934	
-0.31905	
-0.311582	
-0.100838	
-0.093531	
-0.106278	
-0.0733912	
-0.0860876	
0.0284177	
0.0376191	
0.0243477	
-0.177388	
-0.191239	
-0.170879	
-0.192424	
0.0412685	
-0.108671	
-0.0937935	
-0.319869	
-0.318405	
-0.115414	
-0.0958508	