<VTKFile type="UnstructuredGrid" version="0.1" byte_order="LittleEndian">
	<UnstructuredGrid>
		<Piece NumberOfPoints="1647" NumberOfCells="3046">
			<CellData Scalars="scalars">
				<DataArray type="Float64" Name="Doublet Strengths" NumberOfComponents="1" Format="ascii">
0.290406	
0.247458	
0.273537	
0.0581102	
0.0970605	
0.114213	
0.112516	
0.113074	
0.0596962	
0.0569351	
0.109267	
0.100015	
0.0549766	
0.106881	
0.112283	
0.086483	
0.231044	
0.109515	
0.278262	
0.20616	
0.226268	
0.14331	
0.197879	
0.225178	
0.17893	
0.198184	
0.14965	
0.183034	
0.126108	
0.221538	
0.225576	
0.170673	
0.223818	
0.250881	
0.127066	
0.222309	
0.225161	
0.158165	
0.179154	
0.156759	
0.170208	
0.182651	
0.180029	
0.207263	
0.211635	
0.176927	
0.225169	
0.146526	
0.144576	
0.159289	
0.242281	
0.231055	
0.218433	
0.2114	
0.215977	
0.205874	
0.239618	
0.164212	
0.179559	
0.180682	
0.176909	
0.143244	
0.100262	
0.131704	
0.195682	
0.197875	
0.20266	
0.205691	
0.264699	
0.267605	
0.257967	
0.113477	
0.0522792	
0.191907	
0.193992	
0.200928	
0.20575	
0.186566	
0.173375	
0.17616	
0.166677	
0.194432	
0.185873	
0.194157	
0.190525	
0.197457	
0.19582	
0.203517	
0.173432	
0.161662	
0.104716	
0.118818	
0.125775	
0.220924	
0.231768	
0.226175	
0.235247	
0.117696	
0.12708	
0.165673	
0.240603	
0.244042	
0.256858	
0.208469	
0.19647	
0.198333	
0.153823	
0.223648	
0.10763	
0.12094	
0.129807	
0.141373	
0.138659	
0.149254	
0.133473	
0.132538	
0.261166	
0.273006	
0.230466	
0.246025	
0.223862	
0.0549894	
0.149417	
0.0910009	
0.0796434	
0.0860521	
0.188871	
0.207387	
0.0977259	
0.073398	
0.139673	
0.140243	
0.132594	
0.133253	
0.105103	
0.256777	
0.246798	
0.164665	
0.149562	
0.166948	
0.153046	
0.114084	
0.150762	
0.15326	
0.160859	
0.159711	
0.120009	
0.107012	
0.28963	
0.275067	
0.253386	
0.267659	
0.227972	
0.198148	
0.198725	
0.205944	
0.0999002	
0.0793303	
0.271195	
0.191025	
0.179869	
0.18864	
0.175836	
0.185423	
0.169978	
0.192399	
0.193759	
0.185384	
0.0927152	
0.163643	
0.145717	
0.157253	
0.257064	
0.26445	
0.270898	
0.253896	
0.265147	
0.248906	
0.172957	
0.181096	
0.182381	
0.186481	
0.266771	
0.260327	
0.25299	
0.213569	
0.195743	
0.0601092	
0.0759673	
0.0983253	
0.0997177	
0.0933545	
0.292208	
0.286902	
0.179843	
0.16921	
0.266149	
0.209388	
0.205962	
0.193782	
0.163549	
0.164498	
0.208769	
0.203711	
0.220253	
0.209265	
0.249336	
0.243659	
0.239026	
0.233496	
0.237279	
0.253262	
0.244684	
0.244896	
0.2105	
0.219925	
0.222512	
0.147454	
0.147383	
0.16509	
0.167067	
0.175364	
0.182544	
0.105054	
0.110633	
0.0973423	
0.110422	
0.117358	
0.17171	
0.17578	
0.160183	
0.157531	
0.156534	
0.159872	
0.139752	
0.150053	
0.247279	
0.240538	
0.17082	
0.17271	
0.18145	
0.207983	
0.214409	
0.220895	
0.222256	
0.0889791	
0.0924446	
0.106309	
0.1065	
0.119033	
0.229376	
0.231617	
0.239827	
0.0965096	
0.107224	
0.15675	
0.166507	
0.155516	
0.170969	
0.216878	
0.221318	
0.228765	
0.233517	
0.192725	
0.197371	
0.207597	
0.212434	
0.251113	
0.258129	
0.261743	
0.264639	
0.148025	
0.109857	
0.257252	
0.247394	
0.2581	
0.213877	
0.198515	
0.201665	
0.114461	
0.155254	
0.15395	
0.25335	
0.253893	
0.217331	
0.206458	
0.203391	
0.216874	
0.206108	
0.211745	
0.205945	
0.205267	
0.190358	
0.195005	
0.259382	
0.270017	
0.251492	
0.247594	
0.259	
0.251619	
0.289703	
0.182227	
0.197685	
0.177669	
0.19212	
0.211037	
0.219017	
0.205528	
0.127129	
0.182407	
0.189833	
0.173165	
0.176388	
0.0818806	
0.0876701	
0.0914493	
0.233059	
0.16277	
0.162185	
0.174411	
0.195624	
0.191853	
0.206362	
0.283934	
0.271222	
0.277612	
0.217959	
0.218508	
0.225451	
0.229695	
0.143541	
0.154607	
0.155108	
0.142779	
0.151685	
0.145069	
0.174492	
0.166715	
0.169453	
0.268038	
0.26057	
0.255059	
0.1609	
0.148922	
0.165276	
0.146325	
0.218467	
0.210125	
0.267228	
0.260998	
0.119568	
0.0741348	
0.0591657	
0.0824644	
0.0541782	
0.167681	
0.159678	
0.142146	
0.141764	
0.229629	
0.226145	
0.237279	
0.209208	
0.201425	
0.213737	
0.181308	
0.170611	
0.138455	
0.131658	
0.149404	
0.13893	
0.165395	
0.155851	
0.158221	
0.170713	
0.170825	
0.180607	
0.180874	
0.23111	
0.239228	
0.206927	
0.214723	
0.173498	
0.150322	
0.167041	
0.287475	
0.290417	
0.277674	
0.28428	
0.244995	
0.281133	
0.27765	
0.288203	
0.283307	
0.270956	
0.27933	
0.282428	
0.279504	
0.239738	
0.235694	
0.245029	
0.240782	
0.233009	
0.230122	
0.218942	
0.224221	
0.210714	
0.215948	
0.272199	
0.200754	
0.200849	
0.190547	
0.188927	
0.237143	
0.240144	
0.138192	
0.136506	
0.147321	
0.150229	
0.145179	
0.142223	
0.155039	
0.157119	
0.224289	
0.22634	
0.129833	
0.117709	
0.129568	
0.122677	
0.200554	
0.211052	
0.22498	
0.236095	
0.220295	
0.224527	
0.220831	
0.209584	
0.217264	
0.185305	
0.194003	
0.184576	
0.193099	
0.139467	
0.144786	
0.139353	
0.165002	
0.175457	
0.186827	
0.198928	
0.186287	
0.1918	
0.277438	
0.273782	
0.261471	
0.2656	
0.152909	
0.140756	
0.141028	
0.134126	
0.134194	
0.146968	
0.140198	
0.132033	
0.210658	
0.203531	
0.217361	
0.214262	
0.275028	
0.142759	
0.149878	
0.153827	
0.158168	
0.175503	
0.165309	
0.220214	
0.211888	
0.263076	
0.250596	
0.155089	
0.0676021	
0.174005	
0.158101	
0.199405	
0.16545	
0.193156	
0.184393	
0.122348	
0.133004	
0.167164	
0.228738	
0.23323	
0.237046	
0.239293	
0.122365	
0.171687	
0.16929	
0.104567	
0.121781	
0.124448	
0.132793	
0.111343	
0.124629	
0.127345	
0.137265	
0.137854	
0.268278	
0.275599	
0.275191	
0.279248	
0.240447	
0.228025	
0.230385	
0.0773744	
0.0824417	
0.0738205	
0.0706342	
0.246606	
0.247794	
0.236496	
0.241347	
0.238292	
0.236522	
0.133183	
0.206008	
0.211555	
0.218547	
0.0615909	
0.0616147	
0.0739353	
0.074587	
0.160701	
0.267581	
0.25246	
0.255176	
0.16443	
0.216589	
0.209423	
0.279594	
0.285956	
0.185052	
0.186204	
0.171072	
0.175369	
0.256902	
0.264844	
0.257287	
0.264475	
0.178061	
0.190596	
0.182533	
0.180789	
0.194264	
0.181968	
0.190032	
0.147396	
0.129936	
0.141179	
0.116072	
0.161329	
0.173031	
0.173076	
0.227839	
0.235549	
0.263078	
0.265524	
0.270111	
0.273757	
0.157899	
0.16148	
0.148234	
0.15029	
0.182708	
0.181871	
0.194095	
0.191172	
0.195185	
0.189563	
0.178779	
0.170789	
0.245993	
0.233374	
0.246546	
0.239979	
0.243763	
0.28465	
0.291993	
0.27712	
0.280112	
0.258734	
0.253187	
0.22258	
0.231211	
0.203914	
0.212544	
0.117854	
0.0994936	
0.123146	
0.110108	
0.181478	
0.189395	
0.286164	
0.279178	
0.286336	
0.280194	
0.270858	
0.282577	
0.273403	
0.265328	
0.270404	
0.263928	
0.250245	
0.248542	
0.240297	
0.160566	
0.14584	
0.148896	
0.134065	
0.106531	
0.0988111	
0.0860254	
0.0721845	
0.112169	
0.125341	
0.112537	
0.099036	
0.093783	
0.13207	
0.123705	
0.143985	
0.0547561	
0.0700935	
0.0872588	
0.128255	
0.118798	
0.126876	
0.128429	
0.116111	
0.120748	
0.142638	
0.237502	
0.237233	
0.251254	
0.250703	
0.0874616	
0.0691076	
0.125808	
0.118407	
0.133142	
0.12201	
0.128852	
0.120662	
0.133404	
0.115698	
0.128438	
0.221274	
0.217757	
0.212044	
0.120646	
0.113788	
0.114455	
0.11061	
0.094906	
0.184507	
0.185425	
0.19513	
0.117227	
0.133358	
0.124949	
0.135656	
0.122818	
0.127826	
0.109315	
0.200327	
0.202296	
0.237964	
0.241634	
0.231904	
0.233857	
0.0967483	
0.090935	
0.108717	
0.0998517	
0.193528	
0.199105	
0.109598	
0.104385	
0.0626735	
0.0530444	
0.0805345	
0.0676796	
0.127944	
0.109	
0.138362	
0.120128	
0.268445	
0.262084	
0.218563	
0.22542	
0.159438	
0.14868	
0.145826	
0.134671	
0.134629	
0.149837	
0.120319	
0.156153	
0.143691	
0.133651	
0.132169	
0.145725	
0.115815	
0.139164	
0.151758	
0.159689	
0.140407	
0.149709	
0.254271	
0.257	
0.261558	
0.145259	
0.152496	
0.124716	
0.130586	
0.248514	
0.2508	
0.237841	
0.239614	
0.2466	
0.25392	
0.24101	
0.243131	
0.100988	
0.106586	
0.101565	
0.107048	
0.0311399	
0.0432131	
0.0371339	
0.0417375	
0.0450694	
-0.343935	
-0.333969	
0.0401851	
0.0406569	
0.0436346	
0.0397871	
0.0361907	
-0.292692	
0.043429	
-0.0881804	
-0.0935901	
-0.229149	
-0.126511	
0.038397	
0.0371247	
-0.146866	
-0.0881319	
-0.171213	
-0.0824741	
-0.0868306	
0.0106997	
-0.0191478	
-0.276609	
-0.281821	
-0.234059	
-0.106807	
-0.322334	
-0.270684	
-0.0890769	
-0.131467	
-0.0784573	
-0.240927	
-0.254843	
-0.270134	
-0.304678	
-0.322417	
-0.291211	
-0.0173596	
-0.0459907	
-0.181528	
-0.232348	
-0.201164	
-0.227924	
-0.223583	
-0.243743	
-0.156933	
-0.178674	
-0.130345	
-0.273002	
-0.151668	
-0.109377	
-0.116561	
-0.128222	
-0.121041	
-0.116351	
-0.148871	
-0.114647	
-0.31066	
-0.265636	
-0.13488	
-0.181456	
-0.284236	
-0.0846963	
-0.219496	
-0.127405	
-0.100383	
-0.17016	
-0.171085	
-0.285507	
-0.346735	
0.0224081	
0.0214179	
-0.0314387	
-0.210951	
-0.0650081	
-0.0749861	
-0.261465	
-0.238587	
-0.236252	
-0.275958	
-0.294389	
-0.186891	
-0.180666	
-0.281927	
-0.263972	
-0.253139	
-0.0514412	
-0.29836	
-0.0155347	
-0.0578151	
-0.0451554	
-0.0881275	
-0.233077	
-0.160963	
-0.178925	
-0.295188	
-0.117239	
-0.172888	
-0.206498	
-0.159243	
-0.169857	
-0.0713042	
-0.250069	
-0.275923	
-0.221743	
-0.257172	
-0.196835	
-0.216101	
-0.0741356	
-0.103762	
-0.244915	
-0.0359729	
-0.0517055	
-0.0843901	
-0.160882	
-0.279818	
-0.288934	
-0.3056	
-0.327619	
-0.227068	
-0.21861	
-0.297839	
-0.308734	
-0.165709	
0.0299874	
-0.0130893	
-0.337688	
-0.280069	
-0.190683	
-0.207281	
-0.204635	
0.0299543	
-0.0115107	
-0.317044	
-0.324185	
-0.322862	
0.0255087	
0.0369532	
-0.11147	
-0.143294	
-0.0613702	
-0.0697727	
-0.0523917	
0.0461481	
-0.249889	
-0.20983	
-0.185889	
-0.193954	
-0.144197	
-0.191374	
-0.139607	
-0.166452	
-0.146548	
-0.167273	
-0.336135	
-0.345152	
-0.130819	
-0.087254	
-0.241969	
-0.256397	
-0.271786	
-0.201711	
-0.165683	
-0.209999	
-0.189164	
0.0204425	
-0.28234	
-0.0996973	
-0.111103	
-0.175699	
-0.24546	
-0.193853	
-0.211912	
-0.236368	
-0.253165	
-0.334606	
-0.236877	
-0.243692	
-0.247032	
-0.26117	
-0.0277916	
-0.232674	
-0.199559	
-0.221919	
-0.102279	
-0.10249	
-0.132978	
-0.12865	
-0.0150377	
-0.0307345	
-0.117962	
-0.0962401	
-0.218408	
-0.11328	
-0.327762	
-0.335593	
-0.0569769	
-0.288979	
-0.279348	
-0.273853	
-0.192687	
-0.238258	
-0.199178	
-0.236304	
-0.193291	
-0.131537	
-0.319316	
-0.313384	
-0.176164	
-0.184221	
-0.206973	
-0.212562	
-0.0906922	
-0.114147	
-0.31573	
-0.303072	
-0.156215	
-0.17953	
0.0106598	
-0.0355975	
-0.023814	
-0.0777428	
-0.0451028	
-0.0239533	
-0.269063	
-0.282462	
-0.346579	
-0.100299	
-0.0883304	
-0.0678049	
-0.0687452	
-0.0883515	
-0.0552452	
-0.0846785	
-0.303327	
-0.320589	
-0.308105	
-0.344878	
-0.323893	
-0.0845302	
-0.117331	
-0.112961	
-0.154234	
-0.202423	
-0.246733	
-0.199418	
-0.123065	
-0.124561	
-0.140323	
-0.225139	
-0.237473	
-0.158195	
-0.175757	
-0.155682	
-0.173906	
-0.0215278	
-0.0345017	
-0.0499109	
-0.0630853	
-0.309037	
-0.209604	
-0.140172	
-0.0833005	
-0.119507	
-0.208209	
-0.222206	
-0.194006	
-0.213857	
-0.260367	
-0.269257	
-0.24702	
-0.262301	
-0.310995	
-0.299612	
-0.30724	
-0.292382	
-0.156604	
-0.112814	
-0.20196	
-0.189752	
-0.077296	
-0.103142	
-0.076859	
-0.104359	
-0.209316	
-0.216897	
-0.0624588	
-0.0660801	
-0.0294714	
-0.251454	
-0.256047	
-0.266742	
-0.277547	
-0.0592787	
-0.0811385	
-0.227879	
-0.228471	
-0.141249	
-0.174308	
-0.137513	
-0.171918	
-0.243103	
-0.200691	
-0.227645	
0.00156132	
-0.0266435	
-0.315919	
-0.325472	
-0.0977511	
-0.115733	
-0.159883	
-0.146144	
-0.148269	
-0.133773	
-0.239013	
-0.217627	
-0.247269	
-0.285056	
-0.272612	
-0.293291	
-0.170637	
-0.153856	
-0.14144	
-0.102226	
-0.109237	
-0.039913	
-0.0343102	
-0.0308493	
-0.0133512	
-0.0286014	
-0.00966742	
-0.0562155	
-0.026163	
-0.0573473	
-0.047323	
-0.0478117	
-0.12164	
-0.112129	
-0.0823923	
-0.148853	
-0.0272365	
-0.0551187	
-0.0251969	
-0.0667662	
-0.154053	
-0.129737	
-0.170438	
-0.157226	
-0.0368513	
-0.0342986	
-0.0842906	
-0.0639309	
-0.219549	
-0.222327	
-0.17757	
-0.177151	
-0.169286	
-0.19106	
-0.190089	
-0.211588	
-0.264064	
-0.266038	
-0.24739	
-0.252574	
-0.289194	
-0.280577	
-0.300261	
-0.296733	
-0.30045	
-0.296903	
-0.31401	
-0.307362	
-0.0828198	
-0.0281726	
-0.0497518	
-0.294129	
-0.283146	
-0.315825	
-0.304693	
-0.315306	
-0.300782	
-0.30135	
-0.0144915	
-0.0310047	
-0.208666	
-0.197726	
-0.185446	
-0.336156	
-0.337615	
-0.338035	
-0.166917	
-0.146298	
-0.153766	
-0.137764	
-0.34021	
-0.332543	
-0.325486	
-0.332631	
-0.32858	
-0.139233	
-0.202281	
-0.222858	
-0.19608	
-0.227601	
0.0315041	
0.0419772	
-0.07251	
-0.0707539	
-0.0149048	
-0.0402302	
-0.0161586	
0.0286196	
0.0401546	
-0.0668925	
-0.123362	
-0.0636317	
-0.113198	
-0.135733	
-0.151587	
-0.183062	
-0.18005	
-0.195755	
-0.203402	
-0.236236	
-0.239963	
-0.00878175	
-0.0114258	
-0.332953	
-0.322597	
-0.0293996	
-0.00622157	
-0.275938	
-0.0251329	
0.0339173	
-0.25669	
-0.00717675	
-0.344189	
-0.28503	
-0.0267813	
-0.00286584	
0.00985799	
-0.191158	
-0.178391	
-0.298948	
-0.308291	
-0.310489	
-0.314687	
-0.32477	
-0.327989	
-0.201204	
-0.219646	
-0.128207	
-0.116886	
-0.126037	
-0.283309	
-0.239319	
-0.260977	
-0.264274	
-0.12419	
-0.15519	
-0.164511	
-0.183828	
-0.00858038	
0.00922243	
0.0392318	
-0.0369274	
0.0244502	
0.0440468	
0.0223252	
-0.0142695	
-0.29644	
-0.331126	
-0.324076	
-0.331212	
0.0311343	
-0.324657	
-0.320752	
-0.154934	
-0.135301	
-0.149591	
0.0278263	
0.0413037	
-0.31245	
-0.314852	
-0.309668	
-0.269565	
0.00886014	
-0.275292	
-0.265864	
-0.257059	
0.0366955	
0.0411235	
0.0433802	
-0.205535	
-0.190657	
-0.184421	
-0.166349	
-0.331196	
-0.333219	
-0.335868	
0.044123	
0.0302562	
0.0374804	
0.00310612	
-0.296927	
-0.295107	
-0.289151	
-0.144583	
-0.14594	
0.0432154	
0.0268683	
-0.328737	
-0.320352	
-0.318537	
-0.157526	
-0.146159	
-0.316046	
-0.322299	
-0.259544	
-0.0311198	
-0.0274625	
-0.0659903	
-0.0638278	
0.0454028	
0.0390795	
-0.0736471	
-0.0840532	
-0.102643	
-0.104538	
-0.342353	
-0.342812	
-0.332852	
-0.342212	
-0.107796	
-0.0762292	
-0.0917285	
-0.0973167	
-0.118279	
0.0356949	
0.0259146	
0.0209567	
-0.191025	
-0.202031	
-0.174675	
-0.199516	
0.0387066	
-0.110568	
-0.110116	
-0.0949636	
-0.338279	
-0.345422	
-0.262245	
-0.272392	
-0.10275	
-0.123069	
-0.285657	
-0.274554	
0.000434592	
0.00442477	
-0.256135	
-0.280827	
-0.270641	
-0.206383	
-0.227499	
-0.194999	
-0.210831	
-0.0410308	
-0.091922	
-0.0502386	
-0.043431	
-0.091823	
-0.0742663	
-0.339653	
-0.345085	
-0.340231	
-0.344434	
-0.0368547	
-0.0444874	
0.0232454	
-0.254497	
-0.234884	
-0.30488	
-0.297318	
-0.162277	
-0.157554	
-0.117078	
-0.100704	
-0.323883	
-0.315935	
-0.336468	
-0.332665	
-0.325118	
-0.316677	
-0.166927	
-0.170391	
-0.143474	
-0.147329	
-0.257347	
-0.27318	
-0.187329	
-0.201929	
-0.221667	
-0.223481	
-0.334528	
-0.336308	
-0.337957	
-0.337216	
-0.287435	
-0.301168	
-0.311068	
-0.304176	
-0.312341	
-0.265097	
-0.253823	
-0.274624	
-0.284458	
-0.0319766	
0.0124249	
0.0371369	
-0.287977	
-0.284383	
-0.0867225	
-0.070219	
-0.119764	
-0.213702	
-0.231268	
-0.213478	
-0.248763	
-0.245494	
-0.254386	
-0.257546	
-0.263073	
-0.341721	
-0.336693	
-0.33535	
-0.327596	
-0.294127	
-0.275514	
-0.288324	
-0.316804	
0.0173803	
-0.043593	
0.0325227	
0.00784577	
-0.222047	
-0.247961	
-0.244142	
-0.219126	
-0.235059	
-0.0261813	
0.0322848	
0.0294684	
-0.0211891	
0.0411056	
0.0215378	
-0.282031	
-0.289382	
-0.288181	
-0.298528	
0.0342241	
0.0108118	
-0.231833	
-0.262716	
-0.240386	
-0.267923	
-0.257773	
-0.263024	
-0.275207	
-0.25385	
-0.247373	
-0.263635	
-0.120906	
-0.126911	
-0.140215	
-0.152988	
-0.326749	
-0.327162	
-0.329261	
-0.230444	
-0.219147	
-0.315291	
-0.310584	
-0.298661	
-0.300172	
-0.212774	
-0.230927	
-0.224715	
-0.241646	
-0.0992267	
-0.123775	
-0.308512	
-0.31073	
-0.333704	
-0.338594	
-0.0523784	
-0.0662457	
-0.0724475	
-0.0819099	
-0.237529	
-0.224898	
-0.220397	
-0.214883	
-0.124384	
-0.148433	
-0.157413	
-0.17644	
-0.285134	
-0.29814	
-0.297972	
-0.308826	
-0.1613	
-0.153044	
-0.198012	
-0.19013	
-0.246112	
-0.236037	
-0.0630361	
-0.0402948	
-0.0879836	
-0.0728772	
-0.279091	
-0.275526	
-0.343163	
-0.340811	
-0.343963	
-0.34587	
-0.320895	
-0.319909	
-0.145279	
-0.159811	
-0.188294	
-0.198432	
-0.0246208	
-0.0120667	
0.0332668	
0.0306463	
-0.197638	
-0.162419	
-0.18725	
-0.149937	
-0.0106131	
-0.0041772	
-0.00727955	
-0.000590487	
0.00250067	
0.0145158	
0.0206541	
0.0230528	
0.0171969	
-0.0089594	
-0.000268346	
0.00800142	
0.00367971	
0.0100174	
0.0187568	
0.0230686	
0.0101112	
0.0144534	
0.00642305	
-0.00462248	
0.00390454	
-0.0111166	
-0.0149728	
-0.00400222	
-0.0227077	
-0.0226396	
-0.016547	
-0.0237971	
-0.0205123	
0.0145032	
0.0124042	
-0.00129684	
0.00497293	
-0.00638924	
-0.0178694	
-0.0171367	
-0.0163755	
-0.0144405	
-0.00995539	
0.0179046	
0.285701	
0.248531	
0.273582	
0.057874	
0.102978	
0.0600423	
0.207496	
0.1141	
0.111873	
0.112381	
0.113213	
0.0849589	
0.0562805	
0.109423	
0.0999427	
0.0953728	
0.0549897	
0.106916	
0.0876649	
0.232832	
0.215962	
0.14679	
0.198014	
0.224643	
0.179073	
0.198647	
0.149391	
0.12629	
0.226487	
0.220179	
0.170806	
0.223327	
0.250912	
0.131478	
0.125961	
0.222658	
0.225826	
0.166057	
0.179115	
0.157232	
0.169876	
0.182843	
0.180297	
0.212089	
0.211296	
0.170924	
0.225704	
0.14666	
0.144844	
0.148554	
0.230553	
0.211743	
0.218882	
0.206175	
0.209056	
0.239423	
0.180044	
0.181341	
0.177551	
0.143427	
0.0997418	
0.131645	
0.20971	
0.205423	
0.195523	
0.192969	
0.257449	
0.264003	
0.271865	
0.112432	
0.0616415	
0.201846	
0.201349	
0.192755	
0.189363	
0.176043	
0.166602	
0.187012	
0.185756	
0.185916	
0.198758	
0.194239	
0.196116	
0.204107	
0.190762	
0.19204	
0.172196	
0.160174	
0.120139	
0.106551	
0.12557	
0.112088	
0.225618	
0.236672	
0.220527	
0.224132	
0.126953	
0.117624	
0.165965	
0.240585	
0.249804	
0.196205	
0.199182	
0.154942	
0.200581	
0.217812	
0.121007	
0.107577	
0.133988	
0.13077	
0.158433	
0.138931	
0.133947	
0.142445	
0.258545	
0.272833	
0.245609	
0.23	
0.22431	
0.067568	
0.0549394	
0.117791	
0.149314	
0.0797723	
0.0919775	
0.202105	
0.189006	
0.0957444	
0.0726888	
0.132798	
0.133379	
0.139915	
0.140398	
0.104512	
0.255039	
0.247114	
0.16714	
0.147388	
0.164792	
0.157308	
0.127105	
0.16111	
0.159945	
0.15479	
0.153405	
0.0998328	
0.288375	
0.273774	
0.254603	
0.266945	
0.225939	
0.209959	
0.198162	
0.194461	
0.109475	
0.0998228	
0.175449	
0.190737	
0.175694	
0.191656	
0.169962	
0.176567	
0.192046	
0.173356	
0.193621	
0.0968513	
0.156305	
0.162316	
0.155619	
0.263008	
0.256062	
0.256234	
0.248805	
0.253771	
0.261502	
0.182446	
0.186572	
0.173578	
0.181211	
0.265924	
0.251921	
0.25822	
0.205248	
0.197028	
0.209789	
0.0627351	
0.0988432	
0.0877102	
0.0998177	
0.288719	
0.285171	
0.179986	
0.169192	
0.265487	
0.206595	
0.206974	
0.199382	
0.155487	
0.163535	
0.203965	
0.216441	
0.209849	
0.217611	
0.243062	
0.247329	
0.23568	
0.23882	
0.234678	
0.243928	
0.250322	
0.219508	
0.204974	
0.222102	
0.147933	
0.142014	
0.167373	
0.165635	
0.177542	
0.175464	
0.110773	
0.0928174	
0.110551	
0.0974497	
0.11722	
0.179544	
0.171453	
0.164432	
0.159965	
0.159871	
0.14536	
0.149976	
0.139629	
0.246746	
0.24054	
0.181839	
0.175798	
0.173088	
0.220576	
0.222096	
0.210737	
0.214374	
0.0931382	
0.0890784	
0.281999	
0.106631	
0.10642	
0.119178	
0.241289	
0.235951	
0.234026	
0.105286	
0.0954973	
0.166487	
0.15672	
0.170952	
0.164483	
0.230333	
0.231126	
0.220916	
0.22233	
0.207252	
0.206971	
0.197398	
0.19707	
0.260979	
0.263194	
0.25246	
0.256979	
0.148027	
0.251461	
0.256275	
0.249014	
0.2138	
0.201696	
0.19399	
0.11926	
0.155524	
0.154289	
0.255912	
0.253346	
0.218714	
0.2047	
0.208246	
0.212893	
0.218155	
0.210211	
0.194789	
0.205609	
0.210156	
0.25893	
0.267268	
0.258734	
0.251517	
0.258109	
0.247389	
0.192451	
0.181957	
0.191883	
0.182459	
0.218572	
0.210651	
0.205188	
0.127006	
0.190817	
0.185492	
0.172284	
0.0819543	
0.0793073	
0.0915363	
0.0934487	
0.227898	
0.162386	
0.16291	
0.174687	
0.188406	
0.195326	
0.206044	
0.22532	
0.226052	
0.217998	
0.218654	
0.143465	
0.15089	
0.150345	
0.155275	
0.141129	
0.151838	
0.169438	
0.174344	
0.166582	
0.26016	
0.256376	
0.267654	
0.148826	
0.160547	
0.144774	
0.156654	
0.194948	
0.209748	
0.218051	
0.119344	
0.260866	
0.26691	
0.0582348	
0.0729608	
0.0825515	
0.054232	
0.167785	
0.15533	
0.173054	
0.142553	
0.147737	
0.229725	
0.237182	
0.229584	
0.202463	
0.213817	
0.205826	
0.18137	
0.170478	
0.131717	
0.138432	
0.139015	
0.14967	
0.149461	
0.170875	
0.155894	
0.16543	
0.170708	
0.180901	
0.185317	
0.239194	
0.231115	
0.214443	
0.206678	
0.167118	
0.150649	
0.285021	
0.247163	
0.276384	
0.280157	
0.269584	
0.285732	
0.270787	
0.283685	
0.279814	
0.28312	
0.2788	
0.235811	
0.239665	
0.240825	
0.245004	
0.225818	
0.228967	
0.231414	
0.234507	
0.208292	
0.215167	
0.217031	
0.2201	
0.268315	
0.208017	
0.202234	
0.195751	
0.192239	
0.281606	
0.239411	
0.243177	
0.136531	
0.138207	
0.142869	
0.153143	
0.142993	
0.146114	
0.149719	
0.159874	
0.227325	
0.238579	
0.227029	
0.123134	
0.129857	
0.12269	
0.129616	
0.207853	
0.200462	
0.233138	
0.224625	
0.231397	
0.21992	
0.220738	
0.20592	
0.21694	
0.209399	
0.193984	
0.180606	
0.19775	
0.184535	
0.144148	
0.139024	
0.171158	
0.165259	
0.194168	
0.187119	
0.197678	
0.186647	
0.265779	
0.265286	
0.274156	
0.152933	
0.149872	
0.145179	
0.140689	
0.134269	
0.134062	
0.139857	
0.143118	
0.132166	
0.127424	
0.219042	
0.202616	
0.215444	
0.211402	
0.269503	
0.269189	
0.135594	
0.142386	
0.158014	
0.153427	
0.176252	
0.158738	
0.154822	
0.174962	
0.200236	
0.162076	
0.148393	
0.124439	
0.185172	
0.194013	
0.127684	
0.132529	
0.242639	
0.239493	
0.235449	
0.230196	
0.172245	
0.169744	
0.109041	
0.122705	
0.137597	
0.136058	
0.122296	
0.116535	
0.116115	
0.12649	
0.126471	
0.0861552	
0.111241	
0.13233	
0.273964	
0.261556	
0.277995	
0.273886	
0.233016	
0.240424	
0.230774	
0.236688	
0.240906	
0.241686	
0.24659	
0.138438	
0.218744	
0.206102	
0.211745	
0.161116	
0.263531	
0.250553	
0.267355	
0.234965	
0.23553	
0.261432	
0.253727	
0.266777	
0.164778	
0.0739368	
0.0746281	
0.0615384	
0.0522844	
0.20943	
0.216645	
0.283895	
0.278032	
0.0773043	
0.0738017	
0.0824019	
0.0706432	
0.114024	
0.176791	
0.186909	
0.187562	
0.178023	
0.182472	
0.190508	
0.182968	
0.191169	
0.181983	
0.19039	
0.128346	
0.139598	
0.119648	
0.139525	
0.173002	
0.160346	
0.172873	
0.235454	
0.227761	
0.273964	
0.27255	
0.262039	
0.264696	
0.166015	
0.157735	
0.150456	
0.148128	
0.198326	
0.190989	
0.182614	
0.181736	
0.178792	
0.176893	
0.190163	
0.189384	
0.241388	
0.273273	
0.269276	
0.275693	
0.252616	
0.258193	
0.281014	
0.282428	
0.230217	
0.224095	
0.212705	
0.204913	
0.241233	
0.245914	
0.222064	
0.232416	
0.217927	
0.225089	
0.117699	
0.110057	
0.117793	
0.0994955	
0.193943	
0.181429	
0.278421	
0.271369	
0.265375	
0.263917	
0.270255	
0.279086	
0.290028	
0.279069	
0.285607	
0.237107	
0.24794	
0.239836	
0.249821	
0.241149	
0.118887	
0.0720313	
0.0597794	
0.187463	
0.177885	
0.145586	
0.161376	
0.134084	
0.149047	
0.133224	
0.120237	
0.12811	
0.109215	
0.27351	
0.277809	
0.125016	
0.112108	
0.112109	
0.0930203	
0.0991954	
0.132109	
0.123723	
0.112159	
0.106053	
0.117931	
0.069968	
0.0871712	
0.0546653	
0.12962	
0.126482	
0.128415	
0.117864	
0.11206	
0.0989997	
0.115594	
0.120781	
0.251976	
0.160073	
0.152784	
0.150053	
0.141627	
0.250336	
0.243334	
0.244475	
0.236585	
0.0872964	
0.0689066	
0.133367	
0.126	
0.118568	
0.103953	
0.104035	
0.120446	
0.11334	
0.143802	
0.1959	
0.18509	
0.186101	
0.133596	
0.125076	
0.117378	
0.249935	
0.127873	
0.109364	
0.139375	
0.122769	
0.231295	
0.233288	
0.237435	
0.243239	
0.0909679	
0.105174	
0.0999147	
0.108829	
0.193967	
0.199717	
0.0805774	
0.0676916	
0.0760429	
0.0530893	
0.241862	
0.24442	
0.249577	
0.254629	
0.125808	
0.129854	
0.140033	
0.144099	
0.261777	
0.27246	
0.262337	
0.26879	
0.229445	
0.220185	
0.2751	
0.283581	
0.276656	
0.282426	
0.289143	
0.159105	
0.158883	
0.134397	
0.118914	
0.106741	
0.106264	
0.136481	
0.133734	
0.155252	
0.142483	
0.148858	
0.133466	
0.173516	
0.169006	
0.148892	
0.159059	
0.145661	
0.13233	
0.130477	
0.254824	
0.258374	
0.247458	
0.248819	
0.166524	
0.155047	
0.144564	
0.116805	
0.148473	
0.135434	
0.040498	
0.0432749	
0.0256022	
0.041821	
0.0450939	
-0.34427	
-0.333643	
0.043465	
0.0309372	
0.0361841	
-0.0532871	
-0.291845	
0.0438048	
0.0432574	
-0.0880164	
-0.0931981	
-0.22907	
0.0460228	
-0.100184	
0.0384717	
0.0371158	
-0.33691	
-0.146673	
-0.0968243	
-0.170979	
-0.0636027	
-0.0823855	
0.0108234	
-0.0190418	
-0.281351	
-0.280123	
-0.233709	
-0.10669	
-0.313406	
-0.269937	
-0.0892053	
-0.131291	
-0.0784504	
-0.255888	
-0.254388	
-0.270054	
-0.304394	
-0.322185	
-0.29094	
-0.0173468	
-0.045974	
-0.183744	
-0.23218	
-0.247039	
-0.243228	
-0.206194	
-0.210519	
-0.15715	
-0.157274	
-0.124226	
-0.272758	
-0.137681	
-0.104522	
-0.109528	
-0.128401	
-0.120903	
-0.148687	
-0.11621	
-0.114823	
-0.31048	
-0.262506	
-0.133807	
-0.174375	
-0.283792	
-0.0847008	
-0.219609	
-0.127223	
-0.100213	
-0.166467	
-0.171439	
-0.297458	
-0.344436	
0.0370441	
0.0224544	
-0.0313486	
-0.210927	
-0.0750065	
-0.0650159	
-0.238919	
-0.261705	
-0.23615	
-0.294083	
-0.275629	
-0.17642	
-0.180983	
-0.263549	
-0.281649	
-0.2527	
-0.0513665	
-0.295946	
-0.0285171	
-0.0210037	
-0.0833288	
-0.0728916	
-0.23271	
-0.145497	
-0.179075	
-0.294335	
-0.117257	
-0.159026	
-0.189859	
-0.172646	
-0.200862	
-0.0727995	
-0.275821	
-0.25017	
-0.257059	
-0.221597	
-0.204596	
-0.21741	
-0.103667	
-0.246056	
-0.0361789	
-0.0843659	
-0.14517	
-0.28939	
-0.280018	
-0.30477	
-0.326846	
-0.217305	
-0.21829	
-0.308581	
-0.297412	
-0.165274	
0.0299117	
-0.0130824	
-0.297864	
-0.29729	
-0.33797	
-0.282195	
-0.190888	
-0.190806	
0.028673	
-0.0115017	
-0.315523	
-0.323338	
-0.322187	
0.0215529	
0.0372647	
-0.111219	
-0.142901	
-0.0624764	
-0.0528423	
-0.0708738	
-0.249421	
-0.209607	
-0.162211	
-0.193738	
-0.191407	
-0.191089	
-0.139619	
0.0398195	
-0.16079	
-0.165978	
-0.335251	
-0.343608	
-0.155106	
-0.0870909	
-0.271304	
-0.241691	
-0.240533	
-0.170526	
-0.201527	
-0.189126	
-0.209862	
0.020447	
-0.282138	
-0.110989	
-0.175645	
-0.246948	
-0.194316	
-0.212446	
-0.239428	
-0.253433	
-0.335371	
-0.260293	
-0.261207	
-0.236875	
-0.236104	
-0.0274612	
-0.232576	
-0.221798	
-0.199455	
-0.102474	
-0.102266	
-0.128616	
-0.0151182	
-0.0310491	
-0.118406	
-0.0892221	
-0.125496	
-0.218801	
-0.102787	
-0.343933	
-0.335734	
-0.327829	
-0.0630798	
-0.292181	
-0.275369	
-0.273761	
-0.19095	
-0.240144	
-0.21926	
-0.235898	
-0.193083	
-0.157098	
-0.312802	
-0.31789	
-0.207301	
-0.200885	
-0.187189	
-0.184431	
-0.117107	
-0.256044	
-0.302419	
-0.314671	
-0.15595	
-0.140264	
-0.179625	
0.0107159	
-0.02377	
-0.0918563	
-0.0776581	
-0.0238939	
-0.0450208	
-0.268255	
-0.281459	
-0.100463	
-0.067924	
-0.0884585	
-0.0633665	
-0.0849518	
-0.0688788	
-0.0885228	
-0.301495	
-0.306212	
-0.318935	
-0.331615	
-0.342844	
-0.043502	
-0.112818	
-0.0592003	
-0.117184	
-0.154091	
-0.176932	
-0.247633	
-0.199268	
-0.120088	
-0.154006	
-0.238397	
-0.226142	
-0.190235	
-0.155949	
-0.180566	
-0.0346274	
-0.0268185	
-0.0553945	
-0.0502239	
-0.132976	
-0.195996	
-0.119585	
-0.0881649	
-0.222362	
-0.190163	
-0.213972	
-0.194109	
-0.269444	
-0.246977	
-0.262503	
-0.247146	
-0.144014	
-0.306906	
-0.288742	
-0.314463	
-0.299355	
-0.14037	
-0.12701	
-0.176097	
-0.202438	
-0.103325	
-0.0665607	
-0.116742	
-0.077091	
-0.195029	
-0.218989	
-0.0777184	
-0.062826	
-0.0298652	
-0.266212	
-0.272222	
-0.250974	
-0.255404	
-0.0810301	
-0.0844194	
-0.230203	
-0.218706	
-0.158507	
-0.141457	
-0.174543	
-0.172133	
-0.151869	
-0.230756	
-0.204854	
-0.227644	
-0.212639	
-0.0216599	
0.00145967	
-0.325563	
-0.316034	
-0.115496	
-0.0975516	
-0.148477	
-0.133964	
-0.160123	
-0.146361	
-0.223258	
-0.246934	
-0.226731	
-0.284317	
-0.293044	
-0.277171	
-0.153755	
-0.165626	
-0.141417	
-0.109211	
-0.123305	
-0.0404205	
-0.0347012	
-0.0158312	
-0.033756	
-0.00960431	
-0.0578114	
-0.026162	
-0.0562295	
-0.0573073	
-0.0479179	
-0.0254463	
-0.111988	
-0.082261	
-0.121503	
-0.0917103	
-0.148726	
-0.0474378	
-0.0668952	
-0.027254	
-0.0550095	
-0.170279	
-0.131437	
-0.153889	
-0.129614	
-0.0342726	
-0.0706535	
-0.0638579	
-0.0841917	
-0.177378	
-0.202156	
-0.198943	
-0.221997	
-0.208288	
-0.211669	
-0.169334	
-0.166481	
-0.238662	
-0.252279	
-0.263744	
-0.265806	
-0.275948	
-0.288479	
-0.296115	
-0.29952	
-0.296275	
-0.29988	
-0.30654	
-0.315775	
-0.0281345	
-0.0497208	
-0.082784	
-0.298608	
-0.283148	
-0.307669	
-0.313505	
-0.314325	
-0.300238	
-0.302883	
-0.031007	
-0.0144942	
-0.209951	
-0.208918	
-0.181859	
-0.337239	
-0.337497	
-0.16071	
-0.16699	
-0.137685	
-0.141015	
-0.338441	
-0.329035	
-0.33265	
-0.33271	
-0.327956	
-0.124125	
-0.222693	
-0.202173	
-0.227389	
-0.209504	
0.0419084	
0.0315188	
-0.0723566	
-0.0150271	
-0.0368442	
-0.0400195	
-0.0159686	
0.0395039	
0.02847	
-0.102189	
-0.0668696	
-0.113128	
-0.0867677	
-0.135325	
-0.151209	
-0.174169	
-0.183392	
-0.197365	
-0.196935	
-0.236007	
-0.239638	
-0.0116045	
-0.0089277	
-0.331549	
-0.321481	
-0.0294984	
-0.00629919	
-0.0279154	
-0.00414542	
0.0338844	
-0.024651	
-0.336407	
-0.257396	
-0.275818	
-0.283392	
-0.0367408	
0.00303726	
-0.257675	
-0.266743	
0.00976226	
-0.190103	
-0.189733	
-0.307363	
-0.294273	
-0.309378	
-0.324581	
-0.310819	
-0.327755	
-0.201277	
-0.221418	
-0.128375	
-0.12625	
-0.117052	
-0.287285	
-0.260963	
-0.254433	
-0.13074	
-0.139178	
-0.181439	
-0.164446	
-0.00565598	
0.0395375	
0.00940191	
0.0249406	
-0.0265504	
0.0224694	
0.0441331	
-0.0142206	
-0.239796	
-0.249037	
-0.245493	
-0.330129	
-0.33123	
-0.324073	
0.0290397	
-0.323911	
-0.319697	
-0.135373	
-0.155005	
-0.149642	
0.0439664	
0.0294359	
-0.313754	
-0.311508	
-0.314886	
0.00877067	
0.041083	
0.0366161	
0.03332	
-0.184537	
-0.170305	
-0.205646	
-0.207453	
-0.329933	
-0.340578	
-0.334189	
0.030201	
0.0444177	
-0.00308914	
0.0374992	
-0.270758	
-0.264013	
-0.14617	
-0.144832	
0.0399328	
0.0329587	
0.027737	
-0.317735	
-0.296882	
-0.326139	
-0.319629	
-0.264902	
-0.257565	
-0.281712	
-0.267083	
-0.157794	
-0.14637	
-0.315826	
-0.321433	
-0.25943	
-0.02734	
-0.0310048	
-0.0636899	
-0.065861	
0.0388437	
0.0449739	
-0.113415	
-0.104645	
-0.0737646	
-0.0570409	
-0.340742	
-0.332046	
-0.340292	
-0.331525	
-0.107847	
-0.0971242	
-0.11055	
-0.0762144	
-0.0895121	
0.0259189	
0.0356735	
0.0211785	
-0.184815	
-0.199431	
-0.177888	
-0.200639	
0.0393958	
-0.113338	
-0.0979582	
-0.341415	
-0.340411	
-0.123101	
-0.102785	
0.000363163	
0.00430631	
-0.274407	
-0.285245	