<VTKFile type="UnstructuredGrid" version="0.1" byte_order="LittleEndian">
	<UnstructuredGrid>
		<Piece NumberOfPoints="1647" NumberOfCells="3046">
			<CellData Scalars="scalars">
				<DataArray type="Float64" Name="Doublet Strengths" NumberOfComponents="1" Format="ascii">
0.291107	
0.248054	
0.274192	
0.0582609	
0.097158	
0.114351	
0.11264	
0.113201	
0.059848	
0.057129	
0.109385	
0.100116	
0.0550267	
0.106998	
0.11241	
0.0865572	
0.231592	
0.10963	
0.278884	
0.207353	
0.22693	
0.143637	
0.198485	
0.225719	
0.179396	
0.198635	
0.149944	
0.183454	
0.126385	
0.22211	
0.226149	
0.171083	
0.224355	
0.251512	
0.12731	
0.222835	
0.225688	
0.158583	
0.179544	
0.15716	
0.170565	
0.183221	
0.180521	
0.207736	
0.212124	
0.177292	
0.225729	
0.146866	
0.144941	
0.159603	
0.24288	
0.231613	
0.218973	
0.212034	
0.216496	
0.206433	
0.240216	
0.164462	
0.179987	
0.18112	
0.177369	
0.143631	
0.100522	
0.13193	
0.196129	
0.198342	
0.203132	
0.206193	
0.265373	
0.268267	
0.258631	
0.113672	
0.0523422	
0.192342	
0.194429	
0.201394	
0.206232	
0.18698	
0.173826	
0.17654	
0.167045	
0.194912	
0.18631	
0.194693	
0.191048	
0.197934	
0.196339	
0.204018	
0.173805	
0.161987	
0.104825	
0.11896	
0.125934	
0.221448	
0.232357	
0.22672	
0.235833	
0.117833	
0.127242	
0.166087	
0.241243	
0.244648	
0.257524	
0.209022	
0.196907	
0.198807	
0.154101	
0.224163	
0.107742	
0.121087	
0.130009	
0.141635	
0.138897	
0.149538	
0.133703	
0.132755	
0.261909	
0.273726	
0.231016	
0.246632	
0.224401	
0.0550897	
0.149681	
0.0910877	
0.0797066	
0.086139	
0.189295	
0.20786	
0.0979857	
0.0735749	
0.140001	
0.140562	
0.132892	
0.133545	
0.10522	
0.257438	
0.247445	
0.165051	
0.149867	
0.167435	
0.153388	
0.11421	
0.151123	
0.153621	
0.161246	
0.160092	
0.120305	
0.107282	
0.290295	
0.275731	
0.25402	
0.268329	
0.228505	
0.198634	
0.19926	
0.206487	
0.100151	
0.0794479	
0.271891	
0.191444	
0.180257	
0.189055	
0.17621	
0.185836	
0.170329	
0.192829	
0.194191	
0.185812	
0.0929069	
0.163973	
0.14597	
0.157563	
0.25773	
0.265123	
0.271606	
0.254525	
0.265766	
0.249552	
0.173354	
0.181543	
0.18281	
0.186948	
0.267568	
0.261079	
0.253661	
0.214208	
0.196323	
0.060249	
0.076128	
0.0984718	
0.0998817	
0.0935015	
0.292878	
0.287571	
0.180252	
0.169568	
0.267003	
0.209897	
0.20645	
0.194244	
0.163899	
0.164841	
0.209287	
0.2042	
0.220768	
0.209757	
0.249965	
0.244268	
0.239614	
0.234057	
0.237891	
0.253905	
0.2453	
0.245499	
0.210983	
0.22044	
0.223035	
0.147842	
0.147757	
0.165419	
0.167406	
0.175727	
0.182943	
0.105276	
0.11086	
0.0975346	
0.110641	
0.117503	
0.172064	
0.176152	
0.16049	
0.157826	
0.15684	
0.160189	
0.139978	
0.150321	
0.247934	
0.241162	
0.171255	
0.173129	
0.181891	
0.208471	
0.214912	
0.22141	
0.222782	
0.0890977	
0.092566	
0.106505	
0.106715	
0.11927	
0.229921	
0.232209	
0.240403	
0.0967573	
0.107493	
0.157077	
0.166857	
0.155837	
0.171333	
0.217384	
0.221836	
0.2293	
0.234069	
0.193149	
0.19781	
0.20807	
0.212925	
0.251748	
0.25879	
0.262396	
0.265327	
0.1483	
0.110063	
0.257922	
0.248019	
0.258757	
0.214385	
0.198962	
0.202129	
0.114654	
0.155641	
0.154329	
0.253991	
0.254534	
0.217833	
0.206924	
0.203835	
0.217394	
0.206614	
0.212276	
0.206412	
0.205736	
0.190781	
0.195445	
0.260056	
0.27068	
0.252153	
0.248246	
0.259629	
0.252271	
0.290406	
0.182618	
0.198125	
0.178052	
0.192543	
0.211522	
0.219532	
0.205994	
0.127364	
0.182811	
0.190268	
0.17353	
0.176764	
0.0820363	
0.0878015	
0.0916174	
0.233673	
0.163169	
0.162647	
0.174883	
0.196061	
0.192285	
0.206836	
0.284613	
0.271887	
0.27828	
0.218477	
0.219033	
0.226	
0.23027	
0.143912	
0.154981	
0.155493	
0.143077	
0.152084	
0.145403	
0.17488	
0.167066	
0.169825	
0.268716	
0.261233	
0.255705	
0.16121	
0.149181	
0.165603	
0.146574	
0.21898	
0.210607	
0.2679	
0.261667	
0.119727	
0.0743341	
0.0592392	
0.0826329	
0.0542859	
0.168059	
0.16002	
0.14251	
0.142129	
0.230236	
0.226709	
0.237908	
0.209709	
0.201889	
0.214247	
0.181719	
0.170997	
0.138691	
0.131865	
0.149699	
0.13917	
0.165741	
0.15616	
0.158545	
0.171076	
0.171193	
0.181006	
0.181282	
0.231661	
0.239809	
0.207416	
0.215225	
0.173888	
0.150613	
0.1674	
0.28814	
0.291079	
0.278341	
0.284955	
0.245561	
0.281815	
0.278367	
0.288957	
0.284055	
0.271601	
0.279956	
0.283068	
0.280161	
0.240353	
0.2363	
0.245659	
0.241405	
0.233606	
0.230715	
0.219514	
0.224809	
0.21123	
0.216476	
0.272846	
0.201463	
0.201666	
0.19116	
0.189799	
0.237734	
0.240744	
0.138452	
0.136765	
0.147625	
0.150567	
0.145454	
0.14249	
0.155356	
0.157458	
0.225039	
0.226933	
0.130063	
0.117882	
0.129802	
0.122877	
0.201034	
0.211559	
0.225482	
0.236676	
0.220812	
0.225067	
0.221406	
0.210135	
0.217843	
0.185726	
0.19446	
0.184987	
0.19354	
0.139695	
0.145035	
0.139583	
0.165415	
0.17591	
0.187279	
0.199401	
0.186754	
0.192281	
0.278066	
0.274405	
0.262094	
0.266218	
0.153207	
0.141076	
0.141326	
0.134399	
0.134457	
0.14731	
0.140558	
0.132319	
0.211336	
0.204216	
0.218173	
0.215568	
0.275757	
0.143001	
0.150158	
0.154124	
0.158485	
0.175991	
0.165769	
0.220719	
0.212364	
0.263727	
0.251213	
0.155392	
0.0676979	
0.174759	
0.158566	
0.199913	
0.165999	
0.193659	
0.184864	
0.122677	
0.133191	
0.167576	
0.22927	
0.233774	
0.237608	
0.239858	
0.122527	
0.172106	
0.169714	
0.104678	
0.121942	
0.124614	
0.132978	
0.111466	
0.124781	
0.127506	
0.137479	
0.138071	
0.268955	
0.276269	
0.275889	
0.279937	
0.24111	
0.228638	
0.231104	
0.0774733	
0.082525	
0.0739037	
0.0706913	
0.247224	
0.248446	
0.237142	
0.242092	
0.23887	
0.2371	
0.133395	
0.206569	
0.212123	
0.219114	
0.0616869	
0.0617263	
0.0740528	
0.0747221	
0.161103	
0.268243	
0.253115	
0.255819	
0.164829	
0.217153	
0.209986	
0.280329	
0.286716	
0.185484	
0.186735	
0.171378	
0.175858	
0.257584	
0.265521	
0.257943	
0.265133	
0.17845	
0.191023	
0.182935	
0.181432	
0.195018	
0.182513	
0.190605	
0.147825	
0.130301	
0.14165	
0.116204	
0.161644	
0.173384	
0.173433	
0.228391	
0.236134	
0.26375	
0.266188	
0.270798	
0.274477	
0.158482	
0.161957	
0.148687	
0.150721	
0.183097	
0.182255	
0.194525	
0.191591	
0.195618	
0.189975	
0.179153	
0.171131	
0.246602	
0.233934	
0.247155	
0.240563	
0.244374	
0.28535	
0.292676	
0.277796	
0.280773	
0.259432	
0.253858	
0.223183	
0.231901	
0.204386	
0.213042	
0.118008	
0.099593	
0.123339	
0.110233	
0.181877	
0.189818	
0.286828	
0.279834	
0.287028	
0.280857	
0.271482	
0.283199	
0.27403	
0.265974	
0.271037	
0.264562	
0.250882	
0.24919	
0.240902	
0.160879	
0.146076	
0.149155	
0.13426	
0.106805	
0.0990474	
0.0862621	
0.0723817	
0.112456	
0.125678	
0.11283	
0.0991399	
0.0938728	
0.132421	
0.124023	
0.144353	
0.0548789	
0.0702562	
0.0874755	
0.128419	
0.119039	
0.127133	
0.1287	
0.116344	
0.120986	
0.142872	
0.238078	
0.237811	
0.251884	
0.251333	
0.0876849	
0.0692833	
0.126099	
0.118677	
0.133479	
0.122243	
0.129144	
0.120876	
0.133728	
0.115828	
0.128601	
0.22178	
0.218256	
0.212522	
0.120838	
0.113926	
0.114629	
0.110743	
0.0949972	
0.184948	
0.185874	
0.19561	
0.117522	
0.133694	
0.125263	
0.135871	
0.122958	
0.127996	
0.109431	
0.200778	
0.202749	
0.238562	
0.242235	
0.232476	
0.234429	
0.0969555	
0.0911306	
0.108987	
0.100102	
0.19399	
0.199587	
0.109758	
0.1045	
0.062805	
0.0531599	
0.0807123	
0.0678327	
0.128115	
0.109119	
0.138591	
0.120272	
0.269083	
0.262752	
0.219103	
0.226018	
0.159756	
0.148946	
0.146062	
0.134869	
0.13484	
0.150114	
0.120544	
0.156449	
0.143928	
0.133963	
0.132357	
0.145986	
0.115961	
0.139388	
0.152028	
0.15999	
0.140631	
0.149971	
0.254871	
0.257705	
0.262186	
0.145568	
0.152797	
0.125028	
0.130946	
0.249153	
0.25148	
0.238415	
0.240212	
0.247169	
0.254471	
0.241618	
0.243756	
0.101138	
0.106764	
0.101704	
0.107216	
0.0310557	
0.0431502	
0.0370576	
0.0416723	
0.0450181	
-0.344585	
-0.334626	
0.040113	
0.0405959	
0.0435794	
0.0397282	
0.0361662	
-0.293282	
0.0433689	
-0.0883163	
-0.0937651	
-0.229625	
-0.126736	
0.0383256	
0.0370513	
-0.147231	
-0.088322	
-0.171625	
-0.0827572	
-0.0871212	
0.0105659	
-0.0193221	
-0.277182	
-0.282412	
-0.234554	
-0.107116	
-0.323031	
-0.271225	
-0.0892939	
-0.131823	
-0.0787149	
-0.241423	
-0.255358	
-0.270594	
-0.305348	
-0.323041	
-0.291805	
-0.0175201	
-0.0461953	
-0.181926	
-0.232837	
-0.201607	
-0.228416	
-0.22406	
-0.244262	
-0.157242	
-0.179086	
-0.130688	
-0.273564	
-0.152035	
-0.109633	
-0.116849	
-0.128501	
-0.121369	
-0.116673	
-0.149237	
-0.114994	
-0.311314	
-0.266112	
-0.135118	
-0.181731	
-0.284815	
-0.0849532	
-0.219926	
-0.127757	
-0.100694	
-0.170616	
-0.171427	
-0.286073	
-0.347387	
0.0222987	
0.0213047	
-0.0316296	
-0.211397	
-0.0652424	
-0.0752266	
-0.261922	
-0.239017	
-0.236691	
-0.276527	
-0.295007	
-0.187265	
-0.181029	
-0.2825	
-0.264517	
-0.25369	
-0.051675	
-0.298947	
-0.015687	
-0.0580343	
-0.0453541	
-0.0883842	
-0.233553	
-0.161262	
-0.179268	
-0.295785	
-0.117536	
-0.173293	
-0.206949	
-0.159628	
-0.170255	
-0.0714355	
-0.250591	
-0.276529	
-0.222213	
-0.257701	
-0.19722	
-0.216558	
-0.0743923	
-0.104062	
-0.245397	
-0.0360625	
-0.0518133	
-0.0846786	
-0.161262	
-0.28034	
-0.289485	
-0.306226	
-0.328272	
-0.227549	
-0.219078	
-0.298452	
-0.309348	
-0.166018	
0.0298998	
-0.0132417	
-0.338312	
-0.280835	
-0.19111	
-0.207699	
-0.205042	
0.0298577	
-0.0116752	
-0.317749	
-0.324861	
-0.3236	
0.0254041	
0.0368774	
-0.111632	
-0.143535	
-0.0615136	
-0.0699355	
-0.0525336	
0.0461186	
-0.250393	
-0.210271	
-0.186307	
-0.194385	
-0.144561	
-0.191782	
-0.139934	
-0.166817	
-0.146779	
-0.167554	
-0.336777	
-0.345799	
-0.131166	
-0.0875485	
-0.24247	
-0.256914	
-0.272331	
-0.20214	
-0.166072	
-0.210443	
-0.189582	
0.0203316	
-0.282926	
-0.0999945	
-0.111416	
-0.176082	
-0.246	
-0.19423	
-0.212315	
-0.236837	
-0.253625	
-0.335263	
-0.237361	
-0.244206	
-0.247508	
-0.26179	
-0.0279884	
-0.233158	
-0.199986	
-0.222386	
-0.102563	
-0.102775	
-0.133297	
-0.128968	
-0.0150746	
-0.0308215	
-0.118205	
-0.0964482	
-0.218814	
-0.113594	
-0.328377	
-0.336217	
-0.0571885	
-0.289611	
-0.280029	
-0.274404	
-0.192982	
-0.238683	
-0.199608	
-0.2368	
-0.19371	
-0.13188	
-0.32003	
-0.314034	
-0.176546	
-0.184623	
-0.207367	
-0.212965	
-0.0908513	
-0.114352	
-0.316395	
-0.303694	
-0.156485	
-0.179913	
0.0105255	
-0.0358056	
-0.0240016	
-0.078007	
-0.0453154	
-0.0241311	
-0.269612	
-0.283023	
-0.347266	
-0.100515	
-0.0885366	
-0.0679931	
-0.0689296	
-0.0885556	
-0.0554094	
-0.0848748	
-0.303921	
-0.321215	
-0.308723	
-0.345526	
-0.32452	
-0.0848166	
-0.117656	
-0.113281	
-0.154611	
-0.202886	
-0.247309	
-0.199874	
-0.123295	
-0.12482	
-0.140595	
-0.225616	
-0.238015	
-0.158545	
-0.176108	
-0.156013	
-0.174244	
-0.0216458	
-0.0346387	
-0.0500574	
-0.0632545	
-0.309664	
-0.210044	
-0.140505	
-0.0835495	
-0.11981	
-0.208673	
-0.222684	
-0.194415	
-0.214311	
-0.260881	
-0.269752	
-0.247476	
-0.262769	
-0.311609	
-0.300237	
-0.307885	
-0.293017	
-0.157056	
-0.113117	
-0.202353	
-0.190123	
-0.0775423	
-0.103462	
-0.0771077	
-0.104622	
-0.209618	
-0.217134	
-0.0626763	
-0.0662994	
-0.0296401	
-0.251979	
-0.256581	
-0.267292	
-0.278122	
-0.059521	
-0.0814202	
-0.228278	
-0.228773	
-0.141566	
-0.174731	
-0.137915	
-0.172321	
-0.243537	
-0.201086	
-0.228064	
0.00146882	
-0.0267617	
-0.316591	
-0.326134	
-0.0978022	
-0.11591	
-0.160234	
-0.146473	
-0.148615	
-0.134105	
-0.239517	
-0.218093	
-0.247786	
-0.285663	
-0.273181	
-0.293903	
-0.171028	
-0.154228	
-0.141804	
-0.102546	
-0.109573	
-0.0400225	
-0.0344013	
-0.0310159	
-0.0134921	
-0.0287751	
-0.00981185	
-0.056434	
-0.0263347	
-0.0575488	
-0.0474957	
-0.0479837	
-0.121969	
-0.112445	
-0.082672	
-0.149224	
-0.0273883	
-0.0553111	
-0.0253418	
-0.0669788	
-0.154427	
-0.130077	
-0.17083	
-0.157606	
-0.0370575	
-0.0345007	
-0.0845742	
-0.0641794	
-0.22001	
-0.222797	
-0.177981	
-0.177561	
-0.169655	
-0.19147	
-0.190496	
-0.212063	
-0.264622	
-0.2666	
-0.247917	
-0.253104	
-0.289795	
-0.281152	
-0.300885	
-0.297341	
-0.301088	
-0.297552	
-0.314671	
-0.308041	
-0.0830824	
-0.028353	
-0.0499638	
-0.294688	
-0.283695	
-0.316407	
-0.305272	
-0.315969	
-0.301297	
-0.301806	
-0.0146447	
-0.0311855	
-0.209001	
-0.198022	
-0.185782	
-0.336894	
-0.338263	
-0.338679	
-0.167232	
-0.146566	
-0.154062	
-0.138023	
-0.341012	
-0.333166	
-0.326098	
-0.333288	
-0.329237	
-0.139569	
-0.202708	
-0.223322	
-0.196495	
-0.228077	
0.0314191	
0.0419181	
-0.0727725	
-0.0710129	
-0.0150742	
-0.0404424	
-0.0163305	
0.0285196	
0.0400834	
-0.0671516	
-0.123705	
-0.0638845	
-0.113518	
-0.135963	
-0.151852	
-0.183416	
-0.180401	
-0.196143	
-0.203809	
-0.23668	
-0.240404	
-0.0088748	
-0.0115133	
-0.333623	
-0.323292	
-0.0295384	
-0.00633265	
-0.27675	
-0.0252882	
0.0338532	
-0.257372	
-0.00731387	
-0.344849	
-0.285533	
-0.0269714	
-0.00297962	
0.00978058	
-0.191531	
-0.178756	
-0.299542	
-0.30895	
-0.311125	
-0.3153	
-0.325382	
-0.328612	
-0.201617	
-0.220285	
-0.12848	
-0.117134	
-0.126298	
-0.283875	
-0.239931	
-0.261521	
-0.264817	
-0.124511	
-0.155558	
-0.16488	
-0.184227	
-0.00870902	
0.00908451	
0.03916	
-0.0371355	
0.0243407	
0.0439965	
0.0222264	
-0.0144197	
-0.296987	
-0.331814	
-0.324714	
-0.331855	
0.0310552	
-0.325322	
-0.321413	
-0.15528	
-0.13562	
-0.149929	
0.0277463	
0.0412521	
-0.313112	
-0.315524	
-0.31032	
-0.270896	
0.00877344	
-0.275908	
-0.266396	
-0.257592	
0.0366458	
0.0410855	
0.0433277	
-0.205967	
-0.191091	
-0.184818	
-0.166736	
-0.331869	
-0.333905	
-0.33656	
0.0440819	
0.0301835	
0.0374228	
0.00300457	
-0.297469	
-0.295672	
-0.289708	
-0.144887	
-0.146254	
0.043166	
0.0267643	
-0.329387	
-0.321027	
-0.319164	
-0.15787	
-0.14647	
-0.316732	
-0.323002	
-0.260114	
-0.0313157	
-0.0276546	
-0.0662406	
-0.0640766	
0.045366	
0.0390292	
-0.0738859	
-0.0843087	
-0.102935	
-0.104832	
-0.34311	
-0.343569	
-0.333578	
-0.342971	
-0.108078	
-0.0763409	
-0.0918793	
-0.0974774	
-0.118485	
0.0356194	
0.025818	
0.0208268	
-0.191394	
-0.202414	
-0.174989	
-0.199883	
0.0386313	
-0.110787	
-0.110334	
-0.0951562	
-0.338944	
-0.346076	
-0.262903	
-0.273064	
-0.103024	
-0.123371	
-0.286244	
-0.275153	
0.000364628	
0.00435749	
-0.25666	
-0.281396	
-0.271188	
-0.206845	
-0.227982	
-0.195437	
-0.211291	
-0.0412346	
-0.0922021	
-0.050461	
-0.0436439	
-0.0921064	
-0.0745318	
-0.340309	
-0.345771	
-0.340876	
-0.345108	
-0.0370669	
-0.0447134	
0.0231306	
-0.255021	
-0.235372	
-0.305428	
-0.29786	
-0.162516	
-0.157818	
-0.117265	
-0.10085	
-0.324519	
-0.316552	
-0.337222	
-0.333389	
-0.32579	
-0.317342	
-0.167295	
-0.170764	
-0.143811	
-0.14767	
-0.25788	
-0.273739	
-0.187753	
-0.202371	
-0.222132	
-0.22395	
-0.335208	
-0.337044	
-0.338639	
-0.338006	
-0.288033	
-0.301824	
-0.311704	
-0.304807	
-0.312974	
-0.265593	
-0.254275	
-0.275126	
-0.285135	
-0.0321809	
0.0122891	
0.0370587	
-0.288596	
-0.284916	
-0.0870144	
-0.0704795	
-0.120101	
-0.214165	
-0.232006	
-0.213968	
-0.249632	
-0.246085	
-0.255113	
-0.258351	
-0.264295	
-0.342392	
-0.33735	
-0.335982	
-0.32823	
-0.294752	
-0.276108	
-0.288926	
-0.317419	
0.0172441	
-0.0438138	
0.0324348	
0.00770317	
-0.222465	
-0.248399	
-0.24458	
-0.219513	
-0.235543	
-0.0263763	
0.0321527	
0.0293808	
-0.0213509	
0.0410483	
0.0214368	
-0.282488	
-0.289893	
-0.28868	
-0.29909	
0.0341383	
0.0106736	
-0.23234	
-0.263264	
-0.240908	
-0.268474	
-0.258306	
-0.26348	
-0.275694	
-0.254363	
-0.247884	
-0.26424	
-0.121238	
-0.127236	
-0.140638	
-0.153379	
-0.327389	
-0.327782	
-0.329876	
-0.230864	
-0.219559	
-0.31605	
-0.311247	
-0.299311	
-0.300899	
-0.213235	
-0.231432	
-0.22519	
-0.242149	
-0.0995394	
-0.124119	
-0.309003	
-0.311256	
-0.33436	
-0.339258	
-0.0524952	
-0.0663906	
-0.0725897	
-0.0820756	
-0.23802	
-0.225354	
-0.220823	
-0.215303	
-0.12472	
-0.148805	
-0.157797	
-0.176845	
-0.285704	
-0.298731	
-0.298572	
-0.309473	
-0.161686	
-0.153421	
-0.198449	
-0.190555	
-0.246638	
-0.236557	
-0.0632584	
-0.0404851	
-0.0882437	
-0.0731127	
-0.27966	
-0.276077	
-0.343834	
-0.341465	
-0.344659	
-0.346553	
-0.321524	
-0.320528	
-0.145655	
-0.160212	
-0.188708	
-0.198866	
-0.0247845	
-0.0122094	
0.033189	
0.030564	
-0.198074	
-0.162805	
-0.18767	
-0.150308	
-0.0106269	
-0.00416512	
-0.00719343	
-0.000576323	
0.00250462	
0.0145371	
0.0207255	
0.0230813	
0.0172277	
-0.0089514	
-0.000222025	
0.00802905	
0.00370124	
0.0100343	
0.0187847	
0.0230874	
0.010123	
0.0145195	
0.00642763	
-0.00461583	
0.0039104	
-0.0111495	
-0.0150067	
-0.00401751	
-0.0227356	
-0.0225865	
-0.0165543	
-0.0238266	
-0.0205402	
0.0145035	
0.0124134	
-0.00130946	
0.00501089	
-0.00641129	
-0.0178983	
-0.0170632	
-0.0163822	
-0.0144533	
-0.00997586	
0.017908	
0.286359	
0.249127	
0.274249	
0.0580096	
0.103074	
0.060176	
0.207977	
0.114236	
0.111996	
0.112506	
0.113338	
0.0851686	
0.0563705	
0.109535	
0.100033	
0.0954544	
0.0550304	
0.107024	
0.0877315	
0.233382	
0.21651	
0.147104	
0.198631	
0.225255	
0.179529	
0.199113	
0.149678	
0.126545	
0.227117	
0.220785	
0.171203	
0.223885	
0.251573	
0.131728	
0.126175	
0.223216	
0.226381	
0.166418	
0.1795	
0.157576	
0.170233	
0.183402	
0.180771	
0.212621	
0.21183	
0.171284	
0.226298	
0.146973	
0.145179	
0.14882	
0.231138	
0.212264	
0.219403	
0.206702	
0.209554	
0.240053	
0.18045	
0.181735	
0.177926	
0.143754	
0.0999801	
0.131863	
0.210237	
0.205932	
0.195975	
0.193412	
0.258122	
0.264676	
0.272539	
0.112604	
0.0617382	
0.202327	
0.201824	
0.193204	
0.189795	
0.176426	
0.166967	
0.187435	
0.186188	
0.186345	
0.199282	
0.194768	
0.196648	
0.204577	
0.191279	
0.192506	
0.172573	
0.160507	
0.120278	
0.106656	
0.12573	
0.112215	
0.226239	
0.237292	
0.221105	
0.224762	
0.127117	
0.117763	
0.166359	
0.241252	
0.250452	
0.196666	
0.199669	
0.155232	
0.201055	
0.218317	
0.121148	
0.107684	
0.134206	
0.130969	
0.158751	
0.139163	
0.134174	
0.142705	
0.259199	
0.273749	
0.246231	
0.23062	
0.224872	
0.0676524	
0.0550266	
0.117929	
0.149587	
0.0798256	
0.0920556	
0.20264	
0.189435	
0.0959601	
0.0728503	
0.133071	
0.133646	
0.140215	
0.14069	
0.104615	
0.25576	
0.247818	
0.167607	
0.14768	
0.165166	
0.157637	
0.127268	
0.161476	
0.160304	
0.155142	
0.153741	
0.0999301	
0.289029	
0.274436	
0.255226	
0.267605	
0.226486	
0.21046	
0.198645	
0.194933	
0.109661	
0.100072	
0.175842	
0.191182	
0.17608	
0.192114	
0.170327	
0.17696	
0.192509	
0.173801	
0.194081	
0.0970479	
0.156621	
0.162658	
0.155933	
0.263683	
0.256745	
0.256926	
0.249478	
0.254426	
0.262151	
0.182866	
0.187032	
0.173959	
0.181649	
0.266718	
0.252604	
0.258949	
0.205738	
0.197462	
0.210331	
0.0628545	
0.0989779	
0.0878259	
0.099966	
0.289386	
0.285833	
0.180393	
0.169554	
0.26626	
0.20706	
0.20745	
0.199831	
0.155797	
0.163875	
0.204453	
0.216943	
0.210324	
0.218107	
0.243697	
0.247982	
0.236294	
0.239444	
0.235298	
0.244566	
0.250978	
0.220054	
0.205473	
0.222673	
0.148262	
0.142344	
0.167722	
0.165973	
0.177947	
0.175848	
0.110988	
0.0929958	
0.110753	
0.0976268	
0.117359	
0.179949	
0.171821	
0.164769	
0.160283	
0.1602	
0.14562	
0.150253	
0.139862	
0.247474	
0.241199	
0.182258	
0.176228	
0.1735	
0.221177	
0.222698	
0.211286	
0.214918	
0.0932487	
0.0891838	
0.282684	
0.10683	
0.106599	
0.119399	
0.241823	
0.236469	
0.234591	
0.105553	
0.0957256	
0.166828	
0.157037	
0.171297	
0.164807	
0.230879	
0.231649	
0.221423	
0.222877	
0.207759	
0.20748	
0.197865	
0.197538	
0.261671	
0.263911	
0.253128	
0.257648	
0.148294	
0.25215	
0.256964	
0.249669	
0.214341	
0.202169	
0.194431	
0.119447	
0.155887	
0.154649	
0.256556	
0.253987	
0.219239	
0.205181	
0.208735	
0.213392	
0.218657	
0.210695	
0.195238	
0.206102	
0.210666	
0.259604	
0.267932	
0.259386	
0.252195	
0.25879	
0.248069	
0.192901	
0.182374	
0.192329	
0.182879	
0.219128	
0.211169	
0.205681	
0.127222	
0.191281	
0.185923	
0.172662	
0.0820939	
0.0794056	
0.0916883	
0.0935794	
0.228524	
0.162829	
0.163294	
0.175122	
0.188848	
0.19579	
0.206555	
0.225896	
0.226639	
0.218542	
0.219203	
0.143808	
0.151226	
0.150668	
0.155641	
0.141411	
0.152217	
0.169808	
0.174738	
0.166946	
0.260873	
0.257083	
0.268392	
0.149092	
0.160866	
0.145025	
0.156957	
0.19541	
0.210257	
0.218592	
0.11949	
0.26153	
0.267573	
0.0583124	
0.0731167	
0.0827067	
0.054327	
0.168154	
0.155641	
0.173442	
0.142871	
0.148067	
0.230359	
0.237838	
0.230184	
0.202945	
0.214349	
0.20632	
0.181783	
0.170863	
0.131918	
0.138661	
0.139248	
0.149956	
0.149739	
0.171237	
0.156199	
0.165769	
0.171065	
0.181302	
0.185732	
0.239801	
0.231734	
0.214983	
0.207185	
0.167469	
0.150934	
0.285687	
0.247685	
0.277046	
0.280805	
0.270284	
0.286455	
0.271485	
0.284319	
0.280457	
0.283763	
0.279451	
0.236445	
0.240306	
0.24148	
0.245664	
0.226425	
0.229584	
0.232036	
0.23514	
0.208804	
0.215713	
0.217618	
0.220699	
0.269005	
0.208497	
0.202565	
0.196176	
0.192559	
0.282333	
0.239946	
0.243709	
0.13678	
0.138459	
0.143153	
0.153471	
0.143256	
0.146386	
0.150015	
0.160207	
0.227885	
0.239152	
0.227664	
0.123316	
0.130077	
0.122876	
0.129838	
0.208375	
0.200967	
0.233745	
0.225214	
0.232009	
0.22051	
0.221322	
0.206465	
0.217534	
0.209957	
0.194439	
0.180999	
0.198219	
0.184943	
0.144401	
0.139256	
0.171573	
0.16565	
0.194603	
0.187549	
0.198136	
0.187111	
0.26642	
0.265926	
0.274807	
0.153216	
0.150149	
0.145494	
0.140985	
0.134517	
0.134314	
0.140181	
0.143414	
0.132419	
0.127652	
0.21958	
0.203077	
0.215982	
0.211897	
0.270187	
0.269882	
0.135811	
0.14263	
0.158337	
0.15373	
0.176628	
0.159085	
0.155121	
0.175353	
0.200693	
0.16244	
0.14865	
0.124691	
0.18557	
0.194437	
0.127962	
0.132717	
0.243214	
0.240071	
0.236	
0.230734	
0.172625	
0.170112	
0.109157	
0.122855	
0.137819	
0.136274	
0.122449	
0.116666	
0.116243	
0.126678	
0.126657	
0.0862307	
0.111363	
0.132516	
0.274628	
0.262208	
0.278656	
0.274561	
0.233653	
0.241125	
0.231514	
0.237364	
0.241671	
0.242302	
0.247248	
0.138663	
0.219309	
0.20665	
0.212282	
0.16147	
0.264195	
0.251169	
0.268022	
0.235553	
0.236151	
0.262087	
0.254321	
0.267441	
0.165167	
0.0740166	
0.0747444	
0.0616166	
0.0523328	
0.209991	
0.217211	
0.284597	
0.278703	
0.0773889	
0.0738733	
0.0824736	
0.0706902	
0.114151	
0.177088	
0.187201	
0.18787	
0.178413	
0.182873	
0.19094	
0.183356	
0.191572	
0.182377	
0.190785	
0.128665	
0.14	
0.119973	
0.13979	
0.173361	
0.16065	
0.173232	
0.236071	
0.228351	
0.274646	
0.273248	
0.26274	
0.265371	
0.166394	
0.158204	
0.150805	
0.148497	
0.198787	
0.191419	
0.183011	
0.182129	
0.179183	
0.17727	
0.190608	
0.189813	
0.241988	
0.273944	
0.269938	
0.276361	
0.253436	
0.258937	
0.281694	
0.28312	
0.230779	
0.22462	
0.213232	
0.205412	
0.241832	
0.246431	
0.222581	
0.232969	
0.21844	
0.225625	
0.117861	
0.110171	
0.117937	
0.0995856	
0.194389	
0.181835	
0.279065	
0.272009	
0.266038	
0.264617	
0.270931	
0.279753	
0.290683	
0.279727	
0.28626	
0.237714	
0.24861	
0.240469	
0.25049	
0.241781	
0.119137	
0.0721438	
0.059895	
0.18791	
0.178285	
0.145811	
0.161686	
0.134274	
0.149307	
0.13343	
0.120377	
0.128278	
0.109329	
0.27419	
0.278465	
0.125314	
0.112374	
0.112374	
0.093097	
0.0992885	
0.132414	
0.124008	
0.11232	
0.106161	
0.118106	
0.0701408	
0.0873914	
0.0547924	
0.129789	
0.126714	
0.128662	
0.118081	
0.112184	
0.0990904	
0.115806	
0.121003	
0.2526	
0.160383	
0.153064	
0.150319	
0.141858	
0.250979	
0.243962	
0.245099	
0.237188	
0.0875067	
0.0690708	
0.133673	
0.126267	
0.118817	
0.104092	
0.104185	
0.120623	
0.113465	
0.144063	
0.196333	
0.185498	
0.186507	
0.133895	
0.125359	
0.117651	
0.250442	
0.128041	
0.10948	
0.139604	
0.122918	
0.231902	
0.23389	
0.238058	
0.243879	
0.091166	
0.105386	
0.100156	
0.109084	
0.194396	
0.200162	
0.0807479	
0.067836	
0.0761918	
0.0531936	
0.24247	
0.245008	
0.250184	
0.255255	
0.125967	
0.130024	
0.140264	
0.144344	
0.262474	
0.273112	
0.263022	
0.269451	
0.229989	
0.220706	
0.275778	
0.28425	
0.277333	
0.283139	
0.28982	
0.15942	
0.159202	
0.134592	
0.11906	
0.106958	
0.106465	
0.136741	
0.133976	
0.155539	
0.142699	
0.149123	
0.13365	
0.173786	
0.169276	
0.149188	
0.159392	
0.145919	
0.132512	
0.130654	
0.255464	
0.258943	
0.248035	
0.249372	
0.166745	
0.155304	
0.144818	
0.116947	
0.148742	
0.13563	
0.0404256	
0.0432093	
0.02549	
0.0417499	
0.0450334	
-0.344906	
-0.334294	
0.0434006	
0.0308419	
0.0361516	
-0.0534151	
-0.292443	
0.0437381	
0.04319	
-0.0881765	
-0.0933589	
-0.229548	
0.0459846	
-0.100396	
0.0383944	
0.037034	
-0.337568	
-0.147054	
-0.0970407	
-0.171408	
-0.063867	
-0.0826826	
0.0106818	
-0.0192263	
-0.281963	
-0.280721	
-0.234241	
-0.107012	
-0.3141	
-0.270499	
-0.0894355	
-0.131666	
-0.0787239	
-0.256465	
-0.254958	
-0.270565	
-0.305045	
-0.322821	
-0.291577	
-0.0175205	
-0.046194	
-0.184173	
-0.232718	
-0.247624	
-0.243803	
-0.206672	
-0.211003	
-0.15746	
-0.157673	
-0.124578	
-0.273344	
-0.138092	
-0.104794	
-0.109793	
-0.128685	
-0.121243	
-0.149067	
-0.116544	
-0.11518	
-0.311139	
-0.262994	
-0.134063	
-0.174701	
-0.284427	
-0.0849744	
-0.220103	
-0.127596	
-0.100531	
-0.166876	
-0.171776	
-0.298053	
-0.345083	
0.0369618	
0.0223366	
-0.0315515	
-0.211415	
-0.0752623	
-0.0652644	
-0.239379	
-0.262206	
-0.236635	
-0.294712	
-0.276222	
-0.176815	
-0.181369	
-0.264192	
-0.282274	
-0.253343	
-0.0516216	
-0.29654	
-0.0287032	
-0.0211771	
-0.0835927	
-0.0731405	
-0.233198	
-0.145777	
-0.179413	
-0.294938	
-0.117574	
-0.159431	
-0.190309	
-0.173071	
-0.20133	
-0.072953	
-0.276462	
-0.250764	
-0.257622	
-0.222095	
-0.204969	
-0.217804	
-0.103985	
-0.246501	
-0.0362779	
-0.0846537	
-0.145562	
-0.28999	
-0.28059	
-0.305378	
-0.327479	
-0.217803	
-0.21879	
-0.309213	
-0.298054	
-0.165601	
0.0298135	
-0.0132473	
-0.298452	
-0.297898	
-0.338591	
-0.282807	
-0.191327	
-0.191265	
0.0285668	
-0.0116748	
-0.316213	
-0.324147	
-0.323055	
0.0214314	
0.0371816	
-0.11141	
-0.14316	
-0.0626297	
-0.0529915	
-0.0710459	
-0.249937	
-0.210058	
-0.162621	
-0.194199	
-0.191847	
-0.191528	
-0.139968	
0.039751	
-0.161049	
-0.166282	
-0.335884	
-0.344241	
-0.155495	
-0.0873982	
-0.271873	
-0.242225	
-0.241061	
-0.170926	
-0.201964	
-0.189545	
-0.21031	
0.0203254	
-0.282747	
-0.111319	
-0.176058	
-0.247402	
-0.194691	
-0.212836	
-0.239861	
-0.253896	
-0.336006	
-0.260867	
-0.261898	
-0.237506	
-0.236686	
-0.0276593	
-0.233106	
-0.222302	
-0.199913	
-0.10278	
-0.10257	
-0.128957	
-0.0151629	
-0.0311447	
-0.118657	
-0.0894215	
-0.125764	
-0.219202	
-0.10309	
-0.344583	
-0.336358	
-0.32845	
-0.0633156	
-0.29284	
-0.276029	
-0.274399	
-0.191261	
-0.240514	
-0.219742	
-0.236403	
-0.193517	
-0.157491	
-0.313498	
-0.318696	
-0.207694	
-0.20129	
-0.187588	
-0.184841	
-0.117336	
-0.25652	
-0.303044	
-0.315328	
-0.156239	
-0.140615	
-0.180036	
0.0105723	
-0.0239672	
-0.0921628	
-0.0779392	
-0.0240842	
-0.0452471	
-0.268819	
-0.282044	
-0.100691	
-0.068123	
-0.0886782	
-0.0635432	
-0.0851562	
-0.0690724	
-0.0887361	
-0.302094	
-0.30683	
-0.319553	
-0.33225	
-0.343482	
-0.0437348	
-0.113158	
-0.0594528	
-0.117523	
-0.154475	
-0.177353	
-0.248055	
-0.199731	
-0.12034	
-0.154309	
-0.238833	
-0.226551	
-0.190597	
-0.156281	
-0.180908	
-0.0347719	
-0.0269336	
-0.0555667	
-0.0503766	
-0.133317	
-0.196446	
-0.119904	
-0.0884361	
-0.22291	
-0.190602	
-0.214477	
-0.194553	
-0.269989	
-0.247524	
-0.263018	
-0.247654	
-0.144399	
-0.307566	
-0.289402	
-0.31509	
-0.300006	
-0.140803	
-0.12735	
-0.176445	
-0.202809	
-0.103655	
-0.0667932	
-0.117038	
-0.0773523	
-0.195342	
-0.219263	
-0.0779765	
-0.0630563	
-0.0300455	
-0.266795	
-0.272835	
-0.251548	
-0.255981	
-0.0813217	
-0.0847156	
-0.230547	
-0.219088	
-0.158865	
-0.141782	
-0.174957	
-0.172543	
-0.152245	
-0.231186	
-0.205271	
-0.228064	
-0.213043	
-0.0217835	
0.00135987	
-0.326194	
-0.316684	
-0.115699	
-0.0976635	
-0.148832	
-0.134305	
-0.160484	
-0.146699	
-0.223767	
-0.247517	
-0.22725	
-0.28494	
-0.293674	
-0.277775	
-0.154142	
-0.166018	
-0.141788	
-0.109542	
-0.123649	
-0.0405384	
-0.0347992	
-0.0159873	
-0.0339384	
-0.0097606	
-0.0580439	
-0.0263465	
-0.0564616	
-0.0575198	
-0.0481018	
-0.0256033	
-0.112321	
-0.082555	
-0.121849	
-0.092009	
-0.149114	
-0.0476301	
-0.0671202	
-0.0274165	
-0.055213	
-0.17069	
-0.131791	
-0.154272	
-0.129965	
-0.034484	
-0.0709228	
-0.0641165	
-0.0844833	
-0.177796	
-0.202629	
-0.199397	
-0.2225	
-0.208793	
-0.212163	
-0.16973	
-0.166872	
-0.239203	
-0.252846	
-0.264329	
-0.266392	
-0.276551	
-0.289106	
-0.296736	
-0.30016	
-0.296935	
-0.300531	
-0.307216	
-0.316472	
-0.0283295	
-0.0499504	
-0.0830752	
-0.299233	
-0.283751	
-0.308256	
-0.314094	
-0.314953	
-0.300943	
-0.303482	
-0.0312011	
-0.0146598	
-0.210266	
-0.209253	
-0.182148	
-0.337877	
-0.338137	
-0.161019	
-0.167309	
-0.137959	
-0.141308	
-0.339152	
-0.329691	
-0.33329	
-0.333374	
-0.328902	
-0.124468	
-0.223203	
-0.202635	
-0.227918	
-0.209985	
0.0418395	
0.0314235	
-0.072629	
-0.0152052	
-0.0370597	
-0.0402406	
-0.0161486	
0.0394254	
0.0283625	
-0.102509	
-0.0671344	
-0.113458	
-0.0870693	
-0.135578	
-0.151508	
-0.1745	
-0.183735	
-0.197728	
-0.197299	
-0.236431	
-0.24007	
-0.0116991	
-0.00902677	
-0.332205	
-0.322128	
-0.0296466	
-0.00641943	
-0.0280857	
-0.00427927	
0.0338125	
-0.0248261	
-0.337062	
-0.257972	
-0.276418	
-0.284003	
-0.0369586	
0.00292609	
-0.258212	
-0.267279	
0.00967759	
-0.190469	
-0.190117	
-0.308028	
-0.294874	
-0.309982	
-0.325201	
-0.311451	
-0.328385	
-0.201658	
-0.22182	
-0.128654	
-0.126518	
-0.117308	
-0.287847	
-0.261546	
-0.254988	
-0.131104	
-0.139538	
-0.181864	
-0.164842	
-0.00578974	
0.0394608	
0.00925632	
0.0248254	
-0.0267491	
0.0223604	
0.0440731	
-0.0143821	
-0.240262	
-0.249541	
-0.245951	
-0.33082	
-0.331876	
-0.324744	
0.028946	
-0.324577	
-0.320357	
-0.135712	
-0.155374	
-0.150003	
0.0439125	
0.0293506	
-0.314457	
-0.312186	
-0.315721	
0.00867567	
0.0410369	
0.0365584	
0.0332321	
-0.184963	
-0.170783	
-0.206118	
-0.207919	
-0.330598	
-0.341251	
-0.334867	
0.0301188	
0.0443679	
-0.00321324	
0.0374325	
-0.271404	
-0.264838	
-0.146488	
-0.145142	
0.0398656	
0.032875	
0.0276288	
-0.318371	
-0.297483	
-0.326773	
-0.320266	
-0.265401	
-0.258044	
-0.28228	
-0.267624	
-0.158141	
-0.146684	
-0.316514	
-0.32215	
-0.260058	
-0.0275424	
-0.0312115	
-0.063951	
-0.0661241	
0.0387845	
0.0449275	
-0.11374	
-0.104951	
-0.074015	
-0.0572652	
-0.341446	
-0.332711	
-0.341001	
-0.332225	
-0.108146	
-0.0973122	
-0.110784	
-0.0763749	
-0.0897043	
0.0258117	
0.0355884	
0.0210276	
-0.185141	
-0.199796	
-0.178288	
-0.201094	
0.0393165	
-0.113562	
-0.098163	
-0.34206	
-0.341057	
-0.123424	
-0.103077	
0.000285168	
0.00423108	
-0.27505	
-0.285871	
-0.25612	
-0.270573	
-0.280413	