<VTKFile type="UnstructuredGrid" version="0.1" byte_order="LittleEndian">
	<UnstructuredGrid>
		<Piece NumberOfPoints="1647" NumberOfCells="3046">
			<CellData Scalars="scalars">
				<DataArray type="Float64" Name="Doublet Strengths" NumberOfComponents="1" Format="ascii">
0.272948	
0.233283	
0.25739	
0.0554218	
0.0950118	
0.111211	
0.109665	
0.110193	
0.0568618	
0.0540845	
0.106578	
0.0977854	
0.0541681	
0.10427	
0.109422	
0.0849441	
0.21814	
0.106821	
0.26166	
0.195888	
0.213896	
0.1368	
0.18728	
0.212228	
0.169732	
0.187943	
0.143237	
0.173819	
0.120586	
0.209134	
0.21295	
0.162122	
0.211091	
0.236394	
0.122165	
0.209945	
0.212593	
0.150226	
0.170284	
0.148937	
0.162439	
0.173244	
0.170826	
0.195901	
0.199903	
0.168537	
0.212694	
0.1397	
0.137756	
0.152314	
0.228331	
0.217733	
0.206286	
0.19982	
0.203953	
0.194689	
0.225675	
0.15609	
0.17017	
0.171161	
0.167671	
0.136306	
0.0956743	
0.126814	
0.185407	
0.187368	
0.19181	
0.194559	
0.248829	
0.251597	
0.242573	
0.109531	
0.0506387	
0.181972	
0.183904	
0.19025	
0.194635	
0.177334	
0.165243	
0.167838	
0.159149	
0.183998	
0.176119	
0.183759	
0.180482	
0.186737	
0.185369	
0.192378	
0.165073	
0.154362	
0.102299	
0.115608	
0.122172	
0.208319	
0.218363	
0.213135	
0.221533	
0.11455	
0.123398	
0.157359	
0.226751	
0.229679	
0.241499	
0.197043	
0.186261	
0.187854	
0.147482	
0.211079	
0.105035	
0.117591	
0.125273	
0.135681	
0.133307	
0.142808	
0.12848	
0.127768	
0.246468	
0.257337	
0.217261	
0.231568	
0.211386	
0.0536388	
0.143363	
0.0892174	
0.0783545	
0.0843084	
0.17917	
0.196072	
0.0931084	
0.0699959	
0.133242	
0.133847	
0.126672	
0.127374	
0.102559	
0.241868	
0.232662	
0.156611	
0.142923	
0.158764	
0.146021	
0.111105	
0.143826	
0.146015	
0.15302	
0.151905	
0.114392	
0.101942	
0.272231	
0.258654	
0.238765	
0.251892	
0.215163	
0.187468	
0.187967	
0.194688	
0.0954757	
0.0770399	
0.25491	
0.181129	
0.171006	
0.178926	
0.167268	
0.175977	
0.161906	
0.182612	
0.183878	
0.176236	
0.0890698	
0.156158	
0.140004	
0.150345	
0.241704	
0.248575	
0.2546	
0.239094	
0.24946	
0.234422	
0.164218	
0.171709	
0.172902	
0.17667	
0.251703	
0.245605	
0.238599	
0.201975	
0.185289	
0.057604	
0.0730309	
0.0953189	
0.0962801	
0.090165	
0.27462	
0.269557	
0.170985	
0.161283	
0.250964	
0.197807	
0.1946	
0.183336	
0.156017	
0.156868	
0.197262	
0.192523	
0.207944	
0.197668	
0.234596	
0.229363	
0.225087	
0.220005	
0.223442	
0.238234	
0.230301	
0.230481	
0.199051	
0.207644	
0.210047	
0.140268	
0.140263	
0.15771	
0.159495	
0.167078	
0.173613	
0.100614	
0.105965	
0.0935951	
0.106013	
0.11415	
0.163543	
0.167373	
0.153143	
0.150739	
0.149712	
0.152745	
0.13461	
0.143951	
0.233076	
0.226853	
0.162177	
0.163862	
0.171959	
0.196684	
0.202568	
0.20846	
0.209747	
0.0865652	
0.0899542	
0.102376	
0.102225	
0.114056	
0.216613	
0.218742	
0.226592	
0.0920577	
0.102213	
0.149747	
0.158642	
0.148645	
0.162776	
0.204779	
0.208982	
0.216027	
0.220533	
0.182732	
0.186918	
0.196186	
0.200569	
0.236242	
0.242744	
0.246098	
0.248798	
0.141842	
0.105849	
0.241962	
0.232818	
0.242841	
0.202257	
0.188172	
0.191083	
0.110519	
0.147733	
0.146465	
0.238426	
0.238842	
0.20541	
0.195516	
0.192708	
0.204818	
0.194766	
0.200065	
0.194855	
0.194326	
0.180729	
0.184941	
0.243921	
0.253852	
0.236669	
0.233095	
0.243721	
0.236883	
0.272129	
0.173272	
0.187229	
0.169151	
0.182297	
0.199331	
0.206608	
0.194369	
0.122282	
0.173219	
0.180024	
0.164794	
0.167737	
0.0789366	
0.08499	
0.0881401	
0.219875	
0.154879	
0.15436	
0.165641	
0.18531	
0.181866	
0.19511	
0.266674	
0.254938	
0.260888	
0.205814	
0.206345	
0.212722	
0.21667	
0.137226	
0.147378	
0.147867	
0.136635	
0.144737	
0.138661	
0.166055	
0.158925	
0.161427	
0.252377	
0.245438	
0.24028	
0.153847	
0.142984	
0.157817	
0.140582	
0.206149	
0.198568	
0.251559	
0.245825	
0.116197	
0.0705546	
0.0562671	
0.0793278	
0.0522387	
0.159375	
0.152078	
0.135338	
0.135077	
0.216694	
0.213416	
0.223721	
0.197808	
0.19067	
0.201963	
0.172378	
0.162638	
0.133192	
0.127003	
0.143036	
0.133573	
0.157527	
0.148836	
0.150832	
0.162453	
0.162368	
0.171514	
0.17159	
0.217934	
0.225417	
0.195877	
0.203006	
0.164735	
0.143747	
0.158851	
0.270164	
0.272898	
0.260945	
0.266973	
0.231493	
0.264052	
0.26079	
0.270955	
0.266262	
0.254875	
0.262748	
0.265515	
0.262676	
0.226041	
0.222324	
0.230981	
0.227063	
0.219875	
0.217131	
0.206799	
0.211689	
0.199202	
0.204013	
0.255921	
0.191058	
0.190384	
0.181226	
0.179446	
0.224156	
0.227101	
0.132589	
0.130993	
0.140856	
0.143439	
0.139059	
0.136344	
0.147911	
0.149733	
0.212312	
0.213914	
0.124909	
0.113945	
0.124607	
0.118406	
0.189876	
0.199445	
0.212145	
0.222382	
0.207787	
0.211646	
0.208482	
0.198084	
0.205174	
0.175754	
0.183706	
0.175184	
0.183013	
0.134303	
0.139127	
0.134063	
0.156848	
0.166482	
0.176932	
0.188083	
0.17648	
0.181547	
0.26117	
0.25748	
0.246113	
0.249915	
0.146326	
0.134682	
0.134997	
0.128653	
0.128761	
0.140221	
0.134111	
0.126477	
0.19935	
0.192678	
0.205825	
0.203618	
0.25849	
0.137239	
0.143563	
0.147207	
0.151136	
0.166393	
0.156898	
0.208079	
0.200458	
0.247569	
0.236074	
0.14862	
0.066331	
0.165415	
0.150499	
0.188568	
0.157184	
0.182771	
0.174611	
0.116603	
0.128761	
0.159085	
0.215817	
0.219937	
0.223447	
0.225561	
0.118772	
0.162843	
0.160595	
0.102103	
0.118214	
0.120795	
0.12858	
0.108521	
0.121097	
0.123652	
0.132327	
0.132888	
0.25228	
0.259055	
0.258692	
0.262376	
0.226799	
0.215236	
0.21761	
0.0755055	
0.0808062	
0.0724235	
0.0695544	
0.232752	
0.233773	
0.223344	
0.227802	
0.224694	
0.223047	
0.128388	
0.19472	
0.199888	
0.206398	
0.0598321	
0.0595	
0.0716851	
0.0720328	
0.15263	
0.251635	
0.237755	
0.240262	
0.156171	
0.204538	
0.197887	
0.262596	
0.268748	
0.175968	
0.177133	
0.162608	
0.16682	
0.241693	
0.249077	
0.242136	
0.248774	
0.169291	
0.180759	
0.17338	
0.171567	
0.184186	
0.172485	
0.180006	
0.140346	
0.123778	
0.134412	
0.11302	
0.154439	
0.165009	
0.165113	
0.214889	
0.221992	
0.247276	
0.249582	
0.253841	
0.257272	
0.150217	
0.15336	
0.140987	
0.142884	
0.173821	
0.173017	
0.184151	
0.181455	
0.185087	
0.179971	
0.170204	
0.162928	
0.231766	
0.220123	
0.232211	
0.226161	
0.229391	
0.267496	
0.274596	
0.260381	
0.263182	
0.243829	
0.238665	
0.21043	
0.218706	
0.192986	
0.200889	
0.114447	
0.0972698	
0.118958	
0.107355	
0.172434	
0.179697	
0.268953	
0.262567	
0.269128	
0.263386	
0.254734	
0.265818	
0.257239	
0.249714	
0.254491	
0.248444	
0.235387	
0.233846	
0.226192	
0.153794	
0.140784	
0.143102	
0.129775	
0.101547	
0.0941771	
0.0821187	
0.0687323	
0.107053	
0.11944	
0.107342	
0.0968817	
0.0919054	
0.125812	
0.117969	
0.137091	
0.0523266	
0.0670844	
0.0834203	
0.124524	
0.114248	
0.121658	
0.12295	
0.111629	
0.115781	
0.137263	
0.223675	
0.223426	
0.236333	
0.235812	
0.0835343	
0.0659999	
0.120199	
0.113216	
0.127007	
0.117425	
0.123637	
0.116312	
0.127881	
0.112664	
0.124645	
0.208943	
0.205592	
0.200556	
0.116559	
0.110785	
0.110808	
0.107749	
0.092961	
0.174726	
0.175561	
0.184568	
0.111996	
0.127132	
0.119205	
0.130687	
0.119339	
0.123888	
0.10659	
0.189661	
0.191619	
0.224037	
0.227448	
0.218453	
0.220285	
0.0927912	
0.0871475	
0.103966	
0.0955183	
0.183086	
0.188251	
0.106286	
0.101978	
0.0603092	
0.0509757	
0.0772693	
0.0649389	
0.124008	
0.106247	
0.133118	
0.116812	
0.252455	
0.246519	
0.206442	
0.212976	
0.152509	
0.142782	
0.140642	
0.130361	
0.130354	
0.143924	
0.116889	
0.14976	
0.138772	
0.127243	
0.128052	
0.140079	
0.11258	
0.134226	
0.145593	
0.152833	
0.13532	
0.143809	
0.240163	
0.242648	
0.247136	
0.138319	
0.145091	
0.118743	
0.12441	
0.234685	
0.236758	
0.224573	
0.226189	
0.232833	
0.239868	
0.227657	
0.229639	
0.0979141	
0.103005	
0.0987185	
0.103625	
0.0330003	
0.0444601	
0.0386749	
0.0430477	
0.0462146	
-0.327674	
-0.318817	
0.0415627	
0.0420015	
0.0448382	
0.041076	
0.0365414	
-0.279525	
0.0446092	
-0.0857085	
-0.090979	
-0.218062	
-0.12275	
0.0398368	
0.0387394	
-0.138711	
-0.084637	
-0.16221	
-0.0764801	
-0.0805856	
0.0135031	
-0.0154036	
-0.263707	
-0.26873	
-0.222774	
-0.0999905	
-0.30758	
-0.258181	
-0.0845817	
-0.123911	
-0.0728278	
-0.229481	
-0.242914	
-0.258758	
-0.290806	
-0.307819	
-0.278479	
-0.0137339	
-0.0413469	
-0.172585	
-0.221719	
-0.191	
-0.216822	
-0.212569	
-0.23204	
-0.151276	
-0.169522	
-0.122751	
-0.260419	
-0.144579	
-0.104254	
-0.110967	
-0.122721	
-0.113744	
-0.10923	
-0.140611	
-0.108868	
-0.296658	
-0.254593	
-0.130736	
-0.175628	
-0.271869	
-0.078902	
-0.209837	
-0.119992	
-0.0938514	
-0.16218	
-0.164565	
-0.272383	
-0.330183	
0.0247941	
0.0238368	
-0.0271911	
-0.201189	
-0.0598783	
-0.069571	
-0.25036	
-0.228383	
-0.225996	
-0.263239	
-0.280904	
-0.179075	
-0.173216	
-0.269608	
-0.252369	
-0.241848	
-0.0464799	
-0.28479	
-0.0121841	
-0.0530449	
-0.040861	
-0.0824621	
-0.221947	
-0.155745	
-0.172833	
-0.281527	
-0.110474	
-0.163818	
-0.196106	
-0.15071	
-0.160876	
-0.0690439	
-0.238719	
-0.263625	
-0.21117	
-0.245262	
-0.189511	
-0.208245	
-0.0685292	
-0.0971924	
-0.235197	
-0.0343309	
-0.0498618	
-0.0781073	
-0.152514	
-0.268024	
-0.276845	
-0.291916	
-0.312776	
-0.21594	
-0.207833	
-0.284771	
-0.29519	
-0.160476	
0.0319288	
-0.00966972	
-0.32181	
-0.268575	
-0.182231	
-0.198152	
-0.195809	
0.0319443	
-0.00804131	
-0.303061	
-0.309853	
-0.308541	
0.0277021	
0.0385114	
-0.108289	
-0.139024	
-0.0587244	
-0.0667402	
-0.0496204	
0.0467402	
-0.238154	
-0.199528	
-0.17638	
-0.184205	
-0.136123	
-0.182246	
-0.13211	
-0.158086	
-0.142162	
-0.16183	
-0.32068	
-0.32866	
-0.123467	
-0.0811154	
-0.230456	
-0.24435	
-0.259091	
-0.191663	
-0.15675	
-0.199564	
-0.179338	
0.0229397	
-0.269526	
-0.0931673	
-0.104255	
-0.167006	
-0.236096	
-0.186091	
-0.203486	
-0.227134	
-0.242792	
-0.318902	
-0.226427	
-0.232853	
-0.23639	
-0.250024	
-0.0235572	
-0.221905	
-0.189948	
-0.211579	
-0.0959063	
-0.0960913	
-0.125702	
-0.121468	
-0.0136907	
-0.0289512	
-0.113473	
-0.0923257	
-0.209595	
-0.107253	
-0.312848	
-0.319972	
-0.0525291	
-0.276124	
-0.267516	
-0.26227	
-0.186087	
-0.229549	
-0.189245	
-0.225057	
-0.18359	
-0.123862	
-0.305375	
-0.299892	
-0.168569	
-0.176217	
-0.198451	
-0.203702	
-0.0878288	
-0.110586	
-0.301209	
-0.289075	
-0.151485	
-0.170933	
0.0134486	
-0.0312236	
-0.0198519	
-0.0719919	
-0.0403695	
-0.0199768	
-0.256675	
-0.269526	
-0.330205	
-0.0958107	
-0.0839808	
-0.064039	
-0.0650984	
-0.084303	
-0.0520156	
-0.0809032	
-0.289539	
-0.306037	
-0.294164	
-0.328534	
-0.309048	
-0.0785305	
-0.110225	
-0.106023	
-0.145826	
-0.192379	
-0.237933	
-0.189637	
-0.119065	
-0.120102	
-0.135479	
-0.21679	
-0.228658	
-0.151555	
-0.168881	
-0.149612	
-0.167644	
-0.0191435	
-0.0317061	
-0.047058	
-0.0598113	
-0.29482	
-0.19986	
-0.132844	
-0.0777451	
-0.112862	
-0.198583	
-0.212206	
-0.184899	
-0.204205	
-0.249296	
-0.257827	
-0.236358	
-0.251129	
-0.297177	
-0.286348	
-0.293473	
-0.279252	
-0.149186	
-0.106546	
-0.194258	
-0.182323	
-0.0725376	
-0.0977915	
-0.0723474	
-0.0992285	
-0.202175	
-0.209114	
-0.0580025	
-0.0617059	
-0.025909	
-0.239558	
-0.243931	
-0.254341	
-0.264705	
-0.0541377	
-0.0752408	
-0.220136	
-0.220334	
-0.13497	
-0.166405	
-0.130806	
-0.164199	
-0.232931	
-0.192125	
-0.218222	
0.003432	
-0.0242624	
-0.301798	
-0.310824	
-0.0949741	
-0.11239	
-0.152783	
-0.139571	
-0.141392	
-0.127447	
-0.227451	
-0.206838	
-0.235425	
-0.271853	
-0.25991	
-0.279853	
-0.161624	
-0.145446	
-0.133276	
-0.0953598	
-0.102117	
-0.0377189	
-0.0320721	
-0.0273961	
-0.0103707	
-0.0247839	
-0.0064817	
-0.0514831	
-0.0223775	
-0.0533623	
-0.0438964	
-0.0444829	
-0.114375	
-0.105153	
-0.0763931	
-0.140716	
-0.0241509	
-0.0512866	
-0.0222639	
-0.0627557	
-0.145641	
-0.122143	
-0.161487	
-0.148703	
-0.0324302	
-0.0299953	
-0.0782867	
-0.0586083	
-0.208911	
-0.211589	
-0.168359	
-0.167939	
-0.160853	
-0.181904	
-0.181029	
-0.201822	
-0.251635	
-0.253531	
-0.235535	
-0.240544	
-0.275789	
-0.267516	
-0.286377	
-0.283006	
-0.286697	
-0.283262	
-0.299676	
-0.293275	
-0.0769899	
-0.0240605	
-0.0449278	
-0.281713	
-0.271192	
-0.302081	
-0.291825	
-0.301674	
-0.288001	
-0.288317	
-0.0110905	
-0.0269768	
-0.201793	
-0.191099	
-0.179586	
-0.319972	
-0.321494	
-0.322252	
-0.161305	
-0.141613	
-0.148412	
-0.133213	
-0.32396	
-0.31708	
-0.310831	
-0.317224	
-0.313666	
-0.131687	
-0.192701	
-0.212614	
-0.186748	
-0.217255	
0.0334072	
0.0432866	
-0.0668947	
-0.0652006	
-0.011285	
-0.0356813	
-0.0124794	
0.0306799	
0.0415808	
-0.0611854	
-0.115846	
-0.0580708	
-0.106091	
-0.131687	
-0.14698	
-0.176632	
-0.173395	
-0.188806	
-0.195986	
-0.226732	
-0.230184	
-0.00690459	
-0.00962323	
-0.317614	
-0.307798	
-0.0266095	
-0.0039632	
-0.264928	
-0.0219195	
0.0346585	
-0.246852	
-0.00418533	
-0.327992	
-0.273213	
-0.022719	
-0.000541713	
0.0113979	
-0.184676	
-0.172721	
-0.28627	
-0.295168	
-0.29724	
-0.300611	
-0.310107	
-0.313073	
-0.194212	
-0.212147	
-0.122907	
-0.112028	
-0.121151	
-0.271745	
-0.230611	
-0.249163	
-0.252175	
-0.117089	
-0.147057	
-0.156172	
-0.174822	
-0.00592557	
0.0121118	
0.0406678	
-0.0324828	
0.0267285	
0.0451715	
0.0245238	
-0.0109911	
-0.284059	
-0.315893	
-0.309331	
-0.315994	
0.0328378	
-0.309716	
-0.305987	
-0.147028	
-0.128044	
-0.1418	
0.0294876	
0.0423803	
-0.298057	
-0.300358	
-0.29622	
-0.259436	
0.0106225	
-0.264239	
-0.255135	
-0.246834	
0.0376562	
0.0417692	
0.0445431	
-0.196411	
-0.182156	
-0.175789	
-0.158319	
-0.315936	
-0.317804	
-0.320305	
0.0449714	
0.0317641	
0.0386644	
0.00518014	
-0.28448	
-0.282665	
-0.277152	
-0.139152	
-0.140274	
0.0442651	
0.029044	
-0.313641	
-0.305671	
-0.303957	
-0.151073	
-0.140137	
-0.301664	
-0.307566	
-0.247982	
-0.0269193	
-0.0233685	
-0.0605599	
-0.0585133	
0.0461544	
0.0401027	
-0.0687953	
-0.0787265	
-0.097029	
-0.0986799	
-0.326262	
-0.326495	
-0.317434	
-0.326022	
-0.101386	
-0.0740162	
-0.0889312	
-0.0944853	
-0.114694	
0.0373896	
0.0280937	
0.0234544	
-0.184709	
-0.195414	
-0.169221	
-0.193061	
0.0402409	
-0.106704	
-0.10646	
-0.0915336	
-0.322589	
-0.32885	
-0.252	
-0.261572	
-0.0964465	
-0.116098	
-0.27313	
-0.262414	
0.00152622	
0.00566569	
-0.244044	
-0.267742	
-0.25797	
-0.196181	
-0.216509	
-0.185181	
-0.200379	
-0.0364606	
-0.0857773	
-0.0453025	
-0.0387503	
-0.0855783	
-0.0685576	
-0.324019	
-0.328513	
-0.324417	
-0.328147	
-0.0322324	
-0.039601	
0.0255758	
-0.242841	
-0.223915	
-0.292016	
-0.284832	
-0.157205	
-0.15258	
-0.113751	
-0.0979322	
-0.309381	
-0.301916	
-0.320786	
-0.317274	
-0.310169	
-0.302186	
-0.158541	
-0.161917	
-0.135846	
-0.139579	
-0.245182	
-0.260418	
-0.178035	
-0.19212	
-0.211241	
-0.212972	
-0.318958	
-0.320582	
-0.32192	
-0.321209	
-0.27433	
-0.287517	
-0.297447	
-0.290884	
-0.298671	
-0.254297	
-0.243313	
-0.263346	
-0.272552	
-0.0275637	
0.0153162	
0.0386912	
-0.276033	
-0.272688	
-0.0805586	
-0.0646731	
-0.112517	
-0.206594	
-0.223253	
-0.205978	
-0.23979	
-0.23684	
-0.245178	
-0.247838	
-0.253385	
-0.325726	
-0.321112	
-0.319844	
-0.312563	
-0.281721	
-0.263656	
-0.275859	
-0.302345	
0.0200125	
-0.038932	
0.0342973	
0.0108063	
-0.212459	
-0.237492	
-0.233666	
-0.211825	
-0.226954	
-0.0220826	
0.0341259	
0.031401	
-0.0176217	
0.0423687	
0.02378	
-0.270236	
-0.2773	
-0.27619	
-0.286064	
0.0359679	
0.0137689	
-0.221373	
-0.251232	
-0.229656	
-0.256194	
-0.246422	
-0.251993	
-0.263818	
-0.241936	
-0.235684	
-0.251458	
-0.114466	
-0.120122	
-0.133321	
-0.145518	
-0.31186	
-0.311833	
-0.314154	
-0.220785	
-0.209793	
-0.301662	
-0.297333	
-0.2858	
-0.287437	
-0.202382	
-0.21987	
-0.213979	
-0.230281	
-0.0927187	
-0.116398	
-0.295082	
-0.297342	
-0.318292	
-0.322868	
-0.050318	
-0.0636579	
-0.0699962	
-0.0789956	
-0.228392	
-0.216377	
-0.211778	
-0.206639	
-0.116973	
-0.140202	
-0.148959	
-0.167314	
-0.271923	
-0.284468	
-0.284206	
-0.294674	
-0.152617	
-0.144745	
-0.187937	
-0.180348	
-0.235317	
-0.225501	
-0.0583334	
-0.0362104	
-0.0824553	
-0.0677482	
-0.266342	
-0.262854	
-0.326772	
-0.324851	
-0.327326	
-0.329418	
-0.306637	
-0.305751	
-0.137372	
-0.151365	
-0.179043	
-0.18881	
-0.0210992	
-0.00899812	
0.0349876	
0.0324452	
-0.187646	
-0.153702	
-0.177622	
-0.141679	
-0.0106715	
-0.00442399	
-0.00741741	
-0.000873766	
0.00221356	
0.0139608	
0.0202347	
0.0226789	
0.0167024	
-0.00916426	
-0.000694315	
0.00743052	
0.00317109	
0.00949642	
0.0184858	
0.0227854	
0.0098323	
0.014214	
0.00612965	
-0.00488797	
0.00419176	
-0.0106611	
-0.0145406	
-0.00361712	
-0.0222368	
-0.0221916	
-0.0164676	
-0.0233557	
-0.0200154	
0.0145628	
0.0124338	
-0.00111395	
0.0051288	
-0.00618601	
-0.0176642	
-0.016898	
-0.0161669	
-0.0142081	
-0.00977133	
0.0178706	
0.268508	
0.234261	
0.257443	
0.0552114	
0.100659	
0.0575503	
0.196158	
0.111122	
0.109048	
0.109542	
0.110317	
0.0810096	
0.0534479	
0.106733	
0.097716	
0.0934128	
0.0541784	
0.104331	
0.0860603	
0.219757	
0.204738	
0.140074	
0.187402	
0.211769	
0.169872	
0.188301	
0.143016	
0.120778	
0.213833	
0.207867	
0.162253	
0.210626	
0.236471	
0.12599	
0.121189	
0.210269	
0.213212	
0.157565	
0.170236	
0.149371	
0.162103	
0.17344	
0.171084	
0.200272	
0.199622	
0.163056	
0.213211	
0.13984	
0.138012	
0.14266	
0.217244	
0.200118	
0.206676	
0.194961	
0.197516	
0.225528	
0.170634	
0.171785	
0.168258	
0.136459	
0.0951904	
0.126739	
0.198283	
0.194311	
0.185266	
0.182888	
0.242014	
0.248079	
0.2554	
0.108638	
0.0595192	
0.1911	
0.190612	
0.182761	
0.179677	
0.167692	
0.159035	
0.177695	
0.176521	
0.176142	
0.187982	
0.183828	
0.18565	
0.19289	
0.180714	
0.181798	
0.163959	
0.15301	
0.116851	
0.104038	
0.12198	
0.109228	
0.212667	
0.222885	
0.207987	
0.211357	
0.123286	
0.11449	
0.15764	
0.226776	
0.234923	
0.186039	
0.188647	
0.148505	
0.189862	
0.205633	
0.117654	
0.104982	
0.12902	
0.126145	
0.151013	
0.133548	
0.128837	
0.136573	
0.243855	
0.257407	
0.231157	
0.21694	
0.211791	
0.0662929	
0.0535837	
0.114627	
0.143273	
0.0784645	
0.0901387	
0.191352	
0.17928	
0.0912729	
0.0693398	
0.126882	
0.127514	
0.133481	
0.134018	
0.101997	
0.240313	
0.23293	
0.158951	
0.140919	
0.156739	
0.14993	
0.123435	
0.153278	
0.152134	
0.147564	
0.146161	
0.0950362	
0.270955	
0.25753	
0.239873	
0.251258	
0.213263	
0.198608	
0.18746	
0.184006	
0.105519	
0.0954206	
0.16707	
0.180869	
0.167134	
0.181694	
0.161895	
0.16791	
0.182178	
0.165172	
0.183694	
0.0929033	
0.149507	
0.154959	
0.148865	
0.247132	
0.240702	
0.240883	
0.234377	
0.239033	
0.246209	
0.172953	
0.176751	
0.164803	
0.171817	
0.250798	
0.237568	
0.243468	
0.194332	
0.186525	
0.198416	
0.0603725	
0.0957948	
0.0850238	
0.0963774	
0.271198	
0.267859	
0.171089	
0.161257	
0.250386	
0.195203	
0.195617	
0.188515	
0.148605	
0.155993	
0.192793	
0.204364	
0.198217	
0.205461	
0.228813	
0.23278	
0.222015	
0.224926	
0.221015	
0.229592	
0.235486	
0.207271	
0.19407	
0.209702	
0.140709	
0.135314	
0.159774	
0.158209	
0.169045	
0.167179	
0.106118	
0.0891755	
0.106174	
0.0937051	
0.114012	
0.170698	
0.163298	
0.157053	
0.152945	
0.152747	
0.139687	
0.143886	
0.134504	
0.232647	
0.226778	
0.172332	
0.166811	
0.164225	
0.208232	
0.209662	
0.19918	
0.202564	
0.0906053	
0.0866562	
0.264713	
0.102366	
0.102494	
0.11422	
0.228121	
0.222737	
0.221123	
0.100414	
0.091112	
0.158608	
0.149707	
0.162735	
0.156832	
0.217425	
0.218267	
0.20854	
0.209966	
0.195872	
0.195654	
0.186977	
0.186652	
0.245349	
0.247412	
0.237451	
0.241647	
0.141833	
0.236672	
0.241044	
0.234306	
0.202181	
0.191077	
0.18403	
0.11502	
0.147991	
0.146784	
0.240711	
0.238284	
0.206655	
0.193861	
0.197087	
0.201222	
0.206061	
0.198605	
0.184738	
0.19459	
0.198778	
0.243419	
0.251172	
0.243531	
0.236837	
0.242891	
0.232943	
0.182487	
0.173032	
0.182119	
0.173552	
0.206206	
0.198982	
0.194067	
0.122193	
0.180957	
0.176052	
0.164008	
0.0789983	
0.0770051	
0.0882224	
0.0902543	
0.215107	
0.154567	
0.155021	
0.165893	
0.178718	
0.185045	
0.194839	
0.212635	
0.213356	
0.205897	
0.206508	
0.137167	
0.143956	
0.143558	
0.148035	
0.135098	
0.144892	
0.161415	
0.165929	
0.158815	
0.245127	
0.241551	
0.252141	
0.142902	
0.15353	
0.139177	
0.149943	
0.184886	
0.198233	
0.205765	
0.115985	
0.245689	
0.25126	
0.0554257	
0.0694835	
0.0794147	
0.0522922	
0.159487	
0.148166	
0.16431	
0.135717	
0.140593	
0.216807	
0.223667	
0.216599	
0.191639	
0.202057	
0.194719	
0.172379	
0.162458	
0.127055	
0.133166	
0.133645	
0.143247	
0.142984	
0.1624	
0.148867	
0.157545	
0.162429	
0.171586	
0.175677	
0.225386	
0.217988	
0.202757	
0.195645	
0.158913	
0.144023	
0.267493	
0.233641	
0.25952	
0.263094	
0.253341	
0.268461	
0.254877	
0.267002	
0.263311	
0.266242	
0.262029	
0.222454	
0.226007	
0.227105	
0.230992	
0.213111	
0.216106	
0.218312	
0.221189	
0.196978	
0.203309	
0.205038	
0.207894	
0.252263	
0.197169	
0.192244	
0.185483	
0.182687	
0.264519	
0.226539	
0.230194	
0.131016	
0.132597	
0.136725	
0.146137	
0.136997	
0.139856	
0.143063	
0.15228	
0.215335	
0.225966	
0.214661	
0.118944	
0.124932	
0.11842	
0.124656	
0.196581	
0.189803	
0.219704	
0.211885	
0.218049	
0.207499	
0.208386	
0.194652	
0.204864	
0.197905	
0.183659	
0.171472	
0.187244	
0.17513	
0.138539	
0.133903	
0.162516	
0.157154	
0.183704	
0.177211	
0.186948	
0.176827	
0.250155	
0.249664	
0.257926	
0.146328	
0.143544	
0.138774	
0.134631	
0.128838	
0.128607	
0.133807	
0.136654	
0.126741	
0.122337	
0.207421	
0.191922	
0.203871	
0.200125	
0.253171	
0.252912	
0.130609	
0.136875	
0.150993	
0.146836	
0.167064	
0.150746	
0.148338	
0.166036	
0.189399	
0.153862	
0.141234	
0.118484	
0.175347	
0.183604	
0.121647	
0.128301	
0.228737	
0.225714	
0.222047	
0.217126	
0.163367	
0.161013	
0.106383	
0.119299	
0.132656	
0.131214	
0.118704	
0.113453	
0.113079	
0.122163	
0.122169	
0.0843968	
0.108394	
0.128081	
0.2574	
0.246084	
0.261132	
0.257439	
0.219823	
0.22678	
0.217966	
0.223493	
0.227369	
0.228038	
0.232601	
0.133179	
0.206573	
0.194783	
0.200048	
0.153013	
0.247792	
0.235888	
0.251346	
0.22161	
0.222131	
0.246046	
0.238849	
0.250833	
0.156501	
0.0716547	
0.0720611	
0.0597623	
0.05063	
0.197879	
0.20458	
0.266696	
0.261017	
0.0754239	
0.0723996	
0.08076	
0.0695579	
0.111059	
0.168064	
0.177736	
0.178343	
0.16928	
0.173325	
0.180684	
0.173376	
0.181056	
0.172553	
0.180531	
0.122269	
0.1329	
0.114067	
0.13283	
0.164973	
0.153566	
0.164896	
0.221942	
0.214857	
0.257374	
0.256064	
0.246276	
0.248764	
0.15758	
0.149969	
0.143004	
0.14085	
0.187988	
0.181277	
0.173687	
0.172876	
0.170224	
0.168504	
0.180565	
0.179812	
0.227452	
0.256698	
0.253059	
0.258978	
0.238261	
0.243389	
0.263712	
0.264927	
0.21794	
0.212033	
0.20106	
0.193917	
0.22764	
0.232069	
0.209609	
0.219155	
0.205849	
0.212418	
0.113934	
0.107305	
0.114388	
0.0972712	
0.183867	
0.172399	
0.261935	
0.255293	
0.24981	
0.24851	
0.254461	
0.262475	
0.272537	
0.262379	
0.268385	
0.223313	
0.233254	
0.225757	
0.234963	
0.226956	
0.113236	
0.0685691	
0.0569245	
0.177899	
0.169154	
0.140534	
0.154464	
0.129782	
0.143238	
0.12842	
0.11691	
0.124152	
0.106441	
0.257427	
0.261631	
0.119128	
0.10694	
0.107003	
0.091182	
0.0970216	
0.125839	
0.117986	
0.108523	
0.103519	
0.113938	
0.0669915	
0.0833585	
0.0522553	
0.125795	
0.121326	
0.122964	
0.113427	
0.109119	
0.0968124	
0.111183	
0.115856	
0.237337	
0.15319	
0.146543	
0.144128	
0.136454	
0.235425	
0.228981	
0.230066	
0.222802	
0.0833956	
0.0658264	
0.127225	
0.120397	
0.113388	
0.100839	
0.10071	
0.11638	
0.110365	
0.136916	
0.185316	
0.175283	
0.176206	
0.127357	
0.11933	
0.11216	
0.23596	
0.123909	
0.106574	
0.134059	
0.119265	
0.217878	
0.219721	
0.223529	
0.228871	
0.0872041	
0.100748	
0.0955995	
0.104094	
0.183508	
0.188847	
0.0773232	
0.0649597	
0.0731096	
0.0510234	
0.227911	
0.230299	
0.235009	
0.239735	
0.122173	
0.125958	
0.134856	
0.13861	
0.246188	
0.256156	
0.246794	
0.252827	
0.217009	
0.208055	
0.258347	
0.266308	
0.259795	
0.265269	
0.271737	
0.152115	
0.151908	
0.130143	
0.115501	
0.101639	
0.10125	
0.129913	
0.127239	
0.148914	
0.137615	
0.142995	
0.129245	
0.164946	
0.160765	
0.141712	
0.151332	
0.139972	
0.128215	
0.126504	
0.240421	
0.24393	
0.233464	
0.234806	
0.15834	
0.147537	
0.13896	
0.113605	
0.142534	
0.131104	
0.0418578	
0.0444948	
0.0277858	
0.0431229	
0.0462349	
-0.327665	
-0.318494	
0.04467	
0.0328138	
0.0365298	
-0.0512203	
-0.27872	
0.0450218	
0.0444474	
-0.0855802	
-0.0906353	
-0.217979	
0.046613	
-0.0974373	
0.0399034	
0.0387271	
-0.320952	
-0.138518	
-0.0929154	
-0.161987	
-0.0580305	
-0.0763761	
0.0136149	
-0.0153045	
-0.268266	
-0.267058	
-0.222466	
-0.0998536	
-0.29909	
-0.257472	
-0.0847312	
-0.123756	
-0.0728232	
-0.243894	
-0.242507	
-0.258698	
-0.290525	
-0.307648	
-0.278242	
-0.013725	
-0.041334	
-0.174744	
-0.221573	
-0.23522	
-0.231567	
-0.195825	
-0.200083	
-0.151489	
-0.148828	
-0.116825	
-0.260207	
-0.131014	
-0.0994194	
-0.104425	
-0.122914	
-0.113577	
-0.140416	
-0.109041	
-0.109078	
-0.296529	
-0.251521	
-0.129712	
-0.168944	
-0.271454	
-0.07891	
-0.209961	
-0.119835	
-0.093694	
-0.158447	
-0.16491	
-0.283848	
-0.327772	
0.038599	
0.0248435	
-0.0271094	
-0.201065	
-0.0695923	
-0.0598881	
-0.22871	
-0.250597	
-0.225911	
-0.280619	
-0.26294	
-0.168837	
-0.173531	
-0.251978	
-0.269388	
-0.241478	
-0.0463947	
-0.282426	
-0.0246931	
-0.0174342	
-0.0777746	
-0.0677652	
-0.221568	
-0.140847	
-0.172961	
-0.280673	
-0.110501	
-0.150525	
-0.180115	
-0.163598	
-0.190717	
-0.0705333	
-0.263565	
-0.23887	
-0.245174	
-0.211042	
-0.197111	
-0.209433	
-0.0971075	
-0.236311	
-0.0345382	
-0.0781188	
-0.137269	
-0.277254	
-0.268202	
-0.291099	
-0.312039	
-0.206536	
-0.207548	
-0.295088	
-0.284409	
-0.160064	
0.0318563	
-0.00966592	
-0.285489	
-0.285116	
-0.322217	
-0.270788	
-0.182456	
-0.18232	
0.030736	
-0.0080205	
-0.301511	
-0.309156	
-0.307881	
0.0239585	
0.0387948	
-0.108079	
-0.138714	
-0.0598239	
-0.0500682	
-0.0678349	
-0.237632	
-0.199288	
-0.15351	
-0.184012	
-0.182178	
-0.181882	
-0.132153	
0.0410985	
-0.155737	
-0.160518	
-0.319813	
-0.32706	
-0.146977	
-0.080963	
-0.258616	
-0.230183	
-0.229107	
-0.16149	
-0.191466	
-0.179289	
-0.19942	
0.0229402	
-0.269363	
-0.104152	
-0.166946	
-0.237507	
-0.186538	
-0.203999	
-0.230197	
-0.242969	
-0.319704	
-0.249233	
-0.25008	
-0.226526	
-0.225558	
-0.0232967	
-0.221837	
-0.211478	
-0.189858	
-0.0960643	
-0.0958948	
-0.121431	
-0.0137652	
-0.0292615	
-0.113927	
-0.0857238	
-0.121029	
-0.209979	
-0.0972004	
-0.327494	
-0.320207	
-0.312978	
-0.0583857	
-0.279098	
-0.263531	
-0.262219	
-0.184411	
-0.231356	
-0.208623	
-0.224649	
-0.183342	
-0.148556	
-0.299322	
-0.303959	
-0.19877	
-0.19233	
-0.179374	
-0.176444	
-0.113577	
-0.246598	
-0.288405	
-0.300133	
-0.151284	
-0.132949	
-0.171034	
0.0135084	
-0.0197939	
-0.0857248	
-0.0719155	
-0.0199204	
-0.0402946	
-0.255877	
-0.268538	
-0.0959932	
-0.0641724	
-0.0841438	
-0.060099	
-0.0811848	
-0.0652414	
-0.0844864	
-0.287731	
-0.292337	
-0.304441	
-0.316245	
-0.326487	
-0.0388304	
-0.105887	
-0.0540196	
-0.110072	
-0.145654	
-0.167712	
-0.238714	
-0.189497	
-0.116169	
-0.148651	
-0.229458	
-0.217684	
-0.182784	
-0.149877	
-0.173888	
-0.0318345	
-0.0244273	
-0.0521702	
-0.0473698	
-0.125706	
-0.186655	
-0.112969	
-0.0825045	
-0.212384	
-0.1811	
-0.204332	
-0.185006	
-0.257995	
-0.236369	
-0.251326	
-0.236491	
-0.135949	
-0.2932	
-0.275938	
-0.300451	
-0.286149	
-0.133499	
-0.120231	
-0.169212	
-0.194704	
-0.098004	
-0.0621945	
-0.111208	
-0.0725975	
-0.188497	
-0.211148	
-0.0729721	
-0.0583761	
-0.0262992	
-0.253854	
-0.259563	
-0.239138	
-0.243348	
-0.0751073	
-0.0783756	
-0.221989	
-0.211335	
-0.15187	
-0.1352	
-0.166699	
-0.16445	
-0.144861	
-0.221098	
-0.196038	
-0.218234	
-0.203788	
-0.0192748	
0.00332956	
-0.310889	
-0.301882	
-0.112238	
-0.0948482	
-0.141644	
-0.127704	
-0.153044	
-0.139814	
-0.212266	
-0.235152	
-0.21564	
-0.27114	
-0.279615	
-0.264358	
-0.145324	
-0.156625	
-0.133198	
-0.102077	
-0.115765	
-0.038221	
-0.0324586	
-0.0127608	
-0.0302156	
-0.00641592	
-0.0530388	
-0.0223749	
-0.0514961	
-0.05334	
-0.0446008	
-0.0225249	
-0.105025	
-0.0762727	
-0.11425	
-0.0854771	
-0.1406	
-0.0440319	
-0.0629008	
-0.024187	
-0.0511966	
-0.161304	
-0.123743	
-0.145433	
-0.121998	
-0.029941	
-0.065106	
-0.0585208	
-0.0781857	
-0.168145	
-0.192108	
-0.188999	
-0.211268	
-0.198655	
-0.201848	
-0.160899	
-0.158108	
-0.227123	
-0.240273	
-0.251307	
-0.253299	
-0.263051	
-0.275094	
-0.282388	
-0.285669	
-0.282644	
-0.28614	
-0.292472	
-0.301318	
-0.0240263	
-0.0449008	
-0.0769549	
-0.285923	
-0.27119	
-0.294301	
-0.299737	
-0.300612	
-0.287785	
-0.290038	
-0.0269812	
-0.0110935	
-0.202773	
-0.201969	
-0.175937	
-0.321311	
-0.321822	
-0.155504	
-0.161372	
-0.133151	
-0.136166	
-0.322163	
-0.31403	
-0.317286	
-0.317383	
-0.313359	
-0.117027	
-0.212458	
-0.192599	
-0.217026	
-0.19973	
0.0432194	
0.0334188	
-0.0667548	
-0.0114008	
-0.0324183	
-0.0354886	
-0.012303	
0.0409611	
0.0305404	
-0.0953095	
-0.0611567	
-0.106006	
-0.0805081	
-0.131316	
-0.146651	
-0.167894	
-0.176934	
-0.190003	
-0.189917	
-0.226523	
-0.229887	
-0.00980115	
-0.00704934	
-0.316159	
-0.306616	
-0.0267139	
-0.00404487	
-0.0246284	
-0.00158722	
0.0346208	
-0.0211361	
-0.320659	
-0.24764	
-0.264884	
-0.272019	
-0.0323127	
0.00510624	
-0.247811	
-0.256365	
0.0113012	
-0.183639	
-0.183442	
-0.294239	
-0.281823	
-0.296076	
-0.309991	
-0.297062	
-0.31292	
-0.194242	
-0.213452	
-0.123089	
-0.121376	
-0.11221	
-0.275393	
-0.249183	
-0.242804	
-0.123392	
-0.131632	
-0.172502	
-0.156107	
-0.00312048	
0.0409567	
0.0122767	
0.0271907	
-0.0225075	
0.0246625	
0.0452538	
-0.0109473	
-0.23093	
-0.23979	
-0.236737	
-0.314985	
-0.316064	
-0.30937	
0.0308369	
-0.30898	
-0.304919	
-0.128133	
-0.147107	
-0.141855	
0.0448815	
0.0309925	
-0.299317	
-0.297142	
-0.301334	
0.0105304	
0.0417244	
0.0375736	
0.0350356	
-0.175914	
-0.162338	
-0.196533	
-0.19833	
-0.31465	
-0.324406	
-0.318642	
0.031698	
0.045246	
-0.000771411	
0.0386749	
-0.260107	
-0.254074	
-0.140507	
-0.139402	
0.0411442	
0.034503	
0.0298634	
-0.303121	
-0.283124	
-0.311066	
-0.304881	
-0.254284	
-0.247351	
-0.27045	
-0.256625	
-0.151342	
-0.140353	
-0.301466	
-0.306757	
-0.247912	
-0.0232568	
-0.0268114	
-0.0583806	
-0.0604398	
0.0398699	
0.0457341	
-0.10743	
-0.0988046	
-0.0689282	
-0.0526036	
-0.324391	
-0.316631	
-0.32409	
-0.316149	
-0.101441	
-0.0943257	
-0.107091	
-0.074041	
-0.0868046	
0.028094	
0.0373642	
0.0236705	
-0.178893	
-0.192896	
-0.172247	
-0.193991	
0.040896	
-0.10943	
-0.0944925	
-0.32514	
-0.32378	
-0.116133	
-0.0964835	
0.00145205	