<VTKFile type="UnstructuredGrid" version="0.1" byte_order="LittleEndian">
	<UnstructuredGrid>
		<Piece NumberOfPoints="1647" NumberOfCells="3046">
			<CellData Scalars="scalars">
				<DataArray type="Float64" Name="Doublet Strengths" NumberOfComponents="1" Format="ascii">
0.238694	
0.20769	
0.225723	
0.0506655	
0.091815	
0.105918	
0.104855	
0.10522	
0.0515471	
0.0489805	
0.102375	
0.0945056	
0.0529717	
0.100281	
0.10453	
0.0825044	
0.195775	
0.102238	
0.230698	
0.176247	
0.191565	
0.126951	
0.170566	
0.191543	
0.155807	
0.170853	
0.133421	
0.159213	
0.112085	
0.188814	
0.191924	
0.14931	
0.190567	
0.210454	
0.114685	
0.189314	
0.191333	
0.137382	
0.156365	
0.136575	
0.149382	
0.158733	
0.156614	
0.178018	
0.181354	
0.154529	
0.191348	
0.129349	
0.127213	
0.140775	
0.203857	
0.195995	
0.186189	
0.180822	
0.184273	
0.17665	
0.202392	
0.141286	
0.155771	
0.156097	
0.152678	
0.124629	
0.0876746	
0.119511	
0.169214	
0.170952	
0.174559	
0.176887	
0.220302	
0.222289	
0.215536	
0.103433	
0.0481091	
0.166173	
0.167854	
0.173182	
0.176882	
0.161851	
0.151679	
0.153902	
0.14657	
0.168062	
0.161553	
0.1677	
0.164819	
0.169952	
0.168885	
0.174732	
0.151746	
0.142741	
0.0985013	
0.110591	
0.11614	
0.188356	
0.196517	
0.192282	
0.199075	
0.109227	
0.117204	
0.144866	
0.203135	
0.205648	
0.214865	
0.177455	
0.169713	
0.171141	
0.136812	
0.189852	
0.100951	
0.112362	
0.118248	
0.126965	
0.125041	
0.133051	
0.121003	
0.120416	
0.218711	
0.228351	
0.195526	
0.207044	
0.190397	
0.0515708	
0.133326	
0.086391	
0.0763045	
0.0815562	
0.163216	
0.177512	
0.0847567	
0.0639092	
0.123394	
0.124125	
0.117594	
0.118407	
0.0988005	
0.214752	
0.20735	
0.144569	
0.132883	
0.146326	
0.135418	
0.106093	
0.133242	
0.135107	
0.141319	
0.140259	
0.104086	
0.0926662	
0.237936	
0.226972	
0.21206	
0.222026	
0.193222	
0.171062	
0.171258	
0.177013	
0.0881926	
0.0734143	
0.224622	
0.165463	
0.156761	
0.163545	
0.153621	
0.161022	
0.149058	
0.166172	
0.167304	
0.160913	
0.0832415	
0.14417	
0.130643	
0.139316	
0.215063	
0.220119	
0.224462	
0.212626	
0.220754	
0.209005	
0.151224	
0.157549	
0.158695	
0.161773	
0.223358	
0.217939	
0.212023	
0.181424	
0.167219	
0.0534303	
0.068281	
0.0905716	
0.0908418	
0.0851282	
0.240601	
0.235874	
0.156336	
0.148203	
0.222519	
0.178812	
0.176291	
0.166865	
0.144153	
0.144909	
0.178797	
0.174782	
0.187432	
0.178927	
0.20949	
0.205353	
0.201951	
0.197848	
0.200622	
0.21223	
0.206078	
0.206256	
0.180482	
0.187615	
0.18955	
0.128514	
0.128976	
0.145356	
0.146863	
0.153278	
0.158858	
0.0935994	
0.0986656	
0.0876542	
0.0991647	
0.108623	
0.150411	
0.153572	
0.14156	
0.139472	
0.138739	
0.141315	
0.12607	
0.133858	
0.20789	
0.203098	
0.149173	
0.150466	
0.157438	
0.178578	
0.183464	
0.188379	
0.189416	
0.082744	
0.0860161	
0.0961818	
0.0955017	
0.106401	
0.194219	
0.195696	
0.202305	
0.0841258	
0.0931908	
0.138947	
0.146502	
0.137985	
0.14996	
0.184764	
0.188081	
0.194006	
0.197499	
0.166805	
0.170406	
0.17833	
0.181974	
0.210682	
0.215545	
0.217873	
0.219954	
0.13225	
0.0995485	
0.215026	
0.208096	
0.215697	
0.182971	
0.171173	
0.173564	
0.104453	
0.136239	
0.134875	
0.212166	
0.212699	
0.185424	
0.177173	
0.174722	
0.184522	
0.176106	
0.180199	
0.177006	
0.176451	
0.164954	
0.168485	
0.21649	
0.223942	
0.210947	
0.208235	
0.216318	
0.210968	
0.238167	
0.158602	
0.170662	
0.155051	
0.166333	
0.180961	
0.186942	
0.176741	
0.114909	
0.158688	
0.164476	
0.151482	
0.153985	
0.0742623	
0.0807449	
0.0829057	
0.197285	
0.143033	
0.142508	
0.152185	
0.168987	
0.166041	
0.177309	
0.23392	
0.22487	
0.229203	
0.186178	
0.186602	
0.191877	
0.19509	
0.127509	
0.136377	
0.136889	
0.12729	
0.13413	
0.128875	
0.152621	
0.146579	
0.148734	
0.223457	
0.217491	
0.213476	
0.142081	
0.133032	
0.145456	
0.130977	
0.186527	
0.180222	
0.221764	
0.217555	
0.110475	
0.0641633	
0.0511487	
0.0742948	
0.0491361	
0.147044	
0.140811	
0.124382	
0.124599	
0.195075	
0.192436	
0.20076	
0.179542	
0.173591	
0.182978	
0.157546	
0.149437	
0.124968	
0.119735	
0.13324	
0.125264	
0.145606	
0.138188	
0.139923	
0.149789	
0.149832	
0.157541	
0.157732	
0.195972	
0.202031	
0.177707	
0.183657	
0.151808	
0.133861	
0.146816	
0.237316	
0.239509	
0.229501	
0.234132	
0.206324	
0.231785	
0.229341	
0.238123	
0.233835	
0.225458	
0.231924	
0.233631	
0.23082	
0.202513	
0.19956	
0.206252	
0.203279	
0.197496	
0.195268	
0.186941	
0.190966	
0.180686	
0.18467	
0.225542	
0.171762	
0.171337	
0.162985	
0.161788	
0.200375	
0.203344	
0.124116	
0.122636	
0.131065	
0.133122	
0.129852	
0.127531	
0.137361	
0.138724	
0.190597	
0.19162	
0.117472	
0.108358	
0.117088	
0.111969	
0.172847	
0.180905	
0.191448	
0.199767	
0.187885	
0.191044	
0.188013	
0.1798	
0.185539	
0.161227	
0.167949	
0.16063	
0.167266	
0.125837	
0.130058	
0.125754	
0.144644	
0.152879	
0.161626	
0.170903	
0.161374	
0.165658	
0.231043	
0.227444	
0.218141	
0.221147	
0.136001	
0.125386	
0.125806	
0.120303	
0.120493	
0.130025	
0.124744	
0.117925	
0.179116	
0.173417	
0.18491	
0.18328	
0.227452	
0.128452	
0.133629	
0.136695	
0.140007	
0.151095	
0.142826	
0.187435	
0.181124	
0.218805	
0.210035	
0.137806	
0.0644087	
0.149635	
0.136369	
0.170417	
0.142559	
0.165329	
0.158699	
0.106195	
0.121783	
0.143784	
0.193736	
0.196966	
0.199888	
0.201513	
0.113446	
0.149129	
0.146933	
0.0982549	
0.112708	
0.115207	
0.121675	
0.1038	
0.115125	
0.117409	
0.124045	
0.12453	
0.222534	
0.227688	
0.227094	
0.230046	
0.202786	
0.193465	
0.195313	
0.0725656	
0.0782435	
0.0702951	
0.0678957	
0.207347	
0.208187	
0.199948	
0.203544	
0.201011	
0.199622	
0.120863	
0.17674	
0.180896	
0.186224	
0.0570971	
0.0561773	
0.0681272	
0.0680055	
0.140036	
0.221965	
0.211455	
0.213355	
0.143648	
0.184759	
0.179396	
0.230831	
0.236321	
0.158987	
0.159504	
0.147011	
0.150682	
0.214774	
0.22024	
0.214931	
0.219832	
0.155447	
0.165254	
0.158973	
0.155061	
0.165993	
0.156108	
0.16257	
0.127367	
0.112868	
0.122315	
0.107772	
0.142687	
0.15153	
0.151591	
0.193648	
0.199397	
0.21905	
0.220554	
0.223845	
0.226496	
0.136314	
0.139445	
0.128291	
0.130241	
0.158941	
0.158298	
0.167737	
0.16549	
0.168692	
0.164307	
0.155942	
0.149755	
0.206731	
0.197511	
0.207215	
0.202503	
0.205357	
0.2349	
0.241493	
0.229037	
0.231268	
0.216194	
0.211996	
0.188625	
0.196045	
0.175469	
0.182048	
0.109407	
0.0939839	
0.112724	
0.103301	
0.158065	
0.164253	
0.235136	
0.229771	
0.235268	
0.230585	
0.224728	
0.234431	
0.227368	
0.221121	
0.225103	
0.220081	
0.210076	
0.208858	
0.2028	
0.142226	
0.13214	
0.133211	
0.122421	
0.09244	
0.0855971	
0.0749766	
0.0623324	
0.098553	
0.109223	
0.0984007	
0.0934917	
0.0889558	
0.115322	
0.108536	
0.124306	
0.0481832	
0.0620243	
0.0770225	
0.118115	
0.107206	
0.113619	
0.114581	
0.104675	
0.108162	
0.128215	
0.200806	
0.200613	
0.210889	
0.21053	
0.0768434	
0.060664	
0.111475	
0.105095	
0.117359	
0.110387	
0.115597	
0.10967	
0.119373	
0.107473	
0.118228	
0.188129	
0.185409	
0.181172	
0.11039	
0.10635	
0.105247	
0.103426	
0.0900078	
0.159431	
0.159927	
0.167402	
0.103659	
0.117171	
0.109945	
0.122812	
0.113724	
0.117604	
0.102103	
0.172103	
0.173716	
0.201085	
0.203846	
0.196611	
0.198084	
0.0864517	
0.0810124	
0.0963713	
0.0884917	
0.166506	
0.1707	
0.101151	
0.0982435	
0.0564887	
0.0476044	
0.0719406	
0.0604233	
0.11776	
0.101877	
0.124977	
0.111566	
0.222891	
0.218529	
0.185525	
0.190865	
0.141066	
0.132876	
0.131972	
0.12285	
0.123177	
0.133935	
0.111029	
0.138932	
0.130371	
0.115511	
0.12118	
0.130692	
0.107132	
0.126004	
0.135181	
0.141269	
0.126609	
0.133729	
0.213785	
0.215613	
0.220162	
0.12562	
0.131528	
0.107859	
0.112999	
0.208997	
0.210685	
0.200908	
0.202239	
0.207231	
0.213619	
0.203259	
0.204909	
0.0930724	
0.0973663	
0.0942478	
0.0982623	
0.035725	
0.0464751	
0.0412289	
0.0451578	
0.0478567	
-0.295473	
-0.288765	
0.0439055	
0.0439289	
0.0465728	
0.0428596	
0.0369755	
-0.255667	
0.0465604	
-0.0813231	
-0.0863655	
-0.199473	
-0.115883	
0.0421751	
0.0411296	
-0.12544	
-0.0791238	
-0.147687	
-0.0664358	
-0.0703149	
0.0181021	
-0.00939909	
-0.242344	
-0.246923	
-0.205006	
-0.0886363	
-0.280532	
-0.236621	
-0.0777561	
-0.111505	
-0.0644239	
-0.210534	
-0.222745	
-0.239958	
-0.266692	
-0.281296	
-0.256621	
-0.00826896	
-0.0344341	
-0.158506	
-0.20465	
-0.175055	
-0.199081	
-0.195368	
-0.213283	
-0.142316	
-0.155165	
-0.110861	
-0.239812	
-0.134275	
-0.0965509	
-0.102598	
-0.11443	
-0.101623	
-0.0974025	
-0.127165	
-0.100187	
-0.271907	
-0.236415	
-0.123587	
-0.165004	
-0.250827	
-0.0703049	
-0.194793	
-0.107856	
-0.0831294	
-0.15024	
-0.154426	
-0.249592	
-0.297648	
0.0284334	
0.0276675	
-0.0206952	
-0.185963	
-0.0523016	
-0.0616315	
-0.232323	
-0.21246	
-0.209938	
-0.242261	
-0.258085	
-0.167418	
-0.162071	
-0.248611	
-0.23298	
-0.2233	
-0.0381762	
-0.260525	
-0.00727867	
-0.0460731	
-0.0346778	
-0.0742082	
-0.20309	
-0.146842	
-0.162598	
-0.258263	
-0.100467	
-0.149313	
-0.179949	
-0.136941	
-0.146677	
-0.0652709	
-0.220238	
-0.243006	
-0.194325	
-0.225968	
-0.177845	
-0.19495	
-0.0599289	
-0.0869734	
-0.219047	
-0.0317101	
-0.0468353	
-0.06785	
-0.139348	
-0.247912	
-0.255754	
-0.266681	
-0.284292	
-0.198604	
-0.191083	
-0.26172	
-0.270762	
-0.151282	
0.0347976	
-0.00452361	
-0.291906	
-0.247722	
-0.169598	
-0.184272	
-0.182498	
0.0352407	
-0.0022093	
-0.276529	
-0.28297	
-0.281496	
0.0312432	
0.0410004	
-0.102599	
-0.131322	
-0.0545405	
-0.0619606	
-0.0453051	
0.0476093	
-0.218054	
-0.182167	
-0.161507	
-0.168903	
-0.123456	
-0.168285	
-0.120978	
-0.145772	
-0.134119	
-0.151842	
-0.290501	
-0.295815	
-0.111957	
-0.0712064	
-0.211549	
-0.224251	
-0.237907	
-0.174795	
-0.141925	
-0.182251	
-0.163288	
0.026704	
-0.248213	
-0.0829474	
-0.0935686	
-0.153594	
-0.219932	
-0.174242	
-0.190299	
-0.211842	
-0.22591	
-0.289477	
-0.209798	
-0.215301	
-0.219124	
-0.231316	
-0.0166303	
-0.204623	
-0.174824	
-0.195113	
-0.0863008	
-0.0863469	
-0.114721	
-0.110384	
-0.0116768	
-0.0262018	
-0.106517	
-0.0862563	
-0.195798	
-0.0983539	
-0.285299	
-0.290747	
-0.0459641	
-0.254179	
-0.246941	
-0.242388	
-0.173971	
-0.21324	
-0.172824	
-0.206165	
-0.167396	
-0.111157	
-0.279043	
-0.274834	
-0.157381	
-0.164362	
-0.185418	
-0.190101	
-0.0830678	
-0.104661	
-0.275253	
-0.264937	
-0.142955	
-0.158184	
0.0181341	
-0.0238819	
-0.0131782	
-0.0631162	
-0.0331172	
-0.0139295	
-0.235099	
-0.246776	
-0.29845	
-0.0890014	
-0.0773971	
-0.0582611	
-0.0594514	
-0.078107	
-0.0469903	
-0.0750489	
-0.264717	
-0.278753	
-0.268696	
-0.296408	
-0.281377	
-0.0684165	
-0.0984639	
-0.0945493	
-0.131928	
-0.175939	
-0.220623	
-0.174154	
-0.112522	
-0.113073	
-0.127718	
-0.202642	
-0.21331	
-0.141594	
-0.158294	
-0.140293	
-0.157626	
-0.0154458	
-0.027372	
-0.0426243	
-0.054718	
-0.269536	
-0.184592	
-0.122163	
-0.0696442	
-0.103216	
-0.183902	
-0.196709	
-0.171269	
-0.189412	
-0.230851	
-0.238821	
-0.219359	
-0.232929	
-0.272405	
-0.263046	
-0.269186	
-0.256918	
-0.138182	
-0.0973433	
-0.182128	
-0.170892	
-0.0654199	
-0.0897176	
-0.0655235	
-0.0914666	
-0.188983	
-0.194847	
-0.0513807	
-0.055158	
-0.0206541	
-0.220503	
-0.224455	
-0.234105	
-0.243451	
-0.0454549	
-0.0652885	
-0.205259	
-0.205236	
-0.125639	
-0.154729	
-0.120953	
-0.152856	
-0.216827	
-0.179249	
-0.203484	
0.00631809	
-0.0205634	
-0.275199	
-0.282476	
-0.0900941	
-0.106456	
-0.142407	
-0.129868	
-0.131395	
-0.118113	
-0.209165	
-0.190117	
-0.21661	
-0.249746	
-0.239042	
-0.257039	
-0.146551	
-0.131397	
-0.119793	
-0.0841388	
-0.0904502	
-0.0343192	
-0.0286166	
-0.0222523	
-0.00597085	
-0.0191485	
-0.00175063	
-0.0444361	
-0.0167262	
-0.0473549	
-0.0386103	
-0.0393237	
-0.103023	
-0.094236	
-0.0669806	
-0.12803	
-0.019426	
-0.0454847	
-0.0177437	
-0.0566422	
-0.131791	
-0.109536	
-0.146623	
-0.134552	
-0.0250707	
-0.0227536	
-0.0683115	
-0.0497087	
-0.191249	
-0.193814	
-0.153262	
-0.152927	
-0.148517	
-0.168149	
-0.167523	
-0.186766	
-0.231372	
-0.233118	
-0.216578	
-0.221241	
-0.25321	
-0.245758	
-0.262576	
-0.259648	
-0.262967	
-0.259897	
-0.274017	
-0.268597	
-0.068147	
-0.017922	
-0.0377224	
-0.259815	
-0.250603	
-0.276332	
-0.268025	
-0.275911	
-0.264545	
-0.264111	
-0.00600216	
-0.0209343	
-0.18881	
-0.178932	
-0.168726	
-0.289035	
-0.291012	
-0.292324	
-0.152001	
-0.133751	
-0.139807	
-0.125772	
-0.292967	
-0.288277	
-0.283765	
-0.288628	
-0.286067	
-0.11994	
-0.177633	
-0.196263	
-0.172215	
-0.200696	
0.0362111	
0.0451884	
-0.0576227	
-0.0559926	
-0.00527945	
-0.028176	
-0.00640013	
0.0341194	
0.0439426	
-0.0519854	
-0.103464	
-0.0490892	
-0.0943779	
-0.124518	
-0.138768	
-0.166093	
-0.162855	
-0.177261	
-0.183786	
-0.211461	
-0.21454	
-0.0040038	
-0.00684858	
-0.288715	
-0.28073	
-0.022293	
-0.000482778	
-0.244971	
-0.0171057	
0.0357035	
-0.229467	
7.74253e-05	
-0.296631	
-0.252493	
-0.0160367	
0.00302286	
0.0137607	
-0.173572	
-0.162591	
-0.263681	
-0.270988	
-0.272636	
-0.275289	
-0.283156	
-0.285593	
-0.182238	
-0.198495	
-0.114864	
-0.104638	
-0.113627	
-0.251018	
-0.215023	
-0.229781	
-0.232397	
-0.106027	
-0.134284	
-0.143194	
-0.160731	
-0.00188756	
0.0168642	
0.0430143	
-0.0251987	
0.0304694	
0.0466728	
0.027591	
-0.00631949	
-0.261569	
-0.287367	
-0.282423	
-0.287519	
0.0353047	
-0.282197	
-0.279205	
-0.135495	
-0.117526	
-0.130533	
0.0319932	
0.0439734	
-0.272577	
-0.274499	
-0.27174	
-0.239986	
0.0133332	
-0.244635	
-0.23678	
-0.229475	
0.0390907	
0.042678	
0.0461126	
-0.182399	
-0.169268	
-0.162893	
-0.146437	
-0.287252	
-0.288721	
-0.290683	
0.0462362	
0.0340441	
0.0404586	
0.00836312	
-0.261655	
-0.25985	
-0.255747	
-0.130702	
-0.131571	
0.0457597	
0.0326049	
-0.285421	
-0.278864	
-0.27714	
-0.141312	
-0.131046	
-0.275937	
-0.280623	
-0.228843	
-0.0201418	
-0.0167038	
-0.0519722	
-0.0499269	
0.047278	
0.0416526	
-0.0615872	
-0.0708638	
-0.0886732	
-0.0900195	
-0.295126	
-0.295011	
-0.288448	
-0.295168	
-0.0921429	
-0.0702189	
-0.0842511	
-0.0896181	
-0.108609	
0.0399151	
0.0313617	
0.0275355	
-0.173617	
-0.18331	
-0.15935	
-0.181007	
0.0427063	
-0.100565	
-0.100537	
-0.086046	
-0.29242	
-0.296774	
-0.234003	
-0.242262	
-0.0873599	
-0.105992	
-0.251634	
-0.241997	
0.00313453	
0.00749189	
-0.224224	
-0.245909	
-0.236998	
-0.179566	
-0.198621	
-0.169324	
-0.183715	
-0.0295594	
-0.0763292	
-0.0377137	
-0.0314901	
-0.0758574	
-0.0596688	
-0.292822	
-0.295735	
-0.293214	
-0.295787	
-0.0247109	
-0.0315923	
0.0295029	
-0.223896	
-0.20628	
-0.268354	
-0.262486	
-0.148004	
-0.14353	
-0.107607	
-0.0927376	
-0.282603	
-0.276401	
-0.291061	
-0.288342	
-0.282588	
-0.275973	
-0.145686	
-0.149013	
-0.124109	
-0.127799	
-0.225356	
-0.239309	
-0.16336	
-0.176552	
-0.194607	
-0.196118	
-0.289575	
-0.290862	
-0.291413	
-0.290847	
-0.252442	
-0.264096	
-0.27272	
-0.267286	
-0.273763	
-0.236073	
-0.226335	
-0.243985	
-0.250991	
-0.0203834	
0.0199798	
0.041248	
-0.254438	
-0.251963	
-0.070784	
-0.0556252	
-0.101031	
-0.193414	
-0.208435	
-0.192916	
-0.223085	
-0.220211	
-0.226725	
-0.230166	
-0.234759	
-0.294744	
-0.291313	
-0.290234	
-0.284424	
-0.259574	
-0.243397	
-0.254271	
-0.275715	
0.0244073	
-0.0310852	
0.0372535	
0.015777	
-0.197745	
-0.220886	
-0.217176	
-0.197906	
-0.211593	
-0.0152837	
0.0371647	
0.0341969	
-0.0124998	
0.0441353	
0.0269331	
-0.250104	
-0.256163	
-0.25516	
-0.263414	
0.0387951	
0.0185378	
-0.204783	
-0.232096	
-0.212259	
-0.236662	
-0.227645	
-0.234032	
-0.244555	
-0.221515	
-0.215756	
-0.230184	
-0.10506	
-0.110222	
-0.123147	
-0.134507	
-0.28445	
-0.283684	
-0.28606	
-0.205701	
-0.195438	
-0.276163	
-0.272647	
-0.262972	
-0.264309	
-0.186014	
-0.202323	
-0.196888	
-0.212044	
-0.0821124	
-0.104642	
-0.269981	
-0.272316	
-0.288942	
-0.292268	
-0.0469978	
-0.0595145	
-0.0659693	
-0.0742834	
-0.213003	
-0.202218	
-0.197988	
-0.193412	
-0.105379	
-0.127342	
-0.135754	
-0.153022	
-0.249461	
-0.260361	
-0.260488	
-0.269236	
-0.138947	
-0.131374	
-0.172379	
-0.165181	
-0.217774	
-0.208638	
-0.0514132	
-0.0303273	
-0.0743319	
-0.0603125	
-0.243766	
-0.240683	
-0.295054	
-0.2941	
-0.294702	
-0.297265	
-0.280349	
-0.279679	
-0.124967	
-0.138139	
-0.164456	
-0.173571	
-0.0159599	
-0.00451927	
0.0373715	
0.0349741	
-0.172104	
-0.140082	
-0.162663	
-0.128632	
-0.010948	
-0.00478034	
-0.00773737	
-0.00125648	
0.00186801	
0.0131664	
0.0195256	
0.0220909	
0.0159764	
-0.00951824	
-0.00140993	
0.00657014	
0.00238414	
0.00875791	
0.0180535	
0.0223362	
0.00947765	
0.0138016	
0.00577727	
-0.00552431	
0.00462927	
-0.00982242	
-0.0137107	
-0.00294686	
-0.0213474	
-0.0214556	
-0.0162992	
-0.022739	
-0.0190827	
0.0146411	
0.0124698	
-0.000729584	
0.00535073	
-0.00573052	
-0.017457	
-0.0165682	
-0.0157332	
-0.0137151	
-0.00933332	
0.0178023	
0.234725	
0.208481	
0.22571	
0.0506586	
0.0970635	
0.0534286	
0.177587	
0.10586	
0.104214	
0.10474	
0.105316	
0.0740893	
0.048495	
0.102518	
0.0944577	
0.0903746	
0.0529998	
0.100399	
0.0835579	
0.197091	
0.184733	
0.129955	
0.170616	
0.191086	
0.155921	
0.17114	
0.133237	
0.112337	
0.192724	
0.187807	
0.149412	
0.190087	
0.210524	
0.117576	
0.11394	
0.189479	
0.191842	
0.14366	
0.156333	
0.137121	
0.149064	
0.158896	
0.156855	
0.18168	
0.181084	
0.149821	
0.19177	
0.129539	
0.127516	
0.132755	
0.195496	
0.181074	
0.186516	
0.176874	
0.179018	
0.20224	
0.156229	
0.156797	
0.153386	
0.125105	
0.087538	
0.119427	
0.179932	
0.176689	
0.169097	
0.167168	
0.214794	
0.219433	
0.224872	
0.102734	
0.0562486	
0.173888	
0.173538	
0.166833	
0.164229	
0.153745	
0.146419	
0.162127	
0.16112	
0.161584	
0.171261	
0.16774	
0.169126	
0.175105	
0.16502	
0.165884	
0.150779	
0.141592	
0.11173	
0.100111	
0.115969	
0.104371	
0.191831	
0.200105	
0.188031	
0.190763	
0.117093	
0.109162	
0.145176	
0.203149	
0.209652	
0.169454	
0.1718	
0.137633	
0.172279	
0.185446	
0.11243	
0.100915	
0.121419	
0.119009	
0.140079	
0.125261	
0.121203	
0.127723	
0.216301	
0.228344	
0.20653	
0.195081	
0.190639	
0.0643987	
0.0515492	
0.109186	
0.133222	
0.0764416	
0.087274	
0.173531	
0.163305	
0.0832729	
0.0634742	
0.11786	
0.118602	
0.123686	
0.12434	
0.0982973	
0.213503	
0.207769	
0.146498	
0.131102	
0.144666	
0.138854	
0.117202	
0.141577	
0.140515	
0.136574	
0.135291	
0.0865876	
0.236704	
0.225801	
0.212863	
0.221289	
0.191668	
0.179569	
0.171072	
0.168071	
0.09934	
0.0882759	
0.153281	
0.165215	
0.153489	
0.165882	
0.149032	
0.154116	
0.165795	
0.15156	
0.167126	
0.086635	
0.138547	
0.143145	
0.138065	
0.218734	
0.214096	
0.214254	
0.208974	
0.212579	
0.218235	
0.158737	
0.161832	
0.151868	
0.157632	
0.222487	
0.211198	
0.21601	
0.175222	
0.168621	
0.178993	
0.0566069	
0.091042	
0.0808401	
0.0910111	
0.237309	
0.234188	
0.156406	
0.148165	
0.221945	
0.176912	
0.177058	
0.171357	
0.137964	
0.144139	
0.175106	
0.184595	
0.179462	
0.185404	
0.204851	
0.208015	
0.19942	
0.201782	
0.198585	
0.205453	
0.210008	
0.187199	
0.17615	
0.189142	
0.129131	
0.124927	
0.147055	
0.145733	
0.154913	
0.153314	
0.0988856	
0.0834148	
0.099359	
0.0878254	
0.108487	
0.15648	
0.150188	
0.144776	
0.141366	
0.141297	
0.130354	
0.133779	
0.125958	
0.20731	
0.203091	
0.15782	
0.153204	
0.150845	
0.188161	
0.189326	
0.180658	
0.183443	
0.0866584	
0.0828861	
0.231473	
0.0956983	
0.0963523	
0.106616	
0.203897	
0.199372	
0.197856	
0.0917832	
0.0834833	
0.146487	
0.138927	
0.149937	
0.144887	
0.195164	
0.195717	
0.187954	
0.189024	
0.17802	
0.177773	
0.170397	
0.170143	
0.217175	
0.218739	
0.211513	
0.214615	
0.132255	
0.210905	
0.214234	
0.209196	
0.182825	
0.17351	
0.16759	
0.108537	
0.136514	
0.13525	
0.213734	
0.212047	
0.186346	
0.175666	
0.178445	
0.181594	
0.185756	
0.179652	
0.168246	
0.176677	
0.180138	
0.215802	
0.22153	
0.216151	
0.210931	
0.215704	
0.208083	
0.166555	
0.158355	
0.166102	
0.158749	
0.186537	
0.180606	
0.176419	
0.114896	
0.165262	
0.161073	
0.150794	
0.0743966	
0.0734377	
0.0830547	
0.0852817	
0.193351	
0.142701	
0.143149	
0.152424	
0.163353	
0.168741	
0.177055	
0.191778	
0.192369	
0.18621	
0.186724	
0.127506	
0.133402	
0.133225	
0.13705	
0.125917	
0.134293	
0.148722	
0.152505	
0.146483	
0.217165	
0.214454	
0.223168	
0.132923	
0.141776	
0.129775	
0.138762	
0.168449	
0.17986	
0.186128	
0.110294	
0.21733	
0.221195	
0.0505007	
0.0633268	
0.0744611	
0.0492319	
0.147116	
0.137563	
0.151293	
0.124901	
0.129418	
0.19516	
0.200704	
0.195013	
0.174415	
0.183048	
0.176944	
0.157514	
0.149196	
0.119795	
0.124962	
0.125341	
0.133444	
0.13321	
0.149873	
0.138226	
0.145636	
0.149786	
0.157752	
0.161226	
0.201832	
0.195873	
0.183355	
0.177434	
0.146875	
0.1341	
0.234083	
0.208353	
0.228175	
0.230859	
0.223255	
0.235854	
0.22533	
0.235627	
0.232492	
0.234242	
0.230193	
0.19967	
0.202487	
0.203325	
0.206272	
0.192064	
0.194502	
0.19623	
0.198622	
0.178855	
0.18409	
0.185518	
0.187869	
0.22258	
0.177853	
0.173628	
0.16754	
0.164957	
0.232175	
0.202932	
0.20663	
0.122663	
0.124117	
0.127379	
0.135471	
0.128024	
0.130484	
0.132976	
0.140945	
0.193983	
0.203234	
0.192571	
0.112726	
0.117504	
0.112003	
0.117152	
0.178474	
0.172772	
0.19756	
0.191199	
0.196217	
0.187609	
0.187932	
0.176994	
0.185298	
0.179665	
0.167935	
0.15753	
0.170859	
0.160597	
0.129554	
0.125486	
0.149505	
0.144899	
0.167271	
0.161926	
0.170169	
0.161711	
0.22137	
0.220944	
0.227876	
0.136013	
0.133623	
0.129003	
0.125383	
0.120588	
0.120307	
0.124538	
0.126876	
0.118469	
0.11457	
0.186824	
0.173108	
0.183451	
0.180192	
0.22308	
0.22291	
0.122762	
0.128153	
0.139889	
0.136383	
0.151932	
0.138046	
0.13751	
0.150538	
0.171546	
0.14016	
0.128273	
0.107859	
0.159557	
0.166342	
0.110885	
0.121405	
0.204081	
0.201706	
0.198659	
0.194725	
0.149698	
0.147401	
0.101833	
0.113493	
0.124305	
0.123048	
0.113398	
0.108737	
0.108374	
0.115583	
0.115574	
0.0816879	
0.103708	
0.1213	
0.226071	
0.217562	
0.228751	
0.225848	
0.197239	
0.202752	
0.195593	
0.200059	
0.203169	
0.203669	
0.207244	
0.125044	
0.186367	
0.176791	
0.181026	
0.140501	
0.21895	
0.209927	
0.22155	
0.198532	
0.198875	
0.217425	
0.21215	
0.22116	
0.143988	
0.068154	
0.0680964	
0.0570797	
0.0481465	
0.179389	
0.184792	
0.23443	
0.229363	
0.0725374	
0.0703037	
0.0782391	
0.0679232	
0.106041	
0.15221	
0.161044	
0.161091	
0.155418	
0.158926	
0.165189	
0.157194	
0.163816	
0.156291	
0.163186	
0.111805	
0.121263	
0.104191	
0.121001	
0.151458	
0.141998	
0.151376	
0.199338	
0.1936	
0.22636	
0.225347	
0.218093	
0.219768	
0.143216	
0.136396	
0.130596	
0.12844	
0.170957	
0.165285	
0.158809	
0.158138	
0.155907	
0.154455	
0.16475	
0.16411	
0.203361	
0.225614	
0.222917	
0.227176	
0.211614	
0.21576	
0.230779	
0.231149	
0.195976	
0.190474	
0.182175	
0.17624	
0.203321	
0.20682	
0.188671	
0.196422	
0.185584	
0.190977	
0.108365	
0.103271	
0.109372	
0.0940022	
0.16782	
0.158027	
0.231053	
0.225222	
0.221196	
0.220116	
0.225033	
0.229637	
0.238302	
0.229538	
0.234526	
0.200382	
0.208296	
0.20238	
0.209651	
0.203358	
0.103111	
0.0623318	
0.0517246	
0.162673	
0.155175	
0.131906	
0.142677	
0.122406	
0.133306	
0.120906	
0.111667	
0.117909	
0.102067	
0.227551	
0.231469	
0.1092	
0.0983548	
0.0987013	
0.0883227	
0.0936398	
0.115589	
0.108741	
0.102884	
0.0996098	
0.107872	
0.062022	
0.0770899	
0.0482001	
0.119219	
0.113405	
0.114662	
0.106571	
0.104683	
0.0934658	
0.104363	
0.108285	
0.210886	
0.14154	
0.135968	
0.133985	
0.127583	
0.20996	
0.204958	
0.205769	
0.199982	
0.0768891	
0.060641	
0.117676	
0.111749	
0.105345	
0.0959958	
0.095532	
0.110263	
0.10599	
0.124585	
0.168284	
0.160027	
0.160646	
0.117528	
0.110211	
0.103918	
0.210076	
0.117644	
0.102148	
0.125765	
0.113684	
0.196022	
0.19753	
0.200586	
0.204845	
0.0811481	
0.0938059	
0.0886708	
0.0965778	
0.166992	
0.171398	
0.072064	
0.0605025	
0.0684352	
0.0476985	
0.203494	
0.205349	
0.209159	
0.212772	
0.116005	
0.119335	
0.126127	
0.12933	
0.21816	
0.225714	
0.218673	
0.223129	
0.19464	
0.187177	
0.227095	
0.233441	
0.228129	
0.232746	
0.238651	
0.140556	
0.140392	
0.122704	
0.109781	
0.0926714	
0.0921898	
0.118144	
0.115731	
0.138193	
0.129323	
0.133108	
0.122191	
0.149523	
0.145765	
0.128843	
0.13746	
0.130512	
0.12134	
0.119797	
0.21357	
0.217125	
0.207938	
0.208988	
0.143688	
0.134056	
0.129616	
0.108178	
0.132637	
0.123714	
0.0441784	
0.0462587	
0.031335	
0.0452388	
0.0478817	
-0.294981	
-0.288473	
0.0463823	
0.0355625	
0.0369643	
-0.0479096	
-0.254944	
0.0469884	
0.0464064	
-0.0813667	
-0.0861425	
-0.199407	
0.0474875	
-0.0924086	
0.0422479	
0.0411323	
-0.290448	
-0.125263	
-0.0868714	
-0.147468	
-0.0490477	
-0.0663492	
0.0182198	
-0.00929345	
-0.246487	
-0.245318	
-0.204712	
-0.0885285	
-0.273458	
-0.235943	
-0.0779176	
-0.111338	
-0.0644162	
-0.223789	
-0.222348	
-0.239947	
-0.266399	
-0.281117	
-0.256383	
-0.00825641	
-0.034418	
-0.160663	
-0.20452	
-0.216277	
-0.212839	
-0.179671	
-0.183425	
-0.142623	
-0.135628	
-0.105195	
-0.239591	
-0.121112	
-0.0916516	
-0.0967333	
-0.114643	
-0.101506	
-0.127	
-0.0973143	
-0.100366	
-0.271757	
-0.23367	
-0.122863	
-0.15932	
-0.250437	
-0.0703083	
-0.194892	
-0.107684	
-0.0829667	
-0.146534	
-0.154821	
-0.259689	
-0.295495	
0.0410982	
0.0284942	
-0.0205961	
-0.185943	
-0.0616487	
-0.0523077	
-0.212724	
-0.23254	
-0.209851	
-0.257793	
-0.241965	
-0.157624	
-0.162359	
-0.232638	
-0.248378	
-0.222963	
-0.0381044	
-0.258369	
-0.0190713	
-0.0123346	
-0.0696702	
-0.0603281	
-0.202773	
-0.133219	
-0.163003	
-0.257448	
-0.100484	
-0.136737	
-0.164932	
-0.149087	
-0.174777	
-0.0667348	
-0.242923	
-0.220355	
-0.225867	
-0.194198	
-0.184955	
-0.196219	
-0.0868873	
-0.220201	
-0.0319443	
-0.0678244	
-0.124871	
-0.256112	
-0.24805	
-0.265937	
-0.283579	
-0.189831	
-0.190809	
-0.270641	
-0.26137	
-0.151123	
0.0347346	
-0.00451664	
-0.262946	
-0.262677	
-0.292443	
-0.250404	
-0.169781	
-0.169399	
0.0341533	
-0.00220095	
-0.27497	
-0.282214	
-0.280774	
0.0277968	
0.0413528	
-0.102549	
-0.131222	
-0.0556532	
-0.0457813	
-0.0630651	
-0.21764	
-0.182028	
-0.139892	
-0.168719	
-0.168308	
-0.168153	
-0.120988	
0.0428835	
-0.146888	
-0.150746	
-0.28967	
-0.294372	
-0.134211	
-0.0710523	
-0.237436	
-0.211273	
-0.210165	
-0.146454	
-0.174649	
-0.163256	
-0.182136	
0.0267152	
-0.248034	
-0.093466	
-0.153548	
-0.221417	
-0.17471	
-0.190852	
-0.21481	
-0.226103	
-0.290255	
-0.230771	
-0.23134	
-0.20987	
-0.208685	
-0.0163466	
-0.204547	
-0.195016	
-0.174739	
-0.0863191	
-0.0862864	
-0.11035	
-0.0117813	
-0.0265396	
-0.107005	
-0.0802215	
-0.113999	
-0.196221	
-0.0888171	
-0.295828	
-0.29104	
-0.285398	
-0.0514569	
-0.25675	
-0.243252	
-0.242306	
-0.172673	
-0.215284	
-0.19098	
-0.205789	
-0.167215	
-0.134416	
-0.274148	
-0.277641	
-0.185741	
-0.179443	
-0.16766	
-0.164567	
-0.107686	
-0.228721	
-0.264287	
-0.274233	
-0.142971	
-0.122236	
-0.158258	
0.0181826	
-0.013138	
-0.076274	
-0.0630343	
-0.013859	
-0.033032	
-0.234364	
-0.245861	
-0.0892078	
-0.0584118	
-0.0775621	
-0.0550275	
-0.075358	
-0.0596171	
-0.0783168	
-0.263047	
-0.267043	
-0.277324	
-0.287086	
-0.294548	
-0.0310039	
-0.0944129	
-0.0453827	
-0.0983271	
-0.131785	
-0.152718	
-0.221781	
-0.174022	
-0.109832	
-0.140158	
-0.214263	
-0.203642	
-0.171395	
-0.140579	
-0.163424	
-0.0275245	
-0.020755	
-0.0471686	
-0.042965	
-0.114717	
-0.172148	
-0.103281	
-0.0742428	
-0.196851	
-0.167574	
-0.189508	
-0.171348	
-0.238954	
-0.219088	
-0.233069	
-0.219466	
-0.123283	
-0.268917	
-0.253982	
-0.275124	
-0.262843	
-0.123288	
-0.110307	
-0.158667	
-0.18265	
-0.0899081	
-0.055623	
-0.102795	
-0.0657658	
-0.176789	
-0.197048	
-0.0658292	
-0.0517296	
-0.0210165	
-0.233647	
-0.238713	
-0.220107	
-0.223914	
-0.0651964	
-0.0683162	
-0.207127	
-0.197941	
-0.141912	
-0.12586	
-0.154925	
-0.153058	
-0.134469	
-0.206009	
-0.182699	
-0.203537	
-0.190209	
-0.0156007	
0.00619861	
-0.282508	
-0.275265	
-0.106457	
-0.0900955	
-0.1316	
-0.118307	
-0.142642	
-0.13009	
-0.195076	
-0.216347	
-0.198316	
-0.249088	
-0.256801	
-0.243117	
-0.131299	
-0.141874	
-0.11977	
-0.0904151	
-0.103396	
-0.0348469	
-0.0290296	
-0.00820884	
-0.024921	
-0.001687	
-0.0460703	
-0.0167207	
-0.0444466	
-0.0473377	
-0.0394591	
-0.018015	
-0.0941061	
-0.0668556	
-0.102902	
-0.075749	
-0.127919	
-0.0387594	
-0.056797	
-0.0194773	
-0.0454076	
-0.146472	
-0.111054	
-0.131635	
-0.109416	
-0.0227263	
-0.0558964	
-0.0496379	
-0.0682116	
-0.153072	
-0.175677	
-0.172606	
-0.193505	
-0.183953	
-0.186789	
-0.148555	
-0.145793	
-0.208853	
-0.220982	
-0.231067	
-0.232893	
-0.241741	
-0.25256	
-0.259053	
-0.261891	
-0.259319	
-0.262443	
-0.267848	
-0.275162	
-0.0178769	
-0.0376905	
-0.0681092	
-0.263259	
-0.250566	
-0.26959	
-0.274032	
-0.274813	
-0.264735	
-0.265827	
-0.0209355	
-0.0060018	
-0.18984	
-0.189287	
-0.165517	
-0.290671	
-0.291843	
-0.146906	
-0.15227	
-0.125827	
-0.128458	
-0.291306	
-0.285875	
-0.28846	
-0.288784	
-0.285653	
-0.105968	
-0.196134	
-0.177548	
-0.200529	
-0.184511	
0.045131	
0.0362263	
-0.0574812	
-0.00538054	
-0.0250594	
-0.0279904	
-0.00623113	
0.0433696	
0.0339846	
-0.0840915	
-0.0519473	
-0.0943014	
-0.0702458	
-0.124353	
-0.138658	
-0.157992	
-0.166556	
-0.178424	
-0.178472	
-0.211365	
-0.214346	
-0.00704923	
-0.00417069	
-0.287318	
-0.279586	
-0.0224183	
-0.000580473	
-0.0196868	
0.00230501	
0.0356615	
-0.0159901	
-0.290618	
-0.230312	
-0.245436	
-0.251655	
-0.0250292	
0.00827757	
-0.230578	
-0.238037	
0.0136493	
-0.172851	
-0.172665	
-0.270094	
-0.259847	
-0.271556	
-0.283044	
-0.27228	
-0.285451	
-0.18249	
-0.199931	
-0.115073	
-0.113895	
-0.104851	
-0.254709	
-0.229772	
-0.223838	
-0.111886	
-0.11989	
-0.158432	
-0.143138	
0.000766056	
0.0432896	
0.0170299	
0.0309025	
-0.0158326	
0.0277212	
0.0467553	
-0.00627891	
-0.215588	
-0.223426	
-0.220533	
-0.286551	
-0.287493	
-0.282427	
0.0334625	
-0.281492	
-0.278215	
-0.117582	
-0.13555	
-0.130576	
0.0462487	
0.0333556	
-0.273532	
-0.271721	
-0.275752	
0.013227	
0.0426325	
0.0390046	
0.0374201	
-0.162987	
-0.150365	
-0.182491	
-0.18442	
-0.286031	
-0.293383	
-0.289139	
0.0339697	
0.0464889	
0.00278447	
0.0404602	
-0.240969	
-0.235773	
-0.131827	
-0.131009	
0.0429329	
0.0368202	
0.0333518	
-0.276326	
-0.259449	
-0.283017	
-0.278088	
-0.236226	
-0.230114	
-0.250312	
-0.238344	
-0.141604	
-0.131289	
-0.275708	
-0.279849	
-0.228761	
-0.0165856	
-0.0200295	
-0.0497951	
-0.051848	
0.0414259	
0.046877	
-0.0984851	
-0.0901208	
-0.061704	
-0.046028	
-0.293099	
-0.287615	
-0.293392	
-0.287244	
-0.0921873	
-0.0895747	
-0.101404	
-0.070302	
-0.0822475	
0.0313683	
0.0398998	
0.0277352	
-0.168336	
-0.1812	
-0.162379	
-0.182293	
0.043316	