<VTKFile type="UnstructuredGrid" version="0.1" byte_order="LittleEndian">
	<UnstructuredGrid>
		<Piece NumberOfPoints="1647" NumberOfCells="3046">
			<CellData Scalars="scalars">
				<DataArray type="Float64" Name="Doublet Strengths" NumberOfComponents="1" Format="ascii">
0.285011	
0.243421	
0.26857	
0.0573475	
0.0964419	
0.113466	
0.111821	
0.112357	
0.0589235	
0.0560893	
0.108593	
0.0994076	
0.054741	
0.106177	
0.11157	
0.0860026	
0.226767	
0.108852	
0.272687	
0.203111	
0.222079	
0.141281	
0.194375	
0.22158	
0.175943	
0.195301	
0.147909	
0.180489	
0.124396	
0.217761	
0.221798	
0.16795	
0.220338	
0.246274	
0.125493	
0.218852	
0.220969	
0.15556	
0.176635	
0.154212	
0.16811	
0.179625	
0.177075	
0.204202	
0.208393	
0.174677	
0.220962	
0.144386	
0.14239	
0.157495	
0.238364	
0.227395	
0.214393	
0.207525	
0.211963	
0.202148	
0.235593	
0.161701	
0.176476	
0.177495	
0.17378	
0.141021	
0.0988982	
0.130322	
0.192754	
0.19483	
0.199558	
0.202436	
0.2599	
0.262812	
0.253387	
0.112234	
0.051768	
0.18913	
0.191138	
0.197928	
0.202612	
0.184011	
0.171134	
0.173887	
0.164623	
0.191263	
0.182979	
0.190756	
0.187235	
0.19393	
0.192375	
0.199845	
0.171137	
0.159761	
0.10409	
0.117981	
0.124889	
0.217463	
0.227988	
0.222537	
0.231308	
0.116927	
0.126173	
0.163023	
0.236556	
0.239935	
0.252219	
0.204496	
0.193769	
0.195421	
0.152153	
0.219974	
0.106988	
0.120101	
0.128578	
0.139801	
0.137205	
0.147495	
0.132081	
0.131228	
0.256354	
0.267586	
0.226812	
0.241972	
0.22036	
0.0545962	
0.147856	
0.0904518	
0.0792542	
0.0855321	
0.186152	
0.204088	
0.0963747	
0.0724272	
0.137651	
0.138247	
0.130749	
0.131427	
0.104376	
0.25193	
0.241928	
0.162118	
0.147607	
0.164369	
0.150809	
0.113361	
0.148577	
0.150994	
0.158413	
0.157267	
0.11842	
0.105568	
0.284195	
0.270062	
0.249228	
0.262972	
0.224351	
0.194969	
0.195246	
0.202537	
0.0985147	
0.07864	
0.265919	
0.188427	
0.177556	
0.186068	
0.173608	
0.18288	
0.167885	
0.189627	
0.190982	
0.182824	
0.0916072	
0.16171	
0.144289	
0.155484	
0.252461	
0.259616	
0.265865	
0.249198	
0.260033	
0.244434	
0.170238	
0.178065	
0.179534	
0.183322	
0.261798	
0.255457	
0.248078	
0.209601	
0.192138	
0.0593554	
0.0750753	
0.0973816	
0.0986569	
0.0923651	
0.286699	
0.281448	
0.177337	
0.167118	
0.260966	
0.205489	
0.202173	
0.190314	
0.161465	
0.16237	
0.204953	
0.200019	
0.216129	
0.205407	
0.244871	
0.239458	
0.235018	
0.229674	
0.233298	
0.248659	
0.240435	
0.240849	
0.207369	
0.216546	
0.219061	
0.145122	
0.145074	
0.163133	
0.165062	
0.173158	
0.180179	
0.103687	
0.109198	
0.0962011	
0.109078	
0.116552	
0.169586	
0.173569	
0.158342	
0.155752	
0.154797	
0.158043	
0.138464	
0.148481	
0.242651	
0.236274	
0.168069	
0.169863	
0.178344	
0.204833	
0.211084	
0.217401	
0.218728	
0.0882363	
0.0916669	
0.105099	
0.105195	
0.117502	
0.225025	
0.227219	
0.235333	
0.095212	
0.105753	
0.154823	
0.16428	
0.153637	
0.168655	
0.212814	
0.217162	
0.224543	
0.229174	
0.19011	
0.194618	
0.204591	
0.209242	
0.246575	
0.25332	
0.256811	
0.259612	
0.146359	
0.108615	
0.252482	
0.243005	
0.253262	
0.21063	
0.19568	
0.198705	
0.11321	
0.15284	
0.15153	
0.249139	
0.249557	
0.213966	
0.203359	
0.200375	
0.212794	
0.202257	
0.2077	
0.202972	
0.202265	
0.187801	
0.192289	
0.254812	
0.265174	
0.246939	
0.243222	
0.25412	
0.247043	
0.284142	
0.179868	
0.194949	
0.175418	
0.189528	
0.207939	
0.215644	
0.202591	
0.125574	
0.179884	
0.187126	
0.170959	
0.174114	
0.0809681	
0.0868473	
0.0904376	
0.22868	
0.160261	
0.159723	
0.171615	
0.192857	
0.189132	
0.203259	
0.278516	
0.266285	
0.2725	
0.214532	
0.215051	
0.221862	
0.225984	
0.141537	
0.152328	
0.152785	
0.140808	
0.149477	
0.143	
0.172159	
0.164573	
0.167223	
0.262776	
0.255509	
0.250216	
0.159038	
0.147375	
0.163308	
0.144859	
0.215126	
0.207046	
0.262512	
0.256607	
0.118633	
0.0730654	
0.058294	
0.0815099	
0.0535668	
0.165123	
0.157471	
0.139945	
0.139613	
0.225883	
0.222513	
0.233346	
0.205925	
0.198379	
0.210387	
0.178758	
0.168393	
0.137067	
0.13044	
0.147673	
0.137486	
0.163157	
0.153919	
0.156168	
0.16835	
0.16841	
0.177998	
0.17818	
0.227443	
0.235386	
0.203874	
0.211466	
0.17092	
0.148518	
0.164733	
0.281999	
0.284827	
0.272529	
0.278824	
0.240352	
0.275554	
0.272167	
0.282756	
0.277938	
0.265597	
0.273744	
0.276806	
0.273943	
0.235636	
0.23171	
0.240649	
0.236577	
0.228964	
0.226064	
0.215358	
0.220573	
0.207355	
0.212516	
0.266859	
0.197949	
0.197419	
0.187777	
0.185992	
0.232756	
0.23573	
0.13654	
0.134796	
0.145317	
0.148043	
0.143472	
0.140566	
0.153034	
0.154869	
0.22029	
0.222128	
0.128367	
0.11663	
0.128014	
0.121402	
0.197599	
0.207825	
0.221374	
0.232187	
0.216799	
0.22092	
0.216747	
0.206166	
0.213541	
0.182541	
0.191009	
0.181898	
0.19021	
0.138188	
0.143387	
0.138025	
0.162452	
0.172561	
0.183575	
0.195332	
0.183087	
0.188447	
0.272018	
0.268311	
0.256446	
0.26043	
0.151145	
0.138796	
0.139081	
0.132359	
0.13245	
0.144861	
0.138277	
0.130293	
0.20682	
0.199842	
0.213541	
0.211102	
0.269789	
0.141393	
0.148233	
0.152147	
0.156298	
0.172425	
0.162507	
0.216781	
0.208664	
0.258504	
0.246462	
0.153321	
0.067249	
0.171374	
0.155863	
0.195643	
0.162806	
0.189548	
0.181042	
0.120662	
0.131966	
0.164788	
0.22507	
0.22935	
0.233176	
0.235299	
0.121377	
0.168799	
0.166435	
0.103907	
0.120804	
0.123443	
0.131761	
0.110644	
0.123763	
0.126431	
0.136029	
0.136605	
0.263557	
0.270548	
0.27013	
0.274041	
0.235785	
0.223731	
0.226098	
0.07682	
0.0819665	
0.0734228	
0.0703242	
0.241969	
0.243037	
0.232079	
0.236762	
0.234496	
0.232733	
0.131926	
0.202257	
0.207603	
0.214417	
0.0610686	
0.0609536	
0.0732578	
0.0737947	
0.158075	
0.262882	
0.248342	
0.250973	
0.161774	
0.21256	
0.205661	
0.27411	
0.280436	
0.182194	
0.183343	
0.168454	
0.172811	
0.252543	
0.260229	
0.252977	
0.259897	
0.175606	
0.187816	
0.179951	
0.177789	
0.190944	
0.178766	
0.186611	
0.145333	
0.128069	
0.139162	
0.11532	
0.159504	
0.170878	
0.170927	
0.224188	
0.231669	
0.258164	
0.260488	
0.264996	
0.26851	
0.155566	
0.158823	
0.145988	
0.147931	
0.180282	
0.179482	
0.191361	
0.188538	
0.1925	
0.186999	
0.176491	
0.168691	
0.242022	
0.229659	
0.242534	
0.236131	
0.239613	
0.279266	
0.286476	
0.271914	
0.274843	
0.253553	
0.248116	
0.21846	
0.22699	
0.200849	
0.20926	
0.116914	
0.0988962	
0.121947	
0.109345	
0.178952	
0.186669	
0.280803	
0.27403	
0.281007	
0.275007	
0.265526	
0.276935	
0.268007	
0.260172	
0.265116	
0.258836	
0.245812	
0.244126	
0.236191	
0.158769	
0.144548	
0.147407	
0.132979	
0.10511	
0.0975047	
0.0849234	
0.0712191	
0.110566	
0.123523	
0.110953	
0.0983456	
0.0931917	
0.130095	
0.121886	
0.141907	
0.0540098	
0.069161	
0.0860718	
0.127331	
0.117383	
0.125248	
0.126731	
0.114727	
0.119216	
0.141266	
0.233681	
0.233404	
0.246895	
0.24633	
0.0862948	
0.0682043	
0.124058	
0.116794	
0.131184	
0.120552	
0.127211	
0.119274	
0.131657	
0.114954	
0.127509	
0.217764	
0.214145	
0.208789	
0.119375	
0.112924	
0.113305	
0.10977	
0.0943378	
0.181257	
0.182118	
0.19154	
0.115572	
0.13136	
0.123117	
0.134429	
0.121951	
0.126837	
0.108623	
0.197253	
0.199259	
0.233992	
0.237589	
0.228141	
0.230067	
0.0955406	
0.0897705	
0.10722	
0.0984916	
0.190038	
0.195443	
0.108541	
0.103618	
0.061938	
0.0524182	
0.0795457	
0.0668558	
0.12695	
0.10832	
0.136988	
0.119302	
0.263222	
0.257111	
0.214384	
0.22117	
0.157631	
0.147188	
0.144521	
0.133597	
0.133468	
0.148269	
0.119438	
0.15447	
0.142428	
0.131783	
0.131052	
0.144193	
0.114992	
0.13791	
0.150147	
0.157874	
0.139114	
0.148193	
0.249412	
0.252257	
0.256703	
0.14322	
0.150277	
0.12298	
0.128814	
0.243875	
0.246143	
0.233459	
0.235141	
0.241819	
0.249012	
0.236482	
0.238604	
0.100015	
0.105464	
0.100658	
0.105967	
0.031589	
0.0434499	
0.0374586	
0.0419929	
0.0452966	
-0.338887	
-0.329328	
0.0404667	
0.0409698	
0.0438961	
0.0401187	
0.0362741	
-0.28902	
0.0436583	
-0.0874996	
-0.0928116	
-0.225994	
-0.12544	
0.0386833	
0.0374604	
-0.14474	
-0.0870763	
-0.168867	
-0.0809227	
-0.0851874	
0.0113206	
-0.0182893	
-0.273015	
-0.278111	
-0.230984	
-0.105022	
-0.317699	
-0.267273	
-0.0876779	
-0.129532	
-0.0769662	
-0.237801	
-0.251565	
-0.266271	
-0.300462	
-0.317732	
-0.287282	
-0.016469	
-0.0447948	
-0.179033	
-0.229326	
-0.19854	
-0.224966	
-0.220713	
-0.240608	
-0.155111	
-0.176198	
-0.128407	
-0.269489	
-0.149473	
-0.10778	
-0.114809	
-0.126499	
-0.119122	
-0.114491	
-0.146692	
-0.112818	
-0.306277	
-0.261852	
-0.133653	
-0.179743	
-0.280365	
-0.0831623	
-0.216265	
-0.125516	
-0.0987274	
-0.167574	
-0.168959	
-0.281908	
-0.341554	
0.0229311	
0.0219485	
-0.0304656	
-0.208107	
-0.0636679	
-0.0735499	
-0.257719	
-0.235189	
-0.232841	
-0.272374	
-0.290379	
-0.184365	
-0.178254	
-0.278212	
-0.260536	
-0.249897	
-0.0502088	
-0.294636	
-0.0146416	
-0.0565328	
-0.043962	
-0.0865137	
-0.229998	
-0.159357	
-0.176989	
-0.291344	
-0.115391	
-0.170556	
-0.203836	
-0.157058	
-0.167578	
-0.0706321	
-0.246865	
-0.272404	
-0.218839	
-0.25389	
-0.194416	
-0.213472	
-0.0726905	
-0.102001	
-0.241514	
-0.035462	
-0.0511376	
-0.0828172	
-0.158579	
-0.275901	
-0.284935	
-0.301746	
-0.323148	
-0.224124	
-0.215758	
-0.293762	
-0.304366	
-0.164135	
0.0304453	
-0.012251	
-0.33235	
-0.276178	
-0.187935	
-0.204264	
-0.201731	
0.0303724	
-0.0107041	
-0.31246	
-0.31927	
-0.318126	
0.0259846	
0.0372762	
-0.110573	
-0.142038	
-0.0605717	
-0.0688561	
-0.0515361	
0.0463051	
-0.24664	
-0.206975	
-0.183405	
-0.191364	
-0.142158	
-0.188741	
-0.137489	
-0.164033	
-0.145292	
-0.165697	
-0.33142	
-0.340012	
-0.128807	
-0.0857231	
-0.238847	
-0.253106	
-0.26835	
-0.198938	
-0.163174	
-0.207105	
-0.186407	
0.0210069	
-0.278688	
-0.0980552	
-0.109276	
-0.173259	
-0.242212	
-0.191304	
-0.209078	
-0.233154	
-0.249589	
-0.329346	
-0.233306	
-0.240314	
-0.243438	
-0.257433	
-0.026786	
-0.229656	
-0.196882	
-0.219017	
-0.100555	
-0.100752	
-0.130937	
-0.126663	
-0.0146342	
-0.0301859	
-0.116575	
-0.0950553	
-0.215434	
-0.111341	
-0.322895	
-0.330366	
-0.0555729	
-0.285178	
-0.275396	
-0.269965	
-0.190731	
-0.235433	
-0.196432	
-0.233203	
-0.190598	
-0.129478	
-0.314704	
-0.30879	
-0.173745	
-0.181663	
-0.204142	
-0.209611	
-0.0898084	
-0.113058	
-0.311407	
-0.299	
-0.154831	
-0.176714	
0.0112923	
-0.0345379	
-0.02287	
-0.0762636	
-0.0439833	
-0.0230355	
-0.265681	
-0.278927	
-0.341492	
-0.0989174	
-0.0869884	
-0.0666465	
-0.0676257	
-0.0871184	
-0.0542535	
-0.0835309	
-0.299511	
-0.316286	
-0.304144	
-0.339744	
-0.319572	
-0.0829999	
-0.115492	
-0.111177	
-0.151954	
-0.199691	
-0.243836	
-0.196743	
-0.12182	
-0.12316	
-0.138787	
-0.222307	
-0.234477	
-0.156061	
-0.173511	
-0.153723	
-0.171871	
-0.0207935	
-0.033631	
-0.0490285	
-0.0620862	
-0.304909	
-0.206804	
-0.137885	
-0.081766	
-0.117459	
-0.205095	
-0.218809	
-0.190998	
-0.210577	
-0.256646	
-0.265431	
-0.243452	
-0.258544	
-0.306612	
-0.295511	
-0.302947	
-0.288504	
-0.154271	
-0.110826	
-0.199405	
-0.187315	
-0.0757624	
-0.101447	
-0.075434	
-0.102747	
-0.207137	
-0.214442	
-0.0610242	
-0.0646741	
-0.0283554	
-0.248184	
-0.252683	
-0.263288	
-0.27387	
-0.05799	
-0.0796339	
-0.225434	
-0.225872	
-0.139276	
-0.171834	
-0.135416	
-0.169517	
-0.239673	
-0.19788	
-0.224471	
0.00213048	
-0.0259159	
-0.311819	
-0.32106	
-0.0969183	
-0.11473	
-0.157662	
-0.144086	
-0.146137	
-0.131798	
-0.235929	
-0.214836	
-0.244038	
-0.281234	
-0.268991	
-0.289279	
-0.168152	
-0.151547	
-0.139229	
-0.100365	
-0.107353	
-0.0392372	
-0.0336226	
-0.0297489	
-0.0124157	
-0.027581	
-0.00883626	
-0.0549546	
-0.0251711	
-0.056081	
-0.0462464	
-0.0467762	
-0.119772	
-0.110372	
-0.08092	
-0.146667	
-0.0262539	
-0.0539049	
-0.024267	
-0.0655148	
-0.151787	
-0.127712	
-0.16798	
-0.154893	
-0.0358046	
-0.0332736	
-0.082767	
-0.0626021	
-0.216607	
-0.219382	
-0.175052	
-0.174648	
-0.166777	
-0.188389	
-0.187179	
-0.208611	
-0.260653	
-0.262581	
-0.244203	
-0.249296	
-0.285367	
-0.276933	
-0.296192	
-0.292758	
-0.296292	
-0.292833	
-0.309563	
-0.303088	
-0.0812826	
-0.0271897	
-0.0485352	
-0.290011	
-0.27918	
-0.311176	
-0.300349	
-0.310784	
-0.296324	
-0.296771	
-0.0136171	
-0.0299666	
-0.206542	
-0.195747	
-0.183774	
-0.330942	
-0.332292	
-0.332783	
-0.165147	
-0.144867	
-0.152056	
-0.136339	
-0.335082	
-0.327391	
-0.320633	
-0.327502	
-0.323356	
-0.137143	
-0.199573	
-0.21993	
-0.193434	
-0.224603	
0.03193	
0.0422545	
-0.0711016	
-0.0693588	
-0.0140763	
-0.0391482	
-0.0153171	
0.0290622	
0.0404354	
-0.0653912	
-0.121304	
-0.0621639	
-0.111299	
-0.134562	
-0.150237	
-0.180982	
-0.17787	
-0.193498	
-0.200953	
-0.232978	
-0.236623	
-0.00822421	
-0.0108956	
-0.328295	
-0.31819	
-0.0285242	
-0.00551302	
-0.27224	
-0.0241093	
0.034103	
-0.253311	
-0.00634706	
-0.339156	
-0.280909	
-0.0258435	
-0.00212702	
0.0103113	
-0.189125	
-0.176706	
-0.294723	
-0.30387	
-0.306067	
-0.310195	
-0.319991	
-0.323049	
-0.198965	
-0.21733	
-0.126547	
-0.115379	
-0.124515	
-0.279316	
-0.236433	
-0.257663	
-0.260908	
-0.122245	
-0.152949	
-0.162186	
-0.181313	
-0.00773498	
0.00986434	
0.0395126	
-0.0358839	
0.0249333	
0.0443151	
0.0228986	
-0.0133633	
-0.292148	
-0.326182	
-0.319337	
-0.326232	
0.0316154	
-0.319998	
-0.316288	
-0.152472	
-0.133178	
-0.147321	
0.0283469	
0.0416076	
-0.308122	
-0.310407	
-0.305043	
-0.266513	
0.00940054	
-0.271456	
-0.262073	
-0.253454	
0.0369555	
0.0412842	
0.043663	
-0.202497	
-0.187858	
-0.181556	
-0.163722	
-0.326533	
-0.328394	
-0.33104	
0.044376	
0.0307344	
0.037835	
0.00376022	
-0.292636	
-0.290858	
-0.28497	
-0.142845	
-0.144124	
0.0434961	
0.0273246	
-0.324227	
-0.316017	
-0.314311	
-0.155446	
-0.144251	
-0.311561	
-0.317656	
-0.256258	
-0.0301392	
-0.0265049	
-0.0646708	
-0.0625237	
0.0456172	
0.0393751	
-0.0720823	
-0.0823598	
-0.100827	
-0.102652	
-0.337359	
-0.33772	
-0.328001	
-0.337136	
-0.106017	
-0.0755636	
-0.0908733	
-0.0965093	
-0.117224	
0.0360457	
0.0263946	
0.0215675	
-0.189095	
-0.200075	
-0.1731	
-0.197627	
0.0390027	
-0.109383	
-0.108981	
-0.0939277	
-0.333442	
-0.340166	
-0.258702	
-0.268685	
-0.101044	
-0.12115	
-0.28189	
-0.271011	
0.000732333	
0.00476614	
-0.252887	
-0.277247	
-0.26722	
-0.203632	
-0.224534	
-0.192403	
-0.208063	
-0.0399368	
-0.0902736	
-0.0490819	
-0.0423452	
-0.0902484	
-0.072877	
-0.334814	
-0.339982	
-0.33536	
-0.339405	
-0.0357235	
-0.0433114	
0.023767	
-0.251267	
-0.231847	
-0.300537	
-0.293184	
-0.160795	
-0.156108	
-0.116145	
-0.0999492	
-0.319105	
-0.311388	
-0.331551	
-0.327778	
-0.320428	
-0.312165	
-0.164573	
-0.167992	
-0.141344	
-0.145153	
-0.25408	
-0.269699	
-0.184777	
-0.199229	
-0.218769	
-0.220564	
-0.329477	
-0.331247	
-0.332722	
-0.332104	
-0.283671	
-0.297047	
-0.306632	
-0.299898	
-0.307802	
-0.261291	
-0.250229	
-0.270648	
-0.280382	
-0.0308334	
0.0131448	
0.0375142	
-0.283865	
-0.280278	
-0.085199	
-0.068844	
-0.117951	
-0.211567	
-0.228794	
-0.211045	
-0.245913	
-0.242806	
-0.251403	
-0.254306	
-0.260121	
-0.336712	
-0.331938	
-0.330663	
-0.323131	
-0.289976	
-0.271558	
-0.284171	
-0.312659	
0.0179856	
-0.0424569	
0.0329004	
0.00852426	
-0.21887	
-0.244445	
-0.240652	
-0.216914	
-0.232577	
-0.0251664	
0.0326894	
0.0299475	
-0.0202294	
0.0414056	
0.0221183	
-0.278033	
-0.285353	
-0.284024	
-0.294347	
0.0346033	
0.0114973	
-0.228737	
-0.258964	
-0.237226	
-0.264307	
-0.254355	
-0.259276	
-0.271229	
-0.25053	
-0.24405	
-0.260211	
-0.118855	
-0.124764	
-0.138056	
-0.15059	
-0.321585	
-0.322007	
-0.324219	
-0.227202	
-0.216038	
-0.310609	
-0.306048	
-0.29429	
-0.295872	
-0.209951	
-0.227907	
-0.221773	
-0.238517	
-0.0975891	
-0.121925	
-0.303771	
-0.306069	
-0.329078	
-0.333721	
-0.0517411	
-0.0654668	
-0.0717154	
-0.0810359	
-0.234354	
-0.221979	
-0.217447	
-0.212081	
-0.122517	
-0.14634	
-0.155148	
-0.174031	
-0.281522	
-0.294359	
-0.294123	
-0.304787	
-0.159105	
-0.15093	
-0.195449	
-0.187653	
-0.242467	
-0.232588	
-0.0615639	
-0.0391298	
-0.0862646	
-0.0714101	
-0.275489	
-0.272024	
-0.337996	
-0.335855	
-0.33871	
-0.34071	
-0.316108	
-0.315214	
-0.143129	
-0.157517	
-0.18573	
-0.195768	
-0.0236007	
-0.0111795	
0.0337162	
0.0311325	
-0.195032	
-0.160201	
-0.184796	
-0.147851	
-0.0106553	
-0.00430111	
-0.00730979	
-0.000692998	
0.00239202	
0.0143415	
0.0205019	
0.0228976	
0.01704	
-0.00903232	
-0.000422186	
0.00781139	
0.00348071	
0.00984042	
0.0186223	
0.0229475	
0.0100234	
0.0143595	
0.00632075	
-0.00468912	
0.00395146	
-0.0109786	
-0.0148575	
-0.00388832	
-0.0226094	
-0.0225018	
-0.0165394	
-0.0236517	
-0.0203737	
0.0144762	
0.0123602	
-0.00124228	
0.00499799	
-0.00633316	
-0.017836	
-0.0170478	
-0.0163609	
-0.014387	
-0.00991732	
0.0178565	
0.280335	
0.244457	
0.268616	
0.0571611	
0.102356	
0.0592681	
0.204143	
0.113359	
0.111179	
0.111684	
0.112488	
0.0838717	
0.0555538	
0.108739	
0.0993218	
0.0947386	
0.0547505	
0.106218	
0.087161	
0.228377	
0.212208	
0.144658	
0.194405	
0.221124	
0.176003	
0.195746	
0.147666	
0.124559	
0.222667	
0.21639	
0.168007	
0.219853	
0.246215	
0.12972	
0.124391	
0.219199	
0.221537	
0.163219	
0.176572	
0.154669	
0.167794	
0.17973	
0.177221	
0.208975	
0.208117	
0.168823	
0.221411	
0.144496	
0.142646	
0.147064	
0.226893	
0.207738	
0.214721	
0.202334	
0.205137	
0.235379	
0.176907	
0.178111	
0.174376	
0.141217	
0.0984433	
0.130228	
0.20634	
0.202129	
0.192575	
0.190049	
0.252841	
0.259172	
0.266827	
0.1112	
0.0609659	
0.198815	
0.198291	
0.189959	
0.186641	
0.173771	
0.164552	
0.184438	
0.183166	
0.182898	
0.195088	
0.19068	
0.192574	
0.200322	
0.18738	
0.1886	
0.169959	
0.158285	
0.11928	
0.10589	
0.124683	
0.111379	
0.222061	
0.232728	
0.217131	
0.220628	
0.126045	
0.116855	
0.163278	
0.236408	
0.245428	
0.193519	
0.196261	
0.153249	
0.197482	
0.214188	
0.120149	
0.106928	
0.132619	
0.129533	
0.156332	
0.137469	
0.132492	
0.14081	
0.25351	
0.267439	
0.241548	
0.226393	
0.220804	
0.0672123	
0.0545494	
0.117013	
0.147757	
0.0793758	
0.0914071	
0.199048	
0.186287	
0.0945422	
0.0717992	
0.130934	
0.13153	
0.137875	
0.138379	
0.103783	
0.250089	
0.2424	
0.164492	
0.145311	
0.162172	
0.154971	
0.126203	
0.158621	
0.157465	
0.152469	
0.151105	
0.0985008	
0.282872	
0.26874	
0.250361	
0.262235	
0.222371	
0.206749	
0.194886	
0.191068	
0.108218	
0.0984691	
0.173251	
0.188172	
0.173476	
0.188962	
0.167876	
0.17429	
0.189209	
0.171103	
0.190824	
0.0956255	
0.15457	
0.160412	
0.153881	
0.258168	
0.251453	
0.251561	
0.244253	
0.248993	
0.256407	
0.179403	
0.18329	
0.170912	
0.178085	
0.260726	
0.246924	
0.253131	
0.201491	
0.193378	
0.205833	
0.061981	
0.0978701	
0.0868729	
0.0987233	
0.283085	
0.279634	
0.177528	
0.167111	
0.260192	
0.202725	
0.203065	
0.195708	
0.153605	
0.161444	
0.200193	
0.212327	
0.205901	
0.213454	
0.238876	
0.242917	
0.231799	
0.234811	
0.23079	
0.239708	
0.245804	
0.216135	
0.201981	
0.218669	
0.145601	
0.139858	
0.16536	
0.163662	
0.175299	
0.173258	
0.109322	
0.0916811	
0.10918	
0.0962778	
0.116408	
0.17725	
0.169344	
0.162491	
0.158135	
0.158051	
0.143936	
0.148407	
0.138342	
0.241797	
0.23618	
0.178668	
0.172832	
0.170193	
0.217154	
0.218615	
0.207554	
0.211065	
0.0923369	
0.0883246	
0.276535	
0.105299	
0.10518	
0.117625	
0.23676	
0.231384	
0.229511	
0.103955	
0.0942902	
0.164237	
0.154784	
0.168606	
0.162333	
0.225925	
0.226628	
0.216675	
0.218092	
0.204285	
0.203986	
0.194687	
0.194355	
0.256045	
0.258165	
0.247857	
0.252178	
0.146385	
0.24687	
0.251507	
0.244538	
0.210554	
0.198725	
0.191257	
0.117872	
0.153087	
0.151851	
0.251494	
0.248985	
0.215323	
0.201645	
0.205096	
0.208808	
0.21399	
0.206237	
0.192082	
0.202661	
0.207037	
0.25432	
0.262419	
0.253797	
0.246879	
0.253212	
0.242981	
0.189859	
0.179613	
0.189305	
0.180101	
0.215247	
0.207585	
0.202274	
0.125422	
0.188108	
0.182958	
0.170089	
0.0810175	
0.0786035	
0.0904874	
0.0924362	
0.223508	
0.159868	
0.160333	
0.171794	
0.185863	
0.192619	
0.202992	
0.2217	
0.222353	
0.214549	
0.215157	
0.141426	
0.148666	
0.148105	
0.1529	
0.139134	
0.149585	
0.167203	
0.17202	
0.16445	
0.254857	
0.251448	
0.262197	
0.147287	
0.158698	
0.143361	
0.154902	
0.192274	
0.206699	
0.214731	
0.118403	
0.256455	
0.262173	
0.0574762	
0.0720325	
0.0815597	
0.0536068	
0.165155	
0.153265	
0.170254	
0.140354	
0.145423	
0.225844	
0.233112	
0.225806	
0.199346	
0.210433	
0.202667	
0.178804	
0.168251	
0.130497	
0.137048	
0.137583	
0.147922	
0.147677	
0.168421	
0.153945	
0.163173	
0.168314	
0.17813	
0.182477	
0.235348	
0.227484	
0.211194	
0.203625	
0.164755	
0.148806	
0.279457	
0.242432	
0.27081	
0.27449	
0.26426	
0.28026	
0.265381	
0.278013	
0.274177	
0.277429	
0.273192	
0.231719	
0.23546	
0.236523	
0.240532	
0.221862	
0.225001	
0.227205	
0.230315	
0.205004	
0.211714	
0.213464	
0.216497	
0.263043	
0.204415	
0.199238	
0.192271	
0.189369	
0.276214	
0.235025	
0.238721	
0.134762	
0.136504	
0.140846	
0.150845	
0.141246	
0.144329	
0.147619	
0.157598	
0.223216	
0.234258	
0.222786	
0.121891	
0.128288	
0.121322	
0.127999	
0.204729	
0.197528	
0.229343	
0.221095	
0.227664	
0.216506	
0.216562	
0.202432	
0.213155	
0.205925	
0.190922	
0.177942	
0.194662	
0.181821	
0.142753	
0.137748	
0.168351	
0.162656	
0.190631	
0.183795	
0.194067	
0.183359	
0.260547	
0.260106	
0.268641	
0.151181	
0.148224	
0.143066	
0.138693	
0.132476	
0.132258	
0.137905	
0.141066	
0.130389	
0.125765	
0.215072	
0.198982	
0.211461	
0.207524	
0.264425	
0.264074	
0.134354	
0.141011	
0.156143	
0.151725	
0.173122	
0.156115	
0.153054	
0.172062	
0.196444	
0.159398	
0.146238	
0.122724	
0.181777	
0.190375	
0.126008	
0.131491	
0.238664	
0.235603	
0.231586	
0.226396	
0.169321	
0.166858	
0.108385	
0.121868	
0.136354	
0.134849	
0.121317	
0.115701	
0.115306	
0.12528	
0.125298	
0.0856295	
0.110524	
0.131294	
0.2689	
0.257031	
0.27269	
0.268779	
0.22854	
0.23568	
0.226379	
0.232153	
0.236223	
0.23701	
0.241735	
0.13707	
0.214504	
0.202205	
0.207668	
0.158469	
0.258902	
0.246396	
0.262606	
0.231248	
0.231792	
0.256854	
0.249488	
0.262059	
0.162096	
0.0732256	
0.0738154	
0.0610058	
0.0517625	
0.205558	
0.212509	
0.278318	
0.272464	
0.0767518	
0.0734012	
0.0819234	
0.070329	
0.113301	
0.174175	
0.184116	
0.184838	
0.175561	
0.179875	
0.187714	
0.179689	
0.187677	
0.178835	
0.187132	
0.126559	
0.137651	
0.118096	
0.137602	
0.170848	
0.158543	
0.170728	
0.231542	
0.224101	
0.268675	
0.267277	
0.257144	
0.259657	
0.163263	
0.155363	
0.1481	
0.145899	
0.195495	
0.188369	
0.1802	
0.179354	
0.176504	
0.174644	
0.187615	
0.186827	
0.237493	
0.268197	
0.264384	
0.270519	
0.247562	
0.252919	
0.275551	
0.276849	
0.226006	
0.21997	
0.209414	
0.201823	
0.236583	
0.240977	
0.21842	
0.228651	
0.214506	
0.221515	
0.116578	
0.109287	
0.116856	
0.098889	
0.191085	
0.178905	
0.272821	
0.265964	
0.260126	
0.258743	
0.264904	
0.273929	
0.28458	
0.273855	
0.280212	
0.233294	
0.243518	
0.235753	
0.245348	
0.237098	
0.117349	
0.0711383	
0.0590549	
0.184819	
0.17549	
0.144289	
0.15954	
0.13299	
0.147552	
0.131978	
0.119406	
0.127109	
0.108526	
0.268054	
0.272326	
0.123251	
0.110581	
0.110544	
0.0924286	
0.0985015	
0.130163	
0.121933	
0.110969	
0.105236	
0.116626	
0.0690652	
0.08602	
0.0539463	
0.128671	
0.12484	
0.126696	
0.11645	
0.111124	
0.098335	
0.1142	
0.119229	
0.247747	
0.15825	
0.151153	
0.14853	
0.140312	
0.245973	
0.239226	
0.240424	
0.23276	
0.0861799	
0.0680497	
0.131409	
0.124239	
0.116947	
0.102942	
0.102965	
0.119139	
0.112475	
0.141826	
0.192261	
0.181786	
0.182745	
0.131607	
0.123262	
0.115734	
0.244914	
0.126876	
0.108664	
0.13803	
0.121892	
0.227557	
0.229502	
0.233473	
0.239076	
0.0898049	
0.103797	
0.0985726	
0.107345	
0.190417	
0.195999	
0.0795721	
0.0668472	
0.0751247	
0.0524319	
0.237958	
0.240357	
0.245463	
0.250313	
0.124919	
0.128899	
0.13873	
0.142707	
0.256738	
0.267049	
0.257279	
0.263503	
0.225196	
0.215948	
0.269877	
0.278148	
0.271414	
0.27701	
0.283619	
0.157313	
0.157069	
0.133338	
0.117983	
0.105315	
0.104894	
0.134614	
0.131844	
0.153587	
0.141224	
0.147303	
0.132304	
0.170932	
0.166591	
0.146797	
0.156782	
0.144118	
0.131202	
0.129445	
0.249851	
0.253238	
0.242601	
0.243904	
0.16406	
0.152829	
0.143106	
0.115995	
0.146949	
0.134351	
0.040774	
0.0435291	
0.0260734	
0.0420728	
0.0453114	
-0.339114	
-0.328995	
0.0437301	
0.0313774	
0.0362592	
-0.0526418	
-0.288189	
0.0440312	
0.0434836	
-0.0874065	
-0.0925963	
-0.225917	
0.0461715	
-0.0995192	
0.0387549	
0.0374513	
-0.331617	
-0.144566	
-0.0956256	
-0.16866	
-0.0621573	
-0.0808505	
0.0114417	
-0.0181871	
-0.277649	
-0.27649	
-0.230671	
-0.104932	
-0.308959	
-0.26655	
-0.0878	
-0.129366	
-0.0769822	
-0.252647	
-0.251159	
-0.266154	
-0.30013	
-0.317447	
-0.286901	
-0.0164792	
-0.0448296	
-0.181222	
-0.229137	
-0.243906	
-0.240143	
-0.203559	
-0.207773	
-0.15535	
-0.155016	
-0.122362	
-0.269242	
-0.13555	
-0.1029	
-0.107922	
-0.126664	
-0.119015	
-0.146537	
-0.114384	
-0.112976	
-0.30604	
-0.258729	
-0.132661	
-0.172907	
-0.279816	
-0.0831693	
-0.216321	
-0.125342	
-0.0985595	
-0.163788	
-0.169318	
-0.293672	
-0.339102	
0.0373735	
0.0229861	
-0.0303821	
-0.207989	
-0.0735641	
-0.0636837	
-0.235469	
-0.257923	
-0.232684	
-0.290063	
-0.272049	
-0.173966	
-0.178557	
-0.260055	
-0.277852	
-0.249456	
-0.0501472	
-0.292195	
-0.0275016	
-0.0200499	
-0.0817725	
-0.0714115	
-0.229645	
-0.144133	
-0.177176	
-0.290521	
-0.115393	
-0.156855	
-0.187403	
-0.170333	
-0.19827	
-0.0721175	
-0.27226	
-0.246974	
-0.253781	
-0.2187	
-0.202141	
-0.214744	
-0.10196	
-0.242636	
-0.0356691	
-0.0828002	
-0.143046	
-0.285254	
-0.275994	
-0.3009	
-0.322354	
-0.214548	
-0.215473	
-0.304114	
-0.293256	
-0.163784	
0.0303546	
-0.0122657	
-0.293589	
-0.29312	
-0.332627	
-0.278276	
-0.188079	
-0.187954	
0.0291053	
-0.0107019	
-0.310733	
-0.318357	
-0.317295	
0.0220796	
0.0375784	
-0.110421	
-0.141811	
-0.0616507	
-0.051982	
-0.0699393	
-0.246177	
-0.206781	
-0.16001	
-0.191136	
-0.188701	
-0.188313	
-0.137476	
0.0401347	
-0.159381	
-0.164482	
-0.330489	
-0.338395	
-0.152877	
-0.0855654	
-0.267879	
-0.238581	
-0.237427	
-0.168049	
-0.198766	
-0.186371	
-0.206973	
0.0210098	
-0.278445	
-0.109215	
-0.173182	
-0.243682	
-0.191756	
-0.209596	
-0.23622	
-0.249833	
-0.330018	
-0.25648	
-0.257374	
-0.233306	
-0.23249	
-0.0264773	
-0.229555	
-0.218885	
-0.196777	
-0.100727	
-0.100543	
-0.126623	
-0.0147232	
-0.030503	
-0.117013	
-0.0881493	
-0.1241	
-0.215808	
-0.100955	
-0.338731	
-0.330464	
-0.32289	
-0.0615987	
-0.288193	
-0.271295	
-0.269795	
-0.189094	
-0.237479	
-0.216332	
-0.232804	
-0.190421	
-0.154776	
-0.308071	
-0.313108	
-0.204441	
-0.198032	
-0.184638	
-0.181825	
-0.116125	
-0.253282	
-0.298348	
-0.310341	
-0.154713	
-0.13791	
-0.176753	
0.0113404	
-0.0228344	
-0.0902329	
-0.0762065	
-0.0229751	
-0.0439108	
-0.264875	
-0.277907	
-0.0990733	
-0.0667582	
-0.08711	
-0.0623576	
-0.0837912	
-0.06775	
-0.0872781	
-0.297649	
-0.302252	
-0.314627	
-0.326986	
-0.337631	
-0.0423778	
-0.111044	
-0.0579214	
-0.115358	
-0.151818	
-0.174442	
-0.245026	
-0.196598	
-0.118896	
-0.152327	
-0.235352	
-0.223272	
-0.187793	
-0.15399	
-0.178397	
-0.0337582	
-0.0260853	
-0.0543956	
-0.0493382	
-0.130916	
-0.193317	
-0.117495	
-0.0865278	
-0.218901	
-0.187196	
-0.210639	
-0.191044	
-0.265521	
-0.243324	
-0.258689	
-0.243514	
-0.141979	
-0.30254	
-0.284872	
-0.309891	
-0.295179	
-0.138172	
-0.124826	
-0.17385	
-0.19988	
-0.101617	
-0.0651447	
-0.114976	
-0.0756579	
-0.19317	
-0.216639	
-0.0761734	
-0.0613813	
-0.0287431	
-0.262784	
-0.268658	
-0.247755	
-0.252099	
-0.0795407	
-0.0829005	
-0.227735	
-0.216545	
-0.15636	
-0.139467	
-0.171957	
-0.169644	
-0.149633	
-0.227477	
-0.201901	
-0.224445	
-0.209659	
-0.0209296	
0.00201738	
-0.321125	
-0.311907	
-0.114663	
-0.096856	
-0.14631	
-0.131964	
-0.157844	
-0.144276	
-0.220431	
-0.243794	
-0.223829	
-0.280517	
-0.289043	
-0.27352	
-0.151455	
-0.163121	
-0.139211	
-0.107356	
-0.121249	
-0.0397426	
-0.0340149	
-0.0148669	
-0.0326197	
-0.00879961	
-0.056523	
-0.025185	
-0.0549677	
-0.0560353	
-0.04688	
-0.0245187	
-0.110236	
-0.080793	
-0.119634	
-0.0901555	
-0.146553	
-0.046366	
-0.0656381	
-0.0262731	
-0.0537918	
-0.167835	
-0.129388	
-0.151635	
-0.127602	
-0.0332545	
-0.0692656	
-0.062537	
-0.0826716	
-0.174865	
-0.199428	
-0.196212	
-0.219065	
-0.205066	
-0.208432	
-0.166785	
-0.164013	
-0.235625	
-0.24905	
-0.260351	
-0.262367	
-0.272371	
-0.284664	
-0.292145	
-0.29546	
-0.292213	
-0.295726	
-0.302275	
-0.311275	
-0.0271403	
-0.0485187	
-0.0812538	
-0.294251	
-0.279076	
-0.302863	
-0.308564	
-0.30957	
-0.295942	
-0.298368	
-0.0300066	
-0.0136562	
-0.207848	
-0.206824	
-0.180168	
-0.331905	
-0.332269	
-0.159168	
-0.165265	
-0.136303	
-0.139503	
-0.333189	
-0.323926	
-0.327435	
-0.327512	
-0.322821	
-0.122191	
-0.219735	
-0.199447	
-0.22433	
-0.206644	
0.0421744	
0.0319321	
-0.0709555	
-0.0142037	
-0.0358041	
-0.0389464	
-0.0151418	
0.0397881	
0.0289093	
-0.100338	
-0.06538	
-0.111241	
-0.0851481	
-0.134249	
-0.149976	
-0.172156	
-0.181336	
-0.194949	
-0.194683	
-0.232741	
-0.236288	
-0.011084	
-0.00837881	
-0.326854	
-0.317026	
-0.0286266	
-0.00559893	
-0.0268616	
-0.00333343	
0.0340592	
-0.0236311	
-0.331533	
-0.254148	
-0.272091	
-0.279465	
-0.0357016	
0.00368258	
-0.254299	
-0.263179	
0.0101959	
-0.188122	
-0.187869	
-0.302804	
-0.290021	
-0.304741	
-0.319706	
-0.306355	
-0.322738	
-0.199054	
-0.218796	
-0.126709	
-0.124704	
-0.115537	
-0.283108	
-0.257627	
-0.251187	
-0.128747	
-0.137087	
-0.178948	
-0.162113	
-0.00484782	
0.0398137	
0.0100405	
0.025416	
-0.0256183	
0.023012	
0.0443852	
-0.0133212	
-0.236838	
-0.246004	
-0.242877	
-0.325185	
-0.326222	
-0.319297	
0.0295259	
-0.319252	
-0.315228	
-0.133107	
-0.152477	
-0.147328	
0.0442126	
0.0299009	
-0.309349	
-0.307194	
-0.310082	
0.00929083	
0.0412344	
0.0368655	
0.0337465	
-0.181619	
-0.167671	
-0.202553	
-0.204382	
-0.325234	
-0.335474	
-0.329304	
0.0306517	
0.0446536	
-0.00235895	
0.0378424	
-0.267223	
-0.260919	
-0.144358	
-0.143103	
0.0402513	
0.0334129	
0.0281778	
-0.313502	
-0.292999	
-0.321665	
-0.315271	
-0.261149	
-0.253963	
-0.277837	
-0.263464	
-0.155702	
-0.144426	
-0.311319	
-0.316786	
-0.25612	
-0.0263852	
-0.0300274	
-0.0623892	
-0.064545	
0.0391307	
0.0451827	
-0.111454	
-0.102737	
-0.0721894	
-0.05563	
-0.335562	
-0.327189	
-0.335069	
-0.326655	
-0.106021	
-0.096382	
-0.109525	
-0.0756065	
-0.0887154	
0.0263895	
0.0360186	
0.0217792	
-0.183155	
-0.197557	
-0.1763	
-0.1987	
0.0396822	
-0.112125	
-0.096898	
-0.336317	
-0.335158	
-0.121155	
-0.101055	
0.000639511	
0.00462419	
-0.270811	
-0.281406	