<VTKFile type="UnstructuredGrid" version="0.1" byte_order="LittleEndian">
	<UnstructuredGrid>
		<Piece NumberOfPoints="1647" NumberOfCells="3046">
			<CellData Scalars="scalars">
				<DataArray type="Float64" Name="Doublet Strengths" NumberOfComponents="1" Format="ascii">
0.262598	
0.225874	
0.247763	
0.0541444	
0.0943943	
0.109645	
0.108444	
0.108767	
0.0553128	
0.0526948	
0.105654	
0.0971401	
0.0538994	
0.103442	
0.108184	
0.0844371	
0.213381	
0.105615	
0.253523	
0.190888	
0.209353	
0.134864	
0.184125	
0.20706	
0.167072	
0.183051	
0.14111	
0.170359	
0.118783	
0.204936	
0.208319	
0.159666	
0.20572	
0.230021	
0.120547	
0.2042	
0.208267	
0.147853	
0.167252	
0.146703	
0.158703	
0.170511	
0.168193	
0.191398	
0.195261	
0.164436	
0.208223	
0.137714	
0.135723	
0.149096	
0.221412	
0.212097	
0.202419	
0.196166	
0.200265	
0.191282	
0.220095	
0.152159	
0.167754	
0.168652	
0.165097	
0.133897	
0.093691	
0.125342	
0.181946	
0.184016	
0.188073	
0.190933	
0.240832	
0.243263	
0.235112	
0.108267	
0.0500571	
0.178221	
0.1803	
0.186192	
0.190556	
0.172875	
0.161371	
0.163867	
0.155573	
0.181035	
0.173394	
0.180707	
0.177591	
0.183832	
0.18232	
0.189221	
0.161921	
0.151628	
0.101465	
0.1145	
0.120652	
0.203405	
0.212991	
0.20799	
0.215943	
0.113169	
0.121801	
0.155217	
0.221071	
0.223398	
0.234344	
0.193398	
0.181702	
0.183738	
0.14438	
0.205188	
0.104134	
0.116443	
0.123714	
0.133843	
0.131504	
0.140774	
0.126958	
0.126167	
0.239686	
0.249997	
0.211424	
0.224938	
0.205523	
0.0531751	
0.140709	
0.0886158	
0.0779265	
0.0837239	
0.174691	
0.190917	
0.0908856	
0.0684134	
0.131292	
0.131925	
0.124803	
0.125531	
0.101821	
0.235094	
0.226738	
0.154312	
0.140993	
0.156425	
0.143911	
0.109764	
0.141742	
0.143967	
0.150908	
0.149831	
0.111444	
0.0994333	
0.261876	
0.249124	
0.230915	
0.24296	
0.208985	
0.184329	
0.184864	
0.19128	
0.0937101	
0.0762101	
0.246634	
0.177055	
0.167182	
0.175028	
0.163723	
0.172261	
0.158649	
0.177961	
0.179195	
0.171859	
0.0877209	
0.153267	
0.137621	
0.147714	
0.234506	
0.240617	
0.246177	
0.232521	
0.242059	
0.2282	
0.161807	
0.169001	
0.170256	
0.173823	
0.244554	
0.238733	
0.232034	
0.197928	
0.181844	
0.0565547	
0.0718881	
0.0942775	
0.0950821	
0.0890313	
0.264528	
0.259522	
0.166816	
0.157557	
0.243784	
0.194372	
0.191352	
0.180541	
0.153329	
0.15421	
0.19389	
0.1894	
0.203911	
0.194317	
0.22827	
0.223345	
0.219507	
0.214632	
0.217765	
0.231362	
0.224161	
0.224029	
0.193962	
0.202239	
0.204462	
0.137946	
0.138101	
0.154103	
0.155844	
0.163071	
0.169414	
0.0989907	
0.104318	
0.0922529	
0.104534	
0.112572	
0.16004	
0.163534	
0.150004	
0.147622	
0.146998	
0.149873	
0.132385	
0.141318	
0.227123	
0.221279	
0.159928	
0.161602	
0.169477	
0.192201	
0.197936	
0.20356	
0.20484	
0.0857138	
0.0890874	
0.101028	
0.100732	
0.112401	
0.211987	
0.213961	
0.221409	
0.0900229	
0.0998603	
0.147379	
0.156023	
0.146276	
0.159977	
0.20095	
0.204884	
0.211404	
0.215623	
0.178487	
0.182637	
0.191623	
0.195931	
0.229588	
0.235634	
0.238584	
0.241101	
0.139699	
0.104488	
0.234935	
0.226678	
0.235843	
0.196819	
0.183328	
0.186075	
0.109279	
0.145638	
0.144345	
0.231066	
0.231553	
0.19978	
0.190272	
0.187612	
0.200942	
0.191433	
0.196352	
0.190016	
0.189327	
0.176272	
0.180302	
0.236271	
0.245262	
0.230201	
0.226934	
0.236724	
0.230449	
0.262284	
0.169189	
0.182844	
0.165138	
0.177883	
0.194622	
0.201625	
0.189724	
0.120697	
0.169674	
0.176183	
0.161582	
0.164305	
0.0778443	
0.0840295	
0.0869477	
0.214977	
0.152615	
0.152126	
0.163154	
0.181166	
0.177913	
0.190645	
0.257317	
0.246411	
0.251724	
0.201214	
0.20179	
0.207834	
0.211651	
0.135218	
0.145244	
0.145693	
0.134699	
0.142615	
0.136631	
0.162914	
0.156056	
0.158529	
0.245136	
0.238475	
0.233681	
0.150472	
0.140198	
0.154326	
0.137948	
0.201083	
0.19374	
0.24257	
0.237284	
0.114577	
0.0688484	
0.0549336	
0.0781407	
0.0514954	
0.157093	
0.149992	
0.133155	
0.133023	
0.211768	
0.208601	
0.218319	
0.193859	
0.186851	
0.197634	
0.16817	
0.158908	
0.131369	
0.125414	
0.140887	
0.131748	
0.155057	
0.146587	
0.148692	
0.159788	
0.159914	
0.168644	
0.168918	
0.211938	
0.219032	
0.190756	
0.197595	
0.16231	
0.141729	
0.156541	
0.260853	
0.263413	
0.251979	
0.257657	
0.226053	
0.255218	
0.25215	
0.261664	
0.257066	
0.247438	
0.254636	
0.256932	
0.254014	
0.220474	
0.217032	
0.22508	
0.221469	
0.214891	
0.212451	
0.202542	
0.207052	
0.195292	
0.199695	
0.247633	
0.185929	
0.18579	
0.176418	
0.175045	
0.219136	
0.222139	
0.13091	
0.129319	
0.138943	
0.141338	
0.137203	
0.134583	
0.145884	
0.147685	
0.207868	
0.209347	
0.123414	
0.112831	
0.123071	
0.117103	
0.185637	
0.194855	
0.207111	
0.216832	
0.202895	
0.206584	
0.204438	
0.194461	
0.201251	
0.172872	
0.180618	
0.172135	
0.179721	
0.132168	
0.136929	
0.132228	
0.154671	
0.164098	
0.174308	
0.185136	
0.173818	
0.17876	
0.253323	
0.249665	
0.239039	
0.242536	
0.143994	
0.132727	
0.133069	
0.126867	
0.127012	
0.138238	
0.132164	
0.124666	
0.195273	
0.188769	
0.201463	
0.198556	
0.249765	
0.135204	
0.14132	
0.144763	
0.14855	
0.163609	
0.154261	
0.202279	
0.195041	
0.239177	
0.228617	
0.145523	
0.0658947	
0.161545	
0.146852	
0.185319	
0.153739	
0.179636	
0.171853	
0.113901	
0.127067	
0.155118	
0.209596	
0.213503	
0.216804	
0.218747	
0.117714	
0.160551	
0.158272	
0.101281	
0.11705	
0.119626	
0.126922	
0.107376	
0.119501	
0.122016	
0.13012	
0.130685	
0.243582	
0.249793	
0.249262	
0.25281	
0.221219	
0.21071	
0.212777	
0.0748505	
0.0802534	
0.0719552	
0.0691954	
0.226728	
0.227602	
0.218048	
0.222114	
0.21809	
0.216446	
0.12674	
0.191261	
0.196185	
0.202356	
0.0592031	
0.0587158	
0.0708601	
0.0710898	
0.150422	
0.242861	
0.230215	
0.232493	
0.154024	
0.200708	
0.194372	
0.253789	
0.259632	
0.171458	
0.172459	
0.158589	
0.162646	
0.234086	
0.240802	
0.234344	
0.240353	
0.16617	
0.177375	
0.170202	
0.167671	
0.179816	
0.16927	
0.176517	
0.136987	
0.121075	
0.131421	
0.111485	
0.150955	
0.161068	
0.161178	
0.209845	
0.216614	
0.23962	
0.241764	
0.245489	
0.24877	
0.146796	
0.150523	
0.137999	
0.14023	
0.169536	
0.16877	
0.179441	
0.176912	
0.18051	
0.175526	
0.166061	
0.159048	
0.224746	
0.213838	
0.225294	
0.219645	
0.223221	
0.258253	
0.265187	
0.251577	
0.254164	
0.2369	
0.232093	
0.206015	
0.21409	
0.188751	
0.196367	
0.113444	
0.0966228	
0.1177	
0.106556	
0.169143	
0.176154	
0.258698	
0.252589	
0.258866	
0.253461	
0.246861	
0.257534	
0.249443	
0.242407	
0.246938	
0.241241	
0.228722	
0.227344	
0.22029	
0.150384	
0.138303	
0.14015	
0.127664	
0.0989858	
0.0918026	
0.0800163	
0.0669253	
0.105068	
0.117077	
0.105227	
0.0961895	
0.0913204	
0.123521	
0.115878	
0.133731	
0.0512514	
0.0657935	
0.0818049	
0.122642	
0.112721	
0.119934	
0.12119	
0.110107	
0.114138	
0.134705	
0.217642	
0.217462	
0.229457	
0.229053	
0.0818191	
0.0645789	
0.118338	
0.111424	
0.125023	
0.11591	
0.12191	
0.114885	
0.126066	
0.111172	
0.122851	
0.203119	
0.199996	
0.195141	
0.115297	
0.109908	
0.109688	
0.106932	
0.0923966	
0.172185	
0.17296	
0.181608	
0.110137	
0.125066	
0.117195	
0.128931	
0.118039	
0.122487	
0.105535	
0.18476	
0.186586	
0.218247	
0.221361	
0.212939	
0.214603	
0.0913109	
0.0856763	
0.102208	
0.0938362	
0.180295	
0.185218	
0.105277	
0.101262	
0.0593803	
0.0501549	
0.0759746	
0.0638191	
0.122624	
0.105276	
0.131353	
0.115661	
0.244572	
0.239116	
0.202325	
0.208478	
0.149323	
0.140001	
0.13823	
0.128189	
0.128333	
0.141039	
0.115229	
0.146627	
0.136368	
0.124046	
0.126128	
0.137442	
0.11103	
0.131933	
0.142545	
0.149428	
0.132767	
0.140811	
0.234212	
0.236166	
0.240862	
0.134827	
0.141503	
0.115847	
0.121417	
0.228811	
0.230569	
0.219291	
0.220685	
0.227239	
0.233995	
0.222302	
0.224064	
0.0968661	
0.101794	
0.0977725	
0.102496	
0.0336099	
0.0451107	
0.0393647	
0.0436186	
0.0465859	
-0.317864	
-0.309657	
0.0423254	
0.0424323	
0.0452411	
0.0414193	
0.0366563	
-0.272671	
0.0452022	
-0.0844455	
-0.089673	
-0.212949	
-0.120674	
0.0404807	
0.0392886	
-0.134892	
-0.0833327	
-0.158155	
-0.0735548	
-0.0776536	
0.0147527	
-0.0138683	
-0.258233	
-0.263208	
-0.218419	
-0.0966925	
-0.300289	
-0.252275	
-0.0830975	
-0.120304	
-0.0709998	
-0.224294	
-0.237368	
-0.25519	
-0.284708	
-0.300805	
-0.273387	
-0.0125429	
-0.0398427	
-0.16942	
-0.217936	
-0.186804	
-0.212144	
-0.20822	
-0.227177	
-0.149398	
-0.165919	
-0.119732	
-0.255471	
-0.142781	
-0.102655	
-0.109293	
-0.121043	
-0.110231	
-0.105788	
-0.136763	
-0.107125	
-0.290351	
-0.251306	
-0.128896	
-0.17276	
-0.26711	
-0.0770729	
-0.207108	
-0.116489	
-0.0907191	
-0.15997	
-0.162656	
-0.266184	
-0.320386	
0.025643	
0.0247939	
-0.0256397	
-0.198154	
-0.0582787	
-0.0679409	
-0.247113	
-0.2257	
-0.223174	
-0.258127	
-0.275181	
-0.177174	
-0.171352	
-0.264766	
-0.248075	
-0.2377	
-0.0440324	
-0.277851	
-0.0111195	
-0.0515978	
-0.0396119	
-0.0808679	
-0.216718	
-0.15364	
-0.170614	
-0.275362	
-0.108428	
-0.15981	
-0.191929	
-0.14684	
-0.157021	
-0.0680028	
-0.234444	
-0.258782	
-0.207059	
-0.240624	
-0.187411	
-0.205689	
-0.0665426	
-0.094779	
-0.232425	
-0.0336273	
-0.0490282	
-0.075144	
-0.149437	
-0.263872	
-0.272329	
-0.28449	
-0.30416	
-0.211668	
-0.20371	
-0.279222	
-0.289052	
-0.158144	
0.0325845	
-0.00854422	
-0.313884	
-0.264338	
-0.180078	
-0.195729	
-0.193612	
0.0329635	
-0.00627598	
-0.29654	
-0.303061	
-0.301714	
0.0286261	
0.0391496	
-0.106747	
-0.136922	
-0.0576868	
-0.0655984	
-0.0486024	
0.0469194	
-0.232539	
-0.194705	
-0.172606	
-0.180377	
-0.132794	
-0.179488	
-0.129869	
-0.155754	
-0.139905	
-0.15892	
-0.311531	
-0.318664	
-0.120793	
-0.0783956	
-0.225349	
-0.238891	
-0.25345	
-0.186981	
-0.152552	
-0.194787	
-0.174892	
0.0237767	
-0.264436	
-0.09071	
-0.1017	
-0.164168	
-0.233043	
-0.184142	
-0.201375	
-0.224539	
-0.239913	
-0.311162	
-0.223286	
-0.229501	
-0.23314	
-0.246285	
-0.0215905	
-0.217905	
-0.186486	
-0.20784	
-0.0938179	
-0.0939283	
-0.123393	
-0.119011	
-0.0131814	
-0.028253	
-0.11189	
-0.0909511	
-0.207398	
-0.105496	
-0.305597	
-0.312309	
-0.0512195	
-0.270815	
-0.263047	
-0.258086	
-0.182693	
-0.225165	
-0.184583	
-0.21981	
-0.179014	
-0.120216	
-0.298801	
-0.293668	
-0.166717	
-0.174278	
-0.196384	
-0.201534	
-0.0865528	
-0.109019	
-0.294042	
-0.28257	
-0.149192	
-0.168552	
0.0148374	
-0.0290373	
-0.0178364	
-0.069935	
-0.0386883	
-0.0186346	
-0.250664	
-0.263131	
-0.32105	
-0.0943217	
-0.0825483	
-0.0627857	
-0.063857	
-0.0829192	
-0.0508967	
-0.0795863	
-0.282462	
-0.297978	
-0.286756	
-0.318854	
-0.300928	
-0.0754877	
-0.106739	
-0.102619	
-0.14183	
-0.187757	
-0.233276	
-0.185805	
-0.117412	
-0.118458	
-0.133695	
-0.214161	
-0.22557	
-0.149747	
-0.166975	
-0.147795	
-0.165639	
-0.0183025	
-0.030736	
-0.0460331	
-0.0586618	
-0.287838	
-0.19672	
-0.130919	
-0.0761449	
-0.111118	
-0.195944	
-0.209315	
-0.182373	
-0.201465	
-0.2457	
-0.254124	
-0.233292	
-0.247786	
-0.290955	
-0.28067	
-0.287389	
-0.273767	
-0.147197	
-0.104773	
-0.192178	
-0.180375	
-0.0710181	
-0.0961207	
-0.0708676	
-0.0976034	
-0.198633	
-0.205237	
-0.056596	
-0.0602857	
-0.0248439	
-0.234902	
-0.239144	
-0.249396	
-0.259429	
-0.0515062	
-0.0722572	
-0.216205	
-0.216355	
-0.133223	
-0.164397	
-0.128987	
-0.162295	
-0.230266	
-0.190033	
-0.215861	
0.00408627	
-0.0234083	
-0.293753	
-0.302281	
-0.0936451	
-0.110755	
-0.151	
-0.137803	
-0.139633	
-0.125699	
-0.222857	
-0.202644	
-0.230815	
-0.26622	
-0.254725	
-0.274041	
-0.157375	
-0.141467	
-0.129448	
-0.0921802	
-0.0987687	
-0.0368789	
-0.0312416	
-0.0262818	
-0.00948964	
-0.0235609	
-0.00541609	
-0.0499777	
-0.0211122	
-0.0520382	
-0.0427546	
-0.0433636	
-0.111626	
-0.102432	
-0.0740464	
-0.137572	
-0.0231475	
-0.0500042	
-0.0212969	
-0.0614072	
-0.141657	
-0.118486	
-0.157253	
-0.1447	
-0.0302588	
-0.0278282	
-0.0752948	
-0.0559351	
-0.203944	
-0.206629	
-0.164039	
-0.163659	
-0.158584	
-0.17933	
-0.178606	
-0.199089	
-0.246492	
-0.248425	
-0.2307	
-0.235777	
-0.269985	
-0.261877	
-0.280093	
-0.276805	
-0.280463	
-0.27711	
-0.292817	
-0.286657	
-0.0749976	
-0.0227289	
-0.0433189	
-0.276794	
-0.266848	
-0.296086	
-0.286552	
-0.295481	
-0.282951	
-0.283045	
-0.0099346	
-0.0256408	
-0.198315	
-0.187776	
-0.176692	
-0.311424	
-0.313253	
-0.314174	
-0.159227	
-0.139691	
-0.14652	
-0.131417	
-0.315177	
-0.309521	
-0.303816	
-0.309747	
-0.306657	
-0.129048	
-0.189471	
-0.20911	
-0.183701	
-0.213802	
0.0340372	
0.0437265	
-0.0641435	
-0.0624671	
-0.00951549	
-0.0335138	
-0.010709	
0.0317176	
0.0423314	
-0.0586055	
-0.112323	
-0.0555251	
-0.102735	
-0.129793	
-0.144817	
-0.174481	
-0.171392	
-0.186529	
-0.193722	
-0.224254	
-0.227644	
-0.00622962	
-0.00897588	
-0.309345	
-0.300162	
-0.025657	
-0.00319462	
-0.260814	
-0.0208843	
0.0349053	
-0.243364	
-0.0033434	
-0.318961	
-0.269021	
-0.0208158	
0.000221358	
0.0119291	
-0.182092	
-0.170123	
-0.280987	
-0.289355	
-0.291387	
-0.294175	
-0.303134	
-0.305932	
-0.191656	
-0.2088	
-0.121237	
-0.110435	
-0.119502	
-0.26757	
-0.22694	
-0.244633	
-0.24747	
-0.114552	
-0.144123	
-0.153321	
-0.17174	
-0.00511162	
0.0134242	
0.0413365	
-0.0304121	
0.0277898	
0.0454697	
0.0251365	
-0.0100454	
-0.279328	
-0.308034	
-0.302087	
-0.308234	
0.0332818	
-0.302138	
-0.298512	
-0.144943	
-0.126144	
-0.139718	
0.0299776	
0.0426808	
-0.291196	
-0.293367	
-0.290343	
-0.25457	
0.0112291	
-0.260385	
-0.251776	
-0.243723	
0.0379677	
0.0419738	
0.0448521	
-0.193858	
-0.179847	
-0.173385	
-0.156099	
-0.307832	
-0.309583	
-0.31185	
0.0452219	
0.0322136	
0.0390376	
0.00587216	
-0.279634	
-0.277858	
-0.272783	
-0.13738	
-0.138508	
0.0445404	
0.0300961	
-0.305547	
-0.298099	
-0.296352	
-0.149262	
-0.13838	
-0.294828	
-0.300287	
-0.243609	
-0.0251345	
-0.0215717	
-0.058372	
-0.0562315	
0.04639	
0.0404361	
-0.0672883	
-0.077198	
-0.0953246	
-0.0969589	
-0.317342	
-0.317533	
-0.30939	
-0.317325	
-0.0996407	
-0.0729255	
-0.0876581	
-0.0931016	
-0.11306	
0.0379488	
0.0288135	
0.0246302	
-0.181952	
-0.192295	
-0.166605	
-0.18987	
0.0409491	
-0.105187	
-0.104947	
-0.0901816	
-0.313929	
-0.319625	
-0.248496	
-0.257742	
-0.0946696	
-0.114137	
-0.268075	
-0.25769	
0.00191998	
0.006099	
-0.238806	
-0.262025	
-0.252445	
-0.191569	
-0.211661	
-0.180818	
-0.19594	
-0.0349182	
-0.083608	
-0.043474	
-0.036962	
-0.0832593	
-0.0663754	
-0.314484	
-0.318555	
-0.314911	
-0.318272	
-0.0301236	
-0.0373261	
0.0267793	
-0.238363	
-0.219686	
-0.28663	
-0.279843	
-0.154662	
-0.149993	
-0.111964	
-0.0963609	
-0.302442	
-0.295411	
-0.312433	
-0.309236	
-0.302622	
-0.295142	
-0.155843	
-0.159284	
-0.133309	
-0.137121	
-0.240016	
-0.254933	
-0.17446	
-0.188313	
-0.20732	
-0.208926	
-0.310841	
-0.312311	
-0.313558	
-0.312745	
-0.269042	
-0.281613	
-0.291246	
-0.285242	
-0.292649	
-0.250993	
-0.240396	
-0.259613	
-0.268179	
-0.0255295	
0.0166407	
0.0394491	
-0.271644	
-0.26853	
-0.0779679	
-0.0621181	
-0.109407	
-0.203206	
-0.219582	
-0.203023	
-0.235621	
-0.232427	
-0.240207	
-0.243558	
-0.248598	
-0.316724	
-0.312545	
-0.311164	
-0.304443	
-0.276616	
-0.259298	
-0.270974	
-0.294676	
0.0213076	
-0.0365859	
0.0351803	
0.0122759	
-0.209989	
-0.23469	
-0.230824	
-0.208146	
-0.222943	
-0.0201197	
0.0350212	
0.0320096	
-0.0165569	
0.0427484	
0.0244247	
-0.26616	
-0.272827	
-0.271884	
-0.281177	
0.0368231	
0.0151265	
-0.218132	
-0.247389	
-0.226067	
-0.252063	
-0.242408	
-0.248762	
-0.260122	
-0.236218	
-0.230149	
-0.245535	
-0.112675	
-0.118276	
-0.131444	
-0.143493	
-0.304998	
-0.30466	
-0.306842	
-0.218331	
-0.207428	
-0.295319	
-0.291239	
-0.280391	
-0.281957	
-0.198318	
-0.215549	
-0.20979	
-0.225836	
-0.0896777	
-0.113156	
-0.289467	
-0.291746	
-0.309549	
-0.313648	
-0.0494359	
-0.0626005	
-0.0689197	
-0.0777942	
-0.225667	
-0.213907	
-0.20953	
-0.204418	
-0.113968	
-0.136904	
-0.145639	
-0.163724	
-0.265914	
-0.277857	
-0.277847	
-0.287604	
-0.14895	
-0.141018	
-0.183962	
-0.176391	
-0.231926	
-0.222367	
-0.0569741	
-0.0350298	
-0.0808892	
-0.0662842	
-0.259966	
-0.256623	
-0.317609	
-0.315828	
-0.317757	
-0.319905	
-0.300029	
-0.299126	
-0.134426	
-0.148129	
-0.175602	
-0.185171	
-0.0200778	
-0.0081215	
0.0354604	
0.0329426	
-0.183735	
-0.150156	
-0.173763	
-0.138163	
-0.0107345	
-0.00444754	
-0.00748056	
-0.000814548	
0.00228816	
0.0138929	
0.0201168	
0.0225776	
0.0166291	
-0.0092093	
-0.0008516	
0.00736255	
0.00309267	
0.00946079	
0.0184247	
0.022731	
0.00986711	
0.0141822	
0.00618685	
-0.0050432	
0.00434212	
-0.0103369	
-0.0141969	
-0.00336186	
-0.0218879	
-0.0219643	
-0.0163662	
-0.0231758	
-0.0196379	
0.0146139	
0.0124808	
-0.000904549	
0.00524649	
-0.005935	
-0.0175907	
-0.0167866	
-0.0159849	
-0.0139287	
-0.00950575	
0.0179032	
0.258284	
0.226762	
0.2478	
0.0539848	
0.0998953	
0.0565468	
0.191019	
0.109589	
0.107733	
0.108318	
0.108896	
0.0791427	
0.052108	
0.105803	
0.0970905	
0.0928346	
0.0539168	
0.103522	
0.0855523	
0.214977	
0.199786	
0.138139	
0.184268	
0.20659	
0.167229	
0.183423	
0.140889	
0.119026	
0.209122	
0.203736	
0.159811	
0.205224	
0.230078	
0.124233	
0.119661	
0.204454	
0.208889	
0.155046	
0.167228	
0.147228	
0.158388	
0.170717	
0.168472	
0.195625	
0.194983	
0.15915	
0.208728	
0.137907	
0.136051	
0.139847	
0.211583	
0.196473	
0.20278	
0.19157	
0.194173	
0.219938	
0.168259	
0.169324	
0.165758	
0.134178	
0.0933065	
0.125284	
0.194424	
0.190714	
0.181823	
0.179623	
0.234486	
0.240044	
0.246724	
0.107411	
0.0587715	
0.187017	
0.186803	
0.178971	
0.176132	
0.163741	
0.155457	
0.17327	
0.172135	
0.173455	
0.184911	
0.180799	
0.182622	
0.189802	
0.17784	
0.179018	
0.160832	
0.150321	
0.115727	
0.103179	
0.120464	
0.108005	
0.207518	
0.217235	
0.203067	
0.2063	
0.12168	
0.113099	
0.155549	
0.221082	
0.228138	
0.181443	
0.184501	
0.145337	
0.184961	
0.200038	
0.116511	
0.104088	
0.127389	
0.12458	
0.148897	
0.131759	
0.1273	
0.134766	
0.237205	
0.250035	
0.224469	
0.21098	
0.205867	
0.0658708	
0.0531406	
0.113049	
0.140603	
0.0780551	
0.0895432	
0.186373	
0.174777	
0.089197	
0.0677977	
0.125066	
0.125718	
0.131592	
0.132139	
0.101293	
0.233702	
0.226992	
0.156633	
0.139023	
0.154453	
0.147872	
0.121792	
0.151191	
0.150106	
0.145462	
0.14416	
0.0928531	
0.260666	
0.247931	
0.231846	
0.242208	
0.207187	
0.193292	
0.18436	
0.181081	
0.104211	
0.0937302	
0.163225	
0.176793	
0.163584	
0.177702	
0.158625	
0.164461	
0.177505	
0.161286	
0.179012	
0.0914753	
0.146787	
0.152102	
0.146284	
0.239201	
0.233484	
0.233651	
0.228141	
0.232442	
0.239109	
0.170338	
0.173926	
0.162405	
0.169128	
0.243781	
0.231152	
0.236772	
0.190446	
0.183103	
0.194685	
0.0594807	
0.0947773	
0.0841041	
0.0952204	
0.261225	
0.257844	
0.166897	
0.157523	
0.243229	
0.191985	
0.192279	
0.185603	
0.146258	
0.153321	
0.189664	
0.200701	
0.194901	
0.201667	
0.222823	
0.226612	
0.21648	
0.219339	
0.215437	
0.223538	
0.228922	
0.201814	
0.189026	
0.20405	
0.138492	
0.13334	
0.156086	
0.154557	
0.165008	
0.163139	
0.104522	
0.0878784	
0.104714	
0.0924113	
0.11244	
0.166882	
0.159801	
0.15357	
0.149796	
0.149861	
0.1373	
0.141237	
0.132267	
0.226725	
0.221276	
0.169889	
0.164456	
0.162009	
0.203341	
0.204759	
0.194599	
0.197933	
0.0897587	
0.0858381	
0.255094	
0.100915	
0.101185	
0.112603	
0.222815	
0.217788	
0.216151	
0.0981812	
0.0891506	
0.156017	
0.147364	
0.159963	
0.154195	
0.212844	
0.213594	
0.20455	
0.205875	
0.191305	
0.191142	
0.182574	
0.182364	
0.237792	
0.239708	
0.230594	
0.234566	
0.139705	
0.230165	
0.234075	
0.227976	
0.196703	
0.186056	
0.179313	
0.113672	
0.14596	
0.144736	
0.233061	
0.230946	
0.200946	
0.188717	
0.191793	
0.197435	
0.202172	
0.195181	
0.180068	
0.189681	
0.193614	
0.235699	
0.242721	
0.236515	
0.230383	
0.235845	
0.226762	
0.178231	
0.168935	
0.177653	
0.16932	
0.201208	
0.194259	
0.189396	
0.12066	
0.177082	
0.172296	
0.16082	
0.0779592	
0.076214	
0.0870789	
0.0891653	
0.21048	
0.152351	
0.152772	
0.163429	
0.17481	
0.180898	
0.190378	
0.207739	
0.208542	
0.201271	
0.201948	
0.135203	
0.141912	
0.141478	
0.145885	
0.133201	
0.1428	
0.158525	
0.162788	
0.155955	
0.238153	
0.234757	
0.244861	
0.140076	
0.150142	
0.136588	
0.146831	
0.180269	
0.19337	
0.200673	
0.114366	
0.237108	
0.242212	
0.0541245	
0.067844	
0.0782768	
0.0515769	
0.15721	
0.146152	
0.161919	
0.13363	
0.13852	
0.211881	
0.218259	
0.211576	
0.187918	
0.197731	
0.190641	
0.168112	
0.158685	
0.125478	
0.131362	
0.131838	
0.141144	
0.140971	
0.15998	
0.146644	
0.155106	
0.159798	
0.168961	
0.172888	
0.218914	
0.211903	
0.197299	
0.190488	
0.156631	
0.142027	
0.258016	
0.228023	
0.250856	
0.254199	
0.245071	
0.259266	
0.247323	
0.258644	
0.255196	
0.257519	
0.253297	
0.217157	
0.220435	
0.221521	
0.225085	
0.208669	
0.211355	
0.213568	
0.216156	
0.193072	
0.199031	
0.200864	
0.203472	
0.244178	
0.192345	
0.187108	
0.181632	
0.177964	
0.255357	
0.221416	
0.225161	
0.12937	
0.13094	
0.134815	
0.144028	
0.13523	
0.138001	
0.141143	
0.150183	
0.210873	
0.221209	
0.210042	
0.117711	
0.123465	
0.117153	
0.123153	
0.192102	
0.18556	
0.214339	
0.20686	
0.212689	
0.202614	
0.204339	
0.191275	
0.20097	
0.194313	
0.180618	
0.168647	
0.183922	
0.172112	
0.136362	
0.131774	
0.160291	
0.154955	
0.180948	
0.174631	
0.184075	
0.174192	
0.242742	
0.242226	
0.250089	
0.144008	
0.141305	
0.136777	
0.132718	
0.127123	
0.126864	
0.131911	
0.134754	
0.125003	
0.120693	
0.203039	
0.187829	
0.199702	
0.196018	
0.244756	
0.244535	
0.12886	
0.134865	
0.148419	
0.14441	
0.164377	
0.148477	
0.145241	
0.162301	
0.186115	
0.151166	
0.137865	
0.115772	
0.172625	
0.180466	
0.118931	
0.126641	
0.221686	
0.218928	
0.215472	
0.210859	
0.161137	
0.158766	
0.105176	
0.117736	
0.130442	
0.129028	
0.117664	
0.112469	
0.11207	
0.12078	
0.120754	
0.0838297	
0.107269	
0.126501	
0.248182	
0.23782	
0.251533	
0.248023	
0.21492	
0.221201	
0.213112	
0.218218	
0.221733	
0.222453	
0.226649	
0.131422	
0.202534	
0.191346	
0.196357	
0.150887	
0.239506	
0.228546	
0.242635	
0.215175	
0.215589	
0.237636	
0.231187	
0.24214	
0.154415	
0.0708699	
0.0711631	
0.0591707	
0.0500818	
0.19439	
0.20076	
0.257613	
0.252199	
0.0748027	
0.0719483	
0.0802263	
0.0692099	
0.109642	
0.163972	
0.173253	
0.173729	
0.166148	
0.17016	
0.177313	
0.170265	
0.177689	
0.168802	
0.17634	
0.119746	
0.130138	
0.111593	
0.129877	
0.161022	
0.150203	
0.160979	
0.216555	
0.209807	
0.248635	
0.24752	
0.238569	
0.240849	
0.154294	
0.146709	
0.140506	
0.138014	
0.183122	
0.176716	
0.169425	
0.168625	
0.16605	
0.164384	
0.176074	
0.175337	
0.220753	
0.247862	
0.244388	
0.249726	
0.231711	
0.236464	
0.254383	
0.255288	
0.213377	
0.207541	
0.196532	
0.189653	
0.222169	
0.226581	
0.2038	
0.212769	
0.200201	
0.206418	
0.112847	
0.106527	
0.113407	
0.0966387	
0.180273	
0.169106	
0.253754	
0.247344	
0.242471	
0.241265	
0.24685	
0.252499	
0.262234	
0.252417	
0.258163	
0.217223	
0.226799	
0.219866	
0.22827	
0.220857	
0.110474	
0.0669145	
0.0555311	
0.174203	
0.16579	
0.138065	
0.150982	
0.12767	
0.140281	
0.126783	
0.115763	
0.122775	
0.105473	
0.249638	
0.253742	
0.116895	
0.104939	
0.105116	
0.0906246	
0.0963453	
0.123669	
0.115999	
0.107372	
0.102775	
0.112734	
0.065753	
0.0818101	
0.0512234	
0.12391	
0.119651	
0.121247	
0.111957	
0.10831	
0.0961985	
0.109727	
0.114241	
0.229591	
0.149757	
0.143444	
0.141117	
0.133864	
0.228517	
0.222679	
0.223563	
0.216809	
0.0817547	
0.0644641	
0.12532	
0.118597	
0.111654	
0.0998278	
0.0996139	
0.11518	
0.109525	
0.133611	
0.182362	
0.172782	
0.173644	
0.125382	
0.117411	
0.110367	
0.23012	
0.122519	
0.105575	
0.132204	
0.117987	
0.212357	
0.214034	
0.217734	
0.222685	
0.0857883	
0.0991791	
0.0939819	
0.1024	
0.180752	
0.185829	
0.0760815	
0.0638873	
0.0720134	
0.0502355	
0.221036	
0.223171	
0.227664	
0.231886	
0.120457	
0.124073	
0.13242	
0.13596	
0.238691	
0.247868	
0.239316	
0.244887	
0.212273	
0.203844	
0.24958	
0.256978	
0.250864	
0.256052	
0.262339	
0.148883	
0.148691	
0.127976	
0.113877	
0.0992419	
0.0989082	
0.126757	
0.124298	
0.14582	
0.135246	
0.140142	
0.127238	
0.160865	
0.156839	
0.138417	
0.147803	
0.13731	
0.126282	
0.124597	
0.234116	
0.237769	
0.227683	
0.22903	
0.154445	
0.143968	
0.136347	
0.112041	
0.139769	
0.128971	
0.0425974	
0.0448958	
0.0287081	
0.0436928	
0.0466019	
-0.317793	
-0.309352	
0.0450438	
0.0334167	
0.0366408	
-0.0503707	
-0.271893	
0.0456559	
0.0450418	
-0.0843565	
-0.0893718	
-0.212879	
0.0467873	
-0.0960476	
0.0405472	
0.0392765	
-0.312481	
-0.134708	
-0.0915923	
-0.15793	
-0.055482	
-0.073487	
0.0148648	
-0.0137764	
-0.26277	
-0.261422	
-0.218124	
-0.0966399	
-0.292228	
-0.251577	
-0.0832777	
-0.120137	
-0.0710165	
-0.238432	
-0.236963	
-0.255186	
-0.284419	
-0.300567	
-0.273137	
-0.012546	
-0.0398476	
-0.171695	
-0.217822	
-0.230394	
-0.226713	
-0.191646	
-0.195641	
-0.149697	
-0.145529	
-0.113831	
-0.255268	
-0.129179	
-0.0978107	
-0.102857	
-0.121276	
-0.110117	
-0.136587	
-0.10566	
-0.107334	
-0.2902	
-0.248334	
-0.127967	
-0.166486	
-0.266706	
-0.0771021	
-0.207252	
-0.116318	
-0.0905569	
-0.156237	
-0.163063	
-0.277197	
-0.318214	
0.039239	
0.0256897	
-0.0255649	
-0.198166	
-0.0679849	
-0.0583093	
-0.226047	
-0.247385	
-0.223119	
-0.2749	
-0.257843	
-0.167003	
-0.171702	
-0.247721	
-0.264525	
-0.23736	
-0.0439649	
-0.275631	
-0.0235007	
-0.0164012	
-0.0761988	
-0.0663245	
-0.216369	
-0.13903	
-0.170896	
-0.274517	
-0.108474	
-0.146634	
-0.17614	
-0.15958	
-0.186519	
-0.0695172	
-0.258715	
-0.234601	
-0.240548	
-0.20695	
-0.194926	
-0.206954	
-0.0947159	
-0.233459	
-0.0338678	
-0.0751136	
-0.134349	
-0.272846	
-0.264119	
-0.283686	
-0.303422	
-0.202355	
-0.203429	
-0.288921	
-0.278844	
-0.157838	
0.0325037	
-0.00855264	
-0.280652	
-0.28021	
-0.314204	
-0.266515	
-0.180301	
-0.180019	
0.0317902	
-0.00626692	
-0.295082	
-0.302333	
-0.301109	
0.0249144	
0.039482	
-0.106563	
-0.136739	
-0.0588263	
-0.0490951	
-0.0667381	
-0.232096	
-0.194494	
-0.149966	
-0.180158	
-0.179547	
-0.179373	
-0.129909	
0.0414457	
-0.153439	
-0.157812	
-0.31071	
-0.317204	
-0.144073	
-0.0782469	
-0.252974	
-0.225068	
-0.223916	
-0.157274	
-0.186815	
-0.174878	
-0.194686	
0.0237727	
-0.264274	
-0.101618	
-0.16415	
-0.234389	
-0.184627	
-0.201912	
-0.227404	
-0.24007	
-0.311878	
-0.245669	
-0.246366	
-0.22341	
-0.222471	
-0.0212788	
-0.217854	
-0.207763	
-0.186423	
-0.0939266	
-0.0938295	
-0.119004	
-0.0132901	
-0.0285994	
-0.1124	
-0.0844748	
-0.119442	
-0.207797	
-0.0954983	
-0.318407	
-0.312462	
-0.305641	
-0.0570437	
-0.273602	
-0.259186	
-0.258062	
-0.181205	
-0.226968	
-0.203664	
-0.219413	
-0.178816	
-0.144582	
-0.293138	
-0.297481	
-0.196724	
-0.190251	
-0.1775	
-0.174514	
-0.112023	
-0.24154	
-0.281899	
-0.29299	
-0.14913	
-0.131035	
-0.168671	
0.0148886	
-0.0177946	
-0.0835797	
-0.0698744	
-0.018586	
-0.0386232	
-0.249898	
-0.262183	
-0.0945462	
-0.0629685	
-0.0827333	
-0.0589939	
-0.0799268	
-0.0640462	
-0.0831494	
-0.28074	
-0.284951	
-0.296408	
-0.307604	
-0.316945	
-0.0365047	
-0.102483	
-0.0514325	
-0.106598	
-0.141707	
-0.163445	
-0.234087	
-0.185689	
-0.114614	
-0.146849	
-0.226392	
-0.215112	
-0.180886	
-0.14812	
-0.171962	
-0.0309021	
-0.02361	
-0.0510951	
-0.046389	
-0.123418	
-0.183658	
-0.11122	
-0.080931	
-0.209516	
-0.17871	
-0.201613	
-0.182502	
-0.254335	
-0.233148	
-0.248019	
-0.233454	
-0.132627	
-0.287096	
-0.270617	
-0.29398	
-0.28045	
-0.131619	
-0.118394	
-0.16736	
-0.19268	
-0.0963391	
-0.060791	
-0.109515	
-0.0711366	
-0.185315	
-0.207335	
-0.0714647	
-0.0569814	
-0.0252434	
-0.248932	
-0.254408	
-0.234501	
-0.238586	
-0.0721574	
-0.0753829	
-0.217987	
-0.207832	
-0.150097	
-0.133472	
-0.16463	
-0.162532	
-0.143008	
-0.218663	
-0.193852	
-0.21589	
-0.201639	
-0.018468	
0.00395799	
-0.30234	
-0.293832	
-0.11065	
-0.0935329	
-0.139871	
-0.125923	
-0.151272	
-0.138056	
-0.207923	
-0.23055	
-0.211373	
-0.265565	
-0.273832	
-0.259107	
-0.141372	
-0.152503	
-0.129424	
-0.0987283	
-0.112254	
-0.0374201	
-0.0316667	
-0.0118634	
-0.0291086	
-0.0053705	
-0.0516184	
-0.021129	
-0.0500134	
-0.0520396	
-0.0435191	
-0.0215826	
-0.102314	
-0.0739342	
-0.111516	
-0.0831709	
-0.137479	
-0.0429221	
-0.0615807	
-0.0232043	
-0.04994	
-0.157105	
-0.120138	
-0.141508	
-0.118449	
-0.0278011	
-0.0623717	
-0.0558646	
-0.0751961	
-0.163847	
-0.187487	
-0.184356	
-0.206308	
-0.196054	
-0.199166	
-0.158661	
-0.15581	
-0.222539	
-0.235519	
-0.246187	
-0.248226	
-0.257601	
-0.269301	
-0.276179	
-0.279361	
-0.276629	
-0.280017	
-0.285884	
-0.294269	
-0.0227058	
-0.0433098	
-0.0749855	
-0.280774	
-0.266907	
-0.288759	
-0.29379	
-0.294493	
-0.282691	
-0.284605	
-0.0256626	
-0.00995413	
-0.199281	
-0.198632	
-0.173253	
-0.312822	
-0.313589	
-0.153519	
-0.159415	
-0.131434	
-0.134452	
-0.313409	
-0.306669	
-0.30967	
-0.309848	
-0.306284	
-0.114519	
-0.208998	
-0.189406	
-0.213647	
-0.196664	
0.0436543	
0.0340412	
-0.064001	
-0.0096257	
-0.0302494	
-0.0333197	
-0.0105318	
0.0417259	
0.0315766	
-0.0921116	
-0.0585672	
-0.102671	
-0.077595	
-0.129474	
-0.144563	
-0.165985	
-0.174905	
-0.187979	
-0.187752	
-0.224047	
-0.227355	
-0.00918411	
-0.00640433	
-0.307934	
-0.299018	
-0.0257955	
-0.00330272	
-0.0235915	
-0.000826774	
0.0348588	
-0.0201284	
-0.312083	
-0.243395	
-0.2607	
-0.267755	
-0.0302407	
0.00577685	
-0.244229	
-0.252584	
0.0118103	
-0.18138	
-0.180896	
-0.288541	
-0.277028	
-0.290357	
-0.30297	
-0.290809	
-0.305735	
-0.191862	
-0.210393	
-0.121467	
-0.119785	
-0.110666	
-0.271133	
-0.244653	
-0.238331	
-0.120746	
-0.129025	
-0.169368	
-0.153291	
-0.00233069	
0.04162	
0.0135887	
0.0282438	
-0.0206035	
0.025261	
0.0455458	
-0.0100187	
-0.227334	
-0.23569	
-0.232434	
-0.307086	
-0.308228	
-0.302062	
0.0313427	
-0.301383	
-0.297474	
-0.126243	
-0.145043	
-0.139799	
0.0451357	
0.031451	
-0.292325	
-0.290271	
-0.294921	
0.0111146	
0.0419222	
0.0378745	
0.0355008	
-0.173525	
-0.160131	
-0.193996	
-0.195924	
-0.306575	
-0.315543	
-0.310233	
0.0321372	
0.0454861	
-2.8355e-05	
0.0390363	
-0.255276	
-0.249304	
-0.138803	
-0.137701	
0.0414708	
0.0349348	
0.0308942	
-0.29556	
-0.276783	
-0.303037	
-0.297343	
-0.250877	
-0.244159	
-0.266279	
-0.252994	
-0.149575	
-0.138643	
-0.294579	
-0.299433	
-0.243547	
-0.0214625	
-0.0250337	
-0.0561087	
-0.0582593	
0.040194	
0.0459663	
-0.105658	
-0.0970907	
-0.0674329	
-0.0513089	
-0.315506	
-0.308426	
-0.315435	
-0.308083	
-0.099718	
-0.0929915	
-0.105623	
-0.0729834	
-0.0855877	
0.028808	
0.0379207	
0.0248588	
-0.17618	
-0.189874	
-0.169807	
-0.191081	
0.0415903	
-0.107947	
-0.0931698	
-0.31617	
-0.31465	
-0.114197	
-0.0947316	