<VTKFile type="UnstructuredGrid" version="0.1" byte_order="LittleEndian">
	<UnstructuredGrid>
		<Piece NumberOfPoints="1647" NumberOfCells="3046">
			<CellData Scalars="scalars">
				<DataArray type="Float64" Name="Doublet Strengths" NumberOfComponents="1" Format="ascii">
0.140199	
0.128606	
0.134096	
0.0364324	
0.0818138	
0.0891705	
0.0893351	
0.0892441	
0.0353812	
0.0334476	
0.0883023	
0.0835805	
0.0491242	
0.0869211	
0.0888274	
0.0749821	
0.124172	
0.0875064	
0.137394	
0.114986	
0.121369	
0.0948397	
0.115454	
0.123442	
0.109688	
0.115753	
0.100532	
0.11121	
0.0848775	
0.12234	
0.123393	
0.106904	
0.123121	
0.129287	
0.0907973	
0.12265	
0.122775	
0.0963821	
0.110074	
0.0966546	
0.107283	
0.110742	
0.109661	
0.118696	
0.119984	
0.109131	
0.122938	
0.0955257	
0.0930027	
0.104178	
0.127423	
0.124896	
0.120994	
0.119236	
0.120129	
0.117685	
0.126844	
0.0952546	
0.108181	
0.107321	
0.10479	
0.0883246	
0.0634508	
0.095079	
0.115436	
0.116073	
0.117452	
0.118243	
0.132602	
0.133189	
0.131106	
0.0842975	
0.0401437	
0.114151	
0.114884	
0.116953	
0.118331	
0.112073	
0.108115	
0.108964	
0.106106	
0.114838	
0.112244	
0.114521	
0.113048	
0.114628	
0.114649	
0.116656	
0.108123	
0.10467	
0.0858298	
0.0938174	
0.0966301	
0.122403	
0.125111	
0.123738	
0.12599	
0.0920828	
0.0972096	
0.103343	
0.127018	
0.127952	
0.130795	
0.115877	
0.115237	
0.11613	
0.102497	
0.122912	
0.087329	
0.0948771	
0.0947452	
0.097852	
0.0974536	
0.100216	
0.0958609	
0.0958175	
0.13356	
0.139387	
0.124738	
0.1284	
0.123038	
0.0449806	
0.100949	
0.0776892	
0.0700087	
0.0730924	
0.112568	
0.118414	
0.0594786	
0.0457078	
0.0914717	
0.092541	
0.0883578	
0.0894953	
0.0864706	
0.130673	
0.128508	
0.104808	
0.099889	
0.105314	
0.100627	
0.08993	
0.0986621	
0.0991957	
0.102491	
0.101596	
0.0723199	
0.0644403	
0.139722	
0.134658	
0.12989	
0.132981	
0.124074	
0.115997	
0.115974	
0.118206	
0.0655253	
0.0622324	
0.133699	
0.113601	
0.109938	
0.112877	
0.108726	
0.111858	
0.106863	
0.11381	
0.114263	
0.111657	
0.0651826	
0.105089	
0.100184	
0.103229	
0.130886	
0.132508	
0.134051	
0.129962	
0.132712	
0.128902	
0.10781	
0.110512	
0.111073	
0.112275	
0.136175	
0.132931	
0.130194	
0.117283	
0.110889	
0.0405926	
0.0536764	
0.0758752	
0.0740218	
0.0695353	
0.142268	
0.138889	
0.109792	
0.106695	
0.135419	
0.117302	
0.11662	
0.113013	
0.10495	
0.10525	
0.118232	
0.116455	
0.121033	
0.117786	
0.129105	
0.12786	
0.126744	
0.125527	
0.126445	
0.129976	
0.128127	
0.128178	
0.119554	
0.122099	
0.122746	
0.0912434	
0.0926937	
0.105452	
0.106004	
0.108502	
0.110747	
0.0715629	
0.0756361	
0.0692053	
0.0776094	
0.0908512	
0.107363	
0.108581	
0.104021	
0.103081	
0.102904	
0.103919	
0.0984243	
0.101255	
0.128633	
0.126996	
0.105938	
0.106015	
0.109303	
0.118976	
0.120699	
0.122418	
0.122727	
0.0709703	
0.073864	
0.0769001	
0.0744457	
0.0820726	
0.123135	
0.123611	
0.12692	
0.060235	
0.0658996	
0.102832	
0.105844	
0.102472	
0.107337	
0.119917	
0.120904	
0.123419	
0.124499	
0.1141	
0.11561	
0.118753	
0.120156	
0.129438	
0.130935	
0.131647	
0.132262	
0.100388	
0.0798997	
0.130838	
0.128675	
0.131019	
0.120411	
0.115866	
0.116801	
0.0853642	
0.0985187	
0.0971423	
0.129991	
0.130193	
0.121321	
0.118257	
0.117334	
0.119343	
0.115987	
0.117354	
0.11822	
0.118006	
0.113289	
0.11474	
0.131401	
0.133672	
0.129533	
0.128691	
0.131207	
0.129508	
0.139991	
0.110645	
0.115654	
0.109171	
0.113858	
0.119731	
0.121868	
0.118117	
0.0912958	
0.110951	
0.113337	
0.107936	
0.108923	
0.0598364	
0.0676478	
0.066686	
0.125111	
0.104017	
0.103471	
0.107746	
0.115101	
0.113937	
0.118474	
0.137489	
0.134071	
0.13551	
0.121578	
0.121687	
0.123483	
0.124492	
0.0960631	
0.100305	
0.10094	
0.0969323	
0.0994967	
0.0971461	
0.108466	
0.10596	
0.106835	
0.134843	
0.132007	
0.130335	
0.104101	
0.101044	
0.105428	
0.100102	
0.121725	
0.119452	
0.132929	
0.131595	
0.0922345	
0.0449213	
0.0358625	
0.058794	
0.0395911	
0.10599	
0.103283	
0.0894456	
0.0908747	
0.124485	
0.123655	
0.126303	
0.119236	
0.1171	
0.120455	
0.11032	
0.107276	
0.0977071	
0.0955911	
0.100491	
0.0975889	
0.105398	
0.102363	
0.102938	
0.10722	
0.107198	
0.110596	
0.110662	
0.124868	
0.126822	
0.118479	
0.120672	
0.10806	
0.100545	
0.105878	
0.140538	
0.141551	
0.13586	
0.137579	
0.129005	
0.135933	
0.135294	
0.140807	
0.137854	
0.134442	
0.138253	
0.138589	
0.136143	
0.126825	
0.125922	
0.128019	
0.127032	
0.125197	
0.124467	
0.121753	
0.123109	
0.119605	
0.121009	
0.134156	
0.112904	
0.112096	
0.107471	
0.107194	
0.1263	
0.128994	
0.096312	
0.095423	
0.0989566	
0.0994378	
0.0989997	
0.0979993	
0.101832	
0.102335	
0.122186	
0.121878	
0.0932598	
0.0898988	
0.0927954	
0.0911422	
0.116771	
0.119842	
0.123431	
0.126133	
0.122248	
0.123311	
0.122018	
0.119241	
0.121231	
0.112144	
0.114873	
0.111902	
0.114652	
0.098282	
0.100311	
0.0983407	
0.10416	
0.107684	
0.111146	
0.114684	
0.111321	
0.113114	
0.138203	
0.135227	
0.13173	
0.132745	
0.101929	
0.0953758	
0.0960551	
0.0934612	
0.0938333	
0.0966747	
0.0945065	
0.0905183	
0.116052	
0.113518	
0.119201	
0.119408	
0.135	
0.0996933	
0.100938	
0.102238	
0.103445	
0.103325	
0.0988975	
0.122101	
0.119843	
0.132024	
0.129339	
0.103163	
0.0582631	
0.100959	
0.0929802	
0.113143	
0.0974598	
0.110553	
0.107839	
0.0745654	
0.0990795	
0.0970296	
0.124245	
0.125255	
0.126187	
0.126702	
0.095501	
0.104275	
0.102531	
0.0854175	
0.0942846	
0.0964761	
0.0991957	
0.0884346	
0.0959126	
0.097316	
0.0974648	
0.0977377	
0.133119	
0.134916	
0.134772	
0.135827	
0.126915	
0.123847	
0.124286	
0.0634738	
0.0703267	
0.063538	
0.0626433	
0.128442	
0.128763	
0.125832	
0.127093	
0.12655	
0.126159	
0.0959882	
0.118006	
0.119398	
0.121269	
0.0484782	
0.0459073	
0.0571289	
0.0555735	
0.0990711	
0.133026	
0.129774	
0.130293	
0.10222	
0.120838	
0.119025	
0.135932	
0.139536	
0.106416	
0.105739	
0.0987156	
0.101	
0.130783	
0.132518	
0.130793	
0.13232	
0.10964	
0.113847	
0.111156	
0.104058	
0.109537	
0.105292	
0.108388	
0.0876139	
0.0795776	
0.0852896	
0.090924	
0.104953	
0.107999	
0.108246	
0.124059	
0.125917	
0.132097	
0.132496	
0.133742	
0.134553	
0.0935709	
0.0963679	
0.0892714	
0.091079	
0.110985	
0.110677	
0.114502	
0.113548	
0.114817	
0.113037	
0.10961	
0.107149	
0.128349	
0.125421	
0.12848	
0.126993	
0.12782	
0.138748	
0.143987	
0.135834	
0.136787	
0.131748	
0.130193	
0.12044	
0.124772	
0.117812	
0.120177	
0.0925039	
0.0829498	
0.0920721	
0.0897729	
0.110761	
0.1134	
0.138014	
0.135554	
0.13808	
0.135984	
0.134158	
0.140205	
0.135423	
0.132816	
0.134507	
0.132399	
0.129281	
0.128962	
0.127112	
0.105113	
0.104274	
0.101379	
0.0987337	
0.06449	
0.0595654	
0.0530556	
0.0429475	
0.0720718	
0.0779412	
0.0711196	
0.0829792	
0.0797859	
0.0825309	
0.0788966	
0.0853674	
0.0354989	
0.0464851	
0.0572356	
0.0975298	
0.0849628	
0.087985	
0.0877422	
0.0827614	
0.0839286	
0.0991884	
0.12647	
0.126398	
0.129613	
0.129496	
0.0562866	
0.0443413	
0.0836037	
0.0793088	
0.0865087	
0.0880655	
0.089933	
0.0885643	
0.0920933	
0.0908212	
0.0976779	
0.122334	
0.121341	
0.119833	
0.0905321	
0.091756	
0.0876148	
0.0896112	
0.0804521	
0.109473	
0.109257	
0.112217	
0.0773179	
0.0854745	
0.0806563	
0.0969859	
0.0952578	
0.0969737	
0.0874461	
0.116267	
0.116915	
0.12656	
0.127363	
0.125119	
0.125573	
0.0667171	
0.0619708	
0.0724686	
0.0665664	
0.112536	
0.113934	
0.0850541	
0.0864988	
0.044746	
0.0372196	
0.0554945	
0.0465302	
0.0972162	
0.0874097	
0.0979672	
0.094249	
0.133387	
0.131932	
0.119474	
0.12166	
0.10462	
0.101499	
0.104418	
0.0992638	
0.100106	
0.101782	
0.0921793	
0.104019	
0.103285	
0.0793573	
0.099152	
0.100587	
0.0896539	
0.0997297	
0.101732	
0.104032	
0.0987531	
0.101422	
0.132937	
0.132619	
0.137133	
0.0862888	
0.0896053	
0.0746372	
0.0783695	
0.129586	
0.129979	
0.125996	
0.126498	
0.128644	
0.133217	
0.126933	
0.127588	
0.0780531	
0.0798592	
0.0803565	
0.0815889	
0.0449605	
0.0530744	
0.0493988	
0.0519723	
0.0534342	
-0.202629	
-0.201592	
0.0516036	
0.0505084	
0.0524837	
0.0486487	
0.0383835	
-0.181427	
0.0528881	
-0.0682281	
-0.0721556	
-0.140243	
-0.0946318	
0.0497226	
0.0491777	
-0.0818356	
-0.0620057	
-0.0997588	
-0.0339944	
-0.037029	
0.0329879	
0.0102524	
-0.172585	
-0.176126	
-0.145852	
-0.0519647	
-0.197979	
-0.168029	
-0.0560641	
-0.0708473	
-0.0360149	
-0.1487	
-0.157811	
-0.178903	
-0.190067	
-0.198781	
-0.185804	
0.00997293	
-0.0111573	
-0.111709	
-0.148041	
-0.121706	
-0.140244	
-0.137698	
-0.151122	
-0.113767	
-0.107526	
-0.0716011	
-0.171986	
-0.0997731	
-0.071737	
-0.0753777	
-0.0875923	
-0.0624002	
-0.0590941	
-0.0831462	
-0.0718958	
-0.193615	
-0.177468	
-0.101872	
-0.132397	
-0.182499	
-0.0411583	
-0.145104	
-0.068076	
-0.0481837	
-0.110559	
-0.121646	
-0.177251	
-0.203625	
0.040588	
0.0401994	
0.000950796	
-0.134939	
-0.0265995	
-0.0346287	
-0.173416	
-0.159789	
-0.156845	
-0.173502	
-0.184326	
-0.1286	
-0.125101	
-0.180272	
-0.16945	
-0.162082	
-0.0112362	
-0.184718	
0.00937553	
-0.0223371	
-0.0136796	
-0.046367	
-0.143061	
-0.119511	
-0.130832	
-0.183349	
-0.0664234	
-0.101148	
-0.125599	
-0.0913904	
-0.0992847	
-0.0537719	
-0.159105	
-0.175339	
-0.138476	
-0.162113	
-0.140385	
-0.153608	
-0.0313513	
-0.0531162	
-0.168143	
-0.0237806	
-0.037657	
-0.0351308	
-0.0957423	
-0.182998	
-0.188108	
-0.188742	
-0.199315	
-0.140528	
-0.134975	
-0.188412	
-0.19399	
-0.123261	
0.0445082	
0.0127011	
-0.201743	
-0.181752	
-0.127355	
-0.137967	
-0.138112	
0.0458769	
0.0166219	
-0.194829	
-0.200062	
-0.197882	
0.0427277	
0.0491716	
-0.085582	
-0.107923	
-0.0417028	
-0.0472407	
-0.0320102	
0.0501986	
-0.154372	
-0.126816	
-0.111928	
-0.118	
-0.0813441	
-0.121195	
-0.0830652	
-0.10369	
-0.109569	
-0.120848	
-0.20233	
-0.20156	
-0.0737643	
-0.0388135	
-0.149546	
-0.158929	
-0.168944	
-0.121093	
-0.0948466	
-0.126863	
-0.111911	
0.0391943	
-0.178335	
-0.0492898	
-0.0582023	
-0.108495	
-0.169596	
-0.135348	
-0.147577	
-0.16376	
-0.171397	
-0.19969	
-0.155453	
-0.158102	
-0.162798	
-0.170917	
0.00569186	
-0.147319	
-0.12446	
-0.140423	
-0.0538561	
-0.0535594	
-0.0775534	
-0.0732904	
-0.00539311	
-0.0177961	
-0.0844821	
-0.0672048	
-0.151019	
-0.069142	
-0.20047	
-0.20202	
-0.0246656	
-0.182885	
-0.181063	
-0.17846	
-0.136271	
-0.162478	
-0.119434	
-0.145311	
-0.115192	
-0.0700037	
-0.197705	
-0.19705	
-0.119951	
-0.124731	
-0.142551	
-0.145414	
-0.0684876	
-0.0863579	
-0.194482	
-0.187819	
-0.117035	
-0.115595	
0.033311	
-5.25569e-05	
0.00839922	
-0.0337017	
-0.0090824	
0.00613339	
-0.16696	
-0.175252	
-0.205153	
-0.0673494	
-0.0565022	
-0.0401686	
-0.041856	
-0.0585845	
-0.0314541	
-0.0567492	
-0.187477	
-0.19631	
-0.19003	
-0.20375	
-0.19781	
-0.0357623	
-0.0601278	
-0.057147	
-0.0868472	
-0.122025	
-0.167589	
-0.122782	
-0.0921652	
-0.0908747	
-0.103254	
-0.158591	
-0.165664	
-0.108786	
-0.123832	
-0.110084	
-0.125664	
-0.00409169	
-0.0139966	
-0.0289468	
-0.0389525	
-0.190796	
-0.13344	
-0.0865044	
-0.0421967	
-0.0710297	
-0.135019	
-0.145473	
-0.125776	
-0.140342	
-0.171105	
-0.177045	
-0.163433	
-0.173413	
-0.194538	
-0.18895	
-0.192285	
-0.184372	
-0.101591	
-0.0669307	
-0.142895	
-0.133562	
-0.0425793	
-0.0636101	
-0.0437749	
-0.0664992	
-0.148105	
-0.150323	
-0.0301187	
-0.0342793	
-0.00387215	
-0.157467	
-0.160169	
-0.167555	
-0.174043	
-0.0174926	
-0.0331742	
-0.159742	
-0.158303	
-0.0949384	
-0.115638	
-0.0882168	
-0.114853	
-0.164123	
-0.136365	
-0.155322	
0.0151285	
-0.00920947	
-0.194055	
-0.19841	
-0.0754726	
-0.0885121	
-0.107739	
-0.0977536	
-0.0979946	
-0.0872849	
-0.148285	
-0.133832	
-0.154257	
-0.178144	
-0.170828	
-0.183492	
-0.0985137	
-0.0863922	
-0.0770367	
-0.0482202	
-0.053242	
-0.0239068	
-0.0180195	
-0.0060147	
0.00793403	
-4.95198e-05	
0.0142623	
-0.0206413	
0.00239122	
-0.0283725	
-0.0221904	
-0.023331	
-0.0655818	
-0.0582569	
-0.0359389	
-0.0860255	
-0.00477169	
-0.0272322	
-0.00378672	
-0.0373788	
-0.086752	
-0.0687653	
-0.0985628	
-0.0889003	
-0.00137325	
0.000511993	
-0.035965	
-0.0209697	
-0.13385	
-0.135875	
-0.103979	
-0.103742	
-0.106432	
-0.121558	
-0.122209	
-0.136758	
-0.164761	
-0.166207	
-0.153716	
-0.157536	
-0.180297	
-0.174859	
-0.186538	
-0.184467	
-0.187227	
-0.18507	
-0.194281	
-0.190706	
-0.0384457	
0.0026666	
-0.0134877	
-0.189875	
-0.184245	
-0.19686	
-0.194168	
-0.196576	
-0.19178	
-0.189559	
0.0111923	
-0.000624864	
-0.149222	
-0.141189	
-0.135663	
-0.196856	
-0.199723	
-0.202607	
-0.122871	
-0.109383	
-0.11259	
-0.10251	
-0.20023	
-0.199137	
-0.199656	
-0.200258	
-0.200861	
-0.0807588	
-0.127356	
-0.141975	
-0.123447	
-0.145751	
0.0456871	
0.0516562	
-0.0275889	
-0.0261949	
0.0140277	
-0.00397748	
0.0131429	
0.045222	
0.0515698	
-0.0222959	
-0.0637571	
-0.0199866	
-0.0564722	
-0.102916	
-0.113906	
-0.132808	
-0.129004	
-0.141173	
-0.145429	
-0.162313	
-0.163867	
0.00486238	
0.00165975	
-0.201842	
-0.197604	
-0.0089566	
0.0102172	
-0.181988	
-0.00200685	
0.0390377	
-0.175188	
0.0142614	
-0.204476	
-0.187166	
0.00549151	
0.0140178	
0.0209576	
-0.139251	
-0.131631	
-0.191754	
-0.195608	
-0.19617	
-0.195899	
-0.199747	
-0.200467	
-0.145238	
-0.156397	
-0.0889642	
-0.0810133	
-0.089639	
-0.186066	
-0.166681	
-0.165734	
-0.167046	
-0.0692335	
-0.0919347	
-0.0997933	
-0.113724	
0.0106251	
0.0322141	
0.050574	
-0.00166529	
0.0425287	
0.0517948	
0.0380289	
0.00939299	
-0.191448	
-0.201054	
-0.199051	
-0.201146	
0.0430652	
-0.198724	
-0.196884	
-0.096691	
-0.0821725	
-0.0920245	
0.0397281	
0.0488768	
-0.193123	
-0.194286	
-0.195432	
-0.178644	
0.0216067	
-0.183246	
-0.178978	
-0.174921	
0.043452	
0.0455418	
0.051347	
-0.135856	
-0.126383	
-0.119957	
-0.106895	
-0.201335	
-0.201864	
-0.20265	
0.0500681	
0.0410453	
0.0459158	
0.0181467	
-0.190534	
-0.18846	
-0.188656	
-0.103688	
-0.103492	
0.0505226	
0.0440354	
-0.200065	
-0.196507	
-0.195444	
-0.109346	
-0.101425	
-0.195633	
-0.198121	
-0.165727	
0.00199688	
0.00498452	
-0.023757	
-0.021947	
0.0506437	
0.0463304	
-0.0382893	
-0.045039	
-0.0614721	
-0.0615977	
-0.203331	
-0.20191	
-0.201559	
-0.20316	
-0.0606661	
-0.0586603	
-0.0698951	
-0.0747656	
-0.0899208	
0.0482717	
0.0422094	
0.0407708	
-0.139479	
-0.146203	
-0.12916	
-0.144343	
0.0506997	
-0.0813636	
-0.082143	
-0.0690344	
-0.203251	
-0.202792	
-0.177651	
-0.181719	
-0.0562566	
-0.0714109	
-0.18192	
-0.175044	
0.00823264	
0.0132719	
-0.159073	
-0.174786	
-0.168375	
-0.124896	
-0.13976	
-0.116976	
-0.128356	
-0.00648917	
-0.0448693	
-0.0124366	
-0.00738416	
-0.0437039	
-0.0301931	
-0.20291	
-0.201187	
-0.202972	
-0.202634	
-0.000530384	
-0.00590465	
0.0422324	
-0.161167	
-0.147869	
-0.194611	
-0.191635	
-0.11977	
-0.115515	
-0.0888387	
-0.0767692	
-0.199522	
-0.196812	
-0.202316	
-0.201476	
-0.198975	
-0.195375	
-0.102383	
-0.105427	
-0.0847201	
-0.0880443	
-0.160018	
-0.170242	
-0.114678	
-0.124914	
-0.139438	
-0.140331	
-0.201289	
-0.201806	
-0.200346	
-0.199869	
-0.180931	
-0.188608	
-0.195154	
-0.192462	
-0.196267	
-0.178312	
-0.171156	
-0.182755	
-0.182887	
0.00291392	
0.0351153	
0.0494735	
-0.18652	
-0.18702	
-0.0386335	
-0.0262307	
-0.0630498	
-0.152941	
-0.162588	
-0.152563	
-0.171089	
-0.168673	
-0.170181	
-0.175	
-0.176379	
-0.203583	
-0.202769	
-0.202238	
-0.199516	
-0.189161	
-0.178361	
-0.185107	
-0.194569	
0.0386578	
-0.00565163	
0.0468477	
0.0318806	
-0.14889	
-0.166387	
-0.162723	
-0.155498	
-0.16405	
0.00678501	
0.0470435	
0.0436949	
0.00496796	
0.0501749	
0.037687	
-0.185277	
-0.188516	
-0.188388	
-0.192349	
0.0480937	
0.0340226	
-0.149681	
-0.17025	
-0.154796	
-0.172842	
-0.166083	
-0.175505	
-0.182764	
-0.156912	
-0.152653	
-0.163389	
-0.0738769	
-0.0773525	
-0.0893889	
-0.0979422	
-0.199746	
-0.196096	
-0.199031	
-0.156226	
-0.147916	
-0.197569	
-0.196174	
-0.190609	
-0.191707	
-0.131551	
-0.144048	
-0.140201	
-0.151627	
-0.0474688	
-0.0657928	
-0.192967	
-0.19548	
-0.201721	
-0.202954	
-0.0369032	
-0.0468215	
-0.0536793	
-0.0598059	
-0.164924	
-0.15785	
-0.153782	
-0.151063	
-0.0669639	
-0.0846666	
-0.0920012	
-0.105554	
-0.17716	
-0.184657	
-0.184751	
-0.190588	
-0.0933323	
-0.0871535	
-0.119916	
-0.114108	
-0.160868	
-0.153651	
-0.028744	
-0.0105686	
-0.0474107	
-0.0351581	
-0.173163	
-0.170982	
-0.202127	
-0.203494	
-0.200487	
-0.203934	
-0.198891	
-0.198565	
-0.0839374	
-0.0943108	
-0.116007	
-0.122987	
0.000714917	
0.00986982	
0.0453515	
0.0432492	
-0.120085	
-0.0946185	
-0.112419	
-0.0852404	
-0.0115093	
-0.00591009	
-0.00868042	
-0.00257512	
0.000577254	
0.0104636	
0.0172585	
0.0202227	
0.0135172	
-0.010542	
-0.0035828	
0.00377575	
-0.000117052	
0.00625792	
0.0166739	
0.0209102	
0.00812487	
0.0124272	
0.00441519	
-0.00719621	
0.00595035	
-0.00747371	
-0.0113674	
-0.00106852	
-0.0187321	
-0.0192406	
-0.015728	
-0.0206102	
-0.016368	
0.0148838	
0.0125634	
0.000209466	
0.00594863	
-0.00459273	
-0.0165404	
-0.015533	
-0.0144745	
-0.0123521	
-0.00820746	
0.0175827	
0.13775	
0.128864	
0.134086	
0.0363408	
0.0849959	
0.0405775	
0.118431	
0.0892041	
0.0887524	
0.0892748	
0.0892812	
0.0522575	
0.0330906	
0.0883911	
0.0835575	
0.0807884	
0.0491333	
0.087178	
0.075718	
0.124606	
0.120597	
0.09675	
0.115555	
0.123167	
0.109787	
0.115793	
0.100489	
0.0850713	
0.123655	
0.121955	
0.106977	
0.122816	
0.129327	
0.0905127	
0.0907219	
0.122585	
0.122954	
0.0994771	
0.110057	
0.0970541	
0.107073	
0.110886	
0.109861	
0.119984	
0.119828	
0.107147	
0.123102	
0.095728	
0.0932606	
0.101383	
0.124577	
0.119406	
0.121163	
0.117867	
0.118414	
0.126762	
0.10857	
0.107859	
0.105327	
0.0885633	
0.0632534	
0.0949056	
0.119322	
0.11816	
0.115378	
0.114607	
0.130379	
0.131822	
0.133505	
0.0841727	
0.0459389	
0.117194	
0.117065	
0.114396	
0.113374	
0.108806	
0.105872	
0.112098	
0.111639	
0.112271	
0.116	
0.114583	
0.11486	
0.116751	
0.113228	
0.113319	
0.107695	
0.104204	
0.0945518	
0.0869483	
0.096544	
0.0887499	
0.123463	
0.126134	
0.122211	
0.123147	
0.0971504	
0.0920525	
0.103616	
0.127055	
0.128895	
0.115079	
0.116363	
0.102762	
0.116316	
0.121335	
0.0949183	
0.0873052	
0.0958726	
0.0950597	
0.102959	
0.0975328	
0.0954742	
0.0979383	
0.131477	
0.139408	
0.12799	
0.124413	
0.123018	
0.0582266	
0.0449407	
0.0917572	
0.100871	
0.0700904	
0.0783041	
0.116805	
0.112586	
0.0584555	
0.0453529	
0.088571	
0.0896823	
0.0917107	
0.0927458	
0.0861186	
0.130322	
0.12847	
0.10545	
0.0989371	
0.104869	
0.102356	
0.0972032	
0.102698	
0.101824	
0.100473	
0.0993843	
0.0602429	
0.138815	
0.133958	
0.130074	
0.13252	
0.123445	
0.119179	
0.116013	
0.114861	
0.0798848	
0.065551	
0.108429	
0.113464	
0.108644	
0.113844	
0.106827	
0.108958	
0.113585	
0.10788	
0.114109	
0.0668372	
0.102802	
0.104669	
0.102752	
0.131602	
0.130225	
0.130387	
0.128935	
0.129979	
0.13186	
0.111111	
0.112338	
0.108089	
0.110587	
0.135502	
0.129678	
0.131547	
0.114892	
0.111934	
0.117085	
0.0448126	
0.076103	
0.0677081	
0.0741166	
0.139991	
0.137687	
0.109758	
0.106624	
0.135022	
0.117118	
0.116725	
0.115064	
0.102463	
0.10494	
0.116958	
0.120341	
0.11821	
0.120344	
0.127563	
0.128572	
0.12592	
0.126636	
0.125693	
0.127753	
0.12907	
0.121828	
0.117807	
0.122459	
0.0916464	
0.091121	
0.106027	
0.105556	
0.109075	
0.108479	
0.0757907	
0.0652946	
0.0777591	
0.0693205	
0.090753	
0.10979	
0.10724	
0.105135	
0.103909	
0.103883	
0.100053	
0.101193	
0.0983559	
0.128411	
0.126851	
0.109618	
0.107946	
0.106313	
0.122288	
0.122673	
0.119699	
0.120661	
0.0742826	
0.071069	
0.13543	
0.0745851	
0.0770223	
0.0822466	
0.128365	
0.125329	
0.125031	
0.0649451	
0.0597488	
0.105836	
0.102822	
0.107325	
0.105239	
0.123817	
0.124024	
0.121311	
0.121553	
0.118572	
0.118556	
0.115499	
0.115462	
0.13123	
0.131633	
0.129561	
0.130504	
0.100391	
0.12947	
0.130394	
0.128885	
0.120252	
0.1167	
0.114371	
0.0879479	
0.0987905	
0.0974508	
0.130102	
0.129666	
0.121591	
0.117653	
0.118684	
0.118371	
0.120278	
0.117963	
0.11458	
0.118014	
0.119332	
0.130681	
0.132209	
0.131168	
0.129539	
0.131001	
0.128616	
0.113956	
0.110507	
0.113718	
0.110662	
0.121623	
0.119521	
0.117924	
0.0914555	
0.113655	
0.111865	
0.107628	
0.0599153	
0.0622288	
0.0667807	
0.069636	
0.123779	
0.103617	
0.104102	
0.107939	
0.11277	
0.114965	
0.118331	
0.123418	
0.123588	
0.121562	
0.121713	
0.0961532	
0.0988249	
0.0995056	
0.101043	
0.0961412	
0.0996286	
0.106821	
0.108402	
0.105907	
0.131773	
0.130459	
0.134657	
0.100946	
0.103944	
0.0996456	
0.102751	
0.11466	
0.11923	
0.121479	
0.0921704	
0.131376	
0.132583	
0.035363	
0.0443018	
0.0588875	
0.0396452	
0.106021	
0.101836	
0.107851	
0.0897986	
0.0930119	
0.124448	
0.126281	
0.124445	
0.117383	
0.120459	
0.118336	
0.110202	
0.106935	
0.0956261	
0.097711	
0.0976196	
0.100537	
0.100248	
0.107212	
0.102366	
0.105405	
0.107217	
0.110675	
0.112147	
0.126542	
0.124652	
0.120444	
0.118286	
0.10589	
0.100577	
0.136705	
0.130453	
0.134621	
0.135316	
0.133021	
0.139313	
0.134266	
0.141468	
0.138907	
0.139146	
0.135777	
0.125913	
0.126806	
0.126971	
0.128018	
0.12333	
0.124148	
0.124727	
0.125477	
0.118976	
0.120792	
0.121263	
0.122059	
0.132941	
0.11612	
0.114137	
0.110681	
0.108684	
0.136673	
0.12893	
0.132215	
0.0954031	
0.0962596	
0.0969681	
0.100671	
0.097917	
0.098996	
0.0998516	
0.103299	
0.125698	
0.130998	
0.123043	
0.0920664	
0.0932708	
0.091188	
0.0928529	
0.118896	
0.116711	
0.125348	
0.123286	
0.124936	
0.122087	
0.121973	
0.118203	
0.121113	
0.119184	
0.114871	
0.110591	
0.116033	
0.111886	
0.100095	
0.0981361	
0.106199	
0.104346	
0.113356	
0.111402	
0.114839	
0.111598	
0.132976	
0.132913	
0.135684	
0.101931	
0.100928	
0.0972621	
0.0954535	
0.093927	
0.0935531	
0.0945262	
0.0949155	
0.0918805	
0.0897073	
0.121042	
0.113421	
0.118958	
0.117219	
0.133087	
0.133057	
0.0969613	
0.0995464	
0.103385	
0.102098	
0.103928	
0.0968475	
0.102863	
0.101555	
0.113922	
0.0968438	
0.0876325	
0.074798	
0.108489	
0.11132	
0.0772269	
0.0989123	
0.127524	
0.126689	
0.125769	
0.124494	
0.10473	
0.102931	
0.0872625	
0.0949015	
0.0976049	
0.096927	
0.0954597	
0.092887	
0.0925957	
0.0934836	
0.0934336	
0.0731854	
0.0883927	
0.099013	
0.133767	
0.131433	
0.134887	
0.133949	
0.125045	
0.126837	
0.124369	
0.125847	
0.126876	
0.126926	
0.128284	
0.0979986	
0.121345	
0.118055	
0.119484	
0.0994357	
0.131657	
0.129046	
0.132395	
0.125588	
0.125752	
0.13136	
0.129747	
0.132434	
0.102543	
0.0571213	
0.0556184	
0.0484368	
0.0401531	
0.119032	
0.120859	
0.138353	
0.135001	
0.0634258	
0.063522	
0.0702986	
0.0626436	
0.0899167	
0.10201	
0.108028	
0.106827	
0.109618	
0.111128	
0.113809	
0.106066	
0.109305	
0.104901	
0.108162	
0.078985	
0.0847062	
0.0733443	
0.0838448	
0.107923	
0.104953	
0.108093	
0.1259	
0.124038	
0.134227	
0.133795	
0.131457	
0.131978	
0.0978871	
0.0936013	
0.0913148	
0.0893538	
0.115707	
0.113402	
0.110865	
0.110553	
0.109556	
0.109058	
0.113157	
0.112903	
0.127018	
0.133448	
0.132707	
0.133911	
0.129911	
0.131439	
0.134853	
0.134137	
0.126104	
0.122348	
0.120202	
0.118079	
0.12669	
0.128354	
0.122457	
0.125075	
0.121361	
0.123236	
0.0899073	
0.0897582	
0.0924885	
0.0829764	
0.114855	
0.110731	
0.138015	
0.134556	
0.132901	
0.132416	
0.134475	
0.135445	
0.139942	
0.135287	
0.137544	
0.126166	
0.128615	
0.126858	
0.129005	
0.12705	
0.071285	
0.0429315	
0.0354564	
0.112641	
0.109484	
0.104139	
0.104907	
0.0986956	
0.101414	
0.096015	
0.0943122	
0.0973182	
0.0875358	
0.135672	
0.138646	
0.0779095	
0.070991	
0.0721305	
0.0793294	
0.0830161	
0.0826811	
0.0790089	
0.085145	
0.0872456	
0.0885431	
0.0464513	
0.0572454	
0.0354799	
0.098134	
0.088029	
0.0878804	
0.0848164	
0.0904984	
0.0828092	
0.0827242	
0.0840775	
0.12945	
0.104134	
0.102076	
0.10155	
0.0992638	
0.128936	
0.127493	
0.127794	
0.12598	
0.056261	
0.0442733	
0.0867352	
0.0838024	
0.0794842	
0.0807484	
0.0792263	
0.0905146	
0.0915399	
0.0855326	
0.112878	
0.109945	
0.109799	
0.0857163	
0.0808263	
0.0774919	
0.13043	
0.0969898	
0.0874767	
0.0983454	
0.0952419	
0.124773	
0.125228	
0.126252	
0.127492	
0.0620497	
0.0717033	
0.0666744	
0.0726127	
0.112937	
0.114489	
0.0555642	
0.0465702	
0.0537606	
0.0372728	
0.127177	
0.127807	
0.128913	
0.129952	
0.0963037	
0.0981714	
0.0982001	
0.0996297	
0.131587	
0.13427	
0.131863	
0.133498	
0.124187	
0.120743	
0.134442	
0.137314	
0.134691	
0.137132	
0.141677	
0.103899	
0.103746	
0.0993136	
0.0914139	
0.0644639	
0.0641394	
0.081066	
0.0795943	
0.103669	
0.102632	
0.101322	
0.0995425	
0.1005	
0.0982167	
0.0882697	
0.0936135	
0.100214	
0.0993338	
0.0983889	
0.130892	
0.134366	
0.128541	
0.129062	
0.0970518	
0.0914078	
0.0998391	
0.0907756	
0.101155	
0.100137	
0.0517946	
0.0522562	
0.0427752	
0.0520201	
0.0534488	
-0.200683	
-0.201396	
0.0522389	
0.0448779	
0.0383728	
-0.0376961	
-0.180951	
0.0534197	
0.0527725	
-0.0681794	
-0.0720031	
-0.1402	
0.0500928	
-0.0765017	
0.0497647	
0.0491683	
-0.199683	
-0.0817233	
-0.0677454	
-0.099623	
-0.0199337	
-0.0339266	
0.033055	
0.0102999	
-0.175841	
-0.174558	
-0.14568	
-0.0518855	
-0.193928	
-0.167559	
-0.0562088	
-0.070752	
-0.0360189	
-0.158628	
-0.157538	
-0.178988	
-0.189909	
-0.198728	
-0.185648	
0.00997548	
-0.0111552	
-0.113697	
-0.147975	
-0.153526	
-0.150836	
-0.125432	
-0.128174	
-0.113992	
-0.0919382	
-0.0668921	
-0.171866	
-0.088339	
-0.0666648	
-0.0718979	
-0.0877754	
-0.0623119	
-0.0830351	
-0.0590068	
-0.0720534	
-0.193565	
-0.175375	
-0.101172	
-0.129111	
-0.182237	
-0.0411679	
-0.145225	
-0.067981	
-0.0480963	
-0.107002	
-0.12196	
-0.184192	
-0.202052	
0.0492268	
0.0406144	
0.000988735	
-0.134948	
-0.0346412	
-0.0266062	
-0.160065	
-0.173636	
-0.156844	
-0.184161	
-0.173331	
-0.12018	
-0.125389	
-0.169223	
-0.180114	
-0.161873	
-0.0111758	
-0.183275	
2.12655e-05	
0.00510702	
-0.0422174	
-0.0351662	
-0.142827	
-0.108877	
-0.131026	
-0.182777	
-0.0664461	
-0.0912713	
-0.113964	
-0.101012	
-0.121537	
-0.0550402	
-0.175305	
-0.1592	
-0.162069	
-0.138411	
-0.14636	
-0.154496	
-0.0530819	
-0.169068	
-0.0239736	
-0.0351099	
-0.0838932	
-0.18834	
-0.183107	
-0.188254	
-0.198856	
-0.133664	
-0.134815	
-0.193948	
-0.188206	
-0.123095	
0.0444669	
0.0127035	
-0.191662	
-0.192302	
-0.202466	
-0.185132	
-0.127541	
-0.126529	
0.0451713	
0.0166168	
-0.193346	
-0.199565	
-0.197325	
0.040267	
0.0494719	
-0.0855042	
-0.10784	
-0.0426943	
-0.0324225	
-0.0482281	
-0.15408	
-0.12668	
-0.0945185	
-0.1179	
-0.121232	
-0.121585	
-0.0830868	
0.0486558	
-0.119003	
-0.119811	
-0.201762	
-0.200494	
-0.0919036	
-0.038736	
-0.168618	
-0.149361	
-0.148456	
-0.0984482	
-0.120986	
-0.111891	
-0.126787	
0.0391898	
-0.178247	
-0.0581591	
-0.108484	
-0.17067	
-0.135742	
-0.148043	
-0.166221	
-0.171149	
-0.200471	
-0.171092	
-0.170967	
-0.155545	
-0.153716	
0.00588369	
-0.147285	
-0.140377	
-0.12442	
-0.0535552	
-0.0538586	
-0.0732838	
-0.00547473	
-0.0180858	
-0.0848891	
-0.0629783	
-0.0916213	
-0.151398	
-0.0615934	
-0.202973	
-0.202494	
-0.200608	
-0.0287482	
-0.184295	
-0.178285	
-0.178429	
-0.135381	
-0.164164	
-0.133667	
-0.145047	
-0.115062	
-0.0888162	
-0.196508	
-0.196632	
-0.142846	
-0.136559	
-0.128872	
-0.124913	
-0.0890872	
-0.171621	
-0.187346	
-0.193737	
-0.117025	
-0.0865843	
-0.115686	
0.0333401	
0.00842079	
-0.0448514	
-0.0336708	
0.0061585	
-0.00904962	
-0.166444	
-0.174614	
-0.0675256	
-0.0403013	
-0.0566465	
-0.0392197	
-0.057016	
-0.0419979	
-0.0587633	
-0.186355	
-0.188959	
-0.195428	
-0.200536	
-0.202455	
-0.00559302	
-0.0570675	
-0.0174488	
-0.0600433	
-0.0867486	
-0.103604	
-0.168582	
-0.122712	
-0.0897905	
-0.112832	
-0.166358	
-0.159283	
-0.133965	
-0.110336	
-0.129447	
-0.0141204	
-0.00936523	
-0.0316047	
-0.029238	
-0.0775648	
-0.123422	
-0.0710958	
-0.0463961	
-0.145614	
-0.122281	
-0.140458	
-0.125873	
-0.177178	
-0.162824	
-0.173588	
-0.163563	
-0.081257	
-0.192152	
-0.182783	
-0.195836	
-0.188846	
-0.0895144	
-0.0774361	
-0.124136	
-0.143303	
-0.0637783	
-0.0346777	
-0.0755534	
-0.0439893	
-0.139713	
-0.152066	
-0.042929	
-0.0304081	
-0.00415794	
-0.167276	
-0.170628	
-0.157227	
-0.159833	
-0.0331073	
-0.0356978	
-0.159786	
-0.155578	
-0.109058	
-0.0951363	
-0.115822	
-0.115038	
-0.0999421	
-0.156523	
-0.13832	
-0.155435	
-0.145553	
-0.00421604	
0.0150331	
-0.198418	
-0.194098	
-0.0885044	
-0.075457	
-0.0981766	
-0.0874572	
-0.107954	
-0.0979527	
-0.137522	
-0.154098	
-0.140357	
-0.177723	
-0.183355	
-0.173843	
-0.0863255	
-0.0948134	
-0.0770211	
-0.0532136	
-0.0637047	
-0.0243657	
-0.0183756	
0.00619436	
-0.00818332	
0.0143313	
-0.0223312	
0.00240888	
-0.020643	
-0.0283612	
-0.0234547	
-0.00405619	
-0.0581967	
-0.0358828	
-0.0655254	
-0.0436602	
-0.0859716	
-0.0223329	
-0.0375223	
-0.00485708	
-0.0271736	
-0.0984604	
-0.0699314	
-0.0866445	
-0.068681	
0.000523305	
-0.0261429	
-0.0209283	
-0.0359079	
-0.10385	
-0.121854	
-0.119284	
-0.135669	
-0.135095	
-0.136809	
-0.106483	
-0.103725	
-0.148093	
-0.157374	
-0.164562	
-0.166062	
-0.172188	
-0.179862	
-0.184048	
-0.186067	
-0.184698	
-0.186901	
-0.190215	
-0.194848	
0.00267892	
-0.0134798	
-0.038436	
-0.19148	
-0.184236	
-0.192839	
-0.194576	
-0.195384	
-0.19277	
-0.191207	
-0.000625657	
0.0111997	
-0.148864	
-0.149546	
-0.132711	
-0.199531	
-0.202255	
-0.119436	
-0.123007	
-0.102479	
-0.1038	
-0.199172	
-0.198891	
-0.199429	
-0.200522	
-0.200641	
-0.0692124	
-0.141911	
-0.127321	
-0.145661	
-0.133408	
0.0516145	
0.0456954	
-0.0275123	
0.013951	
-0.00137648	
-0.00387461	
0.0132474	
0.0511517	
0.0451129	
-0.048176	
-0.0222375	
-0.0564124	
-0.0369695	
-0.102737	
-0.113786	
-0.125948	
-0.133132	
-0.140832	
-0.142098	
-0.162326	
-0.163827	
0.00149409	
0.00472675	
-0.200732	
-0.196739	
-0.00906081	
0.0101378	
-0.00416591	
0.0143722	
0.0390039	
0.000698517	
-0.201832	
-0.175381	
-0.183255	
-0.187518	
-0.00156869	
0.018073	
-0.176105	
-0.18017	
0.0208688	
-0.138718	
-0.138812	
-0.195051	
-0.189858	
-0.195395	
-0.199761	
-0.194498	
-0.200481	
-0.145436	
-0.157315	
-0.0891411	
-0.0898509	
-0.0811919	
-0.188359	
-0.165748	
-0.16115	
-0.073736	
-0.0807431	
-0.111677	
-0.0997745	
0.0127653	
0.0507674	
0.0323162	
0.042822	
0.00560945	
0.0381638	
0.0518767	
0.00944299	
-0.167148	
-0.171543	
-0.169151	
-0.200647	
-0.201094	
-0.199123	
0.0417128	
-0.19823	
-0.196167	
-0.0822365	
-0.0967591	
-0.0920755	
0.0504099	
0.0406237	
-0.193634	
-0.192528	
-0.197307	
0.0215174	
0.0455041	
0.0433814	
0.0453991	
-0.120068	
-0.110689	
-0.135974	
-0.138132	
-0.200413	
-0.202011	
-0.201558	
0.0409458	
0.050245	
0.0137901	
0.0459027	
-0.17955	
-0.177276	
-0.103718	
-0.103926	
0.0484718	
0.0439972	
0.0445226	
-0.194799	