<VTKFile type="UnstructuredGrid" version="0.1" byte_order="LittleEndian">
	<UnstructuredGrid>
		<Piece NumberOfPoints="1647" NumberOfCells="3046">
			<CellData Scalars="scalars">
				<DataArray type="Float64" Name="Doublet Strengths" NumberOfComponents="1" Format="ascii">
0.293384	
0.250162	
0.276418	
0.0586745	
0.0974252	
0.114688	
0.113001	
0.113574	
0.06015	
0.0574423	
0.109729	
0.100331	
0.0551406	
0.107317	
0.112796	
0.0868042	
0.233362	
0.10996	
0.281038	
0.208164	
0.228842	
0.144489	
0.199787	
0.227216	
0.180404	
0.199887	
0.150737	
0.184579	
0.127096	
0.22369	
0.227827	
0.171983	
0.225845	
0.253446	
0.127833	
0.224325	
0.227472	
0.159661	
0.180713	
0.158251	
0.171592	
0.184341	
0.181743	
0.20903	
0.213479	
0.178274	
0.227496	
0.147784	
0.145859	
0.160336	
0.244696	
0.233233	
0.220697	
0.213532	
0.218159	
0.20794	
0.242003	
0.165671	
0.181293	
0.182448	
0.178637	
0.144511	
0.101127	
0.132442	
0.19743	
0.199659	
0.204505	
0.207581	
0.267321	
0.270313	
0.260518	
0.114156	
0.0526056	
0.193592	
0.195724	
0.202749	
0.207651	
0.188195	
0.174809	
0.177649	
0.168015	
0.196047	
0.187363	
0.195852	
0.192388	
0.199456	
0.197758	
0.205595	
0.174831	
0.162876	
0.105138	
0.119371	
0.12639	
0.222884	
0.233997	
0.228219	
0.237488	
0.118221	
0.127696	
0.167254	
0.24308	
0.24641	
0.259363	
0.210654	
0.198105	
0.200086	
0.154832	
0.225788	
0.108072	
0.12151	
0.130576	
0.142319	
0.13956	
0.150329	
0.134268	
0.133341	
0.263851	
0.275629	
0.232608	
0.248411	
0.225899	
0.0552946	
0.150396	
0.0913797	
0.0799184	
0.0864292	
0.190398	
0.2092	
0.0985427	
0.0740935	
0.140844	
0.141404	
0.133659	
0.134306	
0.105468	
0.25937	
0.24922	
0.165893	
0.150551	
0.168383	
0.154121	
0.114565	
0.15202	
0.154596	
0.162298	
0.161164	
0.120911	
0.107874	
0.292635	
0.277999	
0.256176	
0.27058	
0.23007	
0.199848	
0.200445	
0.207783	
0.100726	
0.0798331	
0.273961	
0.1926	
0.181301	
0.190197	
0.177211	
0.186953	
0.171272	
0.194108	
0.195523	
0.187023	
0.0934207	
0.164862	
0.146659	
0.158389	
0.259567	
0.267054	
0.273622	
0.256508	
0.267842	
0.251493	
0.174255	
0.182541	
0.183809	
0.187997	
0.26966	
0.26315	
0.255609	
0.215938	
0.197737	
0.0606341	
0.0765333	
0.0989451	
0.100415	
0.0940043	
0.295084	
0.289788	
0.181235	
0.17041	
0.26885	
0.211452	
0.207955	
0.195673	
0.164874	
0.165842	
0.210907	
0.205785	
0.222393	
0.211297	
0.251805	
0.246088	
0.241392	
0.235788	
0.239593	
0.255807	
0.247122	
0.247265	
0.212322	
0.221897	
0.224527	
0.14881	
0.148746	
0.166274	
0.168287	
0.176694	
0.183991	
0.105896	
0.111477	
0.0980756	
0.111268	
0.117978	
0.173024	
0.177149	
0.161316	
0.15862	
0.157642	
0.161025	
0.140599	
0.151047	
0.249726	
0.243006	
0.172449	
0.17439	
0.183243	
0.209863	
0.216408	
0.222962	
0.22437	
0.0894985	
0.0929708	
0.107088	
0.107323	
0.119926	
0.231744	
0.234113	
0.2425	
0.0973556	
0.108119	
0.157955	
0.167866	
0.156703	
0.172412	
0.218975	
0.223521	
0.231073	
0.23593	
0.194323	
0.199031	
0.209367	
0.214263	
0.253631	
0.26068	
0.264377	
0.267297	
0.14907	
0.110636	
0.259809	
0.249848	
0.260716	
0.215767	
0.20017	
0.203381	
0.11511	
0.156668	
0.15537	
0.255872	
0.256394	
0.219274	
0.208274	
0.205259	
0.219051	
0.208153	
0.213923	
0.2077	
0.207015	
0.191905	
0.196613	
0.261972	
0.272756	
0.254014	
0.250108	
0.261642	
0.254196	
0.292607	
0.183684	
0.199341	
0.179055	
0.1937	
0.212853	
0.220953	
0.207277	
0.127865	
0.183914	
0.191445	
0.174524	
0.177783	
0.0824599	
0.088243	
0.0921088	
0.235341	
0.164013	
0.163567	
0.176038	
0.19727	
0.19347	
0.208153	
0.286816	
0.27397	
0.280417	
0.220026	
0.220595	
0.227663	
0.231998	
0.144652	
0.155914	
0.156302	
0.143713	
0.152887	
0.146109	
0.175936	
0.168046	
0.17086	
0.27062	
0.26309	
0.257611	
0.162029	
0.149869	
0.166475	
0.147244	
0.220397	
0.211938	
0.270202	
0.263922	
0.120108	
0.0747688	
0.0596859	
0.0830708	
0.0545556	
0.168912	
0.160805	
0.143451	
0.143035	
0.231977	
0.2284	
0.239723	
0.211153	
0.203264	
0.21575	
0.18276	
0.171915	
0.139346	
0.132446	
0.150489	
0.139836	
0.166714	
0.157029	
0.159392	
0.172124	
0.172192	
0.182168	
0.182368	
0.23326	
0.241538	
0.208708	
0.216621	
0.174804	
0.151403	
0.168292	
0.290404	
0.293366	
0.280504	
0.287188	
0.247705	
0.284023	
0.280487	
0.291229	
0.286299	
0.273651	
0.282064	
0.285251	
0.282362	
0.242227	
0.238135	
0.247566	
0.243275	
0.235377	
0.232376	
0.221073	
0.226453	
0.212684	
0.218006	
0.274978	
0.202724	
0.202584	
0.192393	
0.190655	
0.23982	
0.242842	
0.139022	
0.137322	
0.148287	
0.151286	
0.146157	
0.14312	
0.15612	
0.158215	
0.226309	
0.228897	
0.130553	
0.118251	
0.130298	
0.123297	
0.202322	
0.212956	
0.2271	
0.238419	
0.222283	
0.226573	
0.222895	
0.211535	
0.219288	
0.186901	
0.195711	
0.186203	
0.194815	
0.140327	
0.145719	
0.140252	
0.166496	
0.17715	
0.188689	
0.200871	
0.188136	
0.193725	
0.280177	
0.27649	
0.264114	
0.268255	
0.154044	
0.141748	
0.141959	
0.134974	
0.135014	
0.148194	
0.141277	
0.133018	
0.212928	
0.205665	
0.219303	
0.21638	
0.277862	
0.143695	
0.150957	
0.154949	
0.15937	
0.177204	
0.166848	
0.222202	
0.213852	
0.265859	
0.253223	
0.156164	
0.0678871	
0.175593	
0.159497	
0.201426	
0.166788	
0.195105	
0.186226	
0.123359	
0.133743	
0.168735	
0.230879	
0.235577	
0.23935	
0.241742	
0.122938	
0.173343	
0.170931	
0.104993	
0.122386	
0.125059	
0.133526	
0.111851	
0.125203	
0.127955	
0.138059	
0.138661	
0.271	
0.278383	
0.278036	
0.282095	
0.242832	
0.230253	
0.232808	
0.0777862	
0.0827983	
0.074131	
0.0708706	
0.249153	
0.250387	
0.238991	
0.243894	
0.240597	
0.238777	
0.133991	
0.207862	
0.213553	
0.220643	
0.0619759	
0.0620258	
0.074424	
0.0750945	
0.162235	
0.27032	
0.255045	
0.257855	
0.165978	
0.218591	
0.211311	
0.282466	
0.288914	
0.186783	
0.187985	
0.172648	
0.177013	
0.259489	
0.267527	
0.259907	
0.267159	
0.179584	
0.192286	
0.184124	
0.182277	
0.195896	
0.183516	
0.191859	
0.148651	
0.130963	
0.142333	
0.11657	
0.162471	
0.174331	
0.17442	
0.230072	
0.237901	
0.265667	
0.268193	
0.272805	
0.276569	
0.159227	
0.162766	
0.14938	
0.151472	
0.184164	
0.183297	
0.1957	
0.192723	
0.196797	
0.191087	
0.180154	
0.172049	
0.248434	
0.235569	
0.248981	
0.242309	
0.246126	
0.287591	
0.29493	
0.279946	
0.282969	
0.261262	
0.255671	
0.225121	
0.23384	
0.205768	
0.21453	
0.118389	
0.0998468	
0.123758	
0.110504	
0.183034	
0.191057	
0.289078	
0.282065	
0.289342	
0.283145	
0.273605	
0.28537	
0.276136	
0.267994	
0.273111	
0.266581	
0.252697	
0.251011	
0.242616	
0.161717	
0.146795	
0.149859	
0.134877	
0.107348	
0.0995872	
0.0866847	
0.0727582	
0.113134	
0.126355	
0.11348	
0.0994638	
0.0941439	
0.133236	
0.124797	
0.145192	
0.0552414	
0.0706962	
0.0879774	
0.128868	
0.119606	
0.127799	
0.129403	
0.116929	
0.121634	
0.143493	
0.239776	
0.23951	
0.253704	
0.253146	
0.0881943	
0.0697168	
0.126827	
0.119351	
0.134301	
0.122761	
0.129755	
0.121341	
0.134355	
0.11619	
0.129046	
0.223369	
0.219739	
0.214022	
0.121244	
0.114216	
0.115014	
0.111033	
0.0952023	
0.186296	
0.187237	
0.197062	
0.118206	
0.13455	
0.126046	
0.136501	
0.123412	
0.128491	
0.109784	
0.202049	
0.204136	
0.240245	
0.243974	
0.234091	
0.236084	
0.0975095	
0.0916772	
0.109607	
0.100667	
0.195417	
0.20106	
0.110131	
0.104776	
0.0631268	
0.0534504	
0.0811979	
0.0682496	
0.128606	
0.109466	
0.139239	
0.120689	
0.271176	
0.264737	
0.220828	
0.22787	
0.160518	
0.14956	
0.146612	
0.135342	
0.135349	
0.150897	
0.120972	
0.157321	
0.144628	
0.134675	
0.132811	
0.14662	
0.116311	
0.139915	
0.152741	
0.160785	
0.141231	
0.150669	
0.256853	
0.25963	
0.26416	
0.146373	
0.153819	
0.125696	
0.131695	
0.251085	
0.253391	
0.240284	
0.242131	
0.24924	
0.256488	
0.243575	
0.245685	
0.101607	
0.107285	
0.102122	
0.107689	
0.0308506	
0.0430385	
0.0368765	
0.0415387	
0.0448985	
-0.346703	
-0.336694	
0.0399924	
0.0404538	
0.0434512	
0.0396271	
0.0361228	
-0.295209	
0.0432588	
-0.0886866	
-0.0940187	
-0.231086	
-0.127105	
0.0381801	
0.0368751	
-0.148154	
-0.0887841	
-0.172652	
-0.0835242	
-0.0879073	
0.0102616	
-0.0197489	
-0.278782	
-0.284024	
-0.235885	
-0.107927	
-0.324892	
-0.272825	
-0.0898541	
-0.13269	
-0.0794051	
-0.242804	
-0.256818	
-0.272098	
-0.307092	
-0.325015	
-0.293589	
-0.0179476	
-0.0467507	
-0.183099	
-0.234233	
-0.202773	
-0.229712	
-0.22532	
-0.245634	
-0.157982	
-0.180179	
-0.131569	
-0.27523	
-0.152937	
-0.11027	
-0.117546	
-0.129193	
-0.122211	
-0.117484	
-0.150171	
-0.115647	
-0.313166	
-0.267583	
-0.135642	
-0.182372	
-0.28646	
-0.0856639	
-0.221254	
-0.128612	
-0.101431	
-0.171513	
-0.172304	
-0.287759	
-0.349474	
0.0220171	
0.0210163	
-0.0321306	
-0.212627	
-0.0658551	
-0.0758649	
-0.263408	
-0.240478	
-0.238158	
-0.278201	
-0.296761	
-0.188326	
-0.182037	
-0.284275	
-0.266164	
-0.255225	
-0.0523231	
-0.300794	
-0.0160542	
-0.0585599	
-0.0457609	
-0.0889369	
-0.234883	
-0.161856	
-0.179926	
-0.29747	
-0.118358	
-0.174341	
-0.208139	
-0.16062	
-0.171297	
-0.071739	
-0.252104	
-0.278221	
-0.223557	
-0.259277	
-0.19819	
-0.217329	
-0.0750924	
-0.104872	
-0.246701	
-0.036234	
-0.0520096	
-0.0853104	
-0.162337	
-0.282075	
-0.291187	
-0.308235	
-0.330364	
-0.22882	
-0.220311	
-0.300316	
-0.311222	
-0.166589	
0.029681	
-0.0136442	
-0.340418	
-0.281928	
-0.192252	
-0.208974	
-0.206271	
0.0296628	
-0.012044	
-0.31964	
-0.326797	
-0.32567	
0.0251613	
0.0366891	
-0.112108	
-0.144015	
-0.0618495	
-0.0703376	
-0.0529205	
0.046006	
-0.251827	
-0.21152	
-0.187405	
-0.195529	
-0.145495	
-0.19292	
-0.140857	
-0.167792	
-0.147244	
-0.168104	
-0.338878	
-0.348008	
-0.132105	
-0.0882466	
-0.24386	
-0.258381	
-0.273906	
-0.203439	
-0.167135	
-0.211791	
-0.190763	
0.0200489	
-0.284623	
-0.100761	
-0.112247	
-0.177231	
-0.247109	
-0.195289	
-0.213465	
-0.238078	
-0.255007	
-0.337308	
-0.238653	
-0.245513	
-0.24901	
-0.263298	
-0.0284058	
-0.234567	
-0.201239	
-0.223731	
-0.103374	
-0.103615	
-0.134228	
-0.12993	
-0.0152606	
-0.0310377	
-0.118754	
-0.0969627	
-0.220012	
-0.114224	
-0.330413	
-0.338298	
-0.0576003	
-0.291375	
-0.281681	
-0.276117	
-0.193712	
-0.239905	
-0.200773	
-0.238139	
-0.19487	
-0.132867	
-0.322061	
-0.315952	
-0.177583	
-0.185716	
-0.208523	
-0.214155	
-0.0912364	
-0.114781	
-0.31817	
-0.305416	
-0.157027	
-0.180818	
0.0102136	
-0.0363708	
-0.0244347	
-0.0787152	
-0.0458857	
-0.0246103	
-0.271196	
-0.28473	
-0.349429	
-0.101074	
-0.0890832	
-0.0684846	
-0.069434	
-0.0890738	
-0.0558771	
-0.0853856	
-0.305771	
-0.323204	
-0.310655	
-0.347615	
-0.326443	
-0.0854845	
-0.118458	
-0.114066	
-0.155602	
-0.204046	
-0.248461	
-0.201081	
-0.123782	
-0.125361	
-0.141198	
-0.226633	
-0.23884	
-0.159418	
-0.177043	
-0.156802	
-0.175071	
-0.0220283	
-0.0350664	
-0.0504686	
-0.0637174	
-0.311439	
-0.211293	
-0.141235	
-0.0841105	
-0.12046	
-0.209725	
-0.223838	
-0.195395	
-0.215444	
-0.262494	
-0.271405	
-0.249006	
-0.264345	
-0.313527	
-0.302101	
-0.309734	
-0.294781	
-0.157896	
-0.113734	
-0.203393	
-0.191137	
-0.0780308	
-0.104058	
-0.0776121	
-0.105254	
-0.210593	
-0.21829	
-0.063108	
-0.0667532	
-0.029969	
-0.253445	
-0.258054	
-0.268893	
-0.279774	
-0.0600857	
-0.0820866	
-0.229406	
-0.229988	
-0.142391	
-0.175761	
-0.138672	
-0.173349	
-0.244875	
-0.202244	
-0.229323	
0.00115478	
-0.0271403	
-0.318664	
-0.328244	
-0.0982299	
-0.116297	
-0.161185	
-0.14734	
-0.149504	
-0.1349	
-0.240856	
-0.219324	
-0.249168	
-0.287299	
-0.274761	
-0.295649	
-0.172204	
-0.155343	
-0.142723	
-0.103305	
-0.110329	
-0.0403069	
-0.0347354	
-0.0313604	
-0.0137731	
-0.0292021	
-0.010177	
-0.0569846	
-0.0267781	
-0.0579852	
-0.0479292	
-0.0484455	
-0.122824	
-0.113251	
-0.0833529	
-0.150196	
-0.0277499	
-0.0557457	
-0.0257343	
-0.0674574	
-0.155398	
-0.130988	
-0.171917	
-0.158708	
-0.0375308	
-0.0349633	
-0.0852387	
-0.0647609	
-0.221265	
-0.224075	
-0.179043	
-0.178613	
-0.17055	
-0.192515	
-0.191454	
-0.21316	
-0.266136	
-0.268118	
-0.249305	
-0.254536	
-0.291449	
-0.282774	
-0.302598	
-0.299037	
-0.302861	
-0.299263	
-0.316508	
-0.30978	
-0.0838233	
-0.0288384	
-0.0505446	
-0.296541	
-0.285464	
-0.318308	
-0.307143	
-0.317833	
-0.303213	
-0.303796	
-0.0150441	
-0.0316635	
-0.209886	
-0.198782	
-0.186479	
-0.339033	
-0.340378	
-0.340787	
-0.167917	
-0.147144	
-0.154751	
-0.13858	
-0.34315	
-0.335216	
-0.328069	
-0.335308	
-0.331125	
-0.140581	
-0.203951	
-0.224658	
-0.197702	
-0.229422	
0.0312067	
0.0417768	
-0.0733922	
-0.0716222	
-0.0154543	
-0.0409349	
-0.0167189	
0.0283147	
0.0399528	
-0.0677488	
-0.124608	
-0.0644965	
-0.114432	
-0.136491	
-0.152405	
-0.184219	
-0.181295	
-0.196961	
-0.204714	
-0.237959	
-0.241708	
-0.00918859	
-0.0118042	
-0.33562	
-0.325142	
-0.0299579	
-0.00668658	
-0.277701	
-0.0256221	
0.0337454	
-0.258237	
-0.00757281	
-0.347011	
-0.287217	
-0.0274107	
-0.00331591	
0.00951843	
-0.192137	
-0.179341	
-0.301429	
-0.31086	
-0.312976	
-0.317241	
-0.327395	
-0.330589	
-0.202256	
-0.220935	
-0.129137	
-0.117727	
-0.126896	
-0.285672	
-0.240657	
-0.263124	
-0.266428	
-0.125451	
-0.156614	
-0.165986	
-0.185409	
-0.00900682	
0.00877471	
0.0390205	
-0.0376245	
0.0241078	
0.0438975	
0.0220102	
-0.0147127	
-0.298768	
-0.333806	
-0.326682	
-0.333893	
0.0309025	
-0.327222	
-0.323243	
-0.156081	
-0.136347	
-0.15074	
0.027519	
0.0411048	
-0.314853	
-0.31729	
-0.31205	
-0.271544	
0.00847948	
-0.277507	
-0.267857	
-0.258945	
0.0364731	
0.0409666	
0.0432442	
-0.207187	
-0.19222	
-0.18578	
-0.167586	
-0.333843	
-0.335902	
-0.338588	
0.0439433	
0.0299596	
0.0372272	
0.00268507	
-0.299428	
-0.29765	
-0.291473	
-0.145569	
-0.146968	
0.0430655	
0.0265491	
-0.331346	
-0.322877	
-0.321043	
-0.158714	
-0.147242	
-0.318545	
-0.324857	
-0.261716	
-0.0317928	
-0.0281158	
-0.0668563	
-0.0646813	
0.0452299	
0.0388494	
-0.0743555	
-0.0848196	
-0.103518	
-0.105418	
-0.345257	
-0.345762	
-0.33555	
-0.345119	
-0.108736	
-0.0766334	
-0.0922467	
-0.0978224	
-0.118917	
0.0354351	
0.0255728	
0.0205652	
-0.191997	
-0.203169	
-0.175618	
-0.200646	
0.0384873	
-0.111259	
-0.110797	
-0.0956205	
-0.341011	
-0.34827	
-0.264174	
-0.274492	
-0.103741	
-0.124176	
-0.288046	
-0.276855	
0.000212667	
0.00415689	
-0.25815	
-0.283012	
-0.272756	
-0.208034	
-0.229288	
-0.196573	
-0.212502	
-0.0417916	
-0.0929866	
-0.0510296	
-0.0441735	
-0.0928465	
-0.0751827	
-0.342394	
-0.34792	
-0.34301	
-0.347234	
-0.0375269	
-0.0451862	
0.0229087	
-0.25658	
-0.236809	
-0.307283	
-0.29967	
-0.163031	
-0.158313	
-0.117591	
-0.101108	
-0.326456	
-0.318466	
-0.339269	
-0.335343	
-0.327707	
-0.319189	
-0.168404	
-0.171854	
-0.144828	
-0.148681	
-0.259372	
-0.275325	
-0.188933	
-0.203623	
-0.223497	
-0.225325	
-0.337264	
-0.339065	
-0.340769	
-0.34007	
-0.289756	
-0.303593	
-0.313549	
-0.306621	
-0.314729	
-0.267073	
-0.25566	
-0.276702	
-0.286918	
-0.0326592	
0.0120125	
0.0369196	
-0.290431	
-0.286643	
-0.0877129	
-0.0711017	
-0.120938	
-0.214974	
-0.232736	
-0.214608	
-0.250342	
-0.247151	
-0.256241	
-0.259026	
-0.26493	
-0.344478	
-0.33939	
-0.33799	
-0.330185	
-0.296608	
-0.277678	
-0.290573	
-0.319323	
0.0169119	
-0.0443564	
0.0322104	
0.00733963	
-0.223831	
-0.249788	
-0.246085	
-0.220525	
-0.236606	
-0.0268912	
0.0319618	
0.0291738	
-0.0217225	
0.0409227	
0.0212109	
-0.284127	
-0.29161	
-0.29038	
-0.300888	
0.033987	
0.0103971	
-0.233594	
-0.264704	
-0.242303	
-0.270005	
-0.259847	
-0.264934	
-0.277259	
-0.255857	
-0.249431	
-0.265914	
-0.121891	
-0.127911	
-0.141387	
-0.154175	
-0.329249	
-0.329787	
-0.331899	
-0.232153	
-0.220829	
-0.317848	
-0.31311	
-0.300999	
-0.302667	
-0.214477	
-0.232762	
-0.226536	
-0.243594	
-0.100278	
-0.12497	
-0.310899	
-0.313168	
-0.336322	
-0.341263	
-0.0527235	
-0.0667088	
-0.0729179	
-0.0824729	
-0.239213	
-0.226481	
-0.221982	
-0.216403	
-0.125571	
-0.149755	
-0.158799	
-0.177916	
-0.287357	
-0.300493	
-0.300279	
-0.311267	
-0.1627	
-0.154394	
-0.199605	
-0.191676	
-0.247982	
-0.237795	
-0.0636969	
-0.0408585	
-0.0887737	
-0.0736032	
-0.281395	
-0.277743	
-0.345954	
-0.343513	
-0.346753	
-0.34862	
-0.323335	
-0.322425	
-0.146633	
-0.161247	
-0.189906	
-0.200111	
-0.0250965	
-0.0124796	
0.0330487	
0.0304167	
-0.19922	
-0.163814	
-0.188786	
-0.151273	
-0.0105665	
-0.00419426	
-0.00725043	
-0.000496976	
0.00259993	
0.0147163	
0.0208145	
0.0231444	
0.0173832	
-0.00888521	
-0.000240586	
0.00815474	
0.00372751	
0.010166	
0.0188375	
0.023135	
0.0102678	
0.0145962	
0.00657703	
-0.00454126	
0.00389602	
-0.0111116	
-0.0150098	
-0.00398681	
-0.0228324	
-0.0227153	
-0.0165189	
-0.0238409	
-0.020569	
0.0145068	
0.0124237	
-0.00123025	
0.0050326	
-0.00633396	
-0.0178666	
-0.0171614	
-0.0164706	
-0.0144479	
-0.00994836	
0.0179208	
0.288624	
0.251305	
0.276477	
0.0584303	
0.103334	
0.0605831	
0.209302	
0.114553	
0.112324	
0.112864	
0.113704	
0.0855926	
0.056768	
0.109852	
0.100212	
0.0956897	
0.0551402	
0.107295	
0.0879683	
0.234932	
0.217616	
0.147904	
0.199726	
0.2267	
0.180373	
0.200335	
0.150409	
0.12725	
0.228745	
0.222243	
0.171957	
0.225323	
0.253427	
0.132371	
0.126626	
0.224682	
0.227968	
0.1675	
0.180601	
0.158645	
0.171235	
0.184347	
0.181816	
0.213933	
0.21316	
0.172169	
0.227889	
0.147826	
0.146065	
0.14943	
0.232694	
0.213663	
0.220929	
0.208035	
0.210974	
0.241827	
0.181575	
0.182936	
0.179155	
0.144674	
0.100588	
0.132281	
0.211605	
0.207231	
0.197215	
0.194621	
0.259937	
0.26658	
0.274587	
0.113043	
0.0620383	
0.203645	
0.203141	
0.194419	
0.190985	
0.17751	
0.167923	
0.188625	
0.187373	
0.187244	
0.200301	
0.195751	
0.197849	
0.205887	
0.192423	
0.193743	
0.173552	
0.161345	
0.12066	
0.106948	
0.12618	
0.112584	
0.227706	
0.238986	
0.222515	
0.226248	
0.127556	
0.118136	
0.167349	
0.243051	
0.252213	
0.197826	
0.20093	
0.155951	
0.202294	
0.219794	
0.12154	
0.10799	
0.134739	
0.131489	
0.159439	
0.139768	
0.134621	
0.143303	
0.260918	
0.275451	
0.247975	
0.232165	
0.226365	
0.0678385	
0.0552276	
0.118296	
0.150277	
0.08003	
0.0923363	
0.203915	
0.190528	
0.0965824	
0.0733614	
0.133822	
0.134378	
0.141032	
0.141491	
0.104826	
0.257394	
0.249454	
0.168411	
0.148232	
0.165872	
0.158266	
0.1277	
0.162396	
0.161244	
0.155962	
0.154611	
0.100565	
0.291339	
0.276706	
0.257404	
0.269853	
0.228006	
0.211895	
0.19972	
0.195914	
0.110205	
0.100685	
0.176794	
0.1923	
0.17705	
0.19326	
0.171243	
0.177953	
0.193665	
0.174771	
0.195354	
0.0976437	
0.157395	
0.163501	
0.156715	
0.265569	
0.258534	
0.258716	
0.25138	
0.256355	
0.264118	
0.183713	
0.187918	
0.174734	
0.182488	
0.268518	
0.254314	
0.260595	
0.207245	
0.198874	
0.211853	
0.0631849	
0.0994379	
0.0882581	
0.100484	
0.291544	
0.288029	
0.181369	
0.170393	
0.268033	
0.208359	
0.20881	
0.201091	
0.156609	
0.164804	
0.20581	
0.218418	
0.211651	
0.219469	
0.24549	
0.249797	
0.238013	
0.241202	
0.236924	
0.246354	
0.252811	
0.221452	
0.206696	
0.224108	
0.149249	
0.143237	
0.168575	
0.166804	
0.178909	
0.176779	
0.111629	
0.0935264	
0.11134	
0.0981702	
0.117825	
0.180955	
0.172749	
0.165602	
0.16108	
0.161004	
0.146283	
0.150953	
0.140461	
0.249031	
0.242931	
0.183419	
0.177297	
0.174545	
0.222695	
0.22425	
0.212645	
0.216371	
0.0936428	
0.0895737	
0.284811	
0.107434	
0.10716	
0.120037	
0.243777	
0.238098	
0.2363	
0.10619	
0.0963275	
0.167761	
0.157853	
0.172309	
0.165751	
0.23238	
0.233242	
0.22282	
0.224312	
0.209037	
0.208749	
0.199048	
0.198715	
0.263584	
0.265837	
0.25496	
0.259514	
0.149021	
0.25399	
0.258817	
0.251502	
0.215678	
0.203388	
0.19557	
0.119877	
0.15683	
0.155619	
0.258442	
0.255811	
0.220685	
0.206554	
0.210072	
0.214878	
0.220099	
0.212045	
0.196362	
0.207343	
0.211954	
0.261452	
0.269944	
0.261374	
0.254092	
0.260729	
0.249907	
0.194035	
0.183394	
0.193449	
0.183891	
0.220507	
0.212476	
0.206929	
0.127657	
0.192441	
0.187011	
0.173618	
0.0825204	
0.0797786	
0.0921776	
0.0940737	
0.22996	
0.163616	
0.164006	
0.176114	
0.189951	
0.196962	
0.207838	
0.227524	
0.228281	
0.22005	
0.22072	
0.144464	
0.152024	
0.151277	
0.156333	
0.141956	
0.152914	
0.170803	
0.175756	
0.167897	
0.26252	
0.25887	
0.270092	
0.149755	
0.161654	
0.145657	
0.157716	
0.196538	
0.211546	
0.219972	
0.119867	
0.263785	
0.269876	
0.0587598	
0.0736172	
0.0831567	
0.0545979	
0.168869	
0.156272	
0.1742	
0.143824	
0.149047	
0.232045	
0.239606	
0.231872	
0.204257	
0.215799	
0.207687	
0.182791	
0.171766	
0.132455	
0.13927	
0.139859	
0.150683	
0.150448	
0.172113	
0.156983	
0.166644	
0.17202	
0.182207	
0.186777	
0.241502	
0.233306	
0.216326	
0.20843	
0.168228	
0.151625	
0.287913	
0.249682	
0.279193	
0.283068	
0.272297	
0.288671	
0.273252	
0.286477	
0.282518	
0.285985	
0.281663	
0.238221	
0.242125	
0.243281	
0.247511	
0.227992	
0.231241	
0.233568	
0.236813	
0.210174	
0.217173	
0.219075	
0.222219	
0.271036	
0.209516	
0.203907	
0.197181	
0.193824	
0.284535	
0.241947	
0.245769	
0.137246	
0.13893	
0.143693	
0.154086	
0.143775	
0.14695	
0.150581	
0.16086	
0.229812	
0.241225	
0.229346	
0.123664	
0.130489	
0.123235	
0.130261	
0.209726	
0.202216	
0.235447	
0.226798	
0.233646	
0.221956	
0.222653	
0.207621	
0.218847	
0.211247	
0.195576	
0.182051	
0.199447	
0.186077	
0.145064	
0.139865	
0.172605	
0.16659	
0.19583	
0.188718	
0.199435	
0.188279	
0.268461	
0.267981	
0.276833	
0.154011	
0.15091	
0.146107	
0.141574	
0.134998	
0.134817	
0.140823	
0.144198	
0.132971	
0.128191	
0.221321	
0.20415	
0.217717	
0.213591	
0.272158	
0.271871	
0.136406	
0.14329	
0.159186	
0.154518	
0.177843	
0.16016	
0.155882	
0.17617	
0.202073	
0.163248	
0.149538	
0.125387	
0.186834	
0.195786	
0.128733	
0.133237	
0.245263	
0.241848	
0.237907	
0.232473	
0.173752	
0.171261	
0.109472	
0.123251	
0.138388	
0.136825	
0.122795	
0.116996	
0.116585	
0.127114	
0.127116	
0.0865142	
0.111709	
0.133031	
0.27673	
0.264251	
0.280824	
0.276717	
0.235143	
0.242642	
0.233044	
0.23902	
0.243255	
0.244001	
0.248968	
0.139273	
0.220662	
0.207767	
0.213549	
0.162551	
0.266186	
0.253038	
0.270056	
0.23723	
0.237794	
0.264194	
0.256265	
0.2695	
0.16618	
0.0743782	
0.0751164	
0.0619031	
0.0525945	
0.211158	
0.218493	
0.286824	
0.28087	
0.0776957	
0.0740965	
0.0827423	
0.0708649	
0.114491	
0.178203	
0.188509	
0.189131	
0.17951	
0.184017	
0.192147	
0.184573	
0.192875	
0.183264	
0.191714	
0.129342	
0.140698	
0.120645	
0.140612	
0.174282	
0.161471	
0.174192	
0.237811	
0.23	
0.276736	
0.27534	
0.264633	
0.267352	
0.167142	
0.158914	
0.151572	
0.149198	
0.199955	
0.192512	
0.184046	
0.183138	
0.18015	
0.178221	
0.191692	
0.190883	
0.243739	
0.276025	
0.271984	
0.278463	
0.255033	
0.260573	
0.283862	
0.285268	
0.232791	
0.226537	
0.214675	
0.206758	
0.243434	
0.248212	
0.224177	
0.234632	
0.219971	
0.227162	
0.11817	
0.110396	
0.118235	
0.0997962	
0.19563	
0.182947	
0.28119	
0.274111	
0.267967	
0.266484	
0.272845	
0.281993	
0.292969	
0.282013	
0.288531	
0.239364	
0.250368	
0.242143	
0.25224	
0.243442	
0.119694	
0.0726466	
0.0603594	
0.189046	
0.179315	
0.14652	
0.162494	
0.134881	
0.149997	
0.133989	
0.120768	
0.128741	
0.109657	
0.276185	
0.280463	
0.126017	
0.113039	
0.113083	
0.0933438	
0.0995946	
0.133267	
0.12481	
0.112708	
0.106424	
0.118483	
0.0706127	
0.0879316	
0.0551707	
0.130237	
0.127335	
0.129334	
0.118603	
0.112448	
0.0992937	
0.116357	
0.121625	
0.254622	
0.161159	
0.153765	
0.151003	
0.142451	
0.252754	
0.245663	
0.246824	
0.23883	
0.0880573	
0.0695191	
0.134494	
0.127004	
0.119513	
0.104513	
0.104658	
0.120972	
0.11371	
0.144814	
0.197627	
0.186679	
0.187723	
0.134761	
0.126164	
0.118368	
0.252259	
0.128507	
0.10981	
0.140229	
0.123335	
0.233454	
0.235477	
0.23969	
0.245561	
0.0917465	
0.106013	
0.100765	
0.109741	
0.195634	
0.201451	
0.081261	
0.0682754	
0.076613	
0.0534907	
0.244236	
0.24691	
0.252075	
0.257278	
0.126382	
0.130466	
0.140846	
0.144959	
0.264391	
0.275238	
0.264992	
0.271525	
0.231875	
0.22225	
0.277864	
0.286453	
0.279445	
0.285321	
0.292021	
0.160149	
0.159959	
0.13504	
0.119476	
0.107487	
0.107137	
0.137454	
0.134725	
0.156389	
0.143384	
0.149887	
0.134146	
0.174955	
0.170385	
0.150054	
0.160339	
0.14655	
0.132961	
0.131082	
0.25714	
0.260661	
0.249693	
0.251094	
0.167871	
0.156273	
0.145424	
0.11729	
0.149379	
0.136096	
0.0403158	
0.0430817	
0.0252427	
0.0416092	
0.0449162	
-0.347077	
-0.336354	
0.0432778	
0.0306443	
0.0360992	
-0.0536801	
-0.294358	
0.0436314	
0.0430795	
-0.0885852	
-0.0937029	
-0.231014	
0.0458667	
-0.100785	
0.0382497	
0.0368656	
-0.339707	
-0.147952	
-0.0975615	
-0.172407	
-0.0644669	
-0.083442	
0.0103844	
-0.0196451	
-0.283536	
-0.282302	
-0.235551	
-0.107815	
-0.315864	
-0.272085	
-0.0899944	
-0.132508	
-0.0793691	
-0.257917	
-0.256407	
-0.271852	
-0.306756	
-0.324765	
-0.293219	
-0.0179259	
-0.046718	
-0.185301	
-0.234049	
-0.248978	
-0.245139	
-0.207836	
-0.212182	
-0.158262	
-0.158652	
-0.12541	
-0.274979	
-0.138773	
-0.105411	
-0.110429	
-0.129386	
-0.12207	
-0.149976	
-0.117337	
-0.115785	
-0.312978	
-0.264251	
-0.134628	
-0.17538	
-0.285893	
-0.0856343	
-0.221234	
-0.128421	
-0.101247	
-0.167604	
-0.17269	
-0.299797	
-0.347144	
0.0367921	
0.0220756	
-0.0320405	
-0.212545	
-0.0758526	
-0.0658372	
-0.240586	
-0.263483	
-0.237905	
-0.29643	
-0.277862	
-0.177776	
-0.182321	
-0.265708	
-0.28394	
-0.254793	
-0.0522527	
-0.298301	
-0.0290975	
-0.0215164	
-0.0840879	
-0.0735702	
-0.234521	
-0.146423	
-0.180244	
-0.296611	
-0.118324	
-0.160397	
-0.19141	
-0.174092	
-0.202467	
-0.0733161	
-0.278114	
-0.25223	
-0.259165	
-0.223405	
-0.205995	
-0.218851	
-0.104781	
-0.247794	
-0.036476	
-0.0852813	
-0.146512	
-0.291442	
-0.282009	
-0.307361	
-0.329572	
-0.219012	
-0.220008	
-0.311012	
-0.299849	
-0.166215	
0.0296031	
-0.0136291	
-0.300444	
-0.299799	
-0.340694	
-0.284713	
-0.192344	
-0.192253	
0.0283678	
-0.0120364	
-0.317855	
-0.325871	
-0.324807	
0.0211561	
0.0370037	
-0.111912	
-0.143738	
-0.0629974	
-0.0533986	
-0.071477	
-0.251356	
-0.211294	
-0.163606	
-0.19532	
-0.192883	
-0.192425	
-0.140799	
0.0396565	
-0.161582	
-0.166768	
-0.337997	
-0.346441	
-0.156511	
-0.0880778	
-0.273443	
-0.243578	
-0.242414	
-0.172084	
-0.203254	
-0.190726	
-0.211666	
0.0200552	
-0.284432	
-0.11213	
-0.177144	
-0.248721	
-0.19573	
-0.213963	
-0.241138	
-0.255131	
-0.338014	
-0.26225	
-0.263195	
-0.23861	
-0.23775	
-0.0280557	
-0.234465	
-0.223594	
-0.201114	
-0.103558	
-0.103325	
-0.129862	
-0.0153682	
-0.0313773	
-0.119258	
-0.0899176	
-0.12638	
-0.22034	
-0.103621	
-0.346711	
-0.338415	
-0.330459	
-0.0637036	
-0.294577	
-0.277396	
-0.275901	
-0.191906	
-0.241771	
-0.220974	
-0.237732	
-0.194658	
-0.158571	
-0.315144	
-0.320286	
-0.208775	
-0.202339	
-0.188568	
-0.185841	
-0.117842	
-0.257801	
-0.304752	
-0.317082	
-0.15687	
-0.141246	
-0.180809	
0.0102625	
-0.0243928	
-0.0929134	
-0.0786261	
-0.0245421	
-0.0457995	
-0.270373	
-0.283697	
-0.101269	
-0.0686184	
-0.0892314	
-0.0640208	
-0.0856836	
-0.0695855	
-0.0892722	
-0.303867	
-0.308729	
-0.321537	
-0.334235	
-0.345558	
-0.0442693	
-0.113916	
-0.0600072	
-0.118305	
-0.155457	
-0.178378	
-0.249273	
-0.20092	
-0.120891	
-0.155071	
-0.240001	
-0.227716	
-0.191623	
-0.157094	
-0.181863	
-0.0352041	
-0.0273221	
-0.0560431	
-0.0508032	
-0.134174	
-0.197596	
-0.120466	
-0.0889186	
-0.223889	
-0.191415	
-0.21544	
-0.195387	
-0.271396	
-0.248823	
-0.264393	
-0.248983	
-0.145308	
-0.30939	
-0.291127	
-0.316998	
-0.301821	
-0.141466	
-0.127934	
-0.177394	
-0.203896	
-0.104215	
-0.0672206	
-0.117709	
-0.0778356	
-0.196043	
-0.220345	
-0.0784334	
-0.0634528	
-0.0303472	
-0.268362	
-0.274387	
-0.252989	
-0.257428	
-0.0819769	
-0.0853709	
-0.231667	
-0.220016	
-0.159711	
-0.142569	
-0.175879	
-0.173477	
-0.153068	
-0.23234	
-0.206374	
-0.229211	
-0.214136	
-0.0221721	
0.00104173	
-0.328243	
-0.318686	
-0.116168	
-0.0981083	
-0.149654	
-0.135046	
-0.16137	
-0.147514	
-0.225001	
-0.248876	
-0.2285	
-0.286539	
-0.295381	
-0.279394	
-0.155215	
-0.167073	
-0.142695	
-0.110287	
-0.124528	
-0.0408446	
-0.0351519	
-0.0162527	
-0.0342657	
-0.0101026	
-0.0585235	
-0.0267614	
-0.0569708	
-0.0579365	
-0.0485589	
-0.0259571	
-0.113109	
-0.0832196	
-0.122684	
-0.0927335	
-0.150063	
-0.0480515	
-0.0675891	
-0.0277564	
-0.0556304	
-0.171753	
-0.132774	
-0.155227	
-0.130911	
-0.0349363	
-0.0715156	
-0.0646844	
-0.0851293	
-0.178834	
-0.203759	
-0.200532	
-0.223739	
-0.209684	
-0.213092	
-0.170492	
-0.167675	
-0.240512	
-0.254251	
-0.265806	
-0.267878	
-0.278102	
-0.290707	
-0.298399	
-0.301822	
-0.298593	
-0.302248	
-0.308916	
-0.31825	
-0.0287901	
-0.0504986	
-0.0837645	
-0.300873	
-0.285305	
-0.309904	
-0.315737	
-0.316588	
-0.302697	
-0.305373	
-0.0316526	
-0.0150377	
-0.211186	
-0.21014	
-0.182788	
-0.340032	
-0.340263	
-0.161678	
-0.168097	
-0.138601	
-0.141986	
-0.341306	
-0.331591	
-0.335253	
-0.335336	
-0.330559	
-0.125367	
-0.224471	
-0.20382	
-0.229178	
-0.211163	
0.0417003	
0.0312187	
-0.0732316	
-0.0155772	
-0.0375217	
-0.0407194	
-0.0165266	
0.0392935	
0.0281604	
-0.103239	
-0.0677204	
-0.114357	
-0.0878446	
-0.13614	
-0.152105	
-0.175403	
-0.184644	
-0.198773	
-0.198227	
-0.237636	
-0.241268	
-0.0120046	
-0.00934707	
-0.334168	
-0.323962	
-0.0300643	
-0.0067698	
-0.0284031	
-0.00453301	
0.0336937	
-0.0251068	
-0.339086	
-0.25895	
-0.278126	
-0.285698	
-0.0374344	
0.00261428	
-0.259595	
-0.268902	
0.00940793	
-0.191142	
-0.190735	
-0.309593	
-0.296496	
-0.311555	
-0.327176	
-0.313325	
-0.330304	
-0.202375	
-0.222587	
-0.129337	
-0.127166	
-0.117933	
-0.289327	
-0.263114	
-0.256518	
-0.13201	
-0.1405	
-0.182987	
-0.165901	
-0.00606441	
0.0393248	
0.00895429	
0.0246001	
-0.0271762	
0.022159	
0.0439762	
-0.0146444	
-0.241134	
-0.250418	
-0.247049	
-0.332784	
-0.333909	
-0.32666	
0.0287975	
-0.326466	
-0.322154	
-0.13634	
-0.156065	
-0.150712	
0.0437891	
0.0291412	
-0.316191	
-0.313899	
-0.31729	
0.00838078	
0.0409102	
0.0363788	
0.0331025	
-0.185785	
-0.171556	
-0.20717	
-0.209013	
-0.332532	
-0.343387	
-0.336883	
0.0299052	
0.0442338	
-0.00353408	
0.0372406	
-0.272499	
-0.265803	
-0.147242	
-0.145879	
0.0397611	
0.0327247	
0.0274232	
-0.320223	
-0.299172	
-0.328701	
-0.32212	
-0.266858	
-0.25944	
-0.284105	
-0.269228	
-0.158981	
-0.147458	
-0.318294	
-0.323965	
-0.261598	
-0.0279918	
-0.0316769	
-0.0645392	
-0.0667198	
0.0386018	
0.04479	
-0.114306	
-0.10547	
-0.0744435	
-0.0576358	
-0.343608	
-0.334702	
-0.343136	
-0.334205	
-0.108725	
-0.097728	
-0.111277	
-0.076721	
-0.0901332	
0.0255765	
0.0354103	
0.0207802	
-0.185801	
-0.200529	
-0.178904	
-0.201733	
0.0391784	
-0.114123	
-0.0986914	
-0.344179	
-0.343185	
-0.124151	
-0.10373	
0.000116603	
0.00401551	
-0.276693	
-0.287596	