<VTKFile type="UnstructuredGrid" version="0.1" byte_order="LittleEndian">
	<UnstructuredGrid>
		<Piece NumberOfPoints="1647" NumberOfCells="3046">
			<CellData Scalars="scalars">
				<DataArray type="Float64" Name="Doublet Strengths" NumberOfComponents="1" Format="ascii">
0.101104	
0.10476	
0.101812	
0.0312739	
0.0789048	
0.0848269	
0.0851997	
0.085039	
0.0276699	
0.0267895	
0.0844929	
0.0804332	
0.0479074	
0.0832541	
0.0846407	
0.0727481	
0.0988041	
0.0835511	
0.100822	
0.0874628	
0.0903862	
0.0854005	
0.0988284	
0.104201	
0.0964014	
0.101355	
0.0918696	
0.0984281	
0.0767256	
0.102021	
0.102419	
0.0949112	
0.1043	
0.101574	
0.0840536	
0.104263	
0.0996599	
0.0823188	
0.0975782	
0.0834272	
0.0966421	
0.0966411	
0.0957497	
0.102585	
0.103072	
0.0975413	
0.100369	
0.0853949	
0.0823933	
0.0949699	
0.104877	
0.104579	
0.0996025	
0.0998389	
0.0989371	
0.0993728	
0.103548	
0.0731136	
0.0932561	
0.0910891	
0.088153	
0.0756023	
0.0548542	
0.0884898	
0.100488	
0.10056	
0.101363	
0.101326	
0.103434	
0.103161	
0.104141	
0.078856	
0.0377377	
0.10006	
0.100352	
0.101443	
0.10189	
0.0992879	
0.0970912	
0.0975569	
0.0959111	
0.0995082	
0.0983602	
0.0988527	
0.0974585	
0.0971238	
0.0981464	
0.0983057	
0.096634	
0.0947718	
0.0823412	
0.0893219	
0.09152	
0.10388	
0.104211	
0.104226	
0.104486	
0.0875673	
0.0919996	
0.0906317	
0.103056	
0.10465	
0.103806	
0.0926913	
0.100914	
0.101177	
0.0938042	
0.104366	
0.0836226	
0.0902184	
0.088536	
0.0901169	
0.0901904	
0.0915186	
0.0891299	
0.0893014	
0.0977319	
0.10281	
0.104682	
0.104822	
0.104386	
0.0429973	
0.092672	
0.0751411	
0.0681099	
0.0706297	
0.0994993	
0.102693	
0.0491532	
0.0389171	
0.0817813	
0.083105	
0.0795883	
0.0809465	
0.0829712	
0.100421	
0.100698	
0.0936383	
0.0908783	
0.093515	
0.0909443	
0.0856637	
0.0886115	
0.0885897	
0.0910401	
0.0900409	
0.0566668	
0.0521538	
0.100956	
0.101893	
0.104423	
0.102976	
0.104672	
0.100157	
0.0996795	
0.100915	
0.058143	
0.059007	
0.10064	
0.0999216	
0.0977797	
0.0994746	
0.0970653	
0.0988437	
0.0959376	
0.10025	
0.100503	
0.0990356	
0.059808	
0.0949534	
0.0923637	
0.093893	
0.103981	
0.1033	
0.102478	
0.101622	
0.100959	
0.102495	
0.0956804	
0.0970497	
0.0976445	
0.0980158	
0.100052	
0.0983263	
0.098895	
0.0916566	
0.0892202	
0.0364485	
0.0492712	
0.0716796	
0.0691937	
0.0650493	
0.103642	
0.101527	
0.0979214	
0.0962032	
0.100273	
0.0959288	
0.0965975	
0.0956411	
0.0946277	
0.0947668	
0.0988789	
0.0977138	
0.0982049	
0.0973923	
0.103543	
0.103983	
0.103775	
0.104023	
0.10436	
0.103741	
0.104131	
0.104828	
0.103167	
0.104058	
0.104259	
0.0785565	
0.0809234	
0.0953	
0.0955787	
0.0970381	
0.0983187	
0.0648538	
0.0687077	
0.0637909	
0.0713088	
0.0862255	
0.0962541	
0.0969759	
0.0944144	
0.0937946	
0.0936782	
0.094302	
0.0913191	
0.0929079	
0.101237	
0.101937	
0.0929744	
0.0923218	
0.0944588	
0.102505	
0.102976	
0.103575	
0.103483	
0.0675883	
0.0703767	
0.0713396	
0.0682358	
0.0749178	
0.0961762	
0.0949605	
0.094982	
0.0513628	
0.0552741	
0.0933172	
0.0950105	
0.0931526	
0.0959558	
0.0975442	
0.0966104	
0.0980734	
0.0968581	
0.100236	
0.101039	
0.102676	
0.103213	
0.103664	
0.102851	
0.102635	
0.101964	
0.0920729	
0.0742635	
0.102885	
0.1035	
0.102274	
0.10353	
0.101372	
0.101865	
0.0799471	
0.08691	
0.0852935	
0.104554	
0.104555	
0.103889	
0.102627	
0.102194	
0.0957853	
0.0948802	
0.0941006	
0.102539	
0.102479	
0.0998558	
0.100709	
0.104088	
0.102809	
0.102969	
0.103119	
0.101846	
0.102486	
0.101602	
0.0982127	
0.101099	
0.0973583	
0.10013	
0.103121	
0.103852	
0.102445	
0.0846583	
0.0982947	
0.099655	
0.0965462	
0.0971349	
0.0556176	
0.0638888	
0.0619773	
0.101452	
0.0929941	
0.0922185	
0.0946797	
0.100715	
0.100035	
0.10241	
0.101075	
0.102633	
0.101704	
0.102954	
0.102806	
0.103303	
0.103201	
0.0870378	
0.0898326	
0.0906964	
0.0884625	
0.0895813	
0.0881421	
0.0967906	
0.0952901	
0.0957601	
0.0995431	
0.0995674	
0.100338	
0.094426	
0.0929089	
0.0951925	
0.0922309	
0.103869	
0.103066	
0.103115	
0.103888	
0.08754	
0.0370982	
0.0298864	
0.0541885	
0.0366724	
0.0945746	
0.092995	
0.0779353	
0.0802401	
0.102865	
0.103059	
0.103072	
0.101896	
0.101339	
0.102462	
0.0982616	
0.0966199	
0.0905705	
0.0892395	
0.0918926	
0.0903193	
0.0946105	
0.0928532	
0.0929803	
0.0957718	
0.0956115	
0.0977678	
0.0976504	
0.104721	
0.104906	
0.102712	
0.103618	
0.0959511	
0.0916792	
0.0947426	
0.103293	
0.10312	
0.101947	
0.100834	
0.0955926	
0.0981227	
0.0996904	
0.102545	
0.101024	
0.0976151	
0.100814	
0.10108	
0.0990481	
0.102697	
0.102717	
0.102165	
0.102194	
0.102168	
0.101954	
0.102233	
0.102644	
0.101841	
0.102424	
0.10053	
0.0853077	
0.0869246	
0.0822488	
0.0841829	
0.0943957	
0.0961994	
0.0887293	
0.0879129	
0.0901456	
0.0900097	
0.0907449	
0.0900722	
0.0922314	
0.0923089	
0.0910336	
0.093391	
0.0865652	
0.0847607	
0.0860282	
0.0853316	
0.101529	
0.102905	
0.103817	
0.104133	
0.103697	
0.10398	
0.101408	
0.101404	
0.10174	
0.098544	
0.0998878	
0.098566	
0.100028	
0.091182	
0.0926429	
0.0912108	
0.0922326	
0.0941238	
0.0954315	
0.0964173	
0.0960514	
0.0969309	
0.100575	
0.0991124	
0.100595	
0.100415	
0.0930348	
0.0868472	
0.0877002	
0.0858977	
0.0863679	
0.086895	
0.0858082	
0.0826072	
0.0900261	
0.0893047	
0.0901684	
0.0903264	
0.101501	
0.0922351	
0.0924278	
0.0932961	
0.093912	
0.0860222	
0.0831702	
0.104169	
0.103369	
0.103631	
0.104686	
0.0944688	
0.0564429	
0.0813024	
0.0748962	
0.0923677	
0.0799461	
0.0905429	
0.0900983	
0.062128	
0.0932083	
0.0766055	
0.1047	
0.104773	
0.104869	
0.104873	
0.090645	
0.0897629	
0.0878146	
0.0818794	
0.0893727	
0.0914742	
0.0933736	
0.0843265	
0.0908973	
0.0920785	
0.0906475	
0.0908567	
0.102861	
0.101942	
0.101934	
0.101321	
0.100869	
0.101304	
0.100507	
0.0608304	
0.0680163	
0.0615519	
0.0610421	
0.0984519	
0.099154	
0.100023	
0.100146	
0.104914	
0.104953	
0.0894719	
0.100292	
0.100279	
0.100654	
0.0459414	
0.0428462	
0.0539376	
0.0519402	
0.0857191	
0.103081	
0.104592	
0.104315	
0.0893073	
0.101014	
0.100839	
0.0997541	
0.101709	
0.0812526	
0.0811058	
0.0761933	
0.0796451	
0.10428	
0.103522	
0.104201	
0.103433	
0.0973946	
0.0997668	
0.0982401	
0.0836613	
0.0861563	
0.0859449	
0.0873398	
0.071198	
0.0670301	
0.0710013	
0.0865205	
0.0954328	
0.0969337	
0.0972471	
0.103496	
0.103532	
0.102997	
0.102288	
0.102244	
0.101234	
0.0766882	
0.0804281	
0.0744775	
0.0767831	
0.0986941	
0.0984713	
0.100663	
0.100077	
0.100725	
0.0997548	
0.0977275	
0.0963116	
0.104877	
0.104865	
0.104849	
0.104942	
0.104417	
0.101774	
0.105704	
0.101915	
0.101862	
0.0993475	
0.0997721	
0.0920946	
0.0931894	
0.101875	
0.102694	
0.0878692	
0.079785	
0.086378	
0.085947	
0.0980985	
0.0996228	
0.100477	
0.10095	
0.100511	
0.101069	
0.100356	
0.102828	
0.0993133	
0.0998653	
0.0986729	
0.0994967	
0.104112	
0.104165	
0.104452	
0.095761	
0.0973042	
0.0933588	
0.0927331	
0.0509727	
0.0478157	
0.0421983	
0.0342436	
0.0632063	
0.0667055	
0.0615532	
0.0799366	
0.0771014	
0.0711669	
0.0690042	
0.0685487	
0.0311721	
0.0413937	
0.0507164	
0.0922287	
0.0785936	
0.080588	
0.0799021	
0.0764556	
0.0768759	
0.0917961	
0.104855	
0.104775	
0.104555	
0.104494	
0.0492421	
0.0386829	
0.0750787	
0.0714169	
0.0768314	
0.08173	
0.0826001	
0.0826032	
0.0843086	
0.0864551	
0.0923592	
0.10423	
0.103891	
0.103337	
0.0849633	
0.0876438	
0.08262	
0.0856811	
0.0776553	
0.0933471	
0.0924315	
0.0931672	
0.069027	
0.0752442	
0.0711748	
0.0902618	
0.0903796	
0.091572	
0.0834944	
0.10161	
0.101948	
0.104538	
0.104565	
0.104504	
0.10459	
0.0607436	
0.0560827	
0.0649887	
0.0596288	
0.0947769	
0.0945304	
0.080471	
0.0831124	
0.0411688	
0.0339491	
0.0504242	
0.0421725	
0.0918316	
0.0834988	
0.0909162	
0.0896253	
0.101069	
0.102105	
0.0945754	
0.0943917	
0.0954527	
0.0936134	
0.0975297	
0.0933062	
0.0942606	
0.093712	
0.0873438	
0.0952543	
0.0965039	
0.0621236	
0.0935442	
0.0930208	
0.0851245	
0.0931528	
0.093269	
0.0946108	
0.0916719	
0.0932665	
0.098664	
0.0981705	
0.101513	
0.0673983	
0.0699828	
0.0599131	
0.0637723	
0.0974788	
0.0978548	
0.0984088	
0.0990034	
0.0950666	
0.0984179	
0.0966725	
0.0973353	
0.0737692	
0.0748619	
0.076379	
0.0768397	
0.0466636	
0.053955	
0.0506899	
0.0529403	
0.0541768	
-0.166243	
-0.170499	
0.0526751	
0.0515535	
0.0533358	
0.0496788	
0.0384798	
-0.159352	
0.0536941	
-0.0636899	
-0.0661246	
-0.124694	
-0.0839536	
0.0508561	
0.0504615	
-0.0714354	
-0.0572855	
-0.0880112	
-0.0267722	
-0.0295887	
0.0358658	
0.0143754	
-0.152499	
-0.15538	
-0.129901	
-0.0435811	
-0.169557	
-0.148679	
-0.0503205	
-0.0612553	
-0.0293985	
-0.132185	
-0.140065	
-0.158052	
-0.165522	
-0.169731	
-0.162765	
0.0138739	
-0.00595756	
-0.0996286	
-0.132265	
-0.10816	
-0.124776	
-0.122563	
-0.134367	
-0.104987	
-0.0954711	
-0.0621722	
-0.152177	
-0.0902778	
-0.0650113	
-0.0680294	
-0.0800887	
-0.0532988	
-0.0502413	
-0.0726277	
-0.0643784	
-0.16761	
-0.156964	
-0.0945449	
-0.117791	
-0.160581	
-0.0342908	
-0.130579	
-0.0587053	
-0.0401634	
-0.0997291	
-0.111634	
-0.156135	
-0.166073	
0.0428853	
0.042577	
0.00560571	
-0.120962	
-0.020674	
-0.0282885	
-0.154116	
-0.143382	
-0.140725	
-0.153349	
-0.161626	
-0.117044	
-0.114089	
-0.158887	
-0.150452	
-0.144338	
-0.00545872	
-0.161815	
0.0130015	
-0.0168414	
-0.00880844	
-0.0396018	
-0.1272	
-0.110207	
-0.120022	
-0.160873	
-0.0580805	
-0.0893119	
-0.111688	
-0.0803452	
-0.0876361	
-0.0503699	
-0.141702	
-0.154987	
-0.123535	
-0.14404	
-0.128079	
-0.138766	
-0.0247906	
-0.0451222	
-0.150098	
-0.0216792	
-0.0350751	
-0.0278352	
-0.0847967	
-0.16089	
-0.163904	
-0.16464	
-0.170312	
-0.125129	
-0.120233	
-0.16445	
-0.167605	
-0.113172	
0.0463	
0.0163567	
-0.165402	
-0.151202	
-0.115277	
-0.124538	
-0.124993	
0.0477261	
0.020437	
-0.159794	
-0.166244	
-0.16262	
0.0448366	
0.0504683	
-0.0794456	
-0.0984387	
-0.0382766	
-0.0432984	
-0.0285742	
0.0505482	
-0.13709	
-0.112658	
-0.0993973	
-0.104961	
-0.0711616	
-0.108649	
-0.0735562	
-0.0927557	
-0.0988322	
-0.105321	
-0.170468	
-0.163661	
-0.0644603	
-0.0314271	
-0.132938	
-0.141027	
-0.149458	
-0.107496	
-0.0834022	
-0.112698	
-0.0990984	
0.0416027	
-0.157251	
-0.0414204	
-0.049807	
-0.0968308	
-0.150419	
-0.123322	
-0.133832	
-0.146863	
-0.152627	
-0.163132	
-0.139293	
-0.141272	
-0.145531	
-0.15199	
0.0102919	
-0.1315	
-0.111176	
-0.125521	
-0.0461006	
-0.0457476	
-0.0683511	
-0.0642016	
-0.00386667	
-0.0156609	
-0.0781724	
-0.0619417	
-0.13661	
-0.0615034	
-0.169194	
-0.166865	
-0.0194512	
-0.160692	
-0.159542	
-0.157735	
-0.117789	
-0.137787	
-0.105982	
-0.129179	
-0.102128	
-0.0603709	
-0.16401	
-0.166856	
-0.109112	
-0.113235	
-0.129293	
-0.131637	
-0.0640891	
-0.08058	
-0.168324	
-0.164049	
-0.106891	
-0.104044	
0.0361778	
0.00493995	
0.0128758	
-0.026939	
-0.00377599	
0.0104377	
-0.147796	
-0.154527	
-0.167897	
-0.0614512	
-0.0509413	
-0.035474	
-0.0372647	
-0.0533345	
-0.0274707	
-0.0518204	
-0.163754	
-0.169228	
-0.165486	
-0.167461	
-0.169909	
-0.0284513	
-0.0512405	
-0.0485011	
-0.076036	
-0.108371	
-0.142884	
-0.109432	
-0.0858557	
-0.0843322	
-0.0957513	
-0.142619	
-0.147417	
-0.0993483	
-0.113374	
-0.101151	
-0.115498	
-0.00133951	
-0.0106805	
-0.0254514	
-0.0348416	
-0.166034	
-0.119543	
-0.077251	
-0.0356142	
-0.0628605	
-0.121361	
-0.130683	
-0.113211	
-0.126296	
-0.152202	
-0.156757	
-0.146129	
-0.154113	
-0.167972	
-0.164798	
-0.166906	
-0.161701	
-0.0916672	
-0.0591819	
-0.130124	
-0.121937	
-0.0367436	
-0.0567297	
-0.0381651	
-0.0598353	
-0.128649	
-0.128501	
-0.0248138	
-0.0289958	
0.000147597	
-0.139963	
-0.142231	
-0.148501	
-0.153732	
-0.0114027	
-0.0260219	
-0.13951	
-0.135991	
-0.0863821	
-0.104705	
-0.0794165	
-0.104145	
-0.147056	
-0.123615	
-0.140009	
0.0171608	
-0.00642176	
-0.167925	
-0.169971	
-0.0699107	
-0.0813493	
-0.0979368	
-0.088809	
-0.0887728	
-0.0788863	
-0.131928	
-0.119152	
-0.137179	
-0.156923	
-0.151146	
-0.161033	
-0.0867763	
-0.0756068	
-0.0668976	
-0.0400614	
-0.04472	
-0.0212415	
-0.0153615	
-0.00208331	
0.0111916	
0.00419646	
0.0176818	
-0.0151721	
0.0065883	
-0.0235876	
-0.018068	
-0.0193007	
-0.0566268	
-0.0497643	
-0.028844	
-0.0756982	
-0.00120928	
-0.0226313	
-0.00039594	
-0.0324261	
-0.0759465	
-0.0592278	
-0.0868379	
-0.0779238	
0.00366449	
0.00542897	
-0.0286923	
-0.0146623	
-0.119008	
-0.120821	
-0.0918599	
-0.0916428	
-0.095375	
-0.109068	
-0.109873	
-0.1228	
-0.146058	
-0.147279	
-0.136629	
-0.139957	
-0.158572	
-0.154297	
-0.163168	
-0.161707	
-0.163616	
-0.162101	
-0.16807	
-0.165977	
-0.0315358	
0.00712894	
-0.00806085	
-0.164964	
-0.161736	
-0.162119	
-0.164336	
-0.163054	
-0.160333	
-0.156656	
0.014869	
0.00384591	
-0.13175	
-0.122991	
-0.121707	
-0.159846	
-0.163115	
-0.166982	
-0.113228	
-0.101351	
-0.104079	
-0.0951864	
-0.163407	
-0.162339	
-0.167359	
-0.164952	
-0.165298	
-0.0710739	
-0.113936	
-0.127027	
-0.110494	
-0.130408	
0.0474028	
0.0526191	
-0.0208992	
-0.0195868	
0.0179848	
0.00121619	
0.0171706	
0.0471737	
0.0526754	
-0.0158084	
-0.0545287	
-0.0136521	
-0.0477666	
-0.0952335	
-0.104757	
-0.121745	
-0.118302	
-0.12875	
-0.132287	
-0.145782	
-0.146994	
0.00695354	
0.00368423	
-0.170999	
-0.16987	
-0.00568715	
0.0127318	
-0.153735	
0.00162923	
0.0396352	
-0.153459	
0.0174604	
-0.168575	
-0.162223	
0.010025	
0.0165795	
0.022572	
-0.126896	
-0.119999	
-0.165869	
-0.166776	
-0.165622	
-0.168564	
-0.169276	
-0.168145	
-0.131886	
-0.139959	
-0.0816481	
-0.0744092	
-0.0827531	
-0.159019	
-0.147336	
-0.147185	
-0.148172	
-0.0603132	
-0.0813432	
-0.0887592	
-0.101516	
0.0135682	
0.0351974	
0.0516889	
0.00338907	
0.0447352	
0.0525906	
0.0401553	
0.012957	
-0.163419	
-0.169299	
-0.169615	
-0.169114	
0.0446619	
-0.170063	
-0.169475	
-0.0865455	
-0.0731237	
-0.0821251	
0.041356	
0.0497359	
-0.167553	
-0.168099	
-0.167831	
-0.1502	
0.0234737	
-0.15841	
-0.157125	
-0.154598	
0.0442917	
0.0459751	
0.0522041	
-0.122535	
-0.114248	
-0.108131	
-0.096246	
-0.171028	
-0.170486	
-0.170353	
0.0506906	
0.0424953	
0.0469925	
0.0203889	
-0.159668	
-0.156414	
-0.161514	
-0.09568	
-0.0952745	
0.0513193	
0.0460895	
-0.17076	
-0.169371	
-0.168772	
-0.100064	
-0.0929287	
-0.168641	
-0.169561	
-0.147295	
0.00673224	
0.00960131	
-0.0174385	
-0.0157111	
0.0511656	
0.0472271	
-0.0324311	
-0.038613	
-0.0544059	
-0.054304	
-0.167488	
-0.164649	
-0.169827	
-0.166714	
-0.0529135	
-0.0549544	
-0.0654301	
-0.069854	
-0.0838021	
0.0496494	
0.0442382	
0.0431872	
-0.126653	
-0.13143	
-0.117127	
-0.1289	
0.0519056	
-0.0757391	
-0.07662	
-0.0642013	
-0.170372	
-0.16529	
-0.155236	
-0.156386	
-0.0486963	
-0.0628271	
-0.160048	
-0.154814	
0.0093865	
0.014554	
-0.141182	
-0.15422	
-0.14901	
-0.110969	
-0.124321	
-0.103807	
-0.114137	
-0.00140239	
-0.0374881	
-0.00685459	
-0.00212269	
-0.0362468	
-0.0235118	
-0.169362	
-0.162983	
-0.169132	
-0.165897	
0.00454912	
-0.000456811	
0.0445112	
-0.143349	
-0.131854	
-0.165716	
-0.165437	
-0.106959	
-0.10174	
-0.0804368	
-0.0690805	
-0.168565	
-0.16865	
-0.169106	
-0.169618	
-0.170051	
-0.168624	
-0.0912808	
-0.0941565	
-0.0748852	
-0.0780411	
-0.142003	
-0.150584	
-0.102147	
-0.111406	
-0.124527	
-0.125265	
-0.167908	
-0.167957	
-0.164008	
-0.164497	
-0.159164	
-0.16464	
-0.167846	
-0.166774	
-0.168138	
-0.157211	
-0.152508	
-0.159764	
-0.152122	
0.00777616	
0.0379569	
0.0506892	
-0.156275	
-0.161023	
-0.0312911	
-0.0196595	
-0.0540973	
-0.136614	
-0.144094	
-0.13756	
-0.149086	
-0.145643	
-0.143229	
-0.15153	
-0.149796	
-0.169106	
-0.17062	
-0.170822	
-0.170567	
-0.164784	
-0.157598	
-0.162305	
-0.168311	
0.041324	
-0.000242997	
0.0484021	
0.034967	
-0.134185	
-0.148768	
-0.145696	
-0.13723	
-0.143575	
0.011344	
0.0486391	
0.0455012	
0.00885072	
0.0511213	
0.0398449	
-0.16203	
-0.163772	
-0.163071	
-0.164482	
0.0495511	
0.0369421	
-0.134004	
-0.15127	
-0.138297	
-0.153248	
-0.14779	
-0.155707	
-0.160207	
-0.139261	
-0.135602	
-0.14479	
-0.0657872	
-0.0688686	
-0.080387	
-0.0881603	
-0.165544	
-0.159967	
-0.163888	
-0.140653	
-0.133502	
-0.167658	
-0.167522	
-0.165694	
-0.166091	
-0.117248	
-0.128368	
-0.12501	
-0.13502	
-0.0395061	
-0.0566228	
-0.158986	
-0.162368	
-0.170896	
-0.170148	
-0.0341564	
-0.0433548	
-0.050158	
-0.0557194	
-0.147512	
-0.142244	
-0.13902	
-0.136851	
-0.0578273	
-0.0742639	
-0.0811681	
-0.0936156	
-0.156087	
-0.161762	
-0.161856	
-0.165891	
-0.0821795	
-0.0764594	
-0.106574	
-0.10127	
-0.143746	
-0.137603	
-0.0232052	
-0.00592932	
-0.0407575	
-0.0291271	
-0.152865	
-0.151114	
-0.166023	
-0.169621	
-0.16299	
-0.167102	
-0.167802	
-0.168429	
-0.0738388	
-0.083377	
-0.10346	
-0.109744	
0.00463377	
0.0131992	
0.0469186	
0.0449312	
-0.106785	
-0.0834293	
-0.0997753	
-0.0747361	
-0.0118902	
-0.00650115	
-0.00920947	
-0.00321208	
-3.59419e-05	
0.0094107	
0.0163669	
0.0194513	
0.0125547	
-0.0111049	
-0.00460101	
0.00262151	
-0.00121421	
0.00523515	
0.0160542	
0.0202799	
0.00751122	
0.0118095	
0.00379477	
-0.00805385	
0.00617372	
-0.00686613	
-0.0107017	
-0.000644872	
-0.0178496	
-0.0184164	
-0.0154564	
-0.0197389	
-0.0155338	
0.0147723	
0.0124009	
0.000340652	
0.00595411	
-0.00437213	
-0.0161666	
-0.0151623	
-0.0140895	
-0.0119883	
-0.00795198	
0.0173185	
0.100377	
0.104754	
0.101724	
0.0311866	
0.0816396	
0.0364208	
0.102692	
0.0848838	
0.0846438	
0.0851521	
0.0850665	
0.0414527	
0.026476	
0.0845648	
0.0804096	
0.0779833	
0.0479111	
0.0835371	
0.0734007	
0.0986862	
0.0911154	
0.0869823	
0.0988808	
0.104015	
0.0964524	
0.101328	
0.0918835	
0.0768701	
0.102577	
0.101964	
0.0949381	
0.104082	
0.101593	
0.0826838	
0.084154	
0.104126	
0.0996282	
0.0835654	
0.0975595	
0.0837031	
0.0964691	
0.0967287	
0.0958822	
0.1031	
0.10297	
0.0963033	
0.100382	
0.0855548	
0.0825758	
0.0934999	
0.104354	
0.0999274	
0.0996413	
0.0994822	
0.0989771	
0.103504	
0.0935432	
0.091484	
0.0885252	
0.0757592	
0.0546857	
0.0882839	
0.101744	
0.10128	
0.100447	
0.0999944	
0.103375	
0.102656	
0.101358	
0.0788802	
0.0428645	
0.101523	
0.10131	
0.100175	
0.0996018	
0.0974075	
0.0956607	
0.0992491	
0.0989586	
0.0983631	
0.0996796	
0.0988776	
0.0982855	
0.0979084	
0.0975734	
0.0970644	
0.0963655	
0.094492	
0.0899533	
0.0833418	
0.0914536	
0.0845815	
0.104043	
0.104163	
0.103757	
0.103879	
0.0919534	
0.0875461	
0.0908367	
0.103108	
0.104054	
0.100802	
0.101271	
0.0939358	
0.10162	
0.10387	
0.0902488	
0.0835986	
0.0891015	
0.0887282	
0.0929443	
0.0902237	
0.0885766	
0.0900078	
0.0960268	
0.103021	
0.104469	
0.104425	
0.104273	
0.0563989	
0.0429509	
0.0872278	
0.0926042	
0.068176	
0.0756833	
0.101867	
0.0994973	
0.0483345	
0.0386106	
0.0797477	
0.0810973	
0.081956	
0.0832652	
0.082648	
0.100212	
0.101007	
0.093603	
0.0900908	
0.0936539	
0.0922704	
0.0919888	
0.0911968	
0.0902137	
0.0899623	
0.0887386	
0.0483541	
0.100341	
0.101478	
0.104259	
0.102648	
0.104421	
0.103019	
0.100158	
0.0995095	
0.0742925	
0.058146	
0.0968704	
0.0998278	
0.0970019	
0.0999684	
0.0959007	
0.0971382	
0.100076	
0.0968295	
0.100363	
0.0608313	
0.093601	
0.0947013	
0.093622	
0.102677	
0.103504	
0.103547	
0.102557	
0.101689	
0.100784	
0.097652	
0.0980417	
0.0959455	
0.0970827	
0.0995176	
0.0986778	
0.097415	
0.0902358	
0.0899477	
0.0935973	
0.0412181	
0.0718326	
0.0639356	
0.0692631	
0.102095	
0.100755	
0.097859	
0.0961242	
0.100017	
0.0969525	
0.0954279	
0.0966861	
0.0931411	
0.0946146	
0.0985065	
0.0990139	
0.0976795	
0.097776	
0.103804	
0.103391	
0.103995	
0.103704	
0.104297	
0.103909	
0.103481	
0.10386	
0.102329	
0.104037	
0.0788349	
0.0804092	
0.0955666	
0.0953418	
0.0972851	
0.0970097	
0.0688217	
0.0598918	
0.0714271	
0.0638781	
0.086141	
0.0976778	
0.0961652	
0.0950106	
0.0943287	
0.0942643	
0.092274	
0.0928525	
0.0912629	
0.100532	
0.10169	
0.0946838	
0.0943112	
0.0925509	
0.103491	
0.103452	
0.10281	
0.102939	
0.0707289	
0.0676718	
0.0990661	
0.0683409	
0.0714342	
0.0750555	
0.0963518	
0.0968762	
0.095777	
0.0545401	
0.0509664	
0.0949961	
0.0933035	
0.0959403	
0.0947526	
0.097972	
0.0965747	
0.0982782	
0.0970222	
0.102552	
0.102494	
0.100991	
0.100938	
0.10243	
0.101784	
0.103516	
0.102744	
0.0920711	
0.102885	
0.102671	
0.10337	
0.103381	
0.101763	
0.10055	
0.0820993	
0.08711	
0.0855126	
0.10379	
0.104104	
0.103909	
0.102313	
0.102775	
0.094883	
0.0964439	
0.0964061	
0.100588	
0.102391	
0.103004	
0.103321	
0.101984	
0.101834	
0.102548	
0.102187	
0.103089	
0.100136	
0.0981149	
0.10003	
0.0982514	
0.103685	
0.102976	
0.10231	
0.0848511	
0.0998198	
0.0988312	
0.0963435	
0.0556767	
0.0589934	
0.0620496	
0.0651293	
0.101256	
0.0923245	
0.0930358	
0.094811	
0.0993991	
0.100624	
0.102317	
0.103257	
0.102989	
0.102921	
0.102789	
0.0871289	
0.0887421	
0.0900549	
0.0907838	
0.0877706	
0.0896851	
0.095744	
0.0967453	
0.0952484	
0.0993797	
0.100299	
0.099438	
0.092824	
0.0943174	
0.0919646	
0.0935687	
0.100611	
0.102909	
0.103698	
0.0875056	
0.103625	
0.102743	
0.0294561	
0.0365748	
0.0542588	
0.0367125	
0.0945622	
0.0921575	
0.0956819	
0.0781831	
0.0811422	
0.102767	
0.103067	
0.103168	
0.101319	
0.102435	
0.101877	
0.098121	
0.0962528	
0.0892618	
0.0905711	
0.0903299	
0.0918602	
0.091504	
0.0956004	
0.0928347	
0.094598	
0.0957582	
0.0976438	
0.0985343	
0.104596	
0.104472	
0.103434	
0.102561	
0.0947211	
0.0916396	
0.0987276	
0.0964386	
0.09935	
0.0976656	
0.100544	
0.101781	
0.0972601	
0.104101	
0.101369	
0.1015	
0.0987972	
0.102649	
0.102684	
0.102062	
0.102154	
0.101973	
0.102218	
0.101813	
0.101952	
0.101802	
0.102351	
0.102179	
0.102471	
0.100783	
0.0881319	
0.0863239	
0.0870465	
0.0830591	
0.100273	
0.0970928	
0.0991113	
0.0879019	
0.0886549	
0.0885003	
0.0909559	
0.0898118	
0.0905464	
0.090781	
0.0929502	
0.0947415	
0.0984185	
0.0954538	
0.0863645	
0.0865695	
0.0853703	
0.0860749	
0.102443	
0.101482	
0.103903	
0.103726	
0.104109	
0.103594	
0.101371	
0.100902	
0.101673	
0.101371	
0.0998775	
0.0977544	
0.10053	
0.0985475	
0.0924988	
0.0910866	
0.0931684	
0.0923813	
0.0958811	
0.0956068	
0.0972597	
0.0962443	
0.100574	
0.101078	
0.0994962	
0.0930311	
0.0924158	
0.0882361	
0.0869267	
0.0864487	
0.0859971	
0.0858704	
0.0854907	
0.0842828	
0.0825966	
0.0917709	
0.0879424	
0.0929849	
0.0910942	
0.101835	
0.10172	
0.0902421	
0.0921254	
0.0938665	
0.0932015	
0.0864475	
0.082638	
0.0941731	
0.0817005	
0.0929532	
0.080731	
0.0693182	
0.0604786	
0.0905644	
0.0911065	
0.0634534	
0.0930898	
0.104906	
0.104798	
0.104783	
0.104639	
0.0900924	
0.0880905	
0.0833448	
0.0900301	
0.0907494	
0.0902245	
0.090598	
0.0885804	
0.0883211	
0.087567	
0.0875321	
0.0707107	
0.084295	
0.093235	
0.101212	
0.103455	
0.100706	
0.10145	
0.101374	
0.100757	
0.100468	
0.100026	
0.100089	
0.0989475	
0.099084	
0.0909343	
0.100672	
0.10031	
0.10031	
0.0859709	
0.102939	
0.104314	
0.102341	
0.104651	
0.104719	
0.103409	
0.104138	
0.102624	
0.089546	
0.0539181	
0.0519693	
0.0458916	
0.0377373	
0.100829	
0.101009	
0.10115	
0.0992689	
0.0607753	
0.0615285	
0.0679809	
0.0610346	
0.0856705	
0.0802666	
0.0827099	
0.0818849	
0.0973743	
0.0982157	
0.0997367	
0.0864963	
0.0879979	
0.0842305	
0.0848914	
0.0667015	
0.070647	
0.0613504	
0.0687429	
0.0968685	
0.0956265	
0.0971203	
0.103541	
0.103492	
0.100938	
0.100768	
0.102609	
0.101986	
0.0802179	
0.0765858	
0.0769169	
0.0744589	
0.101245	
0.0999626	
0.0985893	
0.0983707	
0.0976805	
0.0974807	
0.0997589	
0.0996529	
0.104589	
0.100724	
0.101821	
0.100398	
0.0995298	
0.0990999	
0.0985018	
0.0966752	
0.0953237	
0.0938383	
0.102685	
0.101966	
0.0981154	
0.0961914	
0.104202	
0.104768	
0.103845	
0.104389	
0.0847618	
0.0859293	
0.0878518	
0.0798077	
0.100326	
0.098076	
0.101555	
0.100472	
0.0999132	
0.0994639	
0.0986151	
0.100773	
0.101063	
0.100603	
0.100105	
0.104627	
0.103957	
0.104302	
0.103956	
0.104356	
0.0555874	
0.0342158	
0.0277252	
0.0992477	
0.0974208	
0.0971989	
0.0953869	
0.0926953	
0.0933873	
0.0894897	
0.0896764	
0.0919196	
0.0836081	
0.0995007	
0.100922	
0.066678	
0.06144	
0.0632335	
0.0766867	
0.0799405	
0.071265	
0.0690695	
0.0800953	
0.0836904	
0.0830662	
0.0413465	
0.0507065	
0.0311431	
0.0927236	
0.0806887	
0.0800303	
0.0785748	
0.0864583	
0.0797172	
0.0764838	
0.0770099	
0.104374	
0.094679	
0.0935104	
0.093371	
0.0920785	
0.104003	
0.104322	
0.104512	
0.10447	
0.0492043	
0.0386118	
0.076989	
0.0752212	
0.0715429	
0.0763935	
0.0745714	
0.0849637	
0.0874554	
0.0666232	
0.093647	
0.0936971	
0.0928429	
0.0754106	
0.0712869	
0.0691484	
0.0960419	
0.0915804	
0.0835204	
0.0912116	
0.0903678	
0.104266	
0.104351	
0.104337	
0.104204	
0.0561338	
0.0649555	
0.0597016	
0.0650896	
0.0950635	
0.0949405	
0.0504703	
0.0421942	
0.0493336	
0.0339871	
0.104695	
0.104735	
0.104502	
0.104105	
0.0911819	
0.0927229	
0.0910727	
0.0920848	
0.101848	
0.100306	
0.101718	
0.100785	
0.0951535	
0.0955095	
0.100991	
0.100592	
0.10066	
0.100608	
0.103836	
0.0946785	
0.0945352	
0.0934077	
0.0866888	
0.0508442	
0.0519276	
0.063206	
0.063216	
0.0950097	
0.09595	
0.0933486	
0.0937982	
0.0774987	
0.077401	
0.0710574	
0.0752049	
0.0926066	
0.0937359	
0.0929303	
0.0968029	
0.0991478	
0.0972224	
0.0962188	
0.07448	
0.0712985	
0.0923539	
0.0862808	
0.0932474	
0.0941969	
0.0528463	
0.0531304	
0.0448768	
0.0529826	
0.0541906	
-0.162694	
-0.170428	
0.0531007	
0.0466032	
0.0384688	
-0.034908	
-0.158992	
0.0542622	
0.0535878	
-0.063641	
-0.0660034	
-0.124663	
0.0504471	
-0.0688317	
0.0508929	
0.0504525	
-0.16348	
-0.0713537	
-0.0624367	
-0.0879137	
-0.0135986	
-0.0267147	
0.035923	
0.0144127	
-0.155199	
-0.154092	
-0.129787	
-0.0435177	
-0.167873	
-0.148317	
-0.0504356	
-0.061188	
-0.0293966	
-0.140801	
-0.139858	
-0.158103	
-0.165451	
-0.169777	
-0.162649	
0.0138794	
-0.00595218	
-0.101497	
-0.132219	
-0.136503	
-0.134163	
-0.111573	
-0.114009	
-0.105148	
-0.081125	
-0.0577765	
-0.152112	
-0.0795243	
-0.0599658	
-0.0651343	
-0.0802242	
-0.0532306	
-0.072546	
-0.0501751	
-0.0645037	
-0.16761	
-0.15561	
-0.0939084	
-0.11704	
-0.160373	
-0.0342915	
-0.130652	
-0.0586383	
-0.0401003	
-0.0963167	
-0.11186	
-0.161418	
-0.165083	
0.0505166	
0.0429076	
0.00563544	
-0.120964	
-0.028288	
-0.0206711	
-0.143566	
-0.154253	
-0.140696	
-0.161551	
-0.15325	
-0.109277	
-0.114297	
-0.150269	
-0.158761	
-0.144176	
-0.00540521	
-0.160758	
0.00427174	
0.00898197	
-0.0356196	
-0.0291263	
-0.127016	
-0.100875	
-0.120137	
-0.16044	
-0.0580904	
-0.0802616	
-0.101171	
-0.0892158	
-0.108041	
-0.0515511	
-0.154974	
-0.141783	
-0.144028	
-0.123497	
-0.132995	
-0.139386	
-0.0450972	
-0.150794	
-0.0218575	
-0.0278156	
-0.073808	
-0.163965	
-0.160907	
-0.164296	
-0.170084	
-0.11904	
-0.120127	
-0.167597	
-0.164316	
-0.113004	
0.0462669	
0.0163635	
-0.159378	
-0.161779	
-0.166228	
-0.154996	
-0.115405	
-0.114345	
0.0471121	
0.0204263	
-0.158579	
-0.165927	
-0.162182	
0.0426336	
0.050754	
-0.0793733	
-0.0983665	
-0.0392211	
-0.0289594	
-0.0442356	
-0.136862	
-0.112554	
-0.0833614	
-0.104895	
-0.108672	
-0.109081	
-0.0735661	
0.0496804	
-0.106318	
-0.10427	
-0.170156	
-0.162858	
-0.081321	
-0.0313693	
-0.149213	
-0.132806	
-0.132004	
-0.0867273	
-0.107416	
-0.0990837	
-0.112642	
0.0415985	
-0.157208	
-0.0497765	
-0.0968212	
-0.15114	
-0.12361	
-0.134174	
-0.148428	
-0.1525	
-0.163821	
-0.152161	
-0.152005	
-0.139345	
-0.137641	
0.0104618	
-0.131479	
-0.12549	
-0.111149	
-0.0457414	
-0.0460983	
-0.0641942	
-0.00394074	
-0.0159341	
-0.0785245	
-0.0581971	
-0.0849877	
-0.136883	
-0.0545056	
-0.166142	
-0.167431	
-0.169279	
-0.0232313	
-0.161669	
-0.157526	
-0.157676	
-0.116941	
-0.13926	
-0.11887	
-0.128973	
-0.10203	
-0.0778589	
-0.166321	
-0.163245	
-0.129495	
-0.123745	
-0.117238	
-0.113375	
-0.0830416	
-0.144442	
-0.163706	
-0.167765	
-0.106852	
-0.0773027	
-0.104102	
0.0362008	
0.0128896	
-0.0374731	
-0.0269155	
0.0104582	
-0.00375036	
-0.14739	
-0.154036	
-0.0615925	
-0.0355835	
-0.0510558	
-0.0350827	
-0.0520555	
-0.0373826	
-0.053483	
-0.162966	
-0.164767	
-0.168719	
-0.170275	
-0.166727	
-0.000194551	
-0.0484445	
-0.0113713	
-0.0511795	
-0.0759602	
-0.0915412	
-0.143707	
-0.109387	
-0.0836444	
-0.104255	
-0.147927	
-0.143119	
-0.122228	
-0.101334	
-0.118636	
-0.0107874	
-0.006562	
-0.0276002	
-0.0257196	
-0.0683548	
-0.110474	
-0.0629031	
-0.0396152	
-0.130777	
-0.109917	
-0.126369	
-0.113273	
-0.156815	
-0.145526	
-0.154211	
-0.146204	
-0.0711014	
-0.166838	
-0.160626	
-0.168517	
-0.164738	
-0.0804834	
-0.0689261	
-0.11359	
-0.13041	
-0.0568659	
-0.0293581	
-0.0681657	
-0.0383501	
-0.121779	
-0.129864	
-0.037058	
-0.0250756	
-0.000112168	
-0.148315	
-0.151027	
-0.139803	
-0.141999	
-0.0259703	
-0.0284036	
-0.137167	
-0.137444	
-0.099549	
-0.0865294	
-0.104837	
-0.104282	
-0.0904074	
-0.140854	
-0.125133	
-0.140061	
-0.131713	
-0.00144944	
0.0170756	
-0.169998	
-0.167976	
-0.0813425	
-0.0698917	
-0.0889105	
-0.0790178	
-0.098095	
-0.0889576	
-0.122445	
-0.137081	
-0.125016	
-0.156639	
-0.160976	
-0.153614	
-0.0755549	
-0.0833775	
-0.0668852	
-0.0446944	
-0.0544845	
-0.0216757	
-0.015697	
0.00958854	
-0.00410604	
0.0177578	
-0.0168247	
0.00661633	
-0.0151613	
-0.0235622	
-0.0194068	
-0.000653354	
-0.0497215	
-0.0288028	
-0.0565873	
-0.0362155	
-0.075661	
-0.0181936	
-0.0325469	
-0.00129234	
-0.0225622	
-0.0867601	
-0.0603131	
-0.0758647	
-0.0591612	
0.00543299	
-0.0195506	
-0.0146334	
-0.0286521	
-0.0917636	
-0.108246	
-0.105869	
-0.120668	
-0.121407	
-0.122829	
-0.0954048	
-0.0927746	
-0.1318	
-0.139859	
-0.145933	
-0.147197	
-0.15222	
-0.158275	
-0.161408	
-0.162845	
-0.161867	
-0.163424	
-0.16566	
-0.168294	
0.00713995	
-0.00805229	
-0.0315261	
-0.165618	
-0.161678	
-0.160486	
-0.160153	
-0.161918	
-0.161888	
-0.157979	
0.00385228	
0.0148843	
-0.129267	
-0.131949	
-0.11795	
-0.16282	
-0.166772	
-0.110109	
-0.113302	
-0.0951255	
-0.0962095	
-0.16296	
-0.16369	
-0.162669	
-0.165198	
-0.165275	
-0.0602966	
-0.126981	
-0.113911	
-0.130339	
-0.119516	
0.052583	
0.0474124	
-0.0208429	
0.0179117	
0.00365446	
0.0012968	
0.0172581	
0.0522933	
0.0470698	
-0.04002	
-0.0157458	
-0.0477156	
-0.0295356	
-0.095068	
-0.104635	
-0.115706	
-0.121973	
-0.128399	
-0.129456	
-0.145772	
-0.146939	
0.00353065	
0.00682935	
-0.170162	
-0.169195	
-0.00577636	
0.0126636	
-0.000404597	
0.0171827	
0.0396038	
0.00461862	
-0.169297	
-0.151834	
-0.155212	
-0.161775	
0.00346769	
0.0203241	
-0.154011	
-0.156298	
0.0224916	
-0.126402	
-0.126058	
-0.166464	
-0.164811	
-0.165034	
-0.169351	
-0.167949	
-0.168216	
-0.131952	
-0.140991	
-0.0817773	
-0.0829164	
-0.074546	
-0.163219	
-0.147208	
-0.14335	
-0.0644394	
-0.071061	
-0.0996065	
-0.0887447	
0.0155806	
0.0518644	