<VTKFile type="UnstructuredGrid" version="0.1" byte_order="LittleEndian">
	<UnstructuredGrid>
		<Piece NumberOfPoints="1647" NumberOfCells="60">
			<CellData Scalars="scalars">
				<DataArray type="Float64" Name="Doublet Strengths" NumberOfComponents="1" Format="ascii">
-0.211805	
-0.490969	
-0.580009	
-0.607209	
-0.639041	
-0.594582	
-0.640002	
-0.63221	
-0.55613	
-0.62251	
-0.633388	
-0.603437	
-0.628406	
-0.621697	
-0.627166	
-0.4625	
-0.547234	
-0.515426	
-0.537863	
-0.629226	
-0.431043	
-0.626663	
-0.641288	
-0.286958	
-0.616896	
-0.337464	
-0.561424	
-0.639822	
-0.577589	
-0.388919	
-0.64252	
-0.384502	
-0.584716	
-0.607951	
-0.289366	
-0.641895	
-0.596522	
-0.64578	
-0.64056	
-0.642736	
-0.552708	
-0.624281	
-0.638135	
-0.604659	
-0.620592	
-0.626943	
-0.459577	
-0.541478	
-0.509043	
-0.616615	
-0.488538	
-0.633253	
-0.427314	
-0.645477	
-0.521639	
-0.627087	
-0.213878	
-0.583743	
-0.340569	
-0.568736	
				</DataArray>
				<DataArray type="Float64" Name="Velocity Potential" NumberOfComponents="1" Format="ascii">
1.39782	
1.64792	
1.71046	
1.73229	
1.7582	
1.72194	
1.76073	
1.75242	
1.69077	
1.74359	
1.75355	
1.72733	
1.75045	
1.74494	
1.74807	
1.62356	
1.68563	
1.66261	
1.67801	
1.75001	
1.59359	
1.74783	
1.76021	
1.47113	
1.74113	
1.52157	
1.69446	
1.75952	
1.70883	
1.56555	
1.76117	
1.56677	
1.71607	
1.73365	
1.48609	
1.7603	
1.72416	
1.76538	
1.7605	
1.76239	
1.69283	
1.74601	
1.75909	
1.72981	
1.74442	
1.7487	
1.61684	
1.68291	
1.65446	
1.74161	
1.63941	
1.75498	
1.5993	
1.76551	
1.66419	
1.74896	
1.40395	
1.71799	
1.532	
1.70553	
				</DataArray>
			</CellData>
			<Points>
				<DataArray type="Float64" Name="Position" NumberOfComponents="3" Format="ascii">
0.9026	0	-0.00096625	
0.932422	0.0736251	-0.000578378	
1	0	0	
0.616863	0	-0.00894844	
0.667591	0.0740179	-0.00701851	
0.712703	0	-0.00546266	
0.849945	0.084387	-0.00186102	
0.806651	0	-0.00280133	
0.666172	2.90399	-0.00707005	
0.616863	3	-0.00894844	
0.712703	3	-0.00546266	
0	1.93534	0	
0.0604951	1.89438	-0.026168	
0	1.83824	0	
0.486102	2.88579	-0.0144532	
0.428053	3	-0.0168926	
0.524254	3	-0.0128105	
0.932738	2.92283	-0.000574717	
1	3	0	
0.428053	0	-0.0168926	
0.337719	0	-0.0207357	
0.429907	0.0761279	-0.0168171	
0	0	0	
0	0.0977885	0	
0.0690153	0	-0.0269816	
0	0.870688	0	
0.0635371	0.830524	-0.0264813	
0	0.774529	0	
0.0713473	1.10358	-0.0271718	
0	1.06466	0	
0	1.16176	0	
0	0.582259	0	
0.0655418	0.531663	-0.0266735	
0	0.485357	0	
1	2.90039	0	
0.46977	1.87483	-0.0151518	
0.570891	1.86318	-0.0108264	
0.530401	0.652925	-0.0125463	
0.480628	0.766025	-0.014688	
0.575552	0.758003	-0.0106316	
0.806651	3	-0.00280133	
0.9026	3	-0.00096625	
0.853052	2.91526	-0.00180067	
0.0779922	1.69971	-0.0276466	
0	1.6439	0	
0	1.74108	0	
0	2.12931	0	
0	2.22547	0	
0.067959	2.19796	-0.0268911	
0	2.51464	0	
0.0821079	2.51395	-0.0278954	
0	2.41774	0	
0.0690153	3	-0.0269816	
0	2.90221	0	
0	3	0	
0	2.03238	0	
0.0841279	1.9782	-0.0280059	
0.0813729	2.64278	-0.0278533	
0	2.61168	0	
0	2.70861	0	
0.733075	1.82492	-0.0048163	
0.855564	1.80994	-0.00175256	
0.766792	1.72029	-0.00382921	
1	2.2996	0	
0.909303	2.31462	-0.000871695	
1	2.3999	0	
0.330546	2.29897	-0.0210813	
0.285444	2.368	-0.0233242	
0.423849	2.33951	-0.0170628	
0.543335	1.76795	-0.0119925	
0.396234	1.99125	-0.0181506	
0.373355	1.88753	-0.019103	
0.430984	0.304416	-0.0167732	
0.339968	0.238549	-0.0206283	
0.288291	0.343016	-0.023181	
0.151461	1.55005	-0.0287532	
0.136121	1.63104	-0.0289548	
0.233702	1.63171	-0.0258566	
0.359746	2.66584	-0.0197076	
0.437312	2.57149	-0.0165137	
0.334694	2.56157	-0.0208808	
0.577533	1.32295	-0.0105491	
0.605186	1.42917	-0.00941549	
0.675873	1.38582	-0.00672069	
0.639768	1.53427	-0.00805577	
0.541819	1.48493	-0.0120572	
0.311399	1.92336	-0.0220229	
0.544708	0.525205	-0.0119338	
0.459175	0.574821	-0.015601	
0.734715	1.23946	-0.00476589	
0.781254	1.36492	-0.00343854	
0.837561	1.26798	-0.00211109	
0.326574	2.44237	-0.0212745	
0.19385	2.45214	-0.0275412	
0.103807	2.29493	-0.0287415	
0.177014	2.36403	-0.0281163	
0.229266	2.29117	-0.0260605	
0.503411	0.407348	-0.0137084	
0.560289	0.33146	-0.0112723	
0.657936	1.7381	-0.00737219	
0.755156	2.48883	-0.00415795	
0.64135	2.44045	-0.00799532	
0.671967	2.56287	-0.0068605	
0.315791	1.56113	-0.0218049	
0.37174	1.47306	-0.0191733	
0.28603	1.45299	-0.0232948	
0.527273	2.48864	-0.0126807	
0.594701	2.54157	-0.00984101	
0.155329	0.387348	-0.0286788	
0.174197	0.294626	-0.0282018	
0.491269	1.98343	-0.0142312	
0.486473	2.07088	-0.0144373	
0.39681	0.817143	-0.0181278	
0.483166	0.87796	-0.0145792	
0.396164	0.912438	-0.0181534	
0.488625	0.975899	-0.0143449	
0.198272	0.635572	-0.0273741	
0.279888	0.58253	-0.0236035	
0.177109	0.535048	-0.0281133	
0.663989	1.63926	-0.00714967	
0.438794	2.44892	-0.0164526	
0.109052	0.0805349	-0.0288487	
0.154059	0	-0.0287042	
0.606563	0.612175	-0.00936001	
0.634337	1.81783	-0.00826444	
0.667126	1.91104	-0.00703539	
0.699424	1.04416	-0.00590335	
0.595252	1.05063	-0.00981854	
0.697648	1.13024	-0.00596341	
0.499045	2.16009	-0.0138965	
0.545412	2.25784	-0.0119038	
0.574196	2.13205	-0.0106882	
0.62438	2.33123	-0.00865191	
0.681448	2.2535	-0.00652322	
0.732261	2.3585	-0.00484143	
0.591323	2.6522	-0.00997929	
0.693014	2.68054	-0.00612137	
0.708353	2.80494	-0.00560538	
0.596105	2.83554	-0.00978371	
0.122167	2.06301	-0.028985	
0.182611	1.98888	-0.0279367	
0.540018	1.39911	-0.0121342	
0.458501	1.4653	-0.0156295	
0.481599	1.56793	-0.0146464	
0.419629	1.38414	-0.0172324	
0.399301	1.56817	-0.0180297	
0.73998	0.547987	-0.00460562	
0.797985	0.451782	-0.0030117	
0.69562	0.45682	-0.00603233	
0.841868	0.531094	-0.00202241	
0.907866	0.453121	-0.000891612	
0.167742	2.56129	-0.0283846	
0.287763	2.91468	-0.0232076	
0.199986	2.92533	-0.0273077	
0.24575	3	-0.025288	
0.391001	1.18597	-0.0183607	
0.410638	1.28698	-0.0175891	
0.486421	1.23853	-0.0144395	
0.48817	1.34658	-0.0143644	
0.321836	1.25844	-0.0215066	
0.350525	1.36951	-0.0201313	
0.243961	0.245966	-0.0253736	
0.153741	0.176024	-0.0287104	
0.267086	0.156826	-0.0242436	
0.34864	1.74039	-0.0202191	
0.448415	1.7541	-0.016053	
0.42131	1.66149	-0.017165	
0.507754	1.66578	-0.0135212	
0.560593	1.94171	-0.0112594	
0.632773	1.99493	-0.00832489	
0.567832	2.0398	-0.0109546	
0.232698	1.19586	-0.025903	
0.224565	1.2878	-0.0262731	
0.13087	1.24936	-0.0289851	
0.0706267	1.80649	-0.0271144	
0.0704336	1.19179	-0.0270988	
0	1.25892	0	
0.560576	0.841031	-0.0112601	
0.63159	0.895264	-0.00837071	
0.666135	0.819182	-0.00707142	
0.567083	0.94192	-0.0109861	
0.0790209	0.996964	-0.0277119	
0	0.967619	0	
0.44593	2.21655	-0.0161567	
0.629133	1.17277	-0.00846615	
0.647316	0.542749	-0.00776899	
0.692118	0.649206	-0.00615211	
0.384894	0.722164	-0.0186118	
0.374961	0.627728	-0.0190334	
0.298234	0.667932	-0.0226813	
0.364203	1.08742	-0.0195068	
0.448865	1.12445	-0.0160342	
0.0857712	0.654843	-0.0280904	
0.157613	0.727884	-0.0286308	
0.311611	0.073991	-0.0220124	
0.524254	0	-0.0128105	
0.0668242	1.59395	-0.0267908	
0	1.54708	0	
0.139875	1.89124	-0.0289204	
0.148727	1.77687	-0.0288005	
0.293112	1.82814	-0.0229386	
0.251108	1.7337	-0.0250295	
0.209122	1.82826	-0.0269401	
0.171435	1.69626	-0.0282823	
1	1.6998	0	
1	1.59961	0	
0.888295	1.6722	-0.00118253	
1	1.40039	0	
0.92233	1.45146	-0.000700216	
1	1.5	0	
0.664595	0.352589	-0.00712752	
0.602794	0.43902	-0.00951206	
0.529365	0.248449	-0.0125908	
0.114736	2.90862	-0.0289296	
0.154059	3	-0.0287042	
0	0.67939	0	
0.192296	0.982167	-0.0275985	
0.127799	0.905746	-0.0289925	
0	2.80553	0	
0.0651516	2.74278	-0.0266369	
0.365938	0.145158	-0.0194293	
0.24575	0	-0.025288	
0.817183	2.82728	-0.00255558	
0.758986	2.90358	-0.00404834	
0.383345	2.50541	-0.0186765	
0	2.32061	0	
0.835529	1.45417	-0.00215358	
0.898368	1.35661	-0.00102817	
0.738537	1.4842	-0.0046493	
0.411405	2.10574	-0.017559	
0.318895	2.07475	-0.0216515	
0.22159	2.06972	-0.0264055	
0.282553	1.99672	-0.0234696	
0.229172	1.91301	-0.0260649	
0.05371	0.912415	-0.0253655	
0.357901	2.16503	-0.0197915	
0.382002	2.24976	-0.018733	
0.304093	2.22772	-0.0223875	
0.913778	2.8285	-0.000810966	
1	0.199798	0	
1	0.0996145	0	
0.91207	0.164968	-0.00083392	
0.80939	0.172174	-0.00273638	
0.752227	0.0955877	-0.00424269	
0.566354	0.172479	-0.0110167	
0.44878	0.189967	-0.0160378	
0.179128	2.65234	-0.0280499	
0.261544	2.62312	-0.0245183	
0.52972	2.76116	-0.0125756	
0.229599	0.79934	-0.0260453	
0.216737	0.88729	-0.0266177	
0.309684	0.854657	-0.0221083	
0.298864	0.944971	-0.0226496	
0.288653	1.03318	-0.0231629	
0.39718	1.01091	-0.0181131	
0.220216	1.08918	-0.0264661	
0.30467	1.1441	-0.0223587	
0.375111	2.85787	-0.0190269	
0.440705	2.80455	-0.0163736	
0.346063	2.76666	-0.0203399	
0.140021	1.05783	-0.0289189	
0.151004	1.1507	-0.0287614	
0.789154	0.628376	-0.00323362	
0.748494	0.738247	-0.00435185	
0.808028	1.15974	-0.00276858	
0.897881	1.1976	-0.00103541	
0.387598	1.81394	-0.0184998	
0.904891	1.5481	-0.000933454	
0.817544	1.56287	-0.00254735	
0.837152	2.35177	-0.00211961	
0.801889	2.24999	-0.00291603	
0.841651	2.12576	-0.00202682	
0.736065	2.16193	-0.00472456	
0.337719	3	-0.0207357	
0.388884	2.93088	-0.018447	
0.150709	2.73287	-0.0287667	
0.109226	2.81246	-0.0288517	
0.201126	2.83186	-0.0272631	
0.251408	2.73023	-0.025015	
0.91934	0.269661	-0.000738152	
1	0.299987	0	
0.20155	0.0842467	-0.0272464	
0.66583	2.08133	-0.00708252	
0.721831	1.99591	-0.00516853	
0.763154	2.07505	-0.00393063	
0.240142	1.54315	-0.0255551	
0.197989	1.47541	-0.0273849	
0.209665	1.39058	-0.0269176	
0.784522	1.91145	-0.00335305	
0.66422	0.972519	-0.00714121	
0.72094	0.900181	-0.00519693	
0.769504	0.983151	-0.00375442	
0.765335	0.823897	-0.00386969	
0.44887	0.479497	-0.016034	
0.363781	0.468595	-0.0195256	
0.37087	0.54348	-0.0192114	
0.52343	2.59125	-0.012846	
0.235855	0.716101	-0.0257564	
0.310523	0.763244	-0.0220665	
0.431438	2.73273	-0.0167547	
0.288486	2.82726	-0.0231713	
0	0.38832	0	
0.144748	0.816966	-0.0288608	
0.497281	1.06005	-0.0139725	
0.538246	1.14504	-0.01221	
0.889403	0.369132	-0.00116508	
0.902162	2.01875	-0.000972585	
1	2.00017	0	
0.905728	1.91183	-0.000921585	
0.821406	2.0024	-0.00246009	
0.864306	0.786211	-0.00159001	
0.817895	0.88913	-0.00253936	
0.117063	1.44584	-0.0289528	
0.770052	1.07833	-0.0037394	
0.395749	0.392633	-0.0181699	
0.304916	0.42712	-0.0223464	
0.0857438	2.39568	-0.028089	
0.530685	2.38171	-0.0125342	
0.762851	0.371737	-0.00393911	
0.750246	0.275847	-0.00430045	
0.279967	0.505159	-0.0235995	
0.848466	1.05647	-0.00189009	
0.450325	0.669339	-0.0159732	
0.154706	2.22574	-0.0286913	
0.73237	1.59497	-0.00483805	
0.57	1.23131	-0.0108637	
0.647055	1.27629	-0.00777886	
0.27244	2.14756	-0.0239766	
0.188668	2.14431	-0.0277291	
0.230373	2.21211	-0.02601	
0.281088	1.34849	-0.0235432	
0.0731012	0.746184	-0.0273065	
0	0.194469	0	
0	0.291389	0	
0.0846826	0.254958	-0.0280349	
0.328711	1.65463	-0.0211704	
1	0.400043	0	
1	0.500166	0	
1	1.90004	0	
0.913339	0.879931	-0.000816846	
1	0.799597	0	
1	0.899898	0	
1	0.600102	0	
0.926366	0.70157	-0.000650337	
1	0.700403	0	
1	1.3002	0	
1	0.999834	0	
0.929183	0.99965	-0.000616436	
1	1.09996	0	
1	1.20001	0	
0.916606	1.11719	-0.000773578	
0.709422	1.32051	-0.00557017	
0.663681	1.46423	-0.00716093	
0.854414	0.966223	-0.0017745	
0.916693	2.41972	-0.000772442	
1	2.49983	0	
0.818892	2.42583	-0.00251673	
0.876479	2.4979	-0.00137618	
0.891061	0.611147	-0.00113916	
0.932759	2.10699	-0.00057448	
1	2.1001	0	
1	2.2004	0	
0.911625	2.21572	-0.000839955	
0.0597403	2.10792	-0.026086	
0.120296	2.15111	-0.0289761	
0.567175	1.58201	-0.0109822	
0.145951	1.34295	-0.0288437	
0.836925	0.695562	-0.00212434	
0.0691587	1.31663	-0.0269937	
0.0637	1.39122	-0.0264973	
0.831074	2.57799	-0.00224813	
0.746198	2.5979	-0.00441964	
0.927672	2.73708	-0.000634533	
0.903102	2.65254	-0.000959024	
0.852308	2.74357	-0.00181504	
0.768933	2.74335	-0.00377012	
0.588785	0.0829795	-0.0100835	
0.658509	0.153431	-0.00735102	
0.510631	0.106305	-0.0133972	
0	1.3561	0	
0.847687	0.236141	-0.00190549	
0.832009	0.310258	-0.00222812	
0.726438	0.192193	-0.00502286	
0.801612	1.64378	-0.00292278	
0.0650065	1.51134	-0.0266232	
0.587401	1.67564	-0.0101405	
0.642783	0.250093	-0.00794074	
0.0559349	2.85767	-0.0256455	
0.926033	2.56442	-0.000654392	
1	2.59996	0	
0.798866	2.66648	-0.00298999	
0.217599	0.446247	-0.0265803	
0.110083	0.461119	-0.028866	
1	1.79999	0	
0.930454	1.26612	-0.000601387	
0.659371	0.739732	-0.0073192	
0.609339	0.687558	-0.0092485	
1	2.8002	0	
0	1.45292	0	
0.625651	2.74538	-0.0086021	
0.575816	2.92245	-0.0106206	
0.25604	2.5244	-0.024789	
0.127439	0.594628	-0.0289928	
0.480712	2.66796	-0.0146844	
1	2.70001	0	
0.639128	2.17666	-0.00808024	
0.93141	0.535523	-0.000590163	
0.0829146	0.334187	-0.0279404	
0.0681532	0.182577	-0.026908	
0.0729418	0.136645	-0.0272945	
0.935727	1.74714	-0.000540547	
0.0599677	0	0.051717	
0.0596716	1.79238	0.0515929	
0.0558114	1.07604	0.0499439	
0.0719811	1.20103	0.0564864	
0.050152	1.60627	0.047412	
0.935503	0.0729369	0.0170912	
0.856716	0.0838108	0.0358355	
0.81045	0	0.0457793	
0.905341	0	0.0245394	
0.0624704	1.89108	0.0527523	
0.0599677	3	0.051717	
0.29629	2.92782	0.0974066	
0.391529	2.93132	0.0982861	
0.334763	3	0.0986899	
0.667375	0.109964	0.0715835	
0.62015	0	0.078422	
0.716258	0	0.0636151	
0.0493975	0.721938	0.0470633	
0.0475689	0.547401	0.0462067	
0.62015	3	0.078422	
0.657857	2.91102	0.0730306	
0.716258	3	0.0636151	
0.905341	3	0.0245394	
0.81045	3	0.0457793	
0.847335	2.92598	0.0379148	
0.428785	0	0.0967125	
0.525809	0	0.0894266	
0.477546	0.124051	0.0935942	
0.0514892	2.75385	0.0480233	
0.925187	2.91055	0.0196771	
0.0744733	1.41289	0.0574167	
0.925353	0.93225	0.0196358	
0.940304	0.850676	0.015874	
0.361553	0.489974	0.0988293	
0.292581	0.601731	0.0972127	
0.240253	0.502949	0.0930735	
0.364387	2.68441	0.0988091	
0.41631	2.77907	0.0973235	
0.299545	2.77366	0.0975664	
0.390517	0.585253	0.0983162	
0.106615	0.181516	0.0679521	
0.199382	0.176273	0.0878628	
0.143192	0.280975	0.0773612	
0.176676	0.401411	0.0841249	
0.221831	0.282384	0.090954	
0.122645	0.966623	0.0723671	
0.1356	1.11954	0.0755969	
0.594659	0.770992	0.0817523	
0.622344	0.678151	0.0781235	
0.704469	0.699797	0.0656184	
0.659919	0.541503	0.0727199	
0.668014	0.621197	0.0714851	
0.571424	0.606862	0.0845611	
0.559611	0.956728	0.0859047	
0.440189	0.925901	0.0960859	
0.509644	0.851059	0.0909377	
0.268193	0.34978	0.0956165	
0.753273	0.87005	0.0569926	
0.726775	0.781444	0.0617845	
0.835978	0.78922	0.040389	
0.598784	0.335653	0.0812309	
0.540345	0.236834	0.0879714	
0.645337	0.237682	0.0748815	
0.340162	2.55355	0.0987666	
0.237464	2.55616	0.0927758	
0.260554	2.46041	0.0949989	
0.215861	0.707351	0.0901878	
0.304273	0.709903	0.0977813	
0.139778	1.64139	0.0765792	
0.183051	1.54959	0.0852395	
0.251246	1.64009	0.0941681	
0.557152	0.426854	0.0861771	
0.504624	0.33602	0.0913836	
0.765603	1.9842	0.054675	
0.670608	1.95976	0.0710842	
0.740294	1.86355	0.0593719	
0.78356	0.993027	0.0512009	
0.684159	0.9761	0.0689483	
0.898342	1.02829	0.0262193	
0.821802	1.10178	0.0434117	
0.767271	1.47852	0.0543573	
0.667797	1.45795	0.0715185	
0.745121	1.36405	0.0584941	
0.0834067	1.52225	0.0606037	
0.401277	1.44876	0.0979544	
0.334105	1.3885	0.0986788	
0.457769	1.37739	0.0949959	
0.560207	1.44097	0.0858383	
0.547522	1.32676	0.0872197	
0.553029	0.694232	0.0866282	
0.475623	0.632564	0.0937385	
0.516706	0.525086	0.0902916	
0.43262	0.723664	0.0965089	
0.374472	0.665722	0.0986841	
0.443858	0.525872	0.0958708	
0.479687	2.69153	0.0934316	
0.517187	2.58646	0.0902468	
0.587059	2.65924	0.0826951	
0.289973	1.11454	0.0970687	
0.323965	1.04751	0.0984613	
0.374494	1.14367	0.0986838	
0.250312	0.975492	0.0940799	
0.211765	1.04824	0.0896391	
0.625694	1.04926	0.0776638	
0.313838	2.12371	0.0981545	
0.392693	2.12774	0.0982505	
0.331549	2.21152	0.0986323	
0.264285	2.35842	0.0953077	
0.373613	2.43122	0.098698	
0.424528	2.53358	0.0969298	
0.303507	0.416561	0.0977479	
0.337007	2.32213	0.0987248	
0.250012	2.25173	0.0940514	
0.721192	1.07963	0.0627614	
0.685152	2.04683	0.0687892	
0.578763	2.8408	0.0836976	
0.671387	2.81772	0.0709633	
0.757769	2.80292	0.0561539	
0.797284	2.73615	0.0484668	
0.843808	2.83493	0.0386882	
0.67938	1.54895	0.0697095	
0.226632	1.7318	0.0915416	
0.55724	1.94264	0.0861673	
0.476642	1.872	0.0936623	
0.564294	1.82803	0.085379	
0.271004	0.805418	0.0958294	
0.156859	0.831618	0.0803145	
0.377101	1.88734	0.098638	
0.453366	1.95724	0.0952828	
0.345735	1.9659	0.0988199	
0.479042	2.4877	0.0934808	
0.57007	2.4906	0.0847181	
0.734186	0.290567	0.0604703	
0.688097	0.359311	0.0683147	
0.904241	0.266466	0.0248047	
0.0733359	1.30698	0.0569944	
0.174786	1.26889	0.0837842	
0.496978	1.62702	0.0920414	
0.41926	1.54257	0.0971861	
0.511315	1.53601	0.0907868	
0.205077	1.83257	0.0887018	
0.141477	1.74929	0.0769706	
0.604759	2.03797	0.0804635	
0.636693	1.8901	0.0761242	
0.649469	0.900125	0.0742773	
0.430839	2.21432	0.0966044	
0.515275	2.22727	0.0904242	
0.443562	2.32646	0.0958883	
0.553355	2.3113	0.0865928	
0.498398	2.40493	0.0919212	
0.641001	1.3654	0.0755084	
0.077204	0.349904	0.0584147	
0.733911	0.192033	0.0605194	
0.125946	1.83916	0.0732173	
0.157494	1.93554	0.0804449	
0.100094	2.03207	0.0660102	
0.0585703	1.97125	0.0511285	
0.268996	1.9017	0.0956782	
0.245828	1.98659	0.0936441	
0.182971	2.04705	0.0852258	
0.445192	0.248766	0.0957909	
0.585642	2.74598	0.0828682	
0.674932	2.63928	0.0704102	
0.68816	2.72412	0.0683046	
0.645956	0.437378	0.0747914	
0.737997	0.473059	0.0597866	
0.325934	1.72433	0.0985105	
0.363734	0.76827	0.0988144	
0.525809	3	0.0894266	
0.428785	3	0.0967125	
0.479409	2.8876	0.0934528	
0.638842	1.15552	0.075818	
0.694033	1.26349	0.0673486	
0.613721	1.26334	0.0792862	
0.539673	1.20284	0.0880406	
0.53858	1.07922	0.0881529	
0.468883	1.13066	0.0942307	
0.423255	1.04382	0.0969931	
0.714861	2.56496	0.0638552	
0.621601	2.56832	0.0782247	
0.667352	2.4713	0.071587	
0.766543	2.49812	0.0544961	
0.283874	1.29348	0.0967073	
0.231036	1.36682	0.0920586	
0.782419	2.30949	0.0514253	
0.664007	2.29909	0.0720995	
0.723609	2.20455	0.0623399	
0.240258	3	0.093074	
0.240258	0	0.093074	
0.158942	0.0824758	0.0807405	
0.146338	0	0.0780658	
0.272282	1.20298	0.0959237	
0.367335	1.23647	0.0987812	
0.780815	1.76984	0.0517397	
0.852716	1.83002	0.0367259	
0.697159	1.75015	0.0668346	
0.764672	0.0966575	0.054852	
0.832684	0.174085	0.041098	
0.502473	0.751611	0.0915713	
0.43299	0.819312	0.0964889	
0.78131	1.26614	0.0516428	
0.851322	1.31824	0.037035	
0.0628478	1.6982	0.0529064	
0.916113	2.10422	0.0219186	
0.875408	2.00428	0.0315961	
0.898707	2.23777	0.026132	
0.479353	2.12979	0.0934571	
0.424623	2.0396	0.096925	
0.517849	2.04005	0.0901849	
0.0621897	0.6396	0.0526373	
0.112451	0.57744	0.0696163	
0.916157	1.65564	0.0219076	
0.90352	1.56095	0.0249783	
0.893945	1.46773	0.0272651	
0.754446	2.89804	0.0567744	
0.368349	2.85485	0.0987699	
0.26683	2.85876	0.0955105	
0.187519	2.82541	0.0859899	
0.581565	0.155411	0.083362	
0.368196	0.179772	0.0987717	
0.293168	0.899637	0.0972442	
0.360474	0.863239	0.0988353	
0.353606	0.964913	0.0988506	
0.362913	1.62731	0.0988205	
0.428809	1.70948	0.0967112	
0.0704584	2.26431	0.0559086	
0.934421	2.80973	0.0173642	
0.920316	0.161512	0.0208841	
0.377539	1.31555	0.0986297	
0.213278	0.895945	0.089844	
0.469666	0.435746	0.0941746	
0.280146	0.0921181	0.0964693	
0.383753	0.0798727	0.0984964	
0.334763	0	0.0986899	
0.330408	1.48034	0.0986098	
0.82823	2.41212	0.0420501	
0.745302	2.41228	0.058461	
0.598787	2.39374	0.0812304	
0.685052	2.37498	0.0688052	
0.743876	2.10039	0.0587214	
0.653443	2.13404	0.07369	
0.914825	1.14158	0.0222343	
0.653418	1.8189	0.0736937	
0.613661	1.74533	0.0792941	
0.634801	1.64919	0.0763924	
0.534988	1.71693	0.0885181	
0.062831	0.10963	0.0528995	
0.461099	1.28051	0.0947727	
0.246346	1.45908	0.0936956	
0.272264	1.5513	0.0959224	
0.146338	3	0.0780658	
0.173118	2.92044	0.0834797	
0.506844	2.7842	0.0911878	
0.615997	2.2229	0.0789821	
0.232116	2.15243	0.0921822	
0.908267	0.555294	0.0238318	
0.136605	2.12145	0.0758358	
0.749716	1.17661	0.0576508	
0.740627	1.59115	0.0593116	
0.749172	1.67891	0.057751	
0.920288	2.54966	0.0208911	
0.412034	0.371994	0.0975149	
0.361208	0.306156	0.0988313	
0.302401	0.266241	0.0976986	
0.277797	0.188727	0.0963125	
0.82659	1.62812	0.0423989	
0.565888	2.13537	0.0851979	
0.570926	2.92805	0.0846189	
0.918859	2.44518	0.0212433	
0.742482	0.585316	0.058975	
0.816702	0.54325	0.0444811	
0.396832	1.80036	0.0981152	
0.12097	0.494992	0.0719282	
0.158453	1.45061	0.080641	
0.145235	1.35713	0.0778204	
0.2856	2.621	0.0968131	
0.201858	2.64726	0.0882323	
0.199385	2.73808	0.0878631	
0.272266	2.69286	0.0959225	
0.805797	0.245545	0.0467363	
0.0654394	0.429541	0.0539509	
0.195687	0.586063	0.0872977	
0.1233	2.6934	0.0725372	
0.119907	2.78165	0.071647	
0.473323	1.46691	0.0939088	
0.483023	1.7875	0.0931739	
0.846748	1.20957	0.0380437	
0.332257	2.04492	0.0986458	
0.184335	2.37879	0.0854577	
0.170248	2.29398	0.0829473	
0.890373	2.73609	0.0281096	
0.917914	2.64395	0.021476	
0.153723	2.20802	0.0796613	
0.58531	0.862375	0.0829087	
0.663778	0.814113	0.0721345	
0.83917	2.66598	0.0396984	
0.824773	2.58214	0.0427843	
0.386125	2.27204	0.0984373	
0.0764315	2.36077	0.0581346	
0.13961	2.43563	0.0765402	
0.140467	2.59089	0.0767383	
0.0953645	2.5127	0.0645443	
0.178975	2.50651	0.0845329	
0.218456	1.13185	0.0905257	
0.168814	1.18911	0.0826771	
0.145694	0.64648	0.0779228	
0.125873	0.723552	0.0731989	
0.782555	0.739442	0.0513984	
0.846382	1.72149	0.0381242	
0.935992	1.84899	0.0169675	
0.925829	1.758	0.0195172	
0.911043	1.92483	0.0231575	
0.925227	0.768732	0.019667	
0.929615	1.35916	0.018572	
0.925915	1.25328	0.0194959	
0.0683248	0.808881	0.0550865	
0.0768045	2.86879	0.0582701	
0.840617	0.457856	0.039384	
0.0595227	2.65132	0.0515304	
0.0546593	2.45162	0.0494399	
0.0636216	2.18171	0.0532208	
0.925525	0.441955	0.0195928	
0.899535	2.34356	0.0259341	
0.824766	2.15112	0.0427857	
0.819255	2.06478	0.043947	
0.0638698	0.90396	0.0533212	
0.0536369	2.572	0.0489879	
0.758598	2.64917	0.0559985	
0.423895	2.61619	0.0969614	
0.824277	1.91646	0.0428892	
0.055999	2.10147	0.0500254	
0.85157	2.50101	0.0369799	
0.840342	0.932836	0.0394439	
0.863499	0.85487	0.0343119	
0.85797	0.71544	0.0355551	
0.81938	0.641082	0.0439207	
0.298669	1.81468	0.0975243	
0.817758	1.54403	0.0442604	
0.921404	0.666558	0.0206152	
0.816967	0.315387	0.0444257	
0.776051	0.385517	0.052668	
0.869141	0.36877	0.0330318	
0.8076	2.22565	0.0463664	
0.129616	1.04868	0.0741406	
0.257338	2.06887	0.0947217	
0.0603901	0.259258	0.0518934	
0.591105	0.511064	0.082196	
0.342823	1.54881	0.0987953	
0.448477	1.20249	0.0955906	
0.842538	1.40279	0.0389657	
0.942622	0.351257	0.0152833	
0.593421	1.54865	0.0819074	
0.574116	0.0753923	0.0842469	
0.488362	0.998961	0.0927511	
0.80813	3	0.0214922	
0.619274	3	0.0346576	
0.714772	3	0.028991	
0.526956	3	0.0382091	
0.430971	3	0.0398934	
0.341032	3	0.0391307	
0.156574	3	0.0251859	
0.0705496	3	0.0128656	
0.247975	3	0.0342221	
0.903362	3	0.0118474	
1	-0.0996145	0	
0.932118	-0.0742419	-0.00058191	
0.646881	-0.0888958	-0.0077854	
0.849127	-0.083391	-0.00187707	
0.666852	-2.90323	-0.00704536	
0.712703	-3	-0.00546266	
0.616863	-3	-0.00894844	
0	-2.51464	0	
0	-2.41774	0	
0.0851735	-2.50936	-0.0280602	
0	-0.0977885	0	
0.0716469	-1.10377	-0.0271953	
0	-1.16176	0	
0	-1.06466	0	
0	-0.582259	0	
0	-0.485357	0	
0.0651724	-0.53543	-0.0266389	
0.9026	-3	-0.00096625	
0.933657	-2.92689	-0.000564121	
1	-3	0	
0.806651	-3	-0.00280133	
0.853043	-2.91352	-0.00180083	
0.0774438	-1.70159	-0.027611	
0	-1.74108	0	
0	-1.6439	0	
0	-2.12931	0	
0.0684712	-2.19822	-0.0269354	
0	-2.22547	0	
0	-3	0	
0	-2.90221	0	
0.0690153	-3	-0.0269816	
0	-2.03238	0	
0	-1.93534	0	
0.0835	-1.98304	-0.0279723	
0.0710913	-1.19173	-0.0271515	
0	-1.25892	0	
0.0741366	-2.65083	-0.0273827	
0	-2.70861	0	
0	-2.61168	0	
0.729302	-1.82678	-0.00493324	
0.759612	-1.72427	-0.00403056	
0.835499	-1.82917	-0.00215421	
0	-0.870688	0	
0.0547954	-0.908432	-0.0255043	
0	-0.967619	0	
0.913659	-1.11196	-0.000812557	
0.922255	-0.989125	-0.000701152	
1	-1.09996	0	
1	-2.3999	0	
0.916707	-2.41971	-0.000772253	
0.909337	-2.31465	-0.000871235	
0.911638	-2.21577	-0.000839775	
0.932772	-2.10721	-0.00057432	
1	-2.2004	0	
0.329089	-2.44258	-0.021152	
0.293262	-2.3675	-0.0229311	
0.425008	-2.33923	-0.017016	
0.543194	-1.76798	-0.0119985	
0.570802	-1.8632	-0.0108301	
0.469748	-1.87483	-0.0151527	
0.530378	-0.653016	-0.0125473	
0.575577	-0.758044	-0.0106305	
0.480625	-0.766031	-0.0146881	
0.396179	-1.99123	-0.0181528	
0.373262	-1.88753	-0.019107	
0.428079	-0.310893	-0.0168915	
0.287172	-0.344453	-0.0232374	
0.332439	-0.242574	-0.0209896	
0.171121	-1.69669	-0.0282912	
0.136039	-1.6312	-0.0289555	
0.233756	-1.63187	-0.025854	
0.248654	-1.19295	-0.0251483	
0.37468	-1.18473	-0.0190455	
0.32272	-1.26933	-0.0214632	
0.359854	-2.66587	-0.0197028	
0.335248	-2.56179	-0.0208542	
0.437381	-2.57151	-0.0165109	
0.641531	-1.53677	-0.00798841	
0.544221	-1.48482	-0.0119547	
0.631698	-1.45288	-0.00836653	
0.554583	-1.39795	-0.0115138	
0.670161	-1.38508	-0.00692553	
0.310898	-1.92331	-0.0220478	
0.459117	-0.574964	-0.0156035	
0.544571	-0.525881	-0.0119397	
0.734895	-1.23872	-0.00476037	
0.836626	-1.26761	-0.00213059	
0.780453	-1.36518	-0.00345965	
0.233207	-2.28892	-0.0258795	
0.20059	-2.36072	-0.0272841	
0.108363	-2.29756	-0.0288365	
0.550747	-0.339072	-0.0116766	
0.50208	-0.410623	-0.0137658	
0.656511	-1.73845	-0.00742498	
0.59469	-2.54158	-0.00984147	
0.641318	-2.44043	-0.00799654	
0.67183	-2.56287	-0.00686543	
0.315827	-1.56119	-0.0218031	
0.285958	-1.45337	-0.0232984	
0.371851	-1.4733	-0.0191685	
0.527305	-2.48865	-0.0126793	
0.156989	-0.388659	-0.0286442	
0.175474	-0.294702	-0.0281634	
0.491257	-1.98343	-0.0142317	
0.486468	-2.07087	-0.0144375	
0.396261	-0.912279	-0.0181495	
0.396805	-0.817099	-0.018128	
0.483177	-0.877938	-0.0145787	
0.488695	-0.975876	-0.0143418	
0.279482	-0.505544	-0.0236238	
0.279266	-0.582947	-0.0236347	
0.175748	-0.536572	-0.0281551	
0.66335	-1.63947	-0.00717302	
0.439162	-2.44898	-0.0164374	
0.200548	-0.0844322	-0.0272857	
0.10878	-0.0804473	-0.028844	
0.571209	-0.153286	-0.010813	
0.648808	-0.19111	-0.00771278	
0.606486	-0.612338	-0.00936311	
0.633724	-1.81796	-0.00828809	
0.666428	-1.91142	-0.00706077	
0.698634	-1.04385	-0.00593005	
0.697892	-1.12972	-0.00595515	
0.595117	-1.05066	-0.00982402	
1	-2.70001	0	
0.895927	-2.66342	-0.00106468	
1	-2.59996	0	
0.499057	-2.16008	-0.013896	
0.574197	-2.13205	-0.0106881	
0.545524	-2.25778	-0.0118991	
0.681474	-2.25351	-0.0065223	
0.624393	-2.33122	-0.00865137	
0.732253	-2.35847	-0.00484168	
0.591548	-2.65225	-0.00997004	
0.694758	-2.6811	-0.00606171	
0.596777	-2.83522	-0.00975634	
0.712263	-2.80146	-0.00547704	
0.18156	-1.98912	-0.0279714	
0.122374	-2.06371	-0.0289858	
0.419688	-1.38424	-0.01723	
0.459639	-1.46468	-0.0155814	
0.481742	-1.5678	-0.0146403	
0.399382	-1.56813	-0.0180266	
0.488673	-1.34687	-0.0143428	
0.739178	-0.549201	-0.00462988	
0.784081	-0.458185	-0.00336452	
0.84567	-0.520259	-0.00194564	
0.762356	-0.377506	-0.00395304	
0.875472	-0.399629	-0.00139332	
0.6932	-0.458712	-0.006115	
0.205707	-2.45342	-0.0270801	
0.179306	-2.55348	-0.0280443	
0.154059	-3	-0.0287042	
0.199698	-2.92493	-0.0273189	
0.24575	-3	-0.025288	
0.40971	-1.28715	-0.0176256	
0.350682	-1.37154	-0.0201239	
0.483352	-1.23715	-0.0145712	
0.2423	-0.246174	-0.0254528	
0.150872	-0.174439	-0.0287638	
0.267256	-0.157155	-0.0242351	
0.421313	-1.66149	-0.0171648	
0.50774	-1.66577	-0.0135218	
0.448391	-1.75411	-0.016054	
0.348551	-1.74045	-0.0202233	
0.560531	-1.94173	-0.011262	
0.632693	-1.99499	-0.00832795	
0.567821	-2.03981	-0.0109551	
0.225783	-1.2878	-0.0262184	
0.133712	-1.2484	-0.0289714	
0	-1.83824	0	
0.0632891	-1.81887	-0.0264567	
0.560618	-0.841036	-0.0112583	
0.631765	-0.895256	-0.00836393	
0.567003	-0.941868	-0.0109894	
0.666574	-0.819376	-0.00705545	
0.0789189	-0.99675	-0.0277055	
0.446011	-2.2165	-0.0161533	
0.629102	-1.17263	-0.00846737	
0.646978	-0.543418	-0.00778174	
0.691921	-0.649468	-0.00615888	
0.789051	-0.626869	-0.00323626	
0.748406	-0.738657	-0.00435443	
0.841539	-2.12616	-0.00202912	
0.801951	-2.25019	-0.00291452	
0.73607	-2.16201	-0.00472439	
0.384844	-0.722163	-0.0186139	
0.297772	-0.66817	-0.0227045	
0.374865	-0.627772	-0.0190375	
0.363783	-1.0837	-0.0195256	
0.446701	-1.12542	-0.0161246	
0.0784349	-0.676102	-0.027675	
0.195968	-0.638332	-0.0274619	
0.151835	-0.736822	-0.0287464	
0.540767	-0.0757461	-0.0121022	
0.427345	-0.0681982	-0.0169213	
0	-1.54708	0	
0.0670269	-1.59338	-0.026809	
0.146016	-1.77899	-0.0288427	
0.206154	-1.82994	-0.027062	
0.124693	-1.89644	-0.0289918	
0.250579	-1.73418	-0.0250551	
1	-1.6998	0	
0.901407	-1.6553	-0.000983528	
1	-1.59961	0	
1	-1.40039	0	
1	-1.5	0	
0.92237	-1.45139	-0.000699714	
0.601818	-0.441085	-0.00955156	
0.663311	-0.358456	-0.00717445	
0.526886	-0.239381	-0.0126973	
0.114347	-2.9077	-0.0289252	
0.19162	-0.981279	-0.0276231	
0.127596	-0.904593	-0.0289927	
0.0647152	-2.74325	-0.0265955	
0	-2.80553	0	
0.109387	-2.81126	-0.0288545	
0.308953	-0.074656	-0.0221447	
0.760806	-2.9003	-0.00399674	
0.824282	-2.81816	-0.00239609	
0.383726	-2.50555	-0.0186606	
0	-2.32061	0	
0.897669	-1.35787	-0.00103856	
0.817657	-1.56281	-0.00254476	
0.734489	-1.48319	-0.00477282	
0.83495	-1.45433	-0.00216574	
0.282224	-1.99662	-0.0234861	
0.226188	-1.9132	-0.0262002	
0.411407	-2.10572	-0.0175589	
0.318876	-2.07471	-0.0216524	
0.221553	-2.06969	-0.0264071	
0	-0.774529	0	
0.0715109	-0.807551	-0.0271846	
0.33205	-2.29853	-0.0210085	
0.304755	-2.22716	-0.0223544	
0.382288	-2.24962	-0.0187209	
0.357971	-2.16494	-0.0197883	
1	-2.8002	0	
1	-2.90039	0	
0.9182	-2.84089	-0.000752832	
1	-0.199798	0	
0.913228	-0.168881	-0.000818326	
0.817838	-0.161062	-0.00254065	
0.7439	-0.104816	-0.00448795	
0.478161	-0.148682	-0.0147936	
0.567241	-1.58206	-0.0109794	
0.486165	-2.88576	-0.0144505	
0.529805	-2.76115	-0.0125719	
0.201154	-2.83154	-0.027262	
0.863872	-0.787528	-0.00159789	
0.918157	-0.873168	-0.000753395	
0.829498	-0.906852	-0.00228206	
0.2991	-0.943887	-0.0226378	
0.309817	-0.854512	-0.0221017	
0.217867	-0.888203	-0.0265687	
0.397536	-1.01029	-0.0180991	
0.287749	-1.02685	-0.0232083	
0.299023	-1.118	-0.0226417	
0.218653	-1.08571	-0.0265345	
0.372508	-0.14641	-0.0191398	
0.288495	-2.82719	-0.0231708	
0.346067	-2.76665	-0.0203397	