<VTKFile type="UnstructuredGrid" version="0.1" byte_order="LittleEndian">
	<UnstructuredGrid>
		<Piece NumberOfPoints="1119" NumberOfCells="56">
			<CellData Scalars="scalars">
				<DataArray type="Float64" Name="Doublet Strengths" NumberOfComponents="1" Format="ascii">
-173.855	
-126.42	
-131.624	
-52.1913	
-173.306	
-41.3677	
-155.714	
-87.4835	
-108.269	
-171.918	
-130.943	
-71.9437	
-93.8028	
-134.937	
-101.503	
-167.9	
-151.95	
-113.621	
-163.736	
-98.1725	
-160.686	
-146.307	
-118.996	
-27.2262	
-154.481	
-79.1623	
-63.1624	
-2.58827	
-18.9771	
-10.5646	
-15.1972	
-32.1441	
-40.9508	
-30.6265	
-23.5828	
-7.40987	
-4.20471	
-13.63	
-31.5517	
-37.8981	
-12.2475	
-28.63	
-40.965	
-35.1858	
-30.2622	
-42.324	
-42.4797	
-33.9714	
-9.08355	
-22.153	
-17.437	
-5.37626	
-26.2617	
-25.1854	
-20.3863	
-39.8197	
				</DataArray>
				<DataArray type="Float64" Name="Velocity Potential" NumberOfComponents="1" Format="ascii">
194.775	
147.34	
152.544	
73.1102	
194.226	
62.2874	
176.632	
108.403	
129.19	
192.837	
151.861	
92.8628	
114.721	
155.855	
122.424	
188.821	
172.869	
134.542	
184.654	
119.093	
181.605	
167.227	
139.915	
48.1462	
175.4	
100.081	
84.0816	
-14.9269	
1.46149	
-6.95061	
-2.31841	
14.6292	
23.4355	
13.1116	
6.06702	
-10.1053	
-13.3105	
-3.8855	
14.0361	
20.3826	
-5.2679	
11.1143	
23.4491	
17.6708	
12.7473	
24.8082	
24.9638	
16.4565	
-8.4316	
4.6374	
-0.0786458	
-12.1389	
8.74608	
7.66959	
2.87076	
22.3038	
				</DataArray>
			</CellData>
			<Points>
				<DataArray type="Float64" Name="Position" NumberOfComponents="3" Format="ascii">
0.185574	0.65	-0.103212	
0.175094	0.65	-0.126672	
0.384703	0.65	-0.145538	
-0.0988266	0.65	-0.0427607	
0.0123307	0.65	-0.105581	
0.0315045	0.65	-0.0704635	
-0.205241	0.65	-0.0201418	
-0.121764	0.65	-0.0807148	
-0.3	0.65	0	
-0.225247	0.65	-0.051558	
-0.104344	0.65	0.00124161	
0.0282718	0.65	-0.0305836	
0.185542	0.65	-0.077517	
-0.21074	0.65	0.016696	
0.216077	3.84509	-0.131005	
0.217845	4.07283	-0.131184	
0.384703	3.95159	-0.145538	
0.19919	6.09983	-0.129259	
0.384703	6.22715	-0.145538	
-0.192705	0.776138	-0.062269	
0.384703	5.72311	-0.145538	
0.235247	5.85688	-0.132922	
0.384703	5.97303	-0.145538	
0.384703	3.69729	-0.145538	
0.384703	4.19841	-0.145538	
0.225709	6.35083	-0.131976	
0.0714003	6.24035	-0.114074	
0.0765305	6.43448	-0.114761	
-0.3	0.748337	0	
-0.0586987	1.79006	-0.0936048	
0.086337	1.7176	-0.116053	
-0.0329174	1.59504	-0.098214	
0.384703	1.41394	-0.145538	
0.384703	1.1601	-0.145538	
0.21177	1.27423	-0.130565	
-0.0640521	4.1875	-0.0926049	
-0.125342	4.29795	-0.0799006	
0.0185245	4.33164	-0.106526	
0.384703	3.18798	-0.145538	
0.384703	2.93326	-0.145538	
-0.0453445	0.797365	-0.0960334	
0.237595	1.05538	-0.133152	
0.384703	0.906433	-0.145538	
-0.225247	7.5	-0.051558	
-0.185053	7.37533	-0.0645361	
-0.3	7.40166	0	
0.185957	6.60336	-0.127853	
0.209729	6.85205	-0.130355	
0.384703	6.9899	-0.145538	
0.384703	6.73606	-0.145538	
0.384703	7.5	-0.145538	
0.215441	7.31789	-0.13094	
0.175094	7.5	-0.126672	
0.0493827	6.73996	-0.11104	
-0.121764	7.5	-0.0807148	
0.20373	2.32863	-0.129734	
0.384703	2.42689	-0.145538	
0.384703	2.17697	-0.145538	
-0.3	6.90465	0	
-0.189086	6.86049	-0.0633512	
-0.3	6.80506	0	
-0.3	4.1236	0	
-0.18331	4.08268	-0.0650412	
-0.3	4.0264	0	
-0.3	7.5	0	
0.0605663	3.95178	-0.112599	
0.0324606	2.38782	-0.108604	
0.0833407	2.5266	-0.115661	
0.384703	7.24357	-0.145538	
0.188967	7.09573	-0.128176	
0.229083	3.13472	-0.132313	
0.384703	6.48179	-0.145538	
0.234901	1.77545	-0.132888	
0.384703	1.92285	-0.145538	
0.384703	1.66821	-0.145538	
-0.0298474	1.41683	-0.0987414	
-0.141736	1.48747	-0.0760333	
0.0527822	3.17005	-0.111518	
0.176854	3.35087	-0.126865	
0.0611044	7.37368	-0.112673	
0.0123307	7.5	-0.105581	
-0.14703	0.996891	-0.0747338	
-0.0661351	1.12444	-0.0922117	
-0.0292747	0.962189	-0.0988393	
0.131297	0.901364	-0.12166	
-0.0492135	3.79288	-0.0953392	
-0.171021	3.74501	-0.0684914	
-0.157794	3.86658	-0.0720077	
-0.0451913	5.64404	-0.0960608	
-0.153315	5.57255	-0.0731562	
-0.178271	5.68312	-0.0664789	
-0.0307352	3.34108	-0.0985893	
-0.148054	3.27795	-0.0744795	
-0.192213	3.37017	-0.0624172	
-0.166282	1.36652	-0.0697732	
-0.160751	6.01343	-0.071238	
-0.0652861	5.9115	-0.0923723	
-0.195751	5.87911	-0.0613435	
-0.106593	5.77726	-0.0840575	
-0.0105756	5.00381	-0.101957	
-0.13647	5.06477	-0.0773006	
-0.0412015	5.15851	-0.0967686	
-0.3	3.72799	0	
-0.3	3.82782	0	
-0.242781	3.83964	-0.0448351	
-0.3	5.71414	0	
-0.24178	5.59691	-0.0452426	
-0.3	5.61437	0	
-0.238279	0.987316	-0.0466429	
-0.221478	0.89287	-0.0529029	
-0.3	0.947393	0	
-0.205591	5.14824	-0.0582541	
-0.239964	4.85202	-0.0459733	
-0.201535	4.76351	-0.0595466	
-0.3	4.81936	0	
-0.3	3.43002	0	
-0.3	3.33064	0	
-0.235856	1.41756	-0.0475909	
-0.3	6.70578	0	
-0.19812	6.74732	-0.0606138	
-0.3	2.63472	0	
-0.19374	2.58729	-0.0619559	
-0.3	2.53563	0	
-0.21526	2.48554	-0.0550553	
-0.3	2.14021	0	
-0.3	2.23941	0	
-0.208041	2.18036	-0.0574596	
-0.199143	2.28343	-0.0602961	
-0.206634	6.96429	-0.0579173	
-0.3	7.00362	0	
-0.3	3.92683	0	
-0.231916	3.96507	-0.049098	
-0.3	4.22317	0	
-0.241282	4.17008	-0.0454442	
-0.3	2.43586	0	
-0.196208	2.38876	-0.0612033	
-0.3	2.33843	0	
-0.3	7.20261	0	
-0.249197	7.30102	-0.0421426	
-0.182446	7.22897	-0.06529	
-0.3	7.30205	0	
-0.0944051	2.88098	-0.0866231	
0.0493117	2.86935	-0.11103	
-0.0847742	2.76692	-0.0885816	
-0.0722729	4.4367	-0.0910387	
0.123344	4.48731	-0.120704	
-0.081343	3.20311	-0.0892654	
0.0868806	1.09234	-0.116124	
-0.3	3.52942	0	
-0.3	3.62893	0	
-0.208179	3.55679	-0.0574144	
-0.3	2.04043	0	
-0.20891	1.98106	-0.0571753	
-0.3	1.94144	0	
-0.3	2.83369	0	
-0.204761	2.81274	-0.0585209	
-0.3	2.73423	0	
-0.3	5.91059	0	
-0.3	5.81157	0	
0.00375737	5.78771	-0.104248	
-0.127132	3.47267	-0.0794894	
-0.0934127	1.26636	-0.0868277	
0.0546903	1.28585	-0.111785	
0.101086	1.9262	-0.117949	
0.0778597	3.74175	-0.114938	
-0.0710256	3.62465	-0.0912788	
0.170918	2.1218	-0.126212	
0.000265651	2.08101	-0.103698	
0.0466111	2.24222	-0.110647	
-0.091	2.20038	-0.0873223	
-0.081648	2.33251	-0.0892049	
0.0592658	6.92511	-0.11242	
-0.0705394	3.92285	-0.0913722	
-0.156502	7.07878	-0.072341	
-0.0833292	6.95613	-0.0888704	
-0.201558	4.37927	-0.0595395	
-0.229678	4.27178	-0.0499357	
-0.0471171	4.87621	-0.0957163	
-0.143424	4.96041	-0.0756218	
-0.233587	4.9391	-0.0484641	
-0.15046	4.85028	-0.0738777	
-0.231333	5.03804	-0.0493176	
-0.203264	3.17839	-0.0589991	
-0.238541	3.28084	-0.0465392	
-0.206068	1.08751	-0.0581003	
-0.130351	0.881099	-0.0787431	
-0.167229	4.19332	-0.0695191	
-0.14977	3.97949	-0.0740508	
-0.0712284	6.8203	-0.0912398	
-0.0853854	6.69502	-0.0884591	
-0.0603721	4.7407	-0.0932939	
-0.0547162	4.05116	-0.0943387	
0.0694547	4.16119	-0.113812	
-0.0614112	2.62427	-0.0931001	
0.0531807	2.72057	-0.111574	
-0.172404	6.62206	-0.0681123	
-0.019057	6.57251	-0.100562	
0.0435885	7.22597	-0.110216	
-0.00270771	7.07445	-0.103225	
0.208278	4.2915	-0.130205	
0.384703	4.45271	-0.145538	
-0.0898376	2.48603	-0.0875593	
-0.0146285	2.99867	-0.101294	
-0.17094	2.95762	-0.0685135	
0.0158889	3.4791	-0.106126	
0.0860686	5.91571	-0.116018	
-0.3	0.847951	0	
-0.3	1.04652	0	
-0.3	1.14638	0	
-0.3	1.24535	0	
-0.196833	1.18723	-0.0610114	
-0.3	5.51528	0	
-0.217162	5.47736	-0.0544051	
-0.3	3.13178	0	
-0.215597	3.07375	-0.0549406	
-0.3	3.03247	0	
-0.3	4.62058	0	
-0.3	4.71998	0	
-0.18876	4.66618	-0.0634477	
-0.3	4.32218	0	
-0.3	4.91877	0	
-0.3	5.01822	0	
-0.3	5.11753	0	
-0.3	1.5437	0	
-0.238766	1.49683	-0.0464501	
-0.3	1.44422	0	
-0.3	5.31631	0	
-0.3	5.41577	0	
-0.192623	5.36747	-0.0622936	
0.384703	2.67893	-0.145538	
0.220156	2.81364	-0.131418	
-0.196889	1.59133	-0.0609942	
-0.3	1.64304	0	
0.126014	5.26124	-0.121027	
0.15234	5.08718	-0.12412	
-0.080511	1.96099	-0.0894301	
-0.172146	1.85589	-0.0681832	
0.0373578	5.41295	-0.109319	
0.216659	5.40663	-0.131064	
-0.061219	5.3164	-0.093136	
-0.167419	5.24283	-0.069468	
0.162626	2.99223	-0.125288	
0.107817	5.71577	-0.118795	
-0.00665191	6.06794	-0.102592	
0.384703	5.47107	-0.145538	
0.240666	5.62192	-0.133451	
0.0753127	5.54937	-0.114599	
0.10729	4.86903	-0.118729	
-0.3	5.21707	0	
-0.211688	4.57538	-0.056257	
-0.3	4.52107	0	
-0.177717	4.49411	-0.0666348	
-0.190757	6.25118	-0.0628538	
-0.238808	6.16539	-0.0464335	
-0.3	6.20856	0	
-0.3	6.10957	0	
-0.166435	6.41928	-0.0697322	
-0.206856	6.34453	-0.0578451	
-0.3	6.40745	0	
-0.3	6.30829	0	
-0.3	3.23123	0	
-0.064705	4.58068	-0.0924819	
0.0618163	4.66709	-0.112771	
0.221231	4.69136	-0.131527	
-0.216478	1.28322	-0.0546398	
-0.3	1.34494	0	
-0.191912	2.69413	-0.0625078	
-0.21075	3.65629	-0.0565684	
-0.218456	5.77412	-0.053959	
-0.241066	7.10664	-0.045531	
-0.3	7.10348	0	
-0.15443	2.08054	-0.0728723	
-0.0605813	6.32809	-0.0932549	
-0.0584241	6.20154	-0.0936556	
-0.233629	6.08139	-0.0484479	
-0.141582	6.1366	-0.0760706	
-0.0865971	7.17892	-0.0882154	
-0.0736657	7.33435	-0.0907696	
0.384703	4.96202	-0.145538	
0.384703	4.70741	-0.145538	
-0.3	6.50696	0	
-0.3	6.6063	0	
-0.242574	6.55412	-0.0449198	
-0.0869731	5.47539	-0.0881396	
-0.3	4.42201	0	
-0.153609	6.52013	-0.0730814	
-0.239692	6.4742	-0.0460819	
-0.0578052	6.44878	-0.0937701	
-0.103516	3.08429	-0.0847147	
-0.3	1.74255	0	
-0.200268	1.71719	-0.0599447	
-0.243644	5.28377	-0.044481	
-0.3	6.00979	0	
-0.249007	2.99688	-0.0422245	
-0.3	2.93293	0	
0.384703	3.44259	-0.145538	
-0.232679	3.46299	-0.0488097	
-0.248464	4.45499	-0.0424572	
0.247906	2.52438	-0.13415	
0.186388	2.65987	-0.127899	
-0.24559	1.90261	-0.0436731	
-0.3	1.84171	0	
0.152124	1.50805	-0.124096	
-0.247878	6.66749	-0.0427074	
0.0877178	0.761044	-0.116233	
-0.246232	1.78678	-0.0434039	
-0.247042	5.95341	-0.0430623	
0.384703	5.21674	-0.145538	
0.262244	0.77874	-0.135505	
-0.251645	2.88233	-0.0410756	
-0.123811	1.66877	-0.0802502	
0.179263	3.59818	-0.127128	
-0.240046	2.08403	-0.0459408	
0.0471455	3.61203	-0.110723	
-0.179069	0.773148	0.0135466	
-0.0424709	0.802279	-0.0123981	
-0.161028	7.36588	0.011114	
-0.21074	7.5	0.016696	
-0.104344	7.5	0.00124161	
0.234103	2.69041	-0.0933128	
-0.168311	4.08093	0.0121445	
0.223973	6.84309	-0.0899753	
0.24217	6.6168	-0.0959867	
0.21924	4.0833	-0.0884235	
0.228197	5.60918	-0.0913644	
0.0792445	4.53229	-0.0449677	
0.211591	4.72038	-0.0859256	
0.0261202	4.68466	-0.0299977	
0.00989363	7.10409	-0.02564	
-0.0299376	6.95354	-0.0154429	
0.132746	7.00002	-0.0609708	
0.232433	5.3968	-0.0927612	
-0.0201566	4.3642	-0.0178761	
-0.127668	4.28312	0.00566289	
-0.0597737	4.18973	-0.00833868	
0.166294	3.65716	-0.0714049	
0.225952	3.50318	-0.0906257	
0.0206152	3.05763	-0.0285071	
0.148003	2.90812	-0.0656807	
0.201506	3.09131	-0.082652	
0.174061	7.19941	-0.0738607	
0.221258	6.38998	-0.0890844	
0.0923309	6.70321	-0.0488035	
-0.152944	7.08815	0.00989838	
-0.114717	7.00704	0.00326344	
-0.0385138	2.90504	-0.0133503	
-0.0245313	7.25395	-0.0167819	
-0.187737	7.25245	0.0145641	
-0.189431	1.20697	0.0147503	
-0.20183	1.33244	0.015976	
-0.228575	3.62617	0.0176564	
-0.0633116	6.70972	-0.00753047	
-0.188758	6.69061	0.0146768	
-0.126677	6.57152	0.00548446	
-0.226081	2.74205	0.0175653	
-0.181522	2.63471	0.0138453	
-0.115911	2.76649	0.00349068	
-0.18646	4.88115	0.0144209	
-0.0560986	4.81257	-0.00918625	
-0.0536197	4.92621	-0.0097625	
-0.220902	3.01622	0.0173295	
-0.208642	3.10486	0.0165396	
-0.234392	5.22122	0.0178047	
-0.187028	2.85904	0.014485	
-0.221539	6.80152	0.0173618	
-0.213504	6.09464	0.0168892	
-0.196979	6.19024	0.0155258	
-0.220862	3.97374	0.0173275	
-0.19055	4.18579	0.0148709	
-0.228688	2.52317	0.0176602	
-0.0639296	2.63854	-0.00739008	
-0.12883	2.50118	0.00587113	
-0.194588	2.19136	0.0152899	
-0.226098	5.80825	0.017566	
-0.0729729	5.69817	-0.00536305	
-0.127566	5.79365	0.00564466	
-0.187621	5.70981	0.0145513	
-0.185457	2.39678	0.0143069	
0.112408	5.27359	-0.0547893	
-0.026574	5.33133	-0.0162742	
-0.0177401	5.16851	-0.0184847	
-0.130177	5.39375	0.00611082	
-0.154268	5.28283	0.0101026	
-0.0367148	7.38569	-0.013786	
0.0813234	2.62218	-0.0455735	
0.0370632	2.76543	-0.0329966	
0.0954986	6.22344	-0.0497399	
-0.0555324	6.33128	-0.00931754	
-0.076638	6.20611	-0.00455641	
0.0381351	6.84086	-0.0332928	
-0.0807272	1.31086	-0.00366684	
-0.135763	1.45753	0.00708713	
-0.192493	4.78207	0.0150757	
-0.104241	6.82011	0.00122105	
-0.222078	6.57294	0.0173885	
0.0282718	7.5	-0.0305836	
-0.180333	5.58389	0.0137015	
-0.00471909	2.5112	-0.0218125	
-0.0318211	2.36591	-0.01498	
0.0773204	2.34136	-0.0444083	
0.154587	2.47276	-0.0677313	
0.0746994	4.18078	-0.0436483	
-0.177144	2.08786	0.0133066	
-0.172148	1.96112	0.0126613	
-0.0381457	2.0251	-0.0134393	
-0.175708	1.59734	0.0131244	
-0.0248455	1.58851	-0.0167036	
-0.166845	2.95251	0.0119423	
-0.109851	3.04381	0.00232587	
-0.218908	3.19344	0.0172225	
-0.101462	3.18007	0.000664847	
-0.0707042	4.51361	-0.0058667	
-0.207234	4.5204	0.01643	
-0.174127	4.39633	0.0129208	
-0.163898	5.1463	0.0115276	
-0.226798	6.48293	0.0175931	
-0.17697	6.29269	0.0132847	
-0.157539	6.43325	0.0105984	
-0.0259097	6.47913	-0.0164391	
-0.0276545	0.945155	-0.0160065	
-0.0447729	1.07734	-0.0118481	
-0.168643	0.997413	0.01219	
-0.172507	2.29005	0.0127087	
-0.220687	4.29096	0.0173184	
-0.136574	3.96894	0.0072264	
-0.0434311	4.05023	-0.0121683	
0.0694807	3.97949	-0.0421417	
-0.0516569	3.89607	-0.0102213	
-0.180989	3.85198	0.0137811	
0.175819	1.58111	-0.0744185	
0.220338	1.80575	-0.0887831	
0.0572317	3.79025	-0.038642	
-0.195398	4.66285	0.0153708	
-0.181213	3.29717	0.0138081	
-0.204493	1.70889	0.0162062	
0.210206	3.86511	-0.0854748	
-0.0790386	3.75777	-0.00403285	
0.0629456	6.38049	-0.0402681	
0.110243	6.53443	-0.054138	
0.0179516	1.43865	-0.0277903	
-0.177371	0.892845	0.0133351	
0.0551259	1.74195	-0.0380456	
-0.0846434	1.72652	-0.00282533	
0.07839	1.92599	-0.0447192	
0.13074	2.12093	-0.060356	
-0.211411	5.44982	0.0167443	
-0.17504	1.10432	0.0130387	
-0.20522	3.52353	0.0162669	
-0.175431	3.43382	0.0130889	
-0.0814218	3.52367	-0.00351683	
-0.126487	3.62385	0.00545005	
0.0989659	7.35561	-0.0507684	
0.185542	7.5	-0.077517	
0.261405	7.36192	-0.102418	
-0.216026	7.15822	0.0170522	
-0.107188	7.17074	0.00180462	
0.0481063	3.19559	-0.0360692	
0.157968	3.3121	-0.0687891	
0.240791	0.997261	-0.0955287	
0.26792	0.796609	-0.104614	
-0.234419	6.35931	0.0178052	
-0.238462	3.37631	0.0178537	
-0.0420472	5.57545	-0.0124997	
0.0789608	5.68919	-0.0448852	
0.0806817	5.48442	-0.0453863	
-0.149764	5.8974	0.00940066	
-0.00772122	5.82745	-0.0210381	
-0.00747554	5.96667	-0.0211014	
-0.0808832	3.40743	-0.00363312	
-0.180515	3.7163	0.0137237	
-0.164092	6.01673	0.0115553	
0.058942	3.4787	-0.0391275	
0.18185	5.08349	-0.0763377	
-0.222059	7.00601	0.0173875	
-0.0584008	1.19398	-0.00865435	
0.0887264	1.27735	-0.0477417	
0.177786	5.85488	-0.0750436	
-0.163782	1.82831	0.0115112	
-0.0309431	3.3132	-0.0151956	
-0.00738553	6.09956	-0.0211245	
-0.114534	6.09583	0.00322859	
0.170219	6.05065	-0.0726441	
0.114112	0.834179	-0.0553026	
-0.23551	1.89207	0.0178231	
-0.0110753	6.60377	-0.020178	
-0.190846	4.97619	0.0149024	
-0.242861	5.65626	0.0178479	
-0.171127	6.90322	0.0125256	
-0.00147871	3.63895	-0.022653	
0.235147	2.00177	-0.0936583	
-0.0568339	1.87529	-0.00901602	
-0.231721	5.95674	0.0177477	
-0.217856	5.06143	0.0171625	
-0.0855479	5.04267	-0.00263246	
0.119711	4.86922	-0.0569958	
-0.237217	1.78355	0.0178441	
0.0458647	5.00283	-0.0354418	
-0.239714	3.7801	0.0178583	
0.18857	1.38576	-0.0784866	
0.232704	4.53063	-0.0928505	
-0.12691	5.49756	0.00552637	
-0.0421868	5.45144	-0.0124662	
-0.238637	5.3704	0.0178547	
0.189587	2.29613	-0.0788125	
0.0946557	0.992375	-0.0494905	
0.148093	4.34974	-0.0657084	
0.0910995	1.1382	-0.0484403	
-0.0647878	2.18334	-0.0071955	
-0.117555	4.60328	0.00380148	
-0.102274	4.70979	0.000828001	
0.0471027	2.24118	-0.0357881	
0.277849	7.08811	-0.107979	
0.256245	4.90847	-0.100685	
0.265626	4.27647	-0.10384	
0.24438	6.21451	-0.0967216	
-0.220795	1.50205	0.017324	
0.232826	1.22102	-0.092891	
0.237302	1.145	-0.0943717	
-0.219258	1.44639	0.0172419	
0.289643	1.27717	-0.112003	
-0.252578	1.38909	0.0175949	
0.246429	5.2433	-0.097404	
-0.232531	7.33274	0.0177669	
-0.240834	6.25003	0.0178582	
-0.23778	2.00264	0.0178491	
-0.0988266	7.5	-0.0427607	
-0.205241	7.5	-0.0201418	
0.0315045	7.5	-0.0704635	
0.185574	7.5	-0.103212	
-0.079952	-0.65	-0.0807613	
-0.0670449	-0.65	-0.103965	
-0.286889	-0.65	-0.124747	
0.199817	-0.65	-0.0212946	
0.0956448	-0.65	-0.0797722	
0.0778049	-0.65	-0.047229	
0.217428	-0.65	-0.050461	
0.3	-0.65	0	
0.0808659	-0.65	-0.0102433	
-0.0775984	-0.65	-0.0543142	
0.204042	-0.65	0.0125132	
-0.286889	-0.885634	-0.124747	
-0.144732	-0.796917	-0.112531	
0.137664	-3.25561	-0.0713055	
0.0406488	-3.18132	-0.0891965	
0.159631	-3.11884	-0.0663055	
-0.00889547	-0.881272	-0.0964915	
-0.113212	-0.991363	-0.10923	
-0.123967	-1.94197	-0.110381	
-0.286889	-1.83178	-0.124747	
-0.113191	-1.70508	-0.109227	
-0.286889	-3.01191	-0.124747	
-0.123606	-3.13115	-0.110343	
-0.286889	-3.24847	-0.124747	
0.0367405	-1.39672	-0.0898086	
-0.124781	-1.49238	-0.110467	
-0.12751	-1.29803	-0.110755	
0.3	-0.748337	-2.50384e-18	
0.168318	-0.759521	-0.0641974	
-0.286889	-2.06853	-0.124747	
-0.129562	-2.1601	-0.11097	
-0.117687	-5.23226	-0.109712	
-0.117195	-5.43171	-0.109659	
-0.286889	-5.37478	-0.124747	
0.186531	-2.70635	-0.0594978	
0.168694	-2.84155	-0.0641043	
0.0286043	-2.7769	-0.0910614	
-0.108021	-5.01754	-0.108664	
-0.00435037	-4.83379	-0.0958615	
0.048576	-4.98132	-0.0879336	
-0.141041	-4.49978	-0.112156	
-0.0641571	-4.64888	-0.103617	
-0.286889	-4.6649	-0.124747	
0.0346161	-1.58228	-0.0901384	
0.3	-3.92683	-8.34341e-17	
0.3	-4.0264	-8.59694e-17	
0.181452	-3.97018	-0.0608491	
0.0242712	-0.759539	-0.0917171	
-0.286889	-2.53877	-0.124747	
-0.12576	-2.67412	-0.110571	
-0.286889	-2.77522	-0.124747	
-0.286889	-5.13809	-0.124747	
-0.15261	-4.80669	-0.113322	
-0.286889	-7.26437	-0.124747	
-0.286889	-7.02763	-0.124747	
-0.121837	-7.14165	-0.110155	
0.217428	-7.5	-0.050461	
0.168365	-7.3651	-0.0641859	
0.3	-7.40166	-1.7191e-16	
-0.129848	-6.95591	-0.111	
0.0365084	-6.87447	-0.0898447	
0.027362	-7.0501	-0.0912501	
-0.130638	-6.61678	-0.111083	
0.0157541	-6.69806	-0.0929836	
-0.108631	-6.79499	-0.108731	
0.0956448	-7.5	-0.0797722	
-0.132466	-7.34341	-0.111273	
-0.286889	-7.5	-0.124747	
-0.0679523	-2.34646	-0.104073	
-0.286889	-2.30488	-0.124747	
-0.286889	-3.72151	-0.124747	
-0.134998	-3.8455	-0.111535	
-0.286889	-3.95798	-0.124747	
0.182935	-3.78697	-0.0604578	
0.3	-3.72799	-7.83712e-17	
0.3	-3.82782	-8.09133e-17	
0.0188628	-4.17479	-0.0925247	
-0.142457	-4.13799	-0.1123	
-0.0679757	-4.00787	-0.104076	
0.3	-5.71414	-1.28942e-16	
0.183623	-5.67474	-0.0602755	
0.3	-5.61437	-1.26402e-16	
-0.286889	-1.59538	-0.124747	
-0.286889	-1.3588	-0.124747	
0.3	-7.5	-1.74414e-16	
0.164811	-4.5218	-0.065058	
0.0214265	-4.46243	-0.0921433	
0.16456	-4.40374	-0.0651192	
-0.286889	-1.12237	-0.124747	
0.149917	-6.98263	-0.0685722	
0.0366756	-2.21533	-0.0898187	
-0.150127	-2.47746	-0.113075	
-0.286889	-4.90153	-0.124747	
-0.286889	-6.7912	-0.124747	
-0.14634	-6.0401	-0.112694	
-0.286889	-6.08147	-0.124747	
-0.286889	-5.84512	-0.124747	
-0.107426	-4.31745	-0.108599	
-0.286889	-4.42849	-0.124747	
0.0407333	-3.8751	-0.0891832	
-0.286889	-6.55462	-0.124747	
-0.286889	-6.31822	-0.124747	
-0.116464	-6.41648	-0.109581	
-0.286889	-5.61123	-0.124747	
-0.129001	-5.73617	-0.110911	
0.0379084	-5.32273	-0.0896264	
0.065064	-5.47966	-0.0852102	
-0.0649153	-5.58757	-0.103708	
0.0404344	-5.72487	-0.0892302	
0.0428451	-5.14707	-0.0888495	
-0.0670449	-7.5	-0.103965	
-0.0574869	-3.69087	-0.102805	
-0.139408	-3.55218	-0.111989	
0.0196053	-3.48935	-0.0924145	
-0.286889	-3.4851	-0.124747	
0.00199485	-3.30347	-0.0949696	
0.0342202	-7.37943	-0.0901997	
0.0530458	-7.22715	-0.0872085	
-0.139457	-2.88673	-0.111994	
0.17969	-3.45222	-0.0613101	
0.147262	-3.5588	-0.0691761	
0.17958	-5.79184	-0.0613389	
0.151707	-2.11708	-0.0681614	
0.169099	-2.24839	-0.064004	
0.0922648	-2.38456	-0.0804002	
0.199456	-7.24153	-0.0559005	
0.3	-7.20261	-1.66841e-16	
0.228955	-2.94324	-0.0466472	
0.222477	-3.04726	-0.0488253	
0.109764	-2.95959	-0.0770685	
0.3	-2.93293	-5.81276e-17	
0.3	-3.03247	-6.06622e-17	
0.3	-2.04043	-3.54028e-17	
0.230487	-2.02532	-0.046118	
0.3	-1.94144	-3.28825e-17	
0.132695	-1.98668	-0.0723763	
0.16476	-1.85657	-0.0650703	
0.22946	-1.92194	-0.0464734	
0.0326389	-6.51314	-0.0904437	
0.15247	-6.42816	-0.0679855	
0.196198	-6.53056	-0.0568301	
0.3	-6.6063	-1.51658e-16	
0.3	-6.50696	-1.49129e-16	
0.3	-4.62058	-1.01098e-16	
0.3	-4.71998	-1.03629e-16	
0.196163	-4.64484	-0.05684	
0.3	-2.43586	-4.54713e-17	
0.3	-2.33843	-4.29904e-17	
0.175298	-2.5148	-0.0624434	
0.3	-1.04652	-1.00961e-17	
0.218914	-1.04558	-0.0499848	
0.0819945	-1.00102	-0.082266	
0.142283	-1.14007	-0.0702909	
0.0317129	-1.22847	-0.0905861	
0.0934855	-4.05198	-0.0801742	
0.0363112	-5.84815	-0.0898754	
0.3	-6.20856	-1.41531e-16	
-0.129179	-3.3641	-0.11093	
-0.118984	-5.88834	-0.109851	
0.000938559	-5.99724	-0.0951191	
0.227974	-4.9453	-0.046983	
0.113002	-0.864846	-0.0764294	
0.3	-5.31631	-1.18813e-16	
0.161266	-5.24217	-0.0659147	
0.43116	5.97303	-0.155438	
0.477617	5.97303	-0.165337	
0.43118	5.72311	-0.155344	
0.477657	5.72311	-0.16515	
0.43117	3.95159	-0.155394	
0.477636	3.95159	-0.165249	
0.431154	3.69729	-0.155467	
0.477605	3.69729	-0.165396	
0.431149	4.19841	-0.155491	
0.477594	4.19841	-0.165444	
0.431152	1.41394	-0.155475	
0.477601	1.41394	-0.165413	
0.431159	1.1601	-0.155445	
0.477614	1.1601	-0.165353	
0.431166	6.22715	-0.155413	
0.477628	6.22715	-0.165287	
0.431166	0.906433	-0.15541	
0.477629	0.906433	-0.165282	
0.431136	6.9899	-0.15555	
0.477569	6.9899	-0.165561	
0.431148	6.73606	-0.155494	
0.477593	6.73606	-0.165451	
0.431176	2.42689	-0.155366	
0.477648	2.42689	-0.165193	
0.431149	2.17697	-0.155491	
0.477594	2.17697	-0.165444	
0.43118	3.18798	-0.155344	
0.477657	3.18798	-0.165149	
0.431168	2.93326	-0.155403	
0.477632	2.93326	-0.165269	
0.43115	6.48179	-0.155484	
0.477597	6.48179	-0.16543	
0.431143	7.24357	-0.15552	
0.477582	7.24357	-0.165503	
0.431149	1.92285	-0.155491	
0.477594	1.92285	-0.165444	
0.431164	1.66821	-0.155422	
0.477624	1.66821	-0.165306	
0.431148	7.5	-0.155497	
0.477592	7.5	-0.165456	
0.431158	4.45271	-0.155446	
0.477614	4.45271	-0.165354	
0.431172	2.67893	-0.155382	
0.477641	2.67893	-0.165225	
0.431165	5.47107	-0.155415	
0.477627	5.47107	-0.165291	
0.431155	4.96202	-0.15546	
0.477608	4.96202	-0.165382	
0.431161	4.70741	-0.155434	
0.477619	4.70741	-0.16533	
0.431156	3.44259	-0.155459	
0.477608	3.44259	-0.16538	
0.431158	5.21674	-0.155449	
0.477612	5.21674	-0.16536	
0.431166	0.65	-0.155412	
0.477628	0.65	-0.165286	
-0.333347	-0.885634	-0.134641	
-0.379805	-0.885634	-0.144535	
-0.333342	-0.65	-0.134663	
-0.379796	-0.65	-0.144579	
-0.333354	-3.24847	-0.134607	
-0.379819	-3.24847	-0.144467	
-0.333359	-3.01191	-0.134582	
-0.37983	-3.01191	-0.144416	
-0.333349	-2.06853	-0.134631	
-0.379809	-2.06853	-0.144514	
-0.333346	-1.83178	-0.134646	
-0.379803	-1.83178	-0.144545	
-0.333354	-2.77522	-0.134606	
-0.37982	-2.77522	-0.144465	
-0.333356	-2.53877	-0.134598	
-0.379823	-2.53877	-0.14445	
-0.333341	-5.37478	-0.134666	
-0.379794	-5.37478	-0.144584	
-0.333334	-5.13809	-0.134701	
-0.379779	-5.13809	-0.144655	
-0.333341	-7.26437	-0.13467	
-0.379793	-7.26437	-0.144593	
-0.333356	-7.02763	-0.134599	
-0.379823	-7.02763	-0.144451	
-0.333337	-7.5	-0.134687	
-0.379785	-7.5	-0.144628	
-0.333363	-3.95798	-0.134566	
-0.379837	-3.95798	-0.144384	
-0.333356	-3.72151	-0.134598	
-0.379823	-3.72151	-0.144449	
-0.333344	-1.59538	-0.134655	
-0.379799	-1.59538	-0.144562	
-0.333345	-1.3588	-0.13465	
-0.379801	-1.3588	-0.144553	
-0.333347	-1.12237	-0.13464	
-0.379805	-1.12237	-0.144532	
-0.333353	-2.30488	-0.134612	
-0.379817	-2.30488	-0.144477	
-0.333345	-4.90153	-0.134651	
-0.3798	-4.90153	-0.144555	
-0.333369	-4.6649	-0.134537	
-0.379849	-4.6649	-0.144327	
-0.333363	-6.08147	-0.134565	
-0.379837	-6.08147	-0.144384	
-0.333345	-5.84512	-0.13465	
-0.379801	-5.84512	-0.144553	
-0.333349	-4.42849	-0.134629	
-0.37981	-4.42849	-0.144511	
-0.333361	-6.55462	-0.134572	
-0.379834	-6.55462	-0.144397	
-0.33336	-6.31822	-0.134578	
-0.379831	-6.31822	-0.14441	
-0.33334	-5.61123	-0.13467	
-0.379792	-5.61123	-0.144594	
-0.333362	-6.7912	-0.134568	
-0.379836	-6.7912	-0.14439	
-0.333354	-3.4851	-0.134608	
-0.379819	-3.4851	-0.144468	
-0.33336	-4.19202	-0.134577	
-0.379832	-4.19202	-0.144406	
0.213186	-2.36851	-0.0517959	
0.220934	-6.7063	-0.0493308	
0.23078	-6.62638	-0.0460162	
0.3	-6.70578	-1.54191e-16	
0.3	-6.80506	-1.56719e-16	
0.3	-6.90465	-1.59255e-16	
0.19473	-6.87615	-0.057244	
0.3	-3.43002	-7.07845e-17	
0.238928	-3.54648	-0.043097	
0.3	-3.52942	-7.33154e-17	
0.236289	-4.8504	-0.0440616	
0.209696	-4.75515	-0.0528695	
0.3	-4.81936	-1.06159e-16	
0.226345	-3.32929	-0.0475359	
0.3	-3.33064	-6.82541e-17	
0.112439	-3.37267	-0.0765411	
0.3	-1.34494	-1.76943e-17	
0.3	-1.44422	-2.02224e-17	
0.195769	-1.40103	-0.0569513	
0.3	-0.947393	-7.57218e-18	
0.230012	-0.850354	-0.0462826	
0.3	-0.847951	-5.04019e-18	
0.3	-3.62893	-7.58489e-17	
0.19768	-3.66989	-0.0564094	
0.3	-4.22317	-9.09795e-17	
0.221243	-4.3089	-0.0492298	
0.179972	-4.18544	-0.0612367	
0.0777723	-4.30777	-0.0830152	
0.3	-4.32218	-9.35003e-17	
0.198031	-3.87942	-0.0563092	
0.1936	-5.56423	-0.0575602	
0.3	-5.51528	-1.23879e-16	
0.3	-4.1236	-8.84442e-17	
0.218243	-4.07135	-0.0502004	
0.3	-7.30205	-1.69373e-16	
0.014574	-2.05746	-0.0931569	
0.230244	-3.20416	-0.0462024	
0.3	-3.13178	-6.31907e-17	
0.3	-3.23123	-6.5723e-17	
0.207479	-1.76469	-0.0535403	
0.3	-1.84171	-3.03431e-17	
0.3	-1.74255	-2.78185e-17	
0.240753	-2.78084	-0.0424184	
0.3	-2.73423	-5.30682e-17	
0.3	-2.83369	-5.56008e-17	
0.3	-6.30829	-1.44071e-16	
0.202551	-6.3465	-0.0550022	
0.190751	-6.25331	-0.0583493	
0.3	-6.40745	-1.46595e-16	
0.3	-4.42201	-9.60424e-17	
0.237	-4.46826	-0.0438033	
0.3	-4.52107	-9.85647e-17	
-0.0212948	-2.9585	-0.0981737	
0.0395731	-3.07206	-0.0893656	
0.200535	-6.08122	-0.0555893	
0.229635	-6.16092	-0.0464129	
0.110503	-6.16681	-0.0769233	
0.23202	-1.17481	-0.045583	
0.174088	-1.28831	-0.0627515	
0.3	-1.24535	-1.51587e-17	
0.3	-1.14638	-1.26389e-17	
0.00181367	-1.09975	-0.0949953	
0.3	-6.00979	-1.3647e-16	
0.3	-6.10957	-1.39011e-16	
0.00654854	-2.54911	-0.0943204	
0.161245	-7.11679	-0.0659197	
0.158647	-1.50608	-0.0665393	
0.206078	-5.46581	-0.0539599	
0.177993	-5.36686	-0.0617509	
0.137461	-4.87097	-0.0713494	
0.162	-5.02946	-0.0657383	
0.0814284	-5.61046	-0.0823671	
0.145208	-6.76864	-0.0696386	
-0.286889	-4.19202	-0.124747	
0.0828638	-3.73567	-0.0821105	
0.0759314	-3.6262	-0.0833386	
0.0918936	-4.72435	-0.0804688	
0.128297	-6.62948	-0.0733073	
0.0449732	-1.90337	-0.0885111	
0.0743734	-1.74128	-0.0836109	
0.0457018	-6.32703	-0.0883948	
0.0783252	-4.59409	-0.0829176	
0.235959	-6.7842	-0.0441809	
0.3	-5.41577	-1.21345e-16	
0.3	-2.63472	-5.05345e-17	
0.3	-4.91877	-1.08691e-16	
0.19514	-5.1462	-0.0571285	
0.3	-5.21707	-1.16286e-16	
0.3	-5.11753	-1.13751e-16	
0.107282	-2.63528	-0.0775534	
-0.00697288	-6.1518	-0.0962259	
0.3	-5.01822	-1.11223e-16	
0.237732	-7.00928	-0.0435364	
0.3	-7.10348	-1.64318e-16	
0.3	-7.00362	-1.61775e-16	
0.193356	-0.942684	-0.0576283	
0.136173	-5.9265	-0.071629	
-0.125315	-6.23428	-0.110524	
0.245911	-4.57572	-0.0404451	
0.244054	-7.16299	-0.0411655	
-0.115111	-1.15068	-0.109435	
0.238209	-2.1517	-0.0433615	
0.3	-2.23941	-4.04692e-17	
0.3	-2.14021	-3.79434e-17	
0.244299	-5.07644	-0.041071	
0.24047	-5.28331	-0.042524	
0.251845	-2.29273	-0.0380646	
0.3	-5.81157	-1.31423e-16	
0.3	-5.91059	-1.33944e-16	
0.23655	-5.90117	-0.043967	
0.177664	-1.63843	-0.0618358	
0.100495	-6.04958	-0.0788582	
0.252021	-1.69426	-0.037992	
0.3	-1.64304	-2.52847e-17	
0.241106	-6.44079	-0.0422857	
-0.0253333	-1.8151	-0.0987107	
0.206443	-5.99384	-0.0538509	
0.241823	-1.54026	-0.0420159	
0.3	-1.5437	-2.27552e-17	
0.216674	-2.59788	-0.0507007	
0.3	-2.53563	-4.80117e-17	
0.247776	-2.47329	-0.0397105	
0.242393	-7.33094	-0.0418001	
0.245615	-5.7508	-0.0405608	
-0.142745	-1.16774	-0.0750333	
-0.00544093	-1.82973	-0.032907	
0.0232609	-1.96731	-0.0249549	
0.12615	-1.88564	-0.000175788	
0.186251	-0.763601	0.0102894	
-0.139115	-2.18405	-0.0738487	
-0.153408	-1.50653	-0.0785323	
-0.131198	-1.71556	-0.0712768	
-0.16745	-0.784868	-0.0831833	
0.0197923	-1.07726	-0.0258963	
-0.126008	-0.967429	-0.0695999	
0.0808659	-7.5	-0.0102433	
0.204042	-7.5	0.0125132	
0.144303	-7.36605	0.00338707	
-0.139647	-1.94727	-0.074022	
-0.132958	-3.40223	-0.0718473	
0.041785	-0.923939	-0.0200269	
-0.127552	-7.1236	-0.070098	
-0.136262	-3.862	-0.07292	
0.0214766	-7.05103	-0.0254384	
0.0395421	-7.22614	-0.0206144	
-0.119378	-6.4605	-0.0674676	
-0.128013	-5.98297	-0.070247	
-0.142529	-5.50993	-0.0749629	
-0.151725	-5.02708	-0.077978	
-0.125166	-4.49735	-0.0693284	
-0.127255	-4.30009	-0.070002	
-0.122823	-4.07855	-0.068574	
-0.129944	-2.93076	-0.070871	
0.159677	-2.97987	0.00615236	
-0.136343	-2.41193	-0.0729463	
-0.0775984	-7.5	-0.0543142	
-0.16513	-7.38512	-0.0824116	
-0.141168	-5.23323	-0.0745182	
-0.136551	-3.64683	-0.073014	
0.00516532	-3.7945	-0.0299263	
-0.114739	-6.70336	-0.065983	
0.159485	-7.14915	0.00611938	
-0.12654	-6.92672	-0.0697715	
0.164421	-0.992337	0.00695368	
-0.104937	-7.2704	-0.062865	
0.000662221	-7.37611	-0.031186	
-0.0450353	-2.29619	-0.044428	
0.0382461	-2.37918	-0.020955	
0.0412396	-2.21503	-0.0201695	
-0.158843	-2.72936	-0.0803267	
0.00806661	-3.29892	-0.0291194	
-0.120055	-3.15985	-0.0676848	
0.0268167	-3.97426	-0.0239958	
0.0200254	-4.18612	-0.0258328	
0.0285485	-4.37412	-0.0235309	
0.158022	-4.27183	0.00586681	
-0.094144	-4.65808	-0.0594634	
0.0282903	-5.25894	-0.0236001	
0.0941428	-5.14741	-0.00713572	
-0.0325614	-5.13529	-0.0407355	
-0.0724456	-5.3794	-0.0527273	
0.102107	-5.36884	-0.00533075	
-0.159327	-5.79315	-0.0804866	
-0.0127645	-1.58328	-0.0349925	
0.0503266	-3.16576	-0.0178139	
-0.112818	-6.21753	-0.0653699	
0.133774	-6.5784	0.00135766	
0.0370437	-6.47641	-0.0212718	
0.00465162	-6.5961	-0.0300696	
0.18215	-4.36979	0.00971021	
0.184611	-3.54098	0.0100606	
0.182658	-4.7626	0.00978332	
0.204089	-2.59547	0.0125184	
0.203207	-2.68743	0.0124202	
0.1938	-3.45101	0.0112923	
0.0401487	-3.45583	-0.0204553	
0.188341	-4.87244	0.0105754	
0.177003	-4.97787	0.0089509	
0.180745	-1.40042	0.00950653	