<VTKFile type="UnstructuredGrid" version="0.1" byte_order="LittleEndian">
	<UnstructuredGrid>
		<Piece NumberOfPoints="112" NumberOfCells="56">
			<CellData Scalars="scalars">
				<DataArray type="Float64" Name="Gamma" NumberOfComponents="1" Format="ascii">
166.167	
119.847	
124.732	
49.664	
165.693	
39.5409	
150.31	
82.9378	
102.624	
164.791	
126.819	
68.3691	
91.2641	
127.748	
96.013	
160.008	
144.41	
107.807	
157.365	
92.9449	
152.915	
138.673	
112.729	
26.1768	
147.079	
75.0409	
60.1853	
2.52296	
18.6508	
10.3674	
14.9149	
31.6187	
40.6295	
30.4288	
23.1789	
7.26121	
4.11074	
13.3761	
31.0762	
37.338	
12.0234	
28.171	
40.457	
34.625	
29.7576	
41.9141	
42.0099	
33.4326	
8.91315	
21.7715	
17.1312	
5.25426	
25.8241	
24.7632	
20.03	
39.2847	
				</DataArray>
			</CellData>
			<Points>
				<DataArray type="Float64" Name="Position" NumberOfComponents="3" Format="ascii">
0.477657	5.72311	-0.16515	
0.477617	5.97303	-0.165337	
0.477605	3.69729	-0.165396	
0.477636	3.95159	-0.165249	
0.477636	3.95159	-0.165249	
0.477594	4.19841	-0.165444	
0.477614	1.1601	-0.165353	
0.477601	1.41394	-0.165413	
0.477617	5.97303	-0.165337	
0.477628	6.22715	-0.165287	
0.477629	0.906433	-0.165282	
0.477614	1.1601	-0.165353	
0.477593	6.73606	-0.165451	
0.477569	6.9899	-0.165561	
0.477594	2.17697	-0.165444	
0.477648	2.42689	-0.165193	
0.477632	2.93326	-0.165269	
0.477657	3.18798	-0.165149	
0.477628	6.22715	-0.165287	
0.477597	6.48179	-0.16543	
0.477569	6.9899	-0.165561	
0.477582	7.24357	-0.165503	
0.477624	1.66821	-0.165306	
0.477594	1.92285	-0.165444	
0.477582	7.24357	-0.165503	
0.477592	7.5	-0.165456	
0.477594	4.19841	-0.165444	
0.477614	4.45271	-0.165354	
0.477641	2.67893	-0.165225	
0.477632	2.93326	-0.165269	
0.477627	5.47107	-0.165291	
0.477657	5.72311	-0.16515	
0.477619	4.70741	-0.16533	
0.477608	4.96202	-0.165382	
0.477657	3.18798	-0.165149	
0.477608	3.44259	-0.16538	
0.477597	6.48179	-0.16543	
0.477593	6.73606	-0.165451	
0.477648	2.42689	-0.165193	
0.477641	2.67893	-0.165225	
0.477612	5.21674	-0.16536	
0.477627	5.47107	-0.165291	
0.477614	4.45271	-0.165354	
0.477619	4.70741	-0.16533	
0.477608	3.44259	-0.16538	
0.477605	3.69729	-0.165396	
0.477628	0.65	-0.165286	
0.477629	0.906433	-0.165282	
0.477608	4.96202	-0.165382	
0.477612	5.21674	-0.16536	
0.477594	1.92285	-0.165444	
0.477594	2.17697	-0.165444	
0.477601	1.41394	-0.165413	
0.477624	1.66821	-0.165306	
-0.379805	-0.885634	-0.144535	
-0.379796	-0.65	-0.144579	
-0.379819	-3.24847	-0.144467	
-0.37983	-3.01191	-0.144416	
-0.379809	-2.06853	-0.144514	
-0.379803	-1.83178	-0.144545	
-0.37982	-2.77522	-0.144465	
-0.379823	-2.53877	-0.14445	
-0.379794	-5.37478	-0.144584	
-0.379779	-5.13809	-0.144655	
-0.379793	-7.26437	-0.144593	
-0.379823	-7.02763	-0.144451	
-0.379785	-7.5	-0.144628	
-0.379793	-7.26437	-0.144593	
-0.379837	-3.95798	-0.144384	
-0.379823	-3.72151	-0.144449	
-0.379799	-1.59538	-0.144562	
-0.379801	-1.3588	-0.144553	
-0.379805	-1.12237	-0.144532	
-0.379805	-0.885634	-0.144535	
-0.379823	-2.53877	-0.14445	
-0.379817	-2.30488	-0.144477	
-0.3798	-4.90153	-0.144555	
-0.379849	-4.6649	-0.144327	
-0.379837	-6.08147	-0.144384	
-0.379801	-5.84512	-0.144553	
-0.379817	-2.30488	-0.144477	
-0.379809	-2.06853	-0.144514	
-0.379849	-4.6649	-0.144327	
-0.37981	-4.42849	-0.144511	
-0.379834	-6.55462	-0.144397	
-0.379831	-6.31822	-0.14441	
-0.379801	-5.84512	-0.144553	
-0.379792	-5.61123	-0.144594	
-0.379779	-5.13809	-0.144655	
-0.3798	-4.90153	-0.144555	
-0.379823	-7.02763	-0.144451	
-0.379836	-6.7912	-0.14439	
-0.379836	-6.7912	-0.14439	
-0.379834	-6.55462	-0.144397	
-0.379792	-5.61123	-0.144594	
-0.379794	-5.37478	-0.144584	
-0.379803	-1.83178	-0.144545	
-0.379799	-1.59538	-0.144562	
-0.379823	-3.72151	-0.144449	
-0.379819	-3.4851	-0.144468	
-0.37983	-3.01191	-0.144416	
-0.37982	-2.77522	-0.144465	
-0.379801	-1.3588	-0.144553	
-0.379805	-1.12237	-0.144532	
-0.37981	-4.42849	-0.144511	
-0.379832	-4.19202	-0.144406	
-0.379832	-4.19202	-0.144406	
-0.379837	-3.95798	-0.144384	
-0.379819	-3.4851	-0.144468	
-0.379819	-3.24847	-0.144467	
-0.379831	-6.31822	-0.14441	
-0.379837	-6.08147	-0.144384	
				</DataArray>
			</Points>
			<Cells>
				<DataArray type="Int32" Name="connectivity" Format="ascii">
0	1	
2	3	
4	5	
6	7	
8	9	
10	11	
12	13	
14	15	
16	17	
18	19	
20	21	
22	23	
24	25	
26	27	
28	29	
30	31	
32	33	
34	35	
36	37	
38	39	
40	41	
42	43	
44	45	
46	47	
48	49	
50	51	
52	53	
54	55	
56	57	
58	59	
60	61	
62	63	
64	65	
66	67	
68	69	
70	71	
72	73	
74	75	
76	77	
78	79	
80	81	
82	83	
84	85	
86	87	
88	89	
90	91	
92	93	
94	95	
96	97	
98	99	
100	101	
102	103	
104	105	
106	107	
108	109	
110	111	
				</DataArray>
				<DataArray type="Int32" Name="offsets" Format="ascii">
2	
4	
6	
8	
10	
12	
14	
16	
18	
20	
22	
24	
26	
28	
30	
32	
34	
36	
38	
40	
42	
44	
46	
48	
50	
52	
54	
56	
58	
60	
62	
64	
66	
68	
70	
72	
74	
76	
78	
80	
82	
84	
86	
88	
90	
92	
94	
96	
98	
100	
102	
104	
106	
108	
110	
112	
				</DataArray>
				<DataArray type="Int32" Name="types" Format="ascii">
3	
3	
3	
3	
3	
3	
3	
3	
3	
3	
3	
3	
3	
3	
3	
3	
3	
3	
3	
3	
3	
3	
3	
3	
3	
3	
3	
3	
3	
3	
3	
3	
3	
3	
3	
3	
3	
3	
3	
3	
3	
3	
3	
3	
3	
3	
3	
3	
3	
3	
3	
3	
3	
3	
3	
3	
				</DataArray>
			</Cells>
		</Piece>
	</UnstructuredGrid>
</VTKFile>
