<VTKFile type="UnstructuredGrid" version="0.1" byte_order="LittleEndian">
	<UnstructuredGrid>
		<Piece NumberOfPoints="112" NumberOfCells="112">
			<CellData Scalars="scalars">
				<DataArray type="Float64" Name="Strength" NumberOfComponents="3" Format="ascii">
-0.171782	-17.2314	0.0495137	
-0.231269	-11.9241	0.0421537	
0.00653581	-11.9359	0.00844583	
-0.396801	-4.90045	0.0860175	
-0.0556262	-16.995	0.00831232	
-0.207915	-4.19324	0.0453927	
0.358216	-17.0262	-0.0695182	
-0.318859	-8.15596	0.0593454	
-0.327226	-10.2344	0.0642685	
0.0850913	-17.3309	-0.00803656	
0.594233	-14.8628	-0.131328	
-0.181912	-6.9177	0.0427595	
2.12581	-11.7398	-0.458062	
-0.232073	-12.273	0.044955	
-0.0160475	-9.204	0.00503123	
-0.158211	-15.9103	0.0243451	
-0.31115	-14.7858	0.0695098	
-0.00729183	-11.0016	0.0120016	
0.000288584	-16.8515	0.00134693	
0.000243089	-9.03269	0.00114853	
0.00791539	-15.1984	-0.00596833	
-0.000276902	-13.5597	-0.00129913	
0.000143053	-11.0572	0.000669533	
-0.55991	-3.09017	0.118939	
-0.000287834	-15.2707	-0.00134836	
1.47767e-06	-7.37237	6.89552e-06	
-0.000571308	-6.37678	-0.00267795	
0.231575	-0.680825	0.0494974	
0.180443	-5.70736	0.0369714	
0.18862	-3.14146	0.0405838	
0.21865	-4.58005	0.0460669	
0.213295	-9.68668	0.0486597	
-0.750809	-11.6934	-0.16671	
-1.67043	-8.47483	-0.358148	
0.179704	-7.08749	0.0400866	
0.214852	-2.16917	0.0457274	
0.081075	-1.1802	0.0172827	
0.0898422	-4.05868	0.0195515	
0.116497	-9.48693	0.0154151	
0.254921	-11.361	0.062555	
-0.000121401	-3.64371	0.00057123	
0.125675	-8.60308	0.033448	
0.138901	-12.2227	0.030044	
0.0624091	-10.4817	0.0152197	
0.000824856	-9.19178	-0.0038589	
-0.0537774	-12.3317	-0.0147202	
-8.11411e-05	-12.6163	0.000383872	
8.86667e-05	-10.2764	-0.000415161	
-4.13774e-05	-2.6844	0.000194102	
0.111925	-6.70128	0.0242918	
-0.000225952	-5.22068	0.00106631	
3.04713e-05	-1.59135	-0.000143023	
0.0673749	-7.95852	0.0106625	
0.000151551	-7.54125	-0.000716913	
1.0016e-05	-6.13672	-4.71994e-05	
0.000276712	-11.9173	-0.0013089	
-0.162104	-2.80059	0.0362064	
-0.287102	-2.09999	0.0599576	
-0.0026423	-2.15226	0.00234173	
-0.441557	-0.923638	0.0945849	
-0.0819779	-2.8913	0.0168255	
-0.249749	-0.739595	0.0532788	
0.458057	-2.7699	-0.0975292	
-0.378444	-1.36828	0.0791539	
-0.347548	-1.77263	0.0727326	
0.118219	-3.04491	-0.0235257	
0.700893	-2.29026	-0.151213	
-0.226981	-1.21716	0.0491152	
2.43949	-1.72977	-0.523422	
-0.238889	-2.25877	0.0501147	
-0.0325999	-1.65177	0.00719858	
-0.191165	-2.93262	0.0389248	
-0.328703	-2.25744	0.0705679	
-0.0342582	-1.76958	0.0089966	
4.88033e-05	-2.84981	0.000227784	
4.16779e-05	-1.54867	0.000196917	
-0.0601984	-2.77035	0.0120628	
-4.70471e-05	-2.30386	-0.00022073	
2.4689e-05	-1.90833	0.000115552	
-0.653741	-0.517916	0.138921	
-4.51869e-05	-2.39733	-0.000211678	
2.46042e-07	-1.22754	1.14815e-06	
-8.8271e-05	-0.985256	-0.000413762	
0.274069	-0.134809	0.0584495	
0.214725	-1.02305	0.0452766	
0.224783	-0.581586	0.0479377	
0.257052	-0.857099	0.0544583	
0.239925	-1.76963	0.0518819	
-0.906653	-1.80256	-0.193637	
-1.91782	-1.25377	-0.409869	
0.211213	-1.30466	0.0450841	
0.250677	-0.40936	0.0534345	
0.0982903	-0.216433	0.0209357	
0.107218	-0.749688	0.0228239	
0.142495	-1.59847	0.0288716	
0.276539	-2.0434	0.060158	
-2.23093e-05	-0.669587	0.000104972	
0.148481	-1.54168	0.0325246	
0.142472	-2.08589	0.030245	
0.0909067	-1.93765	0.0197324	
0.000151045	-1.68317	-0.000706628	
-0.0610998	-2.04467	-0.0135045	
-1.33794e-05	-2.08031	6.32969e-05	
1.56633e-05	-1.81537	-7.33397e-05	
-7.49277e-06	-0.486101	3.51486e-05	
0.12696	-1.2049	0.0270171	
-4.13118e-05	-0.95452	0.000194958	
5.81643e-06	-0.30376	-2.73006e-05	
0.0801492	-1.43191	0.0163872	
2.7126e-05	-1.3498	-0.00012832	
1.84414e-06	-1.12989	-8.69033e-06	
4.79301e-05	-2.06423	-0.000226718	
				</DataArray>
			</CellData>
			<Points>
				<DataArray type="Float64" Name="Position" NumberOfComponents="3" Format="ascii">
1.28794	5.74743	-0.125527	
1.01952	3.73696	-0.114797	
1.05243	3.98606	-0.116886	
0.692286	1.22033	-0.125656	
1.32254	5.99698	-0.128897	
0.663712	0.967833	-0.134153	
1.42486	6.75186	-0.13615	
0.81947	2.2276	-0.114997	
0.919745	2.97944	-0.114097	
1.35698	6.25009	-0.134099	
1.46374	7.00161	-0.141953	
0.755047	1.72478	-0.119795	
1.50476	7.25019	-0.147241	
1.08617	4.23585	-0.117822	
0.885948	2.72604	-0.114677	
1.25701	5.49801	-0.128539	
1.15193	4.7427	-0.12119	
0.95547	3.23175	-0.117418	
1.39317	6.50113	-0.141196	
0.854612	2.47524	-0.117714	
1.22305	5.24664	-0.127697	
1.12154	4.48892	-0.124033	
0.989779	3.48336	-0.119539	
0.63636	0.715951	-0.14527	
1.1895	4.99436	-0.129523	
0.790078	1.97721	-0.118973	
0.725172	1.47171	-0.125776	
-0.358089	-0.721329	-0.140062	
-0.639569	-3.07073	-0.0623966	
-0.494473	-1.89819	-0.0953925	
-0.579377	-2.60038	-0.0700679	
-0.923286	-5.18374	-0.0626627	
-1.18148	-7.05252	-0.0923307	
-1.21917	-7.28304	-0.101937	
-0.733288	-3.77501	-0.0587383	
-0.441479	-1.4274	-0.122115	
-0.386649	-0.956714	-0.139492	
-0.549131	-2.3675	-0.0754626	
-0.859331	-4.71161	-0.0590848	
-1.01713	-5.88487	-0.0659134	
-0.521417	-2.13361	-0.0839734	
-0.826945	-4.47676	-0.056563	
-1.08046	-6.35414	-0.0696443	
-0.984356	-5.65169	-0.0604938	
-0.888958	-4.94748	-0.0557128	
-1.14541	-6.82098	-0.077494	
-1.11175	-6.58823	-0.0683441	
-0.951636	-5.41908	-0.0572529	
-0.467519	-1.66256	-0.108176	
-0.699584	-3.54191	-0.0573082	
-0.607757	-2.83533	-0.064168	
-0.414153	-1.19233	-0.131689	
-0.794312	-4.24281	-0.0553255	
-0.761938	-4.00923	-0.0546956	
-0.667826	-3.30612	-0.0577847	
-1.04624	-6.12025	-0.0597562	
0.870355	5.80518	-0.163655	
0.739885	3.78513	-0.157078	
0.755049	4.0352	-0.15695	
0.577781	1.25514	-0.152651	
0.886594	6.05559	-0.16252	
0.562078	1.00191	-0.155335	
0.935819	6.81461	-0.164732	
0.642353	2.26737	-0.153924	
0.691226	3.02334	-0.155507	
0.902361	6.31035	-0.163242	
0.954896	7.06635	-0.163773	
0.609944	1.76225	-0.153773	
0.976222	7.31773	-0.164653	
0.77144	4.28569	-0.156113	
0.674197	2.76919	-0.153388	
0.853641	5.55366	-0.161198	
0.803139	4.79522	-0.160036	
0.707949	3.27757	-0.156617	
0.919255	6.56319	-0.162833	
0.658324	2.51731	-0.154828	
0.837694	5.30147	-0.160182	
0.787407	4.54048	-0.158287	
0.723462	3.53098	-0.155606	
0.546762	0.748107	-0.159005	
0.820351	5.04767	-0.16053	
0.626374	2.01597	-0.152842	
0.593859	1.50833	-0.15484	
-0.357564	-0.744561	-0.141126	
-0.49194	-3.10316	-0.0959266	
-0.425537	-1.92528	-0.128413	
-0.463656	-2.63069	-0.10771	
-0.634679	-5.22489	-0.0796208	
-0.764831	-7.1059	-0.099779	
-0.784058	-7.33877	-0.110819	
-0.538728	-3.81071	-0.0847886	
-0.400182	-1.45283	-0.139612	
-0.372125	-0.980546	-0.142919	
-0.450204	-2.3963	-0.114448	
-0.603062	-4.75191	-0.0795933	
-0.681918	-5.92983	-0.0810937	
-0.437975	-2.16161	-0.12157	
-0.587358	-4.51591	-0.0798733	
-0.714112	-6.40172	-0.0837709	
-0.666238	-5.69529	-0.0800868	
-0.618133	-4.98814	-0.0788145	
-0.747286	-6.87194	-0.0915877	
-0.730586	-6.63682	-0.0871238	
-0.650578	-5.46116	-0.0799365	
-0.413184	-1.68895	-0.134727	
-0.522709	-3.5755	-0.0876647	
-0.477628	-2.86681	-0.101497	
-0.386317	-1.21686	-0.141467	
-0.570911	-4.28033	-0.0810603	
-0.555164	-4.04564	-0.0827348	
-0.507147	-3.33924	-0.0913664	
-0.697921	-6.16605	-0.0820411	
				</DataArray>
			</Points>
			<Cells>
				<DataArray type="Int32" Name="connectivity" Format="ascii">
0	
1	
2	
3	
4	
5	
6	
7	
8	
9	
10	
11	
12	
13	
14	
15	
16	
17	
18	
19	
20	
21	
22	
23	
24	
25	
26	
27	
28	
29	
30	
31	
32	
33	
34	
35	
36	
37	
38	
39	
40	
41	
42	
43	
44	
45	
46	
47	
48	
49	
50	
51	
52	
53	
54	
55	
56	
57	
58	
59	
60	
61	
62	
63	
64	
65	
66	
67	
68	
69	
70	
71	
72	
73	
74	
75	
76	
77	
78	
79	
80	
81	
82	
83	
84	
85	
86	
87	
88	
89	
90	
91	
92	
93	
94	
95	
96	
97	
98	
99	
100	
101	
102	
103	
104	
105	
106	
107	
108	
109	
110	
111	
				</DataArray>
				<DataArray type="Int32" Name="offsets" Format="ascii">
1	
2	
3	
4	
5	
6	
7	
8	
9	
10	
11	
12	
13	
14	
15	
16	
17	
18	
19	
20	
21	
22	
23	
24	
25	
26	
27	
28	
29	
30	
31	
32	
33	
34	
35	
36	
37	
38	
39	
40	
41	
42	
43	
44	
45	
46	
47	
48	
49	
50	
51	
52	
53	
54	
55	
56	
57	
58	
59	
60	
61	
62	
63	
64	
65	
66	
67	
68	
69	
70	
71	
72	
73	
74	
75	
76	
77	
78	
79	
80	
81	
82	
83	
84	
85	
86	
87	
88	
89	
90	
91	
92	
93	
94	
95	
96	
97	
98	
99	
100	
101	
102	
103	
104	
105	
106	
107	
108	
109	
110	
111	
112	
				</DataArray>
				<DataArray type="Int32" Name="types" Format="ascii">
1	
1	
1	
1	
1	
1	
1	
1	
1	
1	
1	
1	
1	
1	
1	
1	
1	
1	
1	
1	
1	
1	
1	
1	
1	
1	
1	
1	
1	
1	
1	
1	
1	
1	
1	
1	
1	
1	
1	
1	
1	
1	
1	
1	
1	
1	
1	
1	
1	
1	
1	
1	
1	
1	
1	
1	
1	
1	
1	
1	
1	
1	
1	
1	
1	
1	
1	
1	
1	
1	
1	
1	
1	
1	
1	
1	
1	
1	
1	
1	
1	
1	
1	
1	
1	
1	
1	
1	
1	
1	
1	
1	
1	
1	
1	
1	
1	
1	
1	
1	
1	
1	
1	
1	
1	
1	
1	
1	
1	
1	
1	
1	
				</DataArray>
			</Cells>
		</Piece>
	</UnstructuredGrid>
</VTKFile>
