<VTKFile type="UnstructuredGrid" version="0.1" byte_order="LittleEndian">
	<UnstructuredGrid>
		<Piece NumberOfPoints="448" NumberOfCells="448">
			<CellData Scalars="scalars">
				<DataArray type="Float64" Name="Strength" NumberOfComponents="3" Format="ascii">
-0.171782	-17.2314	0.0495137	
-0.231269	-11.9241	0.0421537	
0.00653581	-11.9359	0.00844583	
-0.396801	-4.90045	0.0860175	
-0.0556262	-16.995	0.00831232	
-0.207915	-4.19324	0.0453927	
0.358216	-17.0262	-0.0695182	
-0.318859	-8.15596	0.0593454	
-0.327226	-10.2344	0.0642685	
0.0850913	-17.3309	-0.00803656	
0.594233	-14.8628	-0.131328	
-0.181912	-6.9177	0.0427595	
2.12581	-11.7398	-0.458062	
-0.232073	-12.273	0.044955	
-0.0160475	-9.204	0.00503123	
-0.158211	-15.9103	0.0243451	
-0.31115	-14.7858	0.0695098	
-0.00729183	-11.0016	0.0120016	
0.000288584	-16.8515	0.00134693	
0.000243089	-9.03269	0.00114853	
0.00791539	-15.1984	-0.00596833	
-0.000276902	-13.5597	-0.00129913	
0.000143053	-11.0572	0.000669533	
-0.55991	-3.09017	0.118939	
-0.000287834	-15.2707	-0.00134836	
1.47767e-06	-7.37237	6.89552e-06	
-0.000571308	-6.37678	-0.00267795	
0.231575	-0.680825	0.0494974	
0.180443	-5.70736	0.0369714	
0.18862	-3.14146	0.0405838	
0.21865	-4.58005	0.0460669	
0.213295	-9.68668	0.0486597	
-0.750809	-11.6934	-0.16671	
-1.67043	-8.47483	-0.358148	
0.179704	-7.08749	0.0400866	
0.214852	-2.16917	0.0457274	
0.081075	-1.1802	0.0172827	
0.0898422	-4.05868	0.0195515	
0.116497	-9.48693	0.0154151	
0.254921	-11.361	0.062555	
-0.000121401	-3.64371	0.00057123	
0.125675	-8.60308	0.033448	
0.138901	-12.2227	0.030044	
0.0624091	-10.4817	0.0152197	
0.000824856	-9.19178	-0.0038589	
-0.0537774	-12.3317	-0.0147202	
-8.11411e-05	-12.6163	0.000383872	
8.86667e-05	-10.2764	-0.000415161	
-4.13774e-05	-2.6844	0.000194102	
0.111925	-6.70128	0.0242918	
-0.000225952	-5.22068	0.00106631	
3.04713e-05	-1.59135	-0.000143023	
0.0673749	-7.95852	0.0106625	
0.000151551	-7.54125	-0.000716913	
1.0016e-05	-6.13672	-4.71994e-05	
0.000276712	-11.9173	-0.0013089	
-0.162104	-2.80059	0.0362064	
-0.287102	-2.09999	0.0599576	
-0.0026423	-2.15226	0.00234173	
-0.441557	-0.923638	0.0945849	
-0.0819779	-2.8913	0.0168255	
-0.249749	-0.739595	0.0532788	
0.458057	-2.7699	-0.0975292	
-0.378444	-1.36828	0.0791539	
-0.347548	-1.77263	0.0727326	
0.118219	-3.04491	-0.0235257	
0.700893	-2.29026	-0.151213	
-0.226981	-1.21716	0.0491152	
2.43949	-1.72977	-0.523422	
-0.238889	-2.25877	0.0501147	
-0.0325999	-1.65177	0.00719858	
-0.191165	-2.93262	0.0389248	
-0.328703	-2.25744	0.0705679	
-0.0342582	-1.76958	0.0089966	
4.88033e-05	-2.84981	0.000227784	
4.16779e-05	-1.54867	0.000196917	
-0.0601984	-2.77035	0.0120628	
-4.70471e-05	-2.30386	-0.00022073	
2.4689e-05	-1.90833	0.000115552	
-0.653741	-0.517916	0.138921	
-4.51869e-05	-2.39733	-0.000211678	
2.46042e-07	-1.22754	1.14815e-06	
-8.8271e-05	-0.985256	-0.000413762	
0.274069	-0.134809	0.0584495	
0.214725	-1.02305	0.0452766	
0.224783	-0.581586	0.0479377	
0.257052	-0.857099	0.0544583	
0.239925	-1.76963	0.0518819	
-0.906653	-1.80256	-0.193637	
-1.91782	-1.25377	-0.409869	
0.211213	-1.30466	0.0450841	
0.250677	-0.40936	0.0534345	
0.0982903	-0.216433	0.0209357	
0.107218	-0.749688	0.0228239	
0.142495	-1.59847	0.0288716	
0.276539	-2.0434	0.060158	
-2.23093e-05	-0.669587	0.000104972	
0.148481	-1.54168	0.0325246	
0.142472	-2.08589	0.030245	
0.0909067	-1.93765	0.0197324	
0.000151045	-1.68317	-0.000706628	
-0.0610998	-2.04467	-0.0135045	
-1.33794e-05	-2.08031	6.32969e-05	
1.56633e-05	-1.81537	-7.33397e-05	
-7.49277e-06	-0.486101	3.51486e-05	
0.12696	-1.2049	0.0270171	
-4.13118e-05	-0.95452	0.000194958	
5.81643e-06	-0.30376	-2.73006e-05	
0.0801492	-1.43191	0.0163872	
2.7126e-05	-1.3498	-0.00012832	
1.84414e-06	-1.12989	-8.69033e-06	
4.79301e-05	-2.06423	-0.000226718	
-0.243815	-8.12522	0.0576741	
-0.370791	-5.93617	0.07547	
-0.047546	-5.98759	0.0151283	
-0.634822	-2.49785	0.13625	
-0.0423797	-8.42971	0.00726596	
-0.383284	-1.91929	0.0819933	
0.762521	-7.38502	-0.160947	
-0.531712	-4.07067	0.108887	
-0.441924	-5.12161	0.0910635	
0.169192	-8.22873	-0.0313947	
1.07586	-6.2614	-0.232773	
-0.383	-3.3979	0.0836705	
3.21062	-4.25821	-0.689255	
-0.359203	-6.41854	0.074236	
-0.0669086	-4.86262	0.0150355	
-0.248481	-7.91322	0.0482015	
-0.386166	-7.3551	0.0839096	
-0.0950946	-5.38331	0.0254203	
0.000135995	-7.94126	0.000634741	
0.000124666	-4.63233	0.000589013	
-0.112053	-7.67426	0.0217449	
-0.000144716	-7.08662	-0.000678958	
7.40372e-05	-5.72268	0.000346517	
-0.87169	-1.20288	0.185227	
-0.000139549	-7.40361	-0.00065372	
7.68723e-07	-3.8353	3.58723e-06	
-0.000267186	-2.98225	-0.00125241	
0.181786	0.257932	0.0386998	
0.132864	2.3799	0.0286861	
0.145155	1.30836	0.0307295	
0.174493	1.95657	0.0371351	
0.167217	4.05952	0.0344988	
-0.519685	3.93572	-0.107806	
-1.41139	2.56954	-0.301093	
0.13684	2.97263	0.0281029	
0.170925	0.899337	0.0364806	
0.05271	0.470342	0.011219	
0.0615025	1.72724	0.0128241	
0.0707076	3.85731	0.0191096	
0.209611	4.68135	0.040944	
5.03934e-05	1.5125	-0.000237116	
0.110548	3.57318	0.0203866	
0.123043	4.8812	0.0257564	
0.0618498	4.40638	0.0123787	
-0.000353136	3.93517	0.00165206	
0.00693813	4.55119	0.0026957	
3.15278e-05	4.90212	-0.000149155	
-3.71473e-05	4.30536	0.000173934	
1.707e-05	1.10743	-8.00754e-05	
0.0771463	2.83519	0.0161169	
9.38425e-05	2.16826	-0.000442859	
-1.34368e-05	0.70173	6.30683e-05	
0.0480329	3.37675	0.0117723	
-6.39584e-05	3.1826	0.000302555	
-4.21697e-06	2.5837	1.9872e-05	
-0.000111601	4.80638	0.000527893	
-0.243332	-2.64826	0.0533127	
-0.415687	-2.02903	0.0873816	
-0.0624045	-2.07709	0.0150864	
-0.6883	-0.859004	0.14726	
-0.0430736	-2.75111	0.00858618	
-0.429094	-0.654288	0.0913593	
0.883977	-2.35651	-0.189379	
-0.58949	-1.34295	0.124035	
-0.459471	-1.71823	0.096451	
0.201938	-2.76187	-0.0416195	
1.18999	-1.90284	-0.256251	
-0.435967	-1.14286	0.0936855	
3.44521	-1.2946	-0.738994	
-0.375525	-2.21782	0.0792717	
-0.0832511	-1.64514	0.017927	
-0.272039	-2.73599	0.0562311	
-0.392196	-2.27698	0.0841086	
-0.122986	-1.74497	0.0279232	
4.4098e-05	-2.57505	0.000205822	
4.15088e-05	-1.54238	0.000196118	
-0.164276	-2.62842	0.034307	
-4.72248e-05	-2.31256	-0.000221563	
2.45126e-05	-1.89469	0.000114727	
-0.945797	-0.409021	0.200989	
-4.41937e-05	-2.34464	-0.000207026	
2.47706e-07	-1.23585	1.15592e-06	
-8.49449e-05	-0.948131	-0.000398171	
0.146286	0.104604	0.0311618	
0.102371	0.892797	0.0218944	
0.113756	0.501159	0.0241533	
0.143287	0.750765	0.0304366	
0.143334	1.52883	0.0301799	
-0.378813	1.29427	-0.0795109	
-1.24684	0.834451	-0.266212	
0.110071	1.12951	0.0229695	
0.141119	0.349741	0.030104	
0.0355095	0.18087	0.00755987	
0.0444279	0.659157	0.00933696	
0.0437806	1.38982	0.0109189	
0.200056	1.73065	0.0411355	
1.93028e-05	0.579353	-9.08259e-05	
0.0956547	1.32602	0.0190721	
0.132764	1.71615	0.0279857	
0.0437646	1.65996	0.00902561	
-0.000131599	1.46647	0.000615654	
0.0311236	1.55245	0.00701655	
1.0777e-05	1.67567	-5.09853e-05	
-1.3689e-05	1.58655	6.40954e-05	
6.4714e-06	0.419839	-3.03574e-05	
0.0615002	1.06003	0.0129491	
3.57529e-05	0.82608	-0.000168724	
-5.13506e-06	0.268175	2.41024e-05	
0.0371316	1.25244	0.00847474	
-2.37876e-05	1.18368	0.000112527	
-1.60188e-06	0.98146	7.54871e-06	
-4.00909e-05	1.72662	0.000189637	
-0.268916	-4.14204	0.0599102	
-0.462739	-3.16777	0.096712	
-0.0924798	-3.21141	0.0224671	
-0.792161	-1.30268	0.169548	
-0.0118976	-4.29367	0.00164185	
-0.501799	-0.967255	0.106898	
1.07725	-3.47042	-0.23045	
-0.67605	-2.1781	0.141549	
-0.497776	-2.73292	0.104058	
0.245897	-4.13127	-0.0502281	
1.37703	-2.82107	-0.296679	
-0.529201	-1.78886	0.113961	
3.7746	-1.81878	-0.809725	
-0.434923	-3.4745	0.0914751	
-0.104072	-2.63636	0.0225133	
-0.295659	-4.1186	0.0604451	
-0.400753	-3.86932	0.0862719	
-0.160557	-2.84862	0.0369951	
6.6541e-05	-3.88558	0.000310572	
6.72699e-05	-2.49961	0.000317832	
-0.197366	-4.02744	0.0409726	
-7.77047e-05	-3.80514	-0.000364565	
3.95479e-05	-3.05684	0.000185096	
-1.05024	-0.576451	0.223183	
-7.2621e-05	-3.85281	-0.000340193	
4.10432e-07	-2.04772	1.91527e-06	
-0.000137812	-1.53822	-0.000645981	
0.186653	-0.119957	0.0398103	
0.134111	-0.922041	0.0282169	
0.143602	-0.514754	0.0306447	
0.173342	-0.765102	0.0367105	
0.169724	-1.55861	0.0367932	
-0.527791	-1.27152	-0.11279	
-1.40168	-0.785721	-0.299541	
0.138494	-1.14905	0.0296457	
0.169343	-0.364209	0.0360942	
0.0534941	-0.205747	0.0113954	
0.0627641	-0.678767	0.0133907	
0.0729757	-1.4792	0.0142299	
0.216256	-1.75748	0.0471746	
-1.9739e-05	-0.592443	9.2878e-05	
0.1078	-1.37092	0.0238176	
0.126034	-1.77949	0.0267527	
0.0516249	-1.67442	0.0113107	
0.00013617	-1.51741	-0.000637038	
-0.00712742	-1.54818	-0.00192775	
-1.1221e-05	-1.74471	5.30858e-05	
1.42541e-05	-1.65205	-6.67416e-05	
-6.79115e-06	-0.440582	3.18573e-05	
0.0814512	-1.10165	0.0173605	
-3.63501e-05	-0.839878	0.000171542	
5.68741e-06	-0.297022	-2.6695e-05	
0.0491549	-1.30719	0.00985243	
2.48074e-05	-1.23442	-0.000117351	
1.63352e-06	-1.00084	-7.6978e-06	
4.13326e-05	-1.78009	-0.000195511	
-0.267062	-1.91159	0.0577856	
-0.49336	-1.51401	0.104227	
-0.104952	-1.54783	0.0237674	
-0.836058	-0.620535	0.178751	
-0.00283338	-1.97063	0.000195198	
-0.536023	-0.462329	0.114023	
1.17454	-1.5646	-0.252251	
-0.720177	-1.01495	0.15215	
-0.510736	-1.28851	0.10751	
0.273699	-1.92553	-0.0574779	
1.45778	-1.23244	-0.313651	
-0.572185	-0.842471	0.122596	
3.91962	-0.80047	-0.840627	
-0.450638	-1.66152	0.0954977	
-0.115706	-1.24471	0.024731	
-0.308859	-1.96653	0.0645071	
-0.40015	-1.72865	0.0856847	
-0.180898	-1.31789	0.0398864	
3.02964e-05	-1.76912	0.000141405	
3.15068e-05	-1.17073	0.000148861	
-0.227569	-1.91066	0.0480123	
-3.57583e-05	-1.75106	-0.000167766	
1.84786e-05	-1.42829	8.64854e-05	
-1.10073	-0.278657	0.233917	
-3.29366e-05	-1.74741	-0.000154292	
1.87935e-07	-0.937641	8.76994e-07	
-6.30315e-05	-0.70354	-0.000295454	
0.212024	-0.0775708	0.0452103	
0.153377	-0.574731	0.0323763	
0.163096	-0.327086	0.0347698	
0.192385	-0.485307	0.0407681	
0.184399	-0.966039	0.0397481	
-0.613677	-0.70364	-0.130698	
-1.48762	-0.43587	-0.317844	
0.155124	-0.720987	0.0330423	
0.187398	-0.233391	0.0399489	
0.0645934	-0.12928	0.0137581	
0.0739233	-0.428771	0.0157254	
0.0903348	-0.887059	0.0185058	
0.217375	-1.06756	0.0468888	
-1.25454e-05	-0.376536	5.90301e-05	
0.115965	-0.841434	0.025108	
0.11261	-1.02889	0.0238724	
0.0597389	-1.0349	0.0129235	
8.35404e-05	-0.930932	-0.000390824	
-0.0285682	-0.874047	-0.0062922	
-6.32559e-06	-0.98354	2.99259e-05	
8.67142e-06	-1.00501	-4.06019e-05	
-4.27682e-06	-0.277463	2.00626e-05	
0.0920385	-0.682224	0.0195698	
-2.29784e-05	-0.530923	0.000108439	
3.55396e-06	-0.185604	-1.66812e-05	
0.0557197	-0.800533	0.0114822	
1.52534e-05	-0.759013	-7.21561e-05	
1.02655e-06	-0.628956	-4.83749e-06	
2.4443e-05	-1.0527	-0.00011562	
-0.270952	-2.20921	0.0588473	
-0.52148	-1.76639	0.110061	
-0.12194	-1.79547	0.0276122	
-0.894264	-0.702956	0.1912	
0.0181251	-2.26832	-0.00432053	
-0.575834	-0.512288	0.122496	
1.28757	-1.72853	-0.276489	
-0.771033	-1.21175	0.162751	
-0.529346	-1.52254	0.111333	
0.304638	-2.15805	-0.0639665	
1.55179	-1.36363	-0.33389	
-0.626891	-0.981918	0.134356	
4.07526	-0.859385	-0.874013	
-0.480505	-1.94315	0.101763	
-0.127757	-1.47606	0.0273247	
-0.319001	-2.22847	0.0665102	
-0.397892	-2.12122	0.0852856	
-0.202501	-1.57954	0.0447485	
3.40057e-05	-1.98573	0.000158718	
3.76077e-05	-1.39742	0.000177686	
-0.245635	-2.19327	0.0517869	
-4.30854e-05	-2.10986	-0.000202142	
2.19789e-05	-1.69885	0.000102868	
-1.15475	-0.298151	0.245397	
-3.95406e-05	-2.09778	-0.000185228	
2.26689e-07	-1.13099	1.05784e-06	
-7.45537e-05	-0.832148	-0.000349463	
0.199759	0.0320361	0.0425742	
0.142353	0.311859	0.0302374	
0.152829	0.170579	0.0325168	
0.182286	0.25753	0.0386754	
0.175902	0.525885	0.0374628	
-0.565055	0.377189	-0.119682	
-1.44324	0.225191	-0.308262	
0.145309	0.389274	0.0306433	
0.17776	0.118514	0.0379075	
0.0579322	0.0625231	0.0123368	
0.0674214	0.228393	0.0142652	
0.0803474	0.504227	0.0177851	
0.213937	0.580838	0.0449286	
6.58465e-06	0.197631	-3.09828e-05	
0.112314	0.464931	0.0232793	
0.118287	0.575761	0.0249856	
0.0586532	0.557861	0.0124008	
-4.61808e-05	0.514615	0.000216046	
-0.0129577	0.474091	-0.00261972	
3.56447e-06	0.554224	-1.68632e-05	
-4.81554e-06	0.558119	2.25477e-05	
2.24073e-06	0.14537	-1.05113e-05	
0.0848241	0.374862	0.0179514	
1.22274e-05	0.282517	-5.77032e-05	
-1.84488e-06	0.0963477	8.6593e-06	
0.0516455	0.445369	0.0111898	
-8.4578e-06	0.420864	4.00097e-05	
-5.52262e-07	0.338366	2.60248e-06	
-1.35477e-05	0.583466	6.4083e-05	
-0.266922	-1.2447	0.057245	
-0.541053	-1.02384	0.114675	
-0.130569	-1.04528	0.0288426	
-0.925601	-0.404836	0.197817	
0.0282438	-1.27048	-0.00626498	
-0.598581	-0.296002	0.127266	
1.35384	-0.954058	-0.291096	
-0.8017	-0.689841	0.169817	
-0.538231	-0.87459	0.113531	
0.325139	-1.21786	-0.068909	
1.60218	-0.738264	-0.344572	
-0.657765	-0.56212	0.140707	
4.16008	-0.468214	-0.892126	
-0.492162	-1.12353	0.104553	
-0.135456	-0.847511	0.0288441	
-0.325511	-1.2828	0.0684459	
-0.394716	-1.17456	0.0844051	
-0.215956	-0.897487	0.0469747	
1.88935e-05	-1.10326	8.81833e-05	
2.14835e-05	-0.798281	0.000101503	
-0.261649	-1.25815	0.0554667	
-2.42921e-05	-1.18956	-0.00011397	
1.25607e-05	-0.970873	5.87879e-05	
-1.18624	-0.173759	0.25209	
-2.20916e-05	-1.17204	-0.000103488	
1.27577e-07	-0.636505	5.95336e-07	
-4.1944e-05	-0.468167	-0.000196609	
0.186653	0.0373383	0.0397791	
0.131704	0.31633	0.0279819	
0.141986	0.178378	0.0302072	
0.171906	0.266649	0.0364743	
0.168506	0.524981	0.0358807	
-0.520792	0.339242	-0.110292	
-1.40279	0.205234	-0.299623	
0.136279	0.395712	0.0287297	
0.167693	0.125865	0.0357614	
0.0514383	0.0667882	0.0109538	
0.0611073	0.235737	0.0129257	
0.0710288	0.487009	0.0157919	
0.21563	0.566405	0.0453026	
6.86652e-06	0.206091	-3.23091e-05	
0.108227	0.460557	0.0224221	
0.128578	0.53225	0.0271646	
0.0557396	0.554483	0.0117804	
-4.56135e-05	0.508294	0.000213392	
0.000478536	0.431157	0.000217479	
3.2145e-06	0.499809	-1.52076e-05	
-4.70843e-06	0.545705	2.20461e-05	
2.327e-06	0.150967	-1.0916e-05	
0.078767	0.376087	0.0166672	
1.26133e-05	0.291434	-5.95244e-05	
-1.91009e-06	0.0997534	8.96539e-06	
0.0481591	0.439878	0.0104457	
-8.39626e-06	0.417801	3.97185e-05	
-5.64032e-07	0.345577	2.65794e-06	
-1.28313e-05	0.552613	6.06944e-05	
				</DataArray>
			</CellData>
			<Points>
				<DataArray type="Float64" Name="Position" NumberOfComponents="3" Format="ascii">
3.70036	4.73446	-0.0851313	
2.66183	2.98976	-0.0810285	
2.79164	3.20588	-0.0817525	
1.37782	0.810867	-0.107833	
3.83045	4.94957	-0.0858641	
1.25768	0.589014	-0.113318	
4.22081	5.60361	-0.0881003	
1.88244	1.68658	-0.0889654	
2.2693	2.33528	-0.0830846	
3.96242	5.16841	-0.0891856	
4.35671	5.81782	-0.0848346	
1.63024	1.24957	-0.0979926	
4.49254	6.0304	-0.0764938	
2.92113	3.42231	-0.0835657	
2.13986	2.11629	-0.0832985	
3.57683	4.51675	-0.0886967	
3.18172	3.86283	-0.0879082	
2.40283	2.55164	-0.0853321	
4.09699	5.38535	-0.0928481	
2.01386	1.89872	-0.0882916	
3.44731	4.29887	-0.0884012	
3.05588	3.64065	-0.0882933	
2.53576	2.76816	-0.0854215	
1.14125	0.365242	-0.116166	
3.31898	4.07917	-0.0914566	
1.7604	1.46795	-0.0934631	
1.5053	1.02897	-0.105945	
-0.328036	-0.585223	-0.115454	
-1.49218	-2.64178	0.0103934	
-0.885594	-1.62577	-0.00539805	
-1.24824	-2.23494	0.00699894	
-2.58878	-4.47072	-0.00553542	
-3.55636	-6.09065	-0.0851124	
-3.68412	-6.28774	-0.0958823	
-1.85812	-3.25168	0.0093109	
-0.645422	-1.2171	-0.0216664	
-0.403467	-0.807669	-0.0737346	
-1.1268	-2.03315	0.00571881	
-2.3446	-4.06196	0.00165527	
-2.95076	-5.07972	-0.0178857	
-1.00607	-1.83039	0.000289281	
-2.22323	-3.85909	0.00732645	
-3.19331	-5.48669	-0.0334562	
-2.83244	-4.87705	-0.00815596	
-2.46771	-4.26663	0.0036795	
-3.43638	-5.89043	-0.0607852	
-3.31694	-5.68886	-0.0408982	
-2.71163	-4.67563	-0.00180267	
-0.764036	-1.42181	-0.0120664	
-1.73657	-3.04993	0.0134109	
-1.36865	-2.43869	0.0102071	
-0.523608	-1.01153	-0.0361991	
-2.10079	-3.65656	0.0106109	
-1.9788	-3.45488	0.012318	
-1.61325	-2.84661	0.0140818	
-3.07524	-5.28396	-0.0173164	
3.36376	4.96317	-0.223363	
2.44966	3.14898	-0.202704	
2.56224	3.37483	-0.204801	
1.29106	0.891448	-0.162041	
3.47464	5.18784	-0.219769	
1.1801	0.663258	-0.156008	
3.80903	5.86956	-0.202143	
1.75312	1.79677	-0.179678	
2.10023	2.47001	-0.191761	
3.58601	5.41656	-0.216322	
3.92266	6.09402	-0.184495	
1.52285	1.34539	-0.172007	
4.03841	6.3154	-0.158524	
2.67427	3.60039	-0.206936	
1.98202	2.24362	-0.184291	
3.25116	4.73794	-0.22152	
2.90707	4.05745	-0.21748	
2.21638	2.69599	-0.197583	
3.6976	5.64365	-0.209648	
1.8678	2.01923	-0.184462	
3.13634	4.51231	-0.219012	
2.79123	3.82861	-0.212173	
2.33066	2.92222	-0.198587	
1.0728	0.433796	-0.14455	
3.02096	4.28507	-0.219431	
1.63846	1.57291	-0.173863	
1.40725	1.1178	-0.170215	
-0.335885	-0.604155	-0.128012	
-1.34809	-2.74382	0.061303	
-0.819366	-1.68405	-0.00517285	
-1.13196	-2.32089	0.0362899	
-2.33824	-4.63718	0.112212	
-3.19882	-6.31554	0.0267312	
-3.30937	-6.52195	-0.00767127	
-1.67949	-3.37548	0.0885963	
-0.615165	-1.2569	-0.0331205	
-0.404835	-0.831977	-0.0825501	
-1.02621	-2.11003	0.024041	
-2.11992	-4.21359	0.10963	
-2.66249	-5.2678	0.112102	
-0.922353	-1.89832	0.00894409	
-2.00969	-4.00358	0.106715	
-2.87811	-5.68946	0.0986012	
-2.55494	-5.05797	0.114775	
-2.22833	-4.42543	0.111858	
-3.09129	-6.10808	0.0591453	
-2.98523	-5.89882	0.0830905	
-2.44678	-4.84869	0.113695	
-0.716529	-1.47046	-0.019084	
-1.56968	-3.16553	0.0815354	
-1.23925	-2.53236	0.0487104	
-0.509927	-1.04329	-0.0480368	
-1.89969	-3.79347	0.101701	
-1.78992	-3.58451	0.0950636	
-1.45855	-2.95488	0.071432	
-2.77032	-5.47897	0.107372	
2.95805	5.17728	-0.229928	
2.16887	3.30563	-0.224185	
2.26647	3.53837	-0.224943	
1.18213	0.97166	-0.194668	
3.05491	5.40878	-0.225344	
1.08782	0.73532	-0.184719	
3.34953	6.11054	-0.206557	
1.57442	1.90814	-0.213291	
1.86945	2.60411	-0.220037	
3.15233	5.64437	-0.220423	
3.45125	6.34174	-0.190333	
1.37961	1.44165	-0.207438	
3.55547	6.56986	-0.166618	
2.36305	3.77118	-0.225053	
1.76954	2.3701	-0.215003	
2.86035	4.94522	-0.229208	
2.56248	4.24323	-0.229969	
1.9689	2.83744	-0.223405	
3.25025	5.87827	-0.213805	
1.67193	2.13813	-0.217333	
2.76177	4.71204	-0.228872	
2.46332	4.00719	-0.227812	
2.06726	3.07097	-0.222091	
0.994949	0.499505	-0.165885	
2.66159	4.47765	-0.230331	
1.4783	1.67649	-0.208752	
1.28135	1.20556	-0.204129	
-0.340455	-0.62758	-0.138376	
-1.20747	-2.82875	0.0354585	
-0.752202	-1.73704	-0.0119665	
-1.02218	-2.39226	0.0191824	
-2.0599	-4.78467	0.0511504	
-2.81332	-6.51803	-0.0154331	
-2.91368	-6.73063	-0.0342246	
-1.49146	-3.48123	0.048967	
-0.574917	-1.29772	-0.0388196	
-0.400115	-0.858432	-0.0923405	
-0.930988	-2.17529	0.0108898	
-1.87068	-4.34742	0.054308	
-2.33956	-5.43582	0.0433317	
-0.841546	-1.95737	-0.000339061	
-1.77568	-4.13036	0.0543471	
-2.52677	-5.87139	0.0295614	
-2.24658	-5.21925	0.0476588	
-1.96463	-4.566	0.053571	
-2.71571	-6.30393	0.00317339	
-2.62111	-6.0877	0.0182283	
-2.15352	-5.00307	0.0492346	
-0.662657	-1.51735	-0.0241585	
-1.39708	-3.26441	0.0462051	
-1.11437	-2.61051	0.0274065	
-0.485103	-1.07737	-0.0553793	
-1.68148	-3.91334	0.053481	
-1.58686	-3.69743	0.0512785	
-1.3022	-3.04673	0.041097	
-2.43299	-5.65396	0.0373561	
2.55652	5.3618	-0.252788	
1.89271	3.44051	-0.245838	
1.97517	3.67944	-0.247098	
1.06622	1.04502	-0.209693	
2.63819	5.59919	-0.248524	
0.98747	0.80276	-0.198314	
2.88567	6.31933	-0.227226	
1.39451	2.00566	-0.232249	
1.64145	2.7208	-0.240592	
2.7201	5.84078	-0.243169	
2.97268	6.55685	-0.209877	
1.23096	1.52703	-0.22464	
3.06187	6.7914	-0.185107	
2.05642	3.91838	-0.247036	
1.5575	2.48018	-0.23539	
2.47466	5.12287	-0.251875	
2.22459	4.40296	-0.252772	
1.7245	2.96018	-0.244117	
2.80217	6.08087	-0.235545	
1.47581	2.24221	-0.237531	
2.3916	4.88401	-0.251164	
2.14111	4.16026	-0.250763	
1.80647	3.19917	-0.243094	
0.910914	0.561008	-0.177371	
2.30704	4.64344	-0.252662	
1.31355	1.76837	-0.227044	
1.14855	1.28507	-0.219603	
-0.344544	-0.652096	-0.141447	
-1.07728	-2.90089	-0.00878185	
-0.687618	-1.78381	-0.0264572	
-0.920184	-2.45353	-0.0126113	
-1.79443	-4.91062	-0.0308548	
-2.42301	-6.69213	-0.0714135	
-2.50695	-6.91098	-0.0770562	
-1.3163	-3.57115	-0.0126122	
-0.536228	-1.33457	-0.0486797	
-0.399107	-0.883093	-0.103219	
-0.841968	-2.2316	-0.0146571	
-1.63476	-4.46163	-0.0230082	
-2.02844	-5.57954	-0.0424248	
-0.764745	-2.00898	-0.0198384	
-1.55521	-4.23847	-0.0199166	
-2.18476	-6.02704	-0.0522734	
-1.95129	-5.35701	-0.0379412	
-1.7146	-4.68594	-0.0263221	
-2.34205	-6.47163	-0.0641609	
-2.2633	-6.2495	-0.058043	
-1.87314	-5.13501	-0.0348012	
-0.610617	-1.5592	-0.0351629	
-1.23698	-3.34879	-0.0104382	
-0.998267	-2.67705	-0.0106799	
-0.463185	-1.10851	-0.0662113	
-1.47558	-4.01543	-0.0173885	
-1.39623	-3.79325	-0.0151587	
-1.15759	-3.12492	-0.00932699	
-2.10676	-5.80364	-0.047107	
2.14157	5.51926	-0.241531	
1.60636	3.5572	-0.235932	
1.67217	3.80139	-0.236773	
0.944778	1.11135	-0.209563	
2.20766	5.76153	-0.238091	
0.882367	0.864396	-0.200267	
2.40809	6.49633	-0.221356	
1.20555	2.09284	-0.226763	
1.40463	2.82277	-0.232077	
2.27379	6.008	-0.233927	
2.47985	6.73913	-0.206779	
1.07532	1.60295	-0.221289	
2.55356	6.97932	-0.186025	
1.73785	4.04529	-0.23609	
1.33742	2.5771	-0.228765	
2.07581	5.27596	-0.240276	
1.8733	4.54051	-0.240721	
1.4717	3.06748	-0.234965	
2.34013	6.25293	-0.22771	
1.27126	2.33358	-0.231501	
2.00938	5.03181	-0.239416	
1.80554	4.29288	-0.239257	
1.5377	3.31172	-0.233643	
0.822039	0.618117	-0.181813	
1.94027	4.78607	-0.239639	
1.1415	1.8497	-0.222974	
1.01004	1.35651	-0.217173	
-0.349751	-0.675238	-0.139809	
-0.93417	-2.96726	-0.0316122	
-0.622441	-1.82595	-0.0458019	
-0.808514	-2.51001	-0.0351736	
-1.50836	-5.02083	-0.0451071	
-2.01774	-6.84021	-0.0783068	
-2.08677	-7.06421	-0.0863355	
-1.12497	-3.65245	-0.0339022	
-0.503067	-1.36722	-0.0658375	
-0.39989	-0.906812	-0.115631	
-0.74584	-2.28315	-0.0366509	
-1.38043	-4.56212	-0.0393607	
-1.69755	-5.70399	-0.052635	
-0.68419	-2.05581	-0.0405312	
-1.31641	-4.334	-0.0374768	
-1.82402	-6.1609	-0.0593298	
-1.63536	-5.47683	-0.0495766	
-1.44415	-4.79137	-0.0416667	
-1.95175	-6.61486	-0.0705013	
-1.8877	-6.38807	-0.0642047	
-1.57211	-5.25002	-0.0476313	
-0.561073	-1.59652	-0.053261	
-1.0614	-3.42512	-0.032194	
-0.871265	-2.73824	-0.0336139	
-0.447824	-1.13686	-0.0827298	
-1.25264	-4.10601	-0.0361393	
-1.18873	-3.87932	-0.0348641	
-0.998105	-3.19619	-0.0318048	
-1.76095	-5.93283	-0.0561046	
1.719	5.64863	-0.234874	
1.31571	3.65597	-0.226697	
1.36495	3.90337	-0.227652	
0.822176	1.16925	-0.201801	
1.76935	5.89454	-0.232418	
0.775806	0.918798	-0.195572	
1.92067	6.6408	-0.218507	
1.01699	2.16544	-0.217111	
1.16633	2.90864	-0.222689	
1.81858	6.14456	-0.229056	
1.97686	6.88815	-0.205676	
0.919162	1.66825	-0.210355	
2.03395	7.13285	-0.18789	
1.41344	4.15157	-0.226284	
1.11563	2.65852	-0.219573	
1.66873	5.40118	-0.233056	
1.51387	4.65413	-0.23168	
1.21595	3.15718	-0.22493	
1.86865	6.39355	-0.223628	
1.06597	2.41075	-0.221907	
1.61631	5.15273	-0.231152	
1.46415	4.40202	-0.23062	
1.26568	3.40568	-0.224414	
0.730908	0.668726	-0.1818	
1.56454	4.90296	-0.231035	
0.96881	1.91982	-0.213655	
0.870181	1.41842	-0.207948	
-0.354218	-0.698075	-0.138026	
-0.7813	-3.02486	-0.0411765	
-0.555035	-1.86417	-0.0658997	
-0.688916	-2.55953	-0.0494771	
-1.21516	-5.11233	-0.0397623	
-1.60242	-6.96105	-0.0739174	
-1.65681	-7.18928	-0.0866609	
-0.925253	-3.72118	-0.0367931	
-0.472601	-1.39761	-0.0872326	
-0.39555	-0.931473	-0.127294	
-0.643259	-2.32896	-0.0534848	
-1.11772	-4.64593	-0.0365011	
-1.35678	-5.80658	-0.0447919	
-0.599066	-2.09744	-0.0591899	
-1.06905	-4.41416	-0.0359471	
-1.45241	-6.27062	-0.0503495	
-1.30999	-5.57573	-0.0421541	
-1.16607	-4.87894	-0.0375521	
-1.55035	-6.73189	-0.0630147	
-1.50141	-6.50132	-0.0559977	
-1.26236	-5.34534	-0.0411335	
-0.512498	-1.63059	-0.0739539	
-0.877282	-3.49011	-0.0370541	
-0.734987	-2.792	-0.0454542	
-0.433627	-1.16457	-0.103962	
-1.02174	-4.18263	-0.035996	
-0.973724	-3.95193	-0.0365706	
-0.829266	-3.25765	-0.0388754	
-1.40463	-6.03903	-0.0470568	
1.28756	5.74804	-0.217401	
1.02329	3.73493	-0.206963	
1.05431	3.98461	-0.206886	
0.697931	1.21894	-0.188653	
1.32102	5.99771	-0.215755	
0.667478	0.965693	-0.185304	
1.42257	6.75211	-0.207909	
0.826822	2.22627	-0.198962	
0.925078	2.97814	-0.20348	
1.3546	6.251	-0.214552	
1.46133	7.00195	-0.198247	
0.761477	1.72389	-0.194583	
1.5028	7.2497	-0.184913	
1.08706	4.23525	-0.206297	
0.890457	2.72477	-0.200738	
1.25466	5.49742	-0.215037	
1.15116	4.74358	-0.211575	
0.958721	3.23033	-0.204335	
1.38802	6.50133	-0.210766	
0.858538	2.47464	-0.20341	
1.22034	5.24604	-0.21252	
1.11968	4.48865	-0.21064	
0.99034	3.48152	-0.204649	
0.637699	0.71306	-0.180316	
1.18552	4.99461	-0.21116	
0.795158	1.97648	-0.196559	
0.729884	1.47061	-0.193094	
-0.356882	-0.721288	-0.137523	
-0.631708	-3.0708	-0.055095	
-0.490495	-1.89782	-0.0920172	
-0.572352	-2.60034	-0.0654517	
-0.919258	-5.1837	-0.0487023	
-1.18029	-7.05317	-0.0783204	
-1.21883	-7.28389	-0.0930802	
-0.726293	-3.77514	-0.0477619	
-0.439578	-1.42681	-0.11763	
-0.385086	-0.956524	-0.135529	
-0.543614	-2.36722	-0.0720662	
-0.854897	-4.71174	-0.04591	
-1.0143	-5.8849	-0.0521529	
-0.517046	-2.1334	-0.0810521	
-0.822871	-4.4769	-0.0458112	
-1.0784	-6.35457	-0.0566038	
-0.982486	-5.65172	-0.0507742	
-0.886857	-4.94735	-0.0469368	
-1.14479	-6.82149	-0.0673957	
-1.1115	-6.58835	-0.0608709	
-0.950732	-5.41879	-0.0496736	
-0.465125	-1.66211	-0.104226	
-0.693884	-3.54177	-0.0487729	
-0.601699	-2.83534	-0.0594913	
-0.412581	-1.19185	-0.126152	
-0.790971	-4.24289	-0.0464744	
-0.758966	-4.00915	-0.0471148	
-0.66293	-3.30604	-0.0512928	
-1.04625	-6.12004	-0.053926	
0.866538	5.80562	-0.190932	
0.736153	3.78468	-0.183711	
0.751165	4.03494	-0.183773	
0.57554	1.25497	-0.174975	
0.882737	6.05602	-0.189979	
0.560215	1.00144	-0.173448	
0.932363	6.81459	-0.187293	
0.639199	2.26729	-0.179744	
0.687742	3.02317	-0.182301	
0.898586	6.31091	-0.189718	
0.95219	7.06638	-0.182359	
0.6069	1.76234	-0.177922	
0.974494	7.31754	-0.177027	
0.767557	4.28584	-0.182813	
0.67063	2.769	-0.180178	
0.84963	5.55346	-0.189087	
0.798673	4.79591	-0.186932	
0.704601	3.27736	-0.182371	
0.91551	6.56333	-0.187541	
0.65474	2.51736	-0.182587	
0.833739	5.30115	-0.187509	
0.783074	4.54067	-0.186428	
0.719805	3.53047	-0.182489	
0.545405	0.747255	-0.171911	
0.816109	5.04758	-0.186387	
0.623218	2.01588	-0.178648	
0.591104	1.50827	-0.177468	
-0.357021	-0.744506	-0.13802	
-0.496577	-3.10288	-0.101201	
-0.426437	-1.92501	-0.124454	
-0.467837	-2.63036	-0.109425	
-0.636883	-5.22481	-0.0911558	
-0.765528	-7.10592	-0.106173	
-0.785098	-7.33882	-0.115644	
-0.542512	-3.81045	-0.0933682	
-0.399497	-1.45252	-0.133672	
-0.371235	-0.980418	-0.1379	
-0.453499	-2.39599	-0.114098	
-0.605103	-4.75176	-0.0903513	
-0.683237	-5.92974	-0.0924688	
-0.440079	-2.16134	-0.119298	
-0.590049	-4.51572	-0.0905668	
-0.71501	-6.40169	-0.0942425	
-0.667947	-5.69522	-0.091854	
-0.620609	-4.98794	-0.0902159	
-0.747926	-6.87195	-0.0997188	
-0.731246	-6.63685	-0.096486	
-0.652591	-5.46107	-0.0917178	
-0.413074	-1.68867	-0.129281	
-0.526686	-3.57533	-0.0950598	
-0.4821	-2.86647	-0.105081	
-0.385444	-1.21658	-0.13502	
-0.574172	-4.28013	-0.0914037	
-0.558498	-4.04539	-0.0921908	
-0.511623	-3.33897	-0.0976663	
-0.699022	-6.16606	-0.0931497	
				</DataArray>
			</Points>
			<Cells>
				<DataArray type="Int32" Name="connectivity" Format="ascii">
0	
1	
2	
3	
4	
5	
6	
7	
8	
9	
10	
11	
12	
13	
14	
15	
16	
17	
18	
19	
20	
21	
22	
23	
24	
25	
26	
27	
28	
29	
30	
31	
32	
33	
34	
35	
36	
37	
38	
39	
40	
41	
42	
43	
44	
45	
46	
47	
48	
49	
50	
51	
52	
53	
54	
55	
56	
57	
58	
59	
60	
61	
62	
63	
64	
65	
66	
67	
68	
69	
70	
71	
72	
73	
74	
75	
76	
77	
78	
79	
80	
81	
82	
83	
84	
85	
86	
87	
88	
89	
90	
91	
92	
93	
94	
95	
96	
97	
98	
99	
100	
101	
102	
103	
104	
105	
106	
107	
108	
109	
110	
111	
112	
113	
114	
115	
116	
117	
118	
119	
120	
121	
122	
123	
124	
125	
126	
127	
128	
129	
130	
131	
132	
133	
134	
135	
136	
137	
138	
139	
140	
141	
142	
143	
144	
145	
146	
147	
148	
149	
150	
151	
152	
153	
154	
155	
156	
157	
158	
159	
160	
161	
162	
163	
164	
165	
166	
167	
168	
169	
170	
171	
172	
173	
174	
175	
176	
177	
178	
179	
180	
181	
182	
183	
184	
185	
186	
187	
188	
189	
190	
191	
192	
193	
194	
195	
196	
197	
198	
199	
200	
201	
202	
203	
204	
205	
206	
207	
208	
209	
210	
211	
212	
213	
214	
215	
216	
217	
218	
219	
220	
221	
222	
223	
224	
225	
226	
227	
228	
229	
230	
231	
232	
233	
234	
235	
236	
237	
238	
239	
240	
241	
242	
243	
244	
245	
246	
247	
248	
249	
250	
251	
252	
253	
254	
255	
256	
257	
258	
259	
260	
261	
262	
263	
264	
265	
266	
267	
268	
269	
270	
271	
272	
273	
274	
275	
276	
277	
278	
279	
280	
281	
282	
283	
284	
285	
286	
287	
288	
289	
290	
291	
292	
293	
294	
295	
296	
297	
298	
299	
300	
301	
302	
303	
304	
305	
306	
307	
308	
309	
310	
311	
312	
313	
314	
315	
316	
317	
318	
319	
320	
321	
322	
323	
324	
325	
326	
327	
328	
329	
330	
331	
332	
333	
334	
335	
336	
337	
338	
339	
340	
341	
342	
343	
344	
345	
346	
347	
348	
349	
350	
351	
352	
353	
354	
355	
356	
357	
358	
359	
360	
361	
362	
363	
364	
365	
366	
367	
368	
369	
370	
371	
372	
373	
374	
375	
376	
377	
378	
379	
380	
381	
382	
383	
384	
385	
386	
387	
388	
389	
390	
391	
392	
393	
394	
395	
396	
397	
398	
399	
400	
401	
402	
403	
404	
405	
406	
407	
408	
409	
410	
411	
412	
413	
414	
415	
416	
417	
418	
419	
420	
421	
422	
423	
424	
425	
426	
427	
428	
429	
430	
431	
432	
433	
434	
435	
436	
437	
438	
439	
440	
441	
442	
443	
444	
445	
446	
447	
				</DataArray>
				<DataArray type="Int32" Name="offsets" Format="ascii">
1	
2	
3	
4	
5	
6	
7	
8	
9	
10	
11	
12	
13	
14	
15	
16	
17	
18	
19	
20	
21	
22	
23	
24	
25	
26	
27	
28	
29	
30	
31	
32	
33	
34	
35	
36	
37	
38	
39	
40	
41	
42	
43	
44	
45	
46	
47	
48	
49	
50	
51	
52	
53	
54	
55	
56	
57	
58	
59	
60	
61	
62	
63	
64	
65	
66	
67	
68	
69	
70	
71	
72	
73	
74	
75	
76	
77	
78	
79	
80	
81	
82	
83	
84	
85	
86	
87	
88	
89	
90	
91	
92	
93	
94	
95	
96	
97	
98	
99	
100	
101	
102	
103	
104	
105	
106	
107	
108	
109	
110	
111	
112	
113	
114	
115	
116	
117	
118	
119	
120	
121	
122	
123	
124	
125	
126	
127	
128	
129	
130	
131	
132	
133	
134	
135	
136	
137	
138	
139	
140	
141	
142	
143	