<VTKFile type="UnstructuredGrid" version="0.1" byte_order="LittleEndian">
	<UnstructuredGrid>
		<Piece NumberOfPoints="0" NumberOfCells="0">
			<CellData Scalars="scalars">
				<DataArray type="Float64" Name="Strength" NumberOfComponents="3" Format="ascii">
				</DataArray>
			</CellData>
			<Points>
				<DataArray type="Float64" Name="Position" NumberOfComponents="3" Format="ascii">
				</DataArray>
			</Points>
			<Cells>
				<DataArray type="Int32" Name="connectivity" Format="ascii">
				</DataArray>
				<DataArray type="Int32" Name="offsets" Format="ascii">
				</DataArray>
				<DataArray type="Int32" Name="types" Format="ascii">
				</DataArray>
			</Cells>
		</Piece>
	</UnstructuredGrid>
</VTKFile>
