<VTKFile type="UnstructuredGrid" version="0.1" byte_order="LittleEndian">
	<UnstructuredGrid>
		<Piece NumberOfPoints="1120" NumberOfCells="1120">
			<CellData Scalars="scalars">
				<DataArray type="Float64" Name="Strength" NumberOfComponents="3" Format="ascii">
-0.171782	-17.2314	0.0495137	
-0.231269	-11.9241	0.0421537	
0.00653581	-11.9359	0.00844583	
-0.396801	-4.90045	0.0860175	
-0.0556262	-16.995	0.00831232	
-0.207915	-4.19324	0.0453927	
0.358216	-17.0262	-0.0695182	
-0.318859	-8.15596	0.0593454	
-0.327226	-10.2344	0.0642685	
0.0850913	-17.3309	-0.00803656	
0.594233	-14.8628	-0.131328	
-0.181912	-6.9177	0.0427595	
2.12581	-11.7398	-0.458062	
-0.232073	-12.273	0.044955	
-0.0160475	-9.204	0.00503123	
-0.158211	-15.9103	0.0243451	
-0.31115	-14.7858	0.0695098	
-0.00729183	-11.0016	0.0120016	
0.000288584	-16.8515	0.00134693	
0.000243089	-9.03269	0.00114853	
0.00791539	-15.1984	-0.00596833	
-0.000276902	-13.5597	-0.00129913	
0.000143053	-11.0572	0.000669533	
-0.55991	-3.09017	0.118939	
-0.000287834	-15.2707	-0.00134836	
1.47767e-06	-7.37237	6.89552e-06	
-0.000571308	-6.37678	-0.00267795	
0.231575	-0.680825	0.0494974	
0.180443	-5.70736	0.0369714	
0.18862	-3.14146	0.0405838	
0.21865	-4.58005	0.0460669	
0.213295	-9.68668	0.0486597	
-0.750809	-11.6934	-0.16671	
-1.67043	-8.47483	-0.358148	
0.179704	-7.08749	0.0400866	
0.214852	-2.16917	0.0457274	
0.081075	-1.1802	0.0172827	
0.0898422	-4.05868	0.0195515	
0.116497	-9.48693	0.0154151	
0.254921	-11.361	0.062555	
-0.000121401	-3.64371	0.00057123	
0.125675	-8.60308	0.033448	
0.138901	-12.2227	0.030044	
0.0624091	-10.4817	0.0152197	
0.000824856	-9.19178	-0.0038589	
-0.0537774	-12.3317	-0.0147202	
-8.11411e-05	-12.6163	0.000383872	
8.86667e-05	-10.2764	-0.000415161	
-4.13774e-05	-2.6844	0.000194102	
0.111925	-6.70128	0.0242918	
-0.000225952	-5.22068	0.00106631	
3.04713e-05	-1.59135	-0.000143023	
0.0673749	-7.95852	0.0106625	
0.000151551	-7.54125	-0.000716913	
1.0016e-05	-6.13672	-4.71994e-05	
0.000276712	-11.9173	-0.0013089	
-0.162104	-2.80059	0.0362064	
-0.287102	-2.09999	0.0599576	
-0.0026423	-2.15226	0.00234173	
-0.441557	-0.923638	0.0945849	
-0.0819779	-2.8913	0.0168255	
-0.249749	-0.739595	0.0532788	
0.458057	-2.7699	-0.0975292	
-0.378444	-1.36828	0.0791539	
-0.347548	-1.77263	0.0727326	
0.118219	-3.04491	-0.0235257	
0.700893	-2.29026	-0.151213	
-0.226981	-1.21716	0.0491152	
2.43949	-1.72977	-0.523422	
-0.238889	-2.25877	0.0501147	
-0.0325999	-1.65177	0.00719858	
-0.191165	-2.93262	0.0389248	
-0.328703	-2.25744	0.0705679	
-0.0342582	-1.76958	0.0089966	
4.88033e-05	-2.84981	0.000227784	
4.16779e-05	-1.54867	0.000196917	
-0.0601984	-2.77035	0.0120628	
-4.70471e-05	-2.30386	-0.00022073	
2.4689e-05	-1.90833	0.000115552	
-0.653741	-0.517916	0.138921	
-4.51869e-05	-2.39733	-0.000211678	
2.46042e-07	-1.22754	1.14815e-06	
-8.8271e-05	-0.985256	-0.000413762	
0.274069	-0.134809	0.0584495	
0.214725	-1.02305	0.0452766	
0.224783	-0.581586	0.0479377	
0.257052	-0.857099	0.0544583	
0.239925	-1.76963	0.0518819	
-0.906653	-1.80256	-0.193637	
-1.91782	-1.25377	-0.409869	
0.211213	-1.30466	0.0450841	
0.250677	-0.40936	0.0534345	
0.0982903	-0.216433	0.0209357	
0.107218	-0.749688	0.0228239	
0.142495	-1.59847	0.0288716	
0.276539	-2.0434	0.060158	
-2.23093e-05	-0.669587	0.000104972	
0.148481	-1.54168	0.0325246	
0.142472	-2.08589	0.030245	
0.0909067	-1.93765	0.0197324	
0.000151045	-1.68317	-0.000706628	
-0.0610998	-2.04467	-0.0135045	
-1.33794e-05	-2.08031	6.32969e-05	
1.56633e-05	-1.81537	-7.33397e-05	
-7.49277e-06	-0.486101	3.51486e-05	
0.12696	-1.2049	0.0270171	
-4.13118e-05	-0.95452	0.000194958	
5.81643e-06	-0.30376	-2.73006e-05	
0.0801492	-1.43191	0.0163872	
2.7126e-05	-1.3498	-0.00012832	
1.84414e-06	-1.12989	-8.69033e-06	
4.79301e-05	-2.06423	-0.000226718	
-0.243815	-8.12522	0.0576741	
-0.370791	-5.93617	0.07547	
-0.047546	-5.98759	0.0151283	
-0.634822	-2.49785	0.13625	
-0.0423797	-8.42971	0.00726596	
-0.383284	-1.91929	0.0819933	
0.762521	-7.38502	-0.160947	
-0.531712	-4.07067	0.108887	
-0.441924	-5.12161	0.0910635	
0.169192	-8.22873	-0.0313947	
1.07586	-6.2614	-0.232773	
-0.383	-3.3979	0.0836705	
3.21062	-4.25821	-0.689255	
-0.359203	-6.41854	0.074236	
-0.0669086	-4.86262	0.0150355	
-0.248481	-7.91322	0.0482015	
-0.386166	-7.3551	0.0839096	
-0.0950946	-5.38331	0.0254203	
0.000135995	-7.94126	0.000634741	
0.000124666	-4.63233	0.000589013	
-0.112053	-7.67426	0.0217449	
-0.000144716	-7.08662	-0.000678958	
7.40372e-05	-5.72268	0.000346517	
-0.87169	-1.20288	0.185227	
-0.000139549	-7.40361	-0.00065372	
7.68723e-07	-3.8353	3.58723e-06	
-0.000267186	-2.98225	-0.00125241	
0.181786	0.257932	0.0386998	
0.132864	2.3799	0.0286861	
0.145155	1.30836	0.0307295	
0.174493	1.95657	0.0371351	
0.167217	4.05952	0.0344988	
-0.519685	3.93572	-0.107806	
-1.41139	2.56954	-0.301093	
0.13684	2.97263	0.0281029	
0.170925	0.899337	0.0364806	
0.05271	0.470342	0.011219	
0.0615025	1.72724	0.0128241	
0.0707076	3.85731	0.0191096	
0.209611	4.68135	0.040944	
5.03934e-05	1.5125	-0.000237116	
0.110548	3.57318	0.0203866	
0.123043	4.8812	0.0257564	
0.0618498	4.40638	0.0123787	
-0.000353136	3.93517	0.00165206	
0.00693813	4.55119	0.0026957	
3.15278e-05	4.90212	-0.000149155	
-3.71473e-05	4.30536	0.000173934	
1.707e-05	1.10743	-8.00754e-05	
0.0771463	2.83519	0.0161169	
9.38425e-05	2.16826	-0.000442859	
-1.34368e-05	0.70173	6.30683e-05	
0.0480329	3.37675	0.0117723	
-6.39584e-05	3.1826	0.000302555	
-4.21697e-06	2.5837	1.9872e-05	
-0.000111601	4.80638	0.000527893	
-0.243332	-2.64826	0.0533127	
-0.415687	-2.02903	0.0873816	
-0.0624045	-2.07709	0.0150864	
-0.6883	-0.859004	0.14726	
-0.0430736	-2.75111	0.00858618	
-0.429094	-0.654288	0.0913593	
0.883977	-2.35651	-0.189379	
-0.58949	-1.34295	0.124035	
-0.459471	-1.71823	0.096451	
0.201938	-2.76187	-0.0416195	
1.18999	-1.90284	-0.256251	
-0.435967	-1.14286	0.0936855	
3.44521	-1.2946	-0.738994	
-0.375525	-2.21782	0.0792717	
-0.0832511	-1.64514	0.017927	
-0.272039	-2.73599	0.0562311	
-0.392196	-2.27698	0.0841086	
-0.122986	-1.74497	0.0279232	
4.4098e-05	-2.57505	0.000205822	
4.15088e-05	-1.54238	0.000196118	
-0.164276	-2.62842	0.034307	
-4.72248e-05	-2.31256	-0.000221563	
2.45126e-05	-1.89469	0.000114727	
-0.945797	-0.409021	0.200989	
-4.41937e-05	-2.34464	-0.000207026	
2.47706e-07	-1.23585	1.15592e-06	
-8.49449e-05	-0.948131	-0.000398171	
0.146286	0.104604	0.0311618	
0.102371	0.892797	0.0218944	
0.113756	0.501159	0.0241533	
0.143287	0.750765	0.0304366	
0.143334	1.52883	0.0301799	
-0.378813	1.29427	-0.0795109	
-1.24684	0.834451	-0.266212	
0.110071	1.12951	0.0229695	
0.141119	0.349741	0.030104	
0.0355095	0.18087	0.00755987	
0.0444279	0.659157	0.00933696	
0.0437806	1.38982	0.0109189	
0.200056	1.73065	0.0411355	
1.93028e-05	0.579353	-9.08259e-05	
0.0956547	1.32602	0.0190721	
0.132764	1.71615	0.0279857	
0.0437646	1.65996	0.00902561	
-0.000131599	1.46647	0.000615654	
0.0311236	1.55245	0.00701655	
1.0777e-05	1.67567	-5.09853e-05	
-1.3689e-05	1.58655	6.40954e-05	
6.4714e-06	0.419839	-3.03574e-05	
0.0615002	1.06003	0.0129491	
3.57529e-05	0.82608	-0.000168724	
-5.13506e-06	0.268175	2.41024e-05	
0.0371316	1.25244	0.00847474	
-2.37876e-05	1.18368	0.000112527	
-1.60188e-06	0.98146	7.54871e-06	
-4.00909e-05	1.72662	0.000189637	
-0.268916	-4.14204	0.0599102	
-0.462739	-3.16777	0.096712	
-0.0924798	-3.21141	0.0224671	
-0.792161	-1.30268	0.169548	
-0.0118976	-4.29367	0.00164185	
-0.501799	-0.967255	0.106898	
1.07725	-3.47042	-0.23045	
-0.67605	-2.1781	0.141549	
-0.497776	-2.73292	0.104058	
0.245897	-4.13127	-0.0502281	
1.37703	-2.82107	-0.296679	
-0.529201	-1.78886	0.113961	
3.7746	-1.81878	-0.809725	
-0.434923	-3.4745	0.0914751	
-0.104072	-2.63636	0.0225133	
-0.295659	-4.1186	0.0604451	
-0.400753	-3.86932	0.0862719	
-0.160557	-2.84862	0.0369951	
6.6541e-05	-3.88558	0.000310572	
6.72699e-05	-2.49961	0.000317832	
-0.197366	-4.02744	0.0409726	
-7.77047e-05	-3.80514	-0.000364565	
3.95479e-05	-3.05684	0.000185096	
-1.05024	-0.576451	0.223183	
-7.2621e-05	-3.85281	-0.000340193	
4.10432e-07	-2.04772	1.91527e-06	
-0.000137812	-1.53822	-0.000645981	
0.186653	-0.119957	0.0398103	
0.134111	-0.922041	0.0282169	
0.143602	-0.514754	0.0306447	
0.173342	-0.765102	0.0367105	
0.169724	-1.55861	0.0367932	
-0.527791	-1.27152	-0.11279	
-1.40168	-0.785721	-0.299541	
0.138494	-1.14905	0.0296457	
0.169343	-0.364209	0.0360942	
0.0534941	-0.205747	0.0113954	
0.0627641	-0.678767	0.0133907	
0.0729757	-1.4792	0.0142299	
0.216256	-1.75748	0.0471746	
-1.9739e-05	-0.592443	9.2878e-05	
0.1078	-1.37092	0.0238176	
0.126034	-1.77949	0.0267527	
0.0516249	-1.67442	0.0113107	
0.00013617	-1.51741	-0.000637038	
-0.00712742	-1.54818	-0.00192775	
-1.1221e-05	-1.74471	5.30858e-05	
1.42541e-05	-1.65205	-6.67416e-05	
-6.79115e-06	-0.440582	3.18573e-05	
0.0814512	-1.10165	0.0173605	
-3.63501e-05	-0.839878	0.000171542	
5.68741e-06	-0.297022	-2.6695e-05	
0.0491549	-1.30719	0.00985243	
2.48074e-05	-1.23442	-0.000117351	
1.63352e-06	-1.00084	-7.6978e-06	
4.13326e-05	-1.78009	-0.000195511	
-0.267062	-1.91159	0.0577856	
-0.49336	-1.51401	0.104227	
-0.104952	-1.54783	0.0237674	
-0.836058	-0.620535	0.178751	
-0.00283338	-1.97063	0.000195198	
-0.536023	-0.462329	0.114023	
1.17454	-1.5646	-0.252251	
-0.720177	-1.01495	0.15215	
-0.510736	-1.28851	0.10751	
0.273699	-1.92553	-0.0574779	
1.45778	-1.23244	-0.313651	
-0.572185	-0.842471	0.122596	
3.91962	-0.80047	-0.840627	
-0.450638	-1.66152	0.0954977	
-0.115706	-1.24471	0.024731	
-0.308859	-1.96653	0.0645071	
-0.40015	-1.72865	0.0856847	
-0.180898	-1.31789	0.0398864	
3.02964e-05	-1.76912	0.000141405	
3.15068e-05	-1.17073	0.000148861	
-0.227569	-1.91066	0.0480123	
-3.57583e-05	-1.75106	-0.000167766	
1.84786e-05	-1.42829	8.64854e-05	
-1.10073	-0.278657	0.233917	
-3.29366e-05	-1.74741	-0.000154292	
1.87935e-07	-0.937641	8.76994e-07	
-6.30315e-05	-0.70354	-0.000295454	
0.212024	-0.0775708	0.0452103	
0.153377	-0.574731	0.0323763	
0.163096	-0.327086	0.0347698	
0.192385	-0.485307	0.0407681	
0.184399	-0.966039	0.0397481	
-0.613677	-0.70364	-0.130698	
-1.48762	-0.43587	-0.317844	
0.155124	-0.720987	0.0330423	
0.187398	-0.233391	0.0399489	
0.0645934	-0.12928	0.0137581	
0.0739233	-0.428771	0.0157254	
0.0903348	-0.887059	0.0185058	
0.217375	-1.06756	0.0468888	
-1.25454e-05	-0.376536	5.90301e-05	
0.115965	-0.841434	0.025108	
0.11261	-1.02889	0.0238724	
0.0597389	-1.0349	0.0129235	
8.35404e-05	-0.930932	-0.000390824	
-0.0285682	-0.874047	-0.0062922	
-6.32559e-06	-0.98354	2.99259e-05	
8.67142e-06	-1.00501	-4.06019e-05	
-4.27682e-06	-0.277463	2.00626e-05	
0.0920385	-0.682224	0.0195698	
-2.29784e-05	-0.530923	0.000108439	
3.55396e-06	-0.185604	-1.66812e-05	
0.0557197	-0.800533	0.0114822	
1.52534e-05	-0.759013	-7.21561e-05	
1.02655e-06	-0.628956	-4.83749e-06	
2.4443e-05	-1.0527	-0.00011562	
-0.270952	-2.20921	0.0588473	
-0.52148	-1.76639	0.110061	
-0.12194	-1.79547	0.0276122	
-0.894264	-0.702956	0.1912	
0.0181251	-2.26832	-0.00432053	
-0.575834	-0.512288	0.122496	
1.28757	-1.72853	-0.276489	
-0.771033	-1.21175	0.162751	
-0.529346	-1.52254	0.111333	
0.304638	-2.15805	-0.0639665	
1.55179	-1.36363	-0.33389	
-0.626891	-0.981918	0.134356	
4.07526	-0.859385	-0.874013	
-0.480505	-1.94315	0.101763	
-0.127757	-1.47606	0.0273247	
-0.319001	-2.22847	0.0665102	
-0.397892	-2.12122	0.0852856	
-0.202501	-1.57954	0.0447485	
3.40057e-05	-1.98573	0.000158718	
3.76077e-05	-1.39742	0.000177686	
-0.245635	-2.19327	0.0517869	
-4.30854e-05	-2.10986	-0.000202142	
2.19789e-05	-1.69885	0.000102868	
-1.15475	-0.298151	0.245397	
-3.95406e-05	-2.09778	-0.000185228	
2.26689e-07	-1.13099	1.05784e-06	
-7.45537e-05	-0.832148	-0.000349463	
0.199759	0.0320361	0.0425742	
0.142353	0.311859	0.0302374	
0.152829	0.170579	0.0325168	
0.182286	0.25753	0.0386754	
0.175902	0.525885	0.0374628	
-0.565055	0.377189	-0.119682	
-1.44324	0.225191	-0.308262	
0.145309	0.389274	0.0306433	
0.17776	0.118514	0.0379075	
0.0579322	0.0625231	0.0123368	
0.0674214	0.228393	0.0142652	
0.0803474	0.504227	0.0177851	
0.213937	0.580838	0.0449286	
6.58465e-06	0.197631	-3.09828e-05	
0.112314	0.464931	0.0232793	
0.118287	0.575761	0.0249856	
0.0586532	0.557861	0.0124008	
-4.61808e-05	0.514615	0.000216046	
-0.0129577	0.474091	-0.00261972	
3.56447e-06	0.554224	-1.68632e-05	
-4.81554e-06	0.558119	2.25477e-05	
2.24073e-06	0.14537	-1.05113e-05	
0.0848241	0.374862	0.0179514	
1.22274e-05	0.282517	-5.77032e-05	
-1.84488e-06	0.0963477	8.6593e-06	
0.0516455	0.445369	0.0111898	
-8.4578e-06	0.420864	4.00097e-05	
-5.52262e-07	0.338366	2.60248e-06	
-1.35477e-05	0.583466	6.4083e-05	
-0.266922	-1.2447	0.057245	
-0.541053	-1.02384	0.114675	
-0.130569	-1.04528	0.0288426	
-0.925601	-0.404836	0.197817	
0.0282438	-1.27048	-0.00626498	
-0.598581	-0.296002	0.127266	
1.35384	-0.954058	-0.291096	
-0.8017	-0.689841	0.169817	
-0.538231	-0.87459	0.113531	
0.325139	-1.21786	-0.068909	
1.60218	-0.738264	-0.344572	
-0.657765	-0.56212	0.140707	
4.16008	-0.468214	-0.892126	
-0.492162	-1.12353	0.104553	
-0.135456	-0.847511	0.0288441	
-0.325511	-1.2828	0.0684459	
-0.394716	-1.17456	0.0844051	
-0.215956	-0.897487	0.0469747	
1.88935e-05	-1.10326	8.81833e-05	
2.14835e-05	-0.798281	0.000101503	
-0.261649	-1.25815	0.0554667	
-2.42921e-05	-1.18956	-0.00011397	
1.25607e-05	-0.970873	5.87879e-05	
-1.18624	-0.173759	0.25209	
-2.20916e-05	-1.17204	-0.000103488	
1.27577e-07	-0.636505	5.95336e-07	
-4.1944e-05	-0.468167	-0.000196609	
0.186653	0.0373383	0.0397791	
0.131704	0.31633	0.0279819	
0.141986	0.178378	0.0302072	
0.171906	0.266649	0.0364743	
0.168506	0.524981	0.0358807	
-0.520792	0.339242	-0.110292	
-1.40279	0.205234	-0.299623	
0.136279	0.395712	0.0287297	
0.167693	0.125865	0.0357614	
0.0514383	0.0667882	0.0109538	
0.0611073	0.235737	0.0129257	
0.0710288	0.487009	0.0157919	
0.21563	0.566405	0.0453026	
6.86652e-06	0.206091	-3.23091e-05	
0.108227	0.460557	0.0224221	
0.128578	0.53225	0.0271646	
0.0557396	0.554483	0.0117804	
-4.56135e-05	0.508294	0.000213392	
0.000478536	0.431157	0.000217479	
3.2145e-06	0.499809	-1.52076e-05	
-4.70843e-06	0.545705	2.20461e-05	
2.327e-06	0.150967	-1.0916e-05	
0.078767	0.376087	0.0166672	
1.26133e-05	0.291434	-5.95244e-05	
-1.91009e-06	0.0997534	8.96539e-06	
0.0481591	0.439878	0.0104457	
-8.39626e-06	0.417801	3.97185e-05	
-5.64032e-07	0.345577	2.65794e-06	
-1.28313e-05	0.552613	6.06944e-05	
-0.264006	-1.21552	0.0566065	
-0.557715	-1.0156	0.118227	
-0.139904	-1.03292	0.0308328	
-0.958956	-0.395014	0.204937	
0.0418423	-1.23505	-0.00914771	
-0.620914	-0.28573	0.132008	
1.41853	-0.900157	-0.305035	
-0.831977	-0.695282	0.176246	
-0.548159	-0.875531	0.115631	
0.345054	-1.16307	-0.0732057	
1.65109	-0.696394	-0.355075	
-0.690035	-0.558418	0.147595	
4.23868	-0.433941	-0.908972	
-0.507626	-1.11534	0.107854	
-0.142538	-0.850241	0.0303449	
-0.329737	-1.24082	0.0693688	
-0.390461	-1.19885	0.0835018	
-0.228475	-0.905585	0.0496562	
1.80214e-05	-1.05234	8.4113e-05	
2.16429e-05	-0.804207	0.000102257	
-0.271157	-1.22888	0.0575034	
-2.45437e-05	-1.20189	-0.000115151	
1.26085e-05	-0.97457	5.90117e-05	
-1.21624	-0.165601	0.258466	
-2.22167e-05	-1.17868	-0.000104074	
1.29326e-07	-0.645229	6.03496e-07	
-4.20177e-05	-0.46899	-0.000196954	
0.190969	-0.0132424	0.040709	
0.134703	-0.0856984	0.0285281	
0.144494	-0.0480835	0.0307718	
0.174489	-0.0705411	0.0369997	
0.170693	-0.14218	0.0365573	
-0.533659	-0.0936426	-0.1133	
-1.41347	-0.0542653	-0.301947	
0.139019	-0.106017	0.0294549	
0.169977	-0.035158	0.036242	
0.0531255	-0.0220071	0.0113143	
0.0628572	-0.0632338	0.0133339	
0.0737054	-0.140115	0.0157297	
0.216497	-0.154487	0.0460254	
-1.83108e-06	-0.0549577	8.61579e-06	
0.109062	-0.127582	0.023075	
0.126646	-0.152591	0.0267933	
0.0553874	-0.148636	0.0118338	
1.26203e-05	-0.140635	-5.90413e-05	
-0.00444712	-0.120211	-0.000975222	
-9.35859e-07	-0.145513	4.42748e-06	
1.31076e-06	-0.151917	-6.13734e-06	
-6.50104e-07	-0.0421762	3.04964e-06	
0.0809219	-0.103204	0.0171644	
-3.33792e-06	-0.0771235	1.57522e-05	
5.85302e-07	-0.0305671	-2.74723e-06	
0.0493022	-0.122871	0.0104295	
2.33354e-06	-0.116118	-1.10388e-05	
1.50616e-07	-0.0922811	-7.09762e-07	
3.60893e-06	-0.155428	-1.70709e-05	
-0.259395	-0.771862	0.0552849	
-0.569734	-0.660971	0.120999	
-0.145351	-0.673594	0.0317036	
-0.979666	-0.2562	0.209325	
0.0500244	-0.78018	-0.0107927	
-0.635286	-0.186059	0.135033	
1.46038	-0.561848	-0.31419	
-0.852155	-0.447442	0.180795	
-0.553928	-0.566882	0.117003	
0.358907	-0.737044	-0.0764226	
1.68106	-0.429516	-0.361453	
-0.710643	-0.360633	0.151882	
4.28736	-0.268786	-0.919381	
-0.5153	-0.723511	0.109636	
-0.147442	-0.550121	0.0313306	
-0.332594	-0.799212	0.0702337	
-0.386818	-0.756136	0.0826296	
-0.236975	-0.582512	0.0511648	
1.13003e-05	-0.659866	5.27428e-05	
1.3958e-05	-0.51865	6.59477e-05	
-0.279317	-0.790518	0.0593677	
-1.56607e-05	-0.766892	-7.34747e-05	
8.13756e-06	-0.62899	3.80863e-05	
-1.23595	-0.1088	0.262656	
-1.40779e-05	-0.746887	-6.59483e-05	
8.26307e-08	-0.412259	3.85594e-07	
-2.68628e-05	-0.299835	-0.000125917	
0.198428	-0.0227422	0.0423008	
0.139953	-0.16	0.0296241	
0.149757	-0.0919896	0.0318982	
0.179549	-0.135331	0.0380688	
0.173923	-0.259393	0.0372851	
-0.554357	-0.152198	-0.117739	
-1.43136	-0.0907314	-0.305773	
0.14342	-0.198615	0.0304135	
0.174821	-0.0664941	0.0372736	
0.0563084	-0.038011	0.0119924	
0.0659938	-0.120263	0.0140059	
0.0781027	-0.243556	0.0165583	
0.214697	-0.273234	0.0457304	
-3.51709e-06	-0.105561	1.6549e-05	
0.110939	-0.230122	0.0235535	
0.120508	-0.251294	0.0255005	
0.056158	-0.269904	0.0120203	
2.26626e-05	-0.25254	-0.000106022	
-0.0115448	-0.196408	-0.00250058	
-1.49648e-06	-0.232682	7.07975e-06	
2.32014e-06	-0.268904	-1.08635e-05	
-1.21467e-06	-0.078803	5.69803e-06	
0.083995	-0.189638	0.0178231	
-6.38272e-06	-0.147474	3.01212e-05	
1.0371e-06	-0.0541622	-4.86785e-06	
0.050968	-0.22054	0.0107388	
4.21887e-06	-0.209933	-1.99574e-05	
2.84239e-07	-0.174151	-1.33945e-06	
6.13263e-06	-0.264117	-2.90085e-05	
-0.255234	-0.682996	0.0543349	
-0.579519	-0.595319	0.123122	
-0.150485	-0.605103	0.0327471	
-0.999162	-0.227392	0.213481	
0.0586546	-0.687307	-0.0126077	
-0.648141	-0.163589	0.137758	
1.49733	-0.48416	-0.322172	
-0.870366	-0.406823	0.184708	
-0.559507	-0.513713	0.11821	
0.371226	-0.641442	-0.0791167	
1.70731	-0.369784	-0.367079	
-0.729911	-0.324524	0.155975	
4.32883	-0.228927	-0.928265	
-0.523516	-0.651494	0.111415	
-0.151684	-0.499146	0.0322202	
-0.334196	-0.704344	0.0706297	
-0.382883	-0.691532	0.0817757	
-0.244326	-0.5303	0.0526852	
9.81299e-06	-0.573018	4.5801e-05	
1.26937e-05	-0.471673	5.99744e-05	
-0.284221	-0.701881	0.0604389	
-1.42457e-05	-0.697603	-6.68363e-05	
7.38402e-06	-0.570745	3.45595e-05	
-1.25306	-0.0944391	0.266293	
-1.27432e-05	-0.676076	-5.96958e-05	
7.53438e-08	-0.375903	3.5159e-07	
-2.42516e-05	-0.270689	-0.000113677	
0.19839	-0.00101211	0.0422884	
0.139495	0.0091171	0.0295646	
0.149485	0.00363107	0.0318273	
0.179247	0.00650754	0.0380141	
0.173573	0.017035	0.0371238	
-0.552512	0.0120842	-0.117243	
-1.43011	0.00637348	-0.30549	
0.142945	0.0116753	0.0302521	
0.174551	0.00188021	0.0372187	
0.0560093	0.000199907	0.0119282	
0.0657319	0.00577948	0.0139347	
0.07769	0.0190067	0.0167345	
0.214169	0.0192286	0.0453994	
1.49659e-07	0.00449186	-7.04195e-07	
0.110903	0.0158178	0.0233465	
0.120494	0.021239	0.0254827	
0.056502	0.0176297	0.012041	
-1.58442e-06	0.0176559	7.41232e-06	
-0.0105871	0.015889	-0.00224038	
1.33991e-07	0.0208337	-6.339e-07	
-1.68408e-07	0.0195184	7.8853e-07	
4.76846e-08	0.00309359	-2.23689e-07	
0.0835526	0.0119285	0.0177124	
3.19262e-07	0.00737663	-1.50665e-06	
-3.29811e-08	0.00172242	1.54803e-07	
0.0507451	0.0154331	0.0108002	
-2.86637e-07	0.0142632	1.35594e-06	
-1.57814e-08	0.0096691	7.4368e-08	
-4.82094e-07	0.0207626	2.28039e-06	
-0.25117	-0.466298	0.0533052	
-0.586736	-0.415366	0.124766	
-0.153767	-0.422506	0.0333	
-1.0124	-0.157938	0.21629	
0.0644633	-0.467164	-0.0137967	
-0.657048	-0.113747	0.139636	
1.52276	-0.325834	-0.327715	
-0.883282	-0.281788	0.187585	
-0.56315	-0.357439	0.119057	
0.380109	-0.43634	-0.0811394	
1.72477	-0.246985	-0.370803	
-0.743231	-0.225075	0.158762	
4.35659	-0.153291	-0.934204	
-0.52826	-0.453124	0.1125	
-0.154774	-0.347086	0.0328476	
-0.335268	-0.485588	0.0709853	
-0.379687	-0.472085	0.0810468	
-0.249587	-0.367515	0.0536542	
6.62656e-06	-0.38695	3.09287e-05	
8.80699e-06	-0.32725	4.16106e-05	
-0.28828	-0.483969	0.0613663	
-9.80072e-06	-0.479934	-4.59817e-05	
5.12742e-06	-0.396322	2.39979e-05	
-1.26499	-0.0658428	0.268829	
-8.7158e-06	-0.462406	-4.08292e-05	
5.1942e-08	-0.259148	2.42386e-07	
-1.67058e-05	-0.186465	-7.83067e-05	
0.195336	0.00836331	0.0416354	
0.137044	0.0736939	0.0290595	
0.146994	0.0416652	0.0312919	
0.176895	0.0620889	0.037519	
0.172299	0.118001	0.0368196	
-0.543535	0.0640652	-0.115301	
-1.42266	0.0377602	-0.303895	
0.140926	0.0914245	0.0298016	
0.172224	0.0294446	0.0367237	
0.0544281	0.0155654	0.0115912	
0.0642444	0.0550878	0.0136133	
0.0757701	0.112034	0.0164207	
0.21534	0.121643	0.0455721	
1.60235e-06	0.0480928	-7.53958e-06	
0.1101	0.105777	0.0231043	
0.123615	0.109962	0.026138	
0.0564195	0.121102	0.0120045	
-1.03665e-05	0.115519	4.84972e-05	
-0.00723877	0.0836077	-0.00151226	
6.47796e-07	0.100723	-3.06468e-06	
-1.0525e-06	0.121984	4.92807e-06	
5.46077e-07	0.0354273	-2.56165e-06	
0.0820943	0.0875253	0.0173969	
2.93105e-06	0.0677228	-1.38321e-05	
-4.51765e-07	0.0235932	2.12045e-06	
0.0499918	0.101639	0.0106797	
-1.94617e-06	0.0968422	9.20636e-06	
-1.3085e-07	0.0801707	6.16617e-07	
-2.70954e-06	0.116693	1.28166e-05	
-0.247552	-0.38929	0.0524789	
-0.592445	-0.353198	0.126019	
-0.156602	-0.35854	0.0338546	
-1.02395	-0.133264	0.21875	
0.0698545	-0.388431	-0.0149263	
-0.664574	-0.0955511	0.141229	
1.54394	-0.266482	-0.332296	
-0.894294	-0.241254	0.189968	
-0.56637	-0.30535	0.119764	
0.387583	-0.3597	-0.082785	
1.73918	-0.201766	-0.37389	
-0.754817	-0.191476	0.161217	
4.37913	-0.124394	-0.93903	
-0.532709	-0.384871	0.113474	
-0.157337	-0.296757	0.0333817	
-0.335745	-0.404953	0.0711338	
-0.376602	-0.404229	0.0803736	
-0.253933	-0.31476	0.0545325	
5.44946e-06	-0.318215	2.54347e-05	
7.54093e-06	-0.280206	3.56289e-05	
-0.290754	-0.405949	0.0619161	
-8.37053e-06	-0.409899	-3.92718e-05	
4.38134e-06	-0.338654	2.0506e-05	
-1.27497	-0.0550672	0.270949	
-7.40762e-06	-0.393002	-3.47011e-05	
4.45429e-08	-0.222232	2.07858e-07	
-1.42426e-05	-0.158972	-6.67608e-05	
0.195137	0.000279087	0.0415945	
0.136795	0.00871574	0.0289924	
0.146612	0.0050413	0.0312154	
0.176585	0.00773143	0.0374496	
0.172236	0.0131	0.036839	
-0.542777	0.00583759	-0.115177	
-1.42193	0.00373721	-0.303743	
0.140777	0.0108088	0.0297933	
0.171851	0.00329294	0.0366432	
0.0542149	0.00101307	0.011546	
0.0640746	0.00672196	0.0135833	
0.0756145	0.0111616	0.0162864	
0.215782	0.0126934	0.0457475	
1.9773e-07	0.00593463	-9.3038e-07	
0.109975	0.0114976	0.0231545	
0.124155	0.00979187	0.0262576	
0.0562592	0.0133293	0.0119901	
-1.11286e-06	0.0124012	5.20626e-06	
-0.00707261	0.00756504	-0.00149749	
5.39881e-08	0.00839439	-2.55414e-07	
-1.09398e-07	0.0126792	5.12231e-07	
6.15767e-08	0.00399485	-2.88857e-07	
0.0820286	0.00998516	0.0173895	
3.62993e-07	0.00838704	-1.71303e-06	
-4.01419e-08	0.00209638	1.88414e-07	
0.0499565	0.0109452	0.0106304	
-2.13271e-07	0.0106125	1.00888e-06	
-1.57769e-08	0.00966637	7.43469e-08	
-2.59051e-07	0.0111567	1.22536e-06	
-0.244417	-0.277858	0.0517278	
-0.596708	-0.257138	0.126984	
-0.15852	-0.261018	0.0341851	
-1.03221	-0.0969102	0.220505	
0.073712	-0.276199	-0.0157229	
-0.670025	-0.0696249	0.14238	
1.5591	-0.187916	-0.335593	
-0.902397	-0.17502	0.19176	
-0.568614	-0.222107	0.12028	
0.393105	-0.255652	-0.0840286	
1.74928	-0.141578	-0.376045	
-0.763199	-0.13904	0.162977	
4.39496	-0.0874112	-0.942418	
-0.535534	-0.279344	0.114116	
-0.159252	-0.21578	0.033773	
-0.336027	-0.291049	0.0712602	
-0.374111	-0.28967	0.0798177	
-0.257138	-0.228362	0.0551349	
3.85293e-06	-0.224987	1.79831e-05	
5.47592e-06	-0.203474	2.58722e-05	
-0.292728	-0.292064	0.0623693	
-6.03071e-06	-0.295319	-2.82941e-05	
3.18166e-06	-0.245925	1.48912e-05	
-1.28227	-0.0403096	0.272502	
-5.30908e-06	-0.281666	-2.48704e-05	
3.22204e-08	-0.160754	1.50356e-07	
-1.0303e-05	-0.115	-4.82945e-05	
0.196741	-0.00498416	0.0419375	
0.137828	-0.032158	0.029202	
0.14763	-0.0187311	0.0314354	
0.177564	-0.0272269	0.0376548	
0.172685	-0.0500953	0.0369548	
-0.546429	-0.0255449	-0.115973	
-1.42487	-0.0149411	-0.304375	
0.141621	-0.0395303	0.0299866	
0.17279	-0.0137399	0.0368426	
0.054857	-0.00817675	0.0116829	
0.0647006	-0.0243206	0.0137198	
0.0763722	-0.0482073	0.0163875	
0.215169	-0.0505899	0.0456644	
-7.12586e-07	-0.0213874	3.35294e-06	
0.11029	-0.0455206	0.0232671	
0.122739	-0.0451246	0.0259611	
0.0561844	-0.0507026	0.0119858	
4.42804e-06	-0.0493439	-2.07156e-05	
-0.00852242	-0.0335924	-0.00181596	
-2.63723e-07	-0.0410052	1.24765e-06	
4.45425e-07	-0.0516245	-2.0856e-06	
-2.49828e-07	-0.0162078	1.17194e-06	
0.0826598	-0.0380178	0.0175273	
-1.28085e-06	-0.0295943	6.04454e-06	
2.18946e-07	-0.0114343	-1.02767e-06	
0.0502654	-0.0438827	0.0106708	
8.42088e-07	-0.0419026	-3.9835e-06	
5.6853e-08	-0.0348333	-2.67914e-07	
1.12025e-06	-0.0482466	-5.29901e-06	
-0.241718	-0.224039	0.051114	
-0.600023	-0.211058	0.127718	
-0.160088	-0.213893	0.0344823	
-1.0391	-0.0790878	0.221972	
0.077041	-0.221903	-0.0164192	
-0.674484	-0.0566099	0.143324	
1.57129	-0.149089	-0.338232	
-0.909073	-0.144327	0.193212	
-0.570494	-0.182946	0.120697	
0.397594	-0.204127	-0.0850201	
1.75733	-0.112193	-0.377769	
-0.770193	-0.114146	0.164456	
4.40745	-0.0689743	-0.945093	
-0.537973	-0.228921	0.114655	
-0.160804	-0.177839	0.0340951	
-0.336061	-0.234781	0.0713002	
-0.371866	-0.238246	0.0793274	
-0.259716	-0.188359	0.0556476	
3.06923e-06	-0.179224	1.43253e-05	
4.5168e-06	-0.167835	2.13407e-05	
-0.293944	-0.236684	0.0626443	
-4.95566e-06	-0.242675	-2.32503e-05	
2.62014e-06	-0.202523	1.2263e-05	
-1.28819	-0.0326234	0.273758	
-4.34225e-06	-0.230373	-2.03413e-05	
2.65901e-08	-0.132663	1.24082e-07	
-8.46442e-06	-0.0944775	-3.96761e-05	
0.197326	-0.00204419	0.0420615	
0.138106	-0.0100314	0.0292659	
0.147955	-0.00623881	0.031503	
0.17786	-0.00878882	0.037719	
0.172766	-0.0147423	0.036961	
-0.54738	-0.00685269	-0.116164	
-1.42569	-0.00414276	-0.304548	
0.141821	-0.0121519	0.0300209	
0.173088	-0.00473053	0.0369066	
0.0550353	-0.00297767	0.0117208	
0.0648774	-0.00786486	0.0137553	
0.0765519	-0.0136724	0.0164603	
0.214837	-0.014396	0.0455667	
-2.34893e-07	-0.00705004	1.10524e-06	
0.110394	-0.0133981	0.023263	
0.122235	-0.0120353	0.0258528	
0.0562232	-0.0147814	0.0119875	
1.2884e-06	-0.0143573	-6.0275e-06	
-0.00885249	-0.00898537	-0.00187932	
-6.85874e-08	-0.0106644	3.24482e-07	
1.27283e-07	-0.014752	-5.95972e-07	
-8.32287e-08	-0.00539954	3.90426e-07	
0.0827937	-0.0115597	0.0175535	
-4.09953e-07	-0.00947208	1.93464e-06	
7.43207e-08	-0.00388136	-3.48839e-07	
0.0503268	-0.0128979	0.0106981	
2.50028e-07	-0.0124415	-1.18276e-06	
1.77752e-08	-0.0108907	-8.37636e-08	
3.07458e-07	-0.0132415	-1.45433e-06	
-0.239483	-0.164305	0.050594	
-0.602516	-0.15759	0.128281	
-0.161188	-0.15964	0.0346733	
-1.0442	-0.0589409	0.223057	
0.0795052	-0.162217	-0.0169306	
-0.677806	-0.042186	0.144025	
1.58024	-0.108219	-0.340174	
-0.9141	-0.107573	0.194319	
-0.571856	-0.136613	0.121008	
0.400962	-0.149058	-0.0857737	
1.76314	-0.0811643	-0.379012	
-0.775409	-0.085076	0.165553	
4.4165	-0.0499306	-0.947029	
-0.539618	-0.170455	0.115027	
-0.161984	-0.132777	0.0343371	
-0.336036	-0.173065	0.0713309	
-0.370056	-0.1758	0.0789278	
-0.261653	-0.140415	0.0560156	
2.23261e-06	-0.130371	1.04205e-05	
3.36926e-06	-0.125195	1.59189e-05	
-0.294881	-0.174727	0.0628617	
-3.67105e-06	-0.179769	-1.72234e-05	
1.954e-06	-0.151034	9.14532e-06	
-1.29259	-0.0243148	0.274694	
-3.20139e-06	-0.169845	-1.49969e-05	
1.97798e-08	-0.0986849	9.2302e-08	
-6.29068e-06	-0.0702148	-2.94869e-05	
0.196844	0.00117779	0.0419582	
0.137685	0.0125468	0.0291818	
0.14753	0.00701601	0.0314107	
0.177464	0.0105203	0.0376361	
0.17262	0.0194746	0.0369191	
-0.546003	0.00944173	-0.115861	
-1.42461	0.00547098	-0.304316	
0.141482	0.0154899	0.0299413	
0.172686	0.00489032	0.0368212	
0.0547483	0.00245526	0.0116596	
0.064618	0.00934464	0.0136981	
0.076268	0.0189596	0.0164329	
0.215106	0.0193436	0.0455988	
2.70577e-07	0.00812106	-1.27315e-06	
0.11028	0.0178714	0.0232135	
0.122808	0.0170988	0.0259723	
0.0562914	0.019485	0.0119958	
-1.7314e-06	0.0192939	8.09995e-06	
-0.00827686	0.0125046	-0.00175149	
9.93575e-08	0.0154487	-4.70053e-07	
-1.72894e-07	0.0200383	8.09534e-07	
9.18599e-08	0.0059595	-4.30915e-07	
0.082533	0.0149251	0.017496	
4.96694e-07	0.0114762	-2.34398e-06	
-7.49218e-08	0.00391275	3.5166e-07	
0.0502041	0.0172675	0.0106859	
-3.31316e-07	0.0164864	1.56729e-06	
-2.22112e-08	0.0136086	1.04668e-07	
-4.26691e-07	0.0183765	2.01833e-06	
-0.237613	-0.129777	0.0501707	
-0.604434	-0.126592	0.128708	
-0.162057	-0.128058	0.0348334	
-1.04835	-0.0472179	0.223939	
0.0815429	-0.127727	-0.0173565	
-0.680469	-0.0337267	0.144589	
1.58728	-0.0843855	-0.341701	
-0.918153	-0.0867444	0.195202	
-0.572959	-0.110067	0.121254	
0.403643	-0.116829	-0.0863666	
1.7677	-0.0632187	-0.379986	
-0.779645	-0.0684076	0.166447	
4.42352	-0.0387837	-0.948533	
-0.540966	-0.136667	0.115327	
-0.162925	-0.107027	0.0345318	
-0.335924	-0.136861	0.0713282	
-0.368492	-0.141093	0.0785868	
-0.263184	-0.113203	0.0563169	
1.74618e-06	-0.101966	8.1501e-06	
2.71735e-06	-0.100971	1.28387e-05	
-0.295461	-0.138689	0.0629954	
-2.94648e-06	-0.144287	-1.38239e-05	
1.57338e-06	-0.121613	7.36388e-06	
-1.29611	-0.0193992	0.275441	
-2.55818e-06	-0.135721	-1.19838e-05	
1.59564e-08	-0.0796093	7.44601e-08	
-5.06041e-06	-0.0564829	-2.37202e-05	
0.196608	0.000551919	0.041908	
0.13748	0.00663682	0.029137	
0.147288	0.00380289	0.0313595	
0.177251	0.00568972	0.0375907	
0.172573	0.00988392	0.0369121	
-0.545365	0.00446145	-0.115728	
-1.42409	0.00264483	-0.304205	
0.141334	0.00813146	0.0299121	
0.172452	0.00262239	0.0367713	
0.0545933	0.00120179	0.0116266	
0.0644846	0.00503593	0.0136704	
0.0761462	0.00936663	0.0163974	
0.215318	0.00955935	0.0456511	
1.46949e-07	0.00441051	-6.91442e-07	
0.110216	0.00907955	0.0232073	
0.123139	0.00805615	0.0260429	
0.0562968	0.00980876	0.0119987	
-8.71804e-07	0.00971495	4.07853e-06	
-0.00803221	0.00589979	-0.00170139	