<VTKFile type="UnstructuredGrid" version="0.1" byte_order="LittleEndian">
	<UnstructuredGrid>
		<Piece NumberOfPoints="168" NumberOfCells="168">
			<CellData Scalars="scalars">
				<DataArray type="Float64" Name="Strength" NumberOfComponents="3" Format="ascii">
-0.171782	-17.2314	0.0495137	
-0.231269	-11.9241	0.0421537	
0.00653581	-11.9359	0.00844583	
-0.396801	-4.90045	0.0860175	
-0.0556262	-16.995	0.00831232	
-0.207915	-4.19324	0.0453927	
0.358216	-17.0262	-0.0695182	
-0.318859	-8.15596	0.0593454	
-0.327226	-10.2344	0.0642685	
0.0850913	-17.3309	-0.00803656	
0.594233	-14.8628	-0.131328	
-0.181912	-6.9177	0.0427595	
2.12581	-11.7398	-0.458062	
-0.232073	-12.273	0.044955	
-0.0160475	-9.204	0.00503123	
-0.158211	-15.9103	0.0243451	
-0.31115	-14.7858	0.0695098	
-0.00729183	-11.0016	0.0120016	
0.000288584	-16.8515	0.00134693	
0.000243089	-9.03269	0.00114853	
0.00791539	-15.1984	-0.00596833	
-0.000276902	-13.5597	-0.00129913	
0.000143053	-11.0572	0.000669533	
-0.55991	-3.09017	0.118939	
-0.000287834	-15.2707	-0.00134836	
1.47767e-06	-7.37237	6.89552e-06	
-0.000571308	-6.37678	-0.00267795	
0.231575	-0.680825	0.0494974	
0.180443	-5.70736	0.0369714	
0.18862	-3.14146	0.0405838	
0.21865	-4.58005	0.0460669	
0.213295	-9.68668	0.0486597	
-0.750809	-11.6934	-0.16671	
-1.67043	-8.47483	-0.358148	
0.179704	-7.08749	0.0400866	
0.214852	-2.16917	0.0457274	
0.081075	-1.1802	0.0172827	
0.0898422	-4.05868	0.0195515	
0.116497	-9.48693	0.0154151	
0.254921	-11.361	0.062555	
-0.000121401	-3.64371	0.00057123	
0.125675	-8.60308	0.033448	
0.138901	-12.2227	0.030044	
0.0624091	-10.4817	0.0152197	
0.000824856	-9.19178	-0.0038589	
-0.0537774	-12.3317	-0.0147202	
-8.11411e-05	-12.6163	0.000383872	
8.86667e-05	-10.2764	-0.000415161	
-4.13774e-05	-2.6844	0.000194102	
0.111925	-6.70128	0.0242918	
-0.000225952	-5.22068	0.00106631	
3.04713e-05	-1.59135	-0.000143023	
0.0673749	-7.95852	0.0106625	
0.000151551	-7.54125	-0.000716913	
1.0016e-05	-6.13672	-4.71994e-05	
0.000276712	-11.9173	-0.0013089	
-0.162104	-2.80059	0.0362064	
-0.287102	-2.09999	0.0599576	
-0.0026423	-2.15226	0.00234173	
-0.441557	-0.923638	0.0945849	
-0.0819779	-2.8913	0.0168255	
-0.249749	-0.739595	0.0532788	
0.458057	-2.7699	-0.0975292	
-0.378444	-1.36828	0.0791539	
-0.347548	-1.77263	0.0727326	
0.118219	-3.04491	-0.0235257	
0.700893	-2.29026	-0.151213	
-0.226981	-1.21716	0.0491152	
2.43949	-1.72977	-0.523422	
-0.238889	-2.25877	0.0501147	
-0.0325999	-1.65177	0.00719858	
-0.191165	-2.93262	0.0389248	
-0.328703	-2.25744	0.0705679	
-0.0342582	-1.76958	0.0089966	
4.88033e-05	-2.84981	0.000227784	
4.16779e-05	-1.54867	0.000196917	
-0.0601984	-2.77035	0.0120628	
-4.70471e-05	-2.30386	-0.00022073	
2.4689e-05	-1.90833	0.000115552	
-0.653741	-0.517916	0.138921	
-4.51869e-05	-2.39733	-0.000211678	
2.46042e-07	-1.22754	1.14815e-06	
-8.8271e-05	-0.985256	-0.000413762	
0.274069	-0.134809	0.0584495	
0.214725	-1.02305	0.0452766	
0.224783	-0.581586	0.0479377	
0.257052	-0.857099	0.0544583	
0.239925	-1.76963	0.0518819	
-0.906653	-1.80256	-0.193637	
-1.91782	-1.25377	-0.409869	
0.211213	-1.30466	0.0450841	
0.250677	-0.40936	0.0534345	
0.0982903	-0.216433	0.0209357	
0.107218	-0.749688	0.0228239	
0.142495	-1.59847	0.0288716	
0.276539	-2.0434	0.060158	
-2.23093e-05	-0.669587	0.000104972	
0.148481	-1.54168	0.0325246	
0.142472	-2.08589	0.030245	
0.0909067	-1.93765	0.0197324	
0.000151045	-1.68317	-0.000706628	
-0.0610998	-2.04467	-0.0135045	
-1.33794e-05	-2.08031	6.32969e-05	
1.56633e-05	-1.81537	-7.33397e-05	
-7.49277e-06	-0.486101	3.51486e-05	
0.12696	-1.2049	0.0270171	
-4.13118e-05	-0.95452	0.000194958	
5.81643e-06	-0.30376	-2.73006e-05	
0.0801492	-1.43191	0.0163872	
2.7126e-05	-1.3498	-0.00012832	
1.84414e-06	-1.12989	-8.69033e-06	
4.79301e-05	-2.06423	-0.000226718	
-0.243815	-8.12522	0.0576741	
-0.370791	-5.93617	0.07547	
-0.047546	-5.98759	0.0151283	
-0.634822	-2.49785	0.13625	
-0.0423797	-8.42971	0.00726596	
-0.383284	-1.91929	0.0819933	
0.762521	-7.38502	-0.160947	
-0.531712	-4.07067	0.108887	
-0.441924	-5.12161	0.0910635	
0.169192	-8.22873	-0.0313947	
1.07586	-6.2614	-0.232773	
-0.383	-3.3979	0.0836705	
3.21062	-4.25821	-0.689255	
-0.359203	-6.41854	0.074236	
-0.0669086	-4.86262	0.0150355	
-0.248481	-7.91322	0.0482015	
-0.386166	-7.3551	0.0839096	
-0.0950946	-5.38331	0.0254203	
0.000135995	-7.94126	0.000634741	
0.000124666	-4.63233	0.000589013	
-0.112053	-7.67426	0.0217449	
-0.000144716	-7.08662	-0.000678958	
7.40372e-05	-5.72268	0.000346517	
-0.87169	-1.20288	0.185227	
-0.000139549	-7.40361	-0.00065372	
7.68723e-07	-3.8353	3.58723e-06	
-0.000267186	-2.98225	-0.00125241	
0.181786	0.257932	0.0386998	
0.132864	2.3799	0.0286861	
0.145155	1.30836	0.0307295	
0.174493	1.95657	0.0371351	
0.167217	4.05952	0.0344988	
-0.519685	3.93572	-0.107806	
-1.41139	2.56954	-0.301093	
0.13684	2.97263	0.0281029	
0.170925	0.899337	0.0364806	
0.05271	0.470342	0.011219	
0.0615025	1.72724	0.0128241	
0.0707076	3.85731	0.0191096	
0.209611	4.68135	0.040944	
5.03934e-05	1.5125	-0.000237116	
0.110548	3.57318	0.0203866	
0.123043	4.8812	0.0257564	
0.0618498	4.40638	0.0123787	
-0.000353136	3.93517	0.00165206	
0.00693813	4.55119	0.0026957	
3.15278e-05	4.90212	-0.000149155	
-3.71473e-05	4.30536	0.000173934	
1.707e-05	1.10743	-8.00754e-05	
0.0771463	2.83519	0.0161169	
9.38425e-05	2.16826	-0.000442859	
-1.34368e-05	0.70173	6.30683e-05	
0.0480329	3.37675	0.0117723	
-6.39584e-05	3.1826	0.000302555	
-4.21697e-06	2.5837	1.9872e-05	
-0.000111601	4.80638	0.000527893	
				</DataArray>
			</CellData>
			<Points>
				<DataArray type="Float64" Name="Position" NumberOfComponents="3" Format="ascii">
1.7181	5.64792	-0.124248	
1.31146	3.6588	-0.11349	
1.36181	3.9051	-0.115588	
0.814689	1.17246	-0.122838	
1.77	5.89376	-0.127322	
0.770069	0.922727	-0.13018	
1.92243	6.64015	-0.133526	
1.00879	2.16793	-0.113181	
1.15987	2.91091	-0.112681	
1.82099	6.14357	-0.132289	
1.97898	6.8873	-0.137863	
0.910991	1.67062	-0.117635	
2.03593	7.13304	-0.140831	
1.41194	4.15245	-0.116692	
1.10978	2.66043	-0.113088	
1.67034	5.40135	-0.127087	
1.51306	4.65366	-0.120524	
1.21207	3.15952	-0.11599	
1.87407	6.39262	-0.138754	
1.06104	2.41233	-0.115911	
1.61884	5.15292	-0.126559	
1.46532	4.40249	-0.122874	
1.26468	3.40812	-0.117967	
0.728336	0.673259	-0.139101	
1.56848	4.90275	-0.128489	
0.962472	1.92119	-0.116741	
0.863531	1.42097	-0.122961	
-0.356312	-0.697897	-0.140688	
-0.787771	-3.0243	-0.0507434	
-0.558739	-1.86422	-0.0692035	
-0.6944	-2.55921	-0.0553396	
-1.2178	-5.11217	-0.0557924	
-1.60266	-6.96027	-0.0920837	
-1.65625	-7.18831	-0.099728	
-0.930586	-3.72058	-0.0493349	
-0.476282	-1.39806	-0.0888795	
-0.399251	-0.931432	-0.130543	
-0.647375	-2.32887	-0.0578851	
-1.12085	-4.64562	-0.0517358	
-1.35861	-5.8063	-0.0609	
-0.602421	-2.09735	-0.0628212	
-1.07221	-4.41385	-0.0483568	
-1.45373	-6.27013	-0.0664863	
-1.31133	-5.57561	-0.0544404	
-1.16758	-4.87901	-0.0482008	
-1.5513	-6.73125	-0.0767693	
-1.50187	-6.50119	-0.066278	
-1.26285	-5.34562	-0.0505979	
-0.515441	-1.63085	-0.0765038	
-0.881451	-3.48991	-0.0469503	
-0.739485	-2.79175	-0.0511374	
-0.437916	-1.16487	-0.107264	
-1.02408	-4.18247	-0.0464902	
-0.975727	-3.95191	-0.0455409	
-0.832928	-3.25736	-0.0466963	
-1.40491	-6.0393	-0.0553341	
1.29404	5.74712	-0.180339	
1.0298	3.73563	-0.164125	
1.06106	3.98498	-0.165109	
0.700019	1.21953	-0.144923	
1.32729	5.99681	-0.179634	
0.669057	0.967111	-0.148822	
1.42781	6.75167	-0.179704	
0.831654	2.22644	-0.151499	
0.93096	2.97828	-0.158265	
1.36055	6.2501	-0.180253	
1.46519	7.00148	-0.175495	
0.765513	1.72384	-0.148389	
1.50521	7.24988	-0.170151	
1.09374	4.23497	-0.165209	
0.896173	2.72502	-0.153757	
1.26127	5.49737	-0.176926	
1.15866	4.74263	-0.1723	
0.964575	3.23077	-0.161172	
1.39388	6.50095	-0.179271	
0.864094	2.47466	-0.154281	
1.2272	5.24607	-0.174623	
1.12686	4.48829	-0.168951	
0.996504	3.4824	-0.161124	
0.638903	0.715312	-0.154866	
1.19279	4.99432	-0.174122	
0.799328	1.97655	-0.148404	
0.733251	1.47094	-0.148736	
-0.358164	-0.721257	-0.14132	
-0.621595	-3.07142	-0.0397013	
-0.4895	-1.89824	-0.0923282	
-0.563888	-2.601	-0.0556101	
-0.913954	-5.18384	-0.0217926	
-1.17846	-7.05322	-0.0593806	
-1.21706	-7.28395	-0.0795333	
-0.71754	-3.7757	-0.0271074	
-0.44284	-1.4272	-0.123419	
-0.387753	-0.956583	-0.141828	
-0.536926	-2.36774	-0.0654771	
-0.849107	-4.71203	-0.0206609	
-1.01034	-5.88507	-0.0233785	
-0.512928	-2.13387	-0.077972	
-0.816267	-4.47729	-0.0212762	
-1.07527	-6.35466	-0.0283305	
-0.977995	-5.65173	-0.0221339	
-0.880942	-4.94763	-0.0205701	
-1.14261	-6.8215	-0.0439556	
-1.10892	-6.58838	-0.0345637	
-0.945749	-5.41898	-0.0220291	
-0.466939	-1.6625	-0.10801	
-0.684606	-3.54216	-0.0300392	
-0.591938	-2.83605	-0.0466065	
-0.415976	-1.19217	-0.133819	
-0.783401	-4.24328	-0.0229497	
-0.750877	-4.0096	-0.0249054	
-0.653034	-3.3066	-0.0345176	
-1.04273	-6.12007	-0.0250702	
0.86857	5.8053	-0.166183	
0.738018	3.78513	-0.158857	
0.753148	4.03525	-0.158725	
0.576928	1.25505	-0.158721	
0.884758	6.05572	-0.165231	
0.561492	1.00174	-0.161296	
0.934285	6.81471	-0.167888	
0.640717	2.26738	-0.157091	
0.689429	3.02337	-0.157739	
0.900627	6.31051	-0.166069	
0.953473	7.06644	-0.166866	
0.608722	1.76228	-0.158623	
0.975223	7.31775	-0.167066	
0.769443	4.28582	-0.157687	
0.672289	2.76923	-0.155698	
0.851813	5.55369	-0.163608	
0.801185	4.79537	-0.161533	
0.706125	3.27767	-0.158366	
0.917504	6.56329	-0.165735	
0.656686	2.51736	-0.157844	
0.835835	5.30152	-0.162276	
0.785429	4.54064	-0.160025	
0.721522	3.53099	-0.157308	
0.546325	0.747838	-0.163767	
0.818429	5.04773	-0.162041	
0.62478	2.01596	-0.156753	
0.592838	1.50828	-0.160177	
-0.357587	-0.744592	-0.139426	
-0.490248	-3.10307	-0.0914281	
-0.423622	-1.92525	-0.123204	
-0.461993	-2.63061	-0.102745	
-0.633494	-5.2248	-0.0769252	
-0.764563	-7.10605	-0.0972281	
-0.784282	-7.33898	-0.109092	
-0.53725	-3.81065	-0.0811296	
-0.398824	-1.45281	-0.135104	
-0.371845	-0.980567	-0.140142	
-0.448357	-2.39621	-0.109195	
-0.601349	-4.75189	-0.0763483	
-0.680787	-5.92982	-0.0783227	
-0.436015	-2.16157	-0.116316	
-0.58582	-4.5159	-0.0767597	
-0.713143	-6.40178	-0.08118	
-0.665129	-5.69528	-0.077429	
-0.616872	-4.98806	-0.0760125	
-0.746689	-6.87208	-0.0889834	
-0.729719	-6.6369	-0.0844	
-0.649414	-5.46108	-0.0772134	
-0.411411	-1.68894	-0.129745	
-0.521054	-3.5754	-0.0836255	
-0.475838	-2.86675	-0.0966867	
-0.385563	-1.21686	-0.13742	
-0.569478	-4.28032	-0.0778761	
-0.553554	-4.04557	-0.0792195	
-0.505517	-3.33914	-0.0871394	
-0.696806	-6.1661	-0.0793897	
				</DataArray>
			</Points>
			<Cells>
				<DataArray type="Int32" Name="connectivity" Format="ascii">
0	
1	
2	
3	
4	
5	
6	
7	
8	
9	
10	
11	
12	
13	
14	
15	
16	
17	
18	
19	
20	
21	
22	
23	
24	
25	
26	
27	
28	
29	
30	
31	
32	
33	
34	
35	
36	
37	
38	
39	
40	
41	
42	
43	
44	
45	
46	
47	
48	
49	
50	
51	
52	
53	
54	
55	
56	
57	
58	
59	
60	
61	
62	
63	
64	
65	
66	
67	
68	
69	
70	
71	
72	
73	
74	
75	
76	
77	
78	
79	
80	
81	
82	
83	
84	
85	
86	
87	
88	
89	
90	
91	
92	
93	
94	
95	
96	
97	
98	
99	
100	
101	
102	
103	
104	
105	
106	
107	
108	
109	
110	
111	
112	
113	
114	
115	
116	
117	
118	
119	
120	
121	
122	
123	
124	
125	
126	
127	
128	
129	
130	
131	
132	
133	
134	
135	
136	
137	
138	
139	
140	
141	
142	
143	
144	
145	
146	
147	
148	
149	
150	
151	
152	
153	
154	
155	
156	
157	
158	
159	
160	
161	
162	
163	
164	
165	
166	
167	
				</DataArray>
				<DataArray type="Int32" Name="offsets" Format="ascii">
1	
2	
3	
4	
5	
6	
7	
8	
9	
10	
11	
12	
13	
14	
15	
16	
17	
18	
19	
20	
21	
22	
23	
24	
25	
26	
27	
28	
29	
30	
31	
32	
33	
34	
35	
36	
37	
38	
39	
40	
41	
42	
43	
44	
45	
46	
47	
48	
49	
50	
51	
52	
53	
54	
55	
56	
57	
58	
59	
60	
61	
62	
63	
64	
65	
66	
67	
68	
69	
70	
71	
72	
73	
74	
75	
76	
77	
78	
79	
80	
81	
82	
83	
84	
85	
86	
87	
88	
89	
90	
91	
92	
93	
94	
95	
96	
97	
98	
99	
100	
101	
102	
103	
104	
105	
106	
107	
108	
109	
110	
111	
112	
113	
114	
115	
116	
117	
118	
119	
120	
121	
122	
123	
124	
125	
126	
127	
128	
129	
130	
131	
132	
133	
134	
135	
136	
137	
138	
139	
140	
141	
142	
143	
144	
145	
146	
147	
148	
149	
150	
151	
152	
153	
154	
155	
156	
157	
158	
159	
160	
161	
162	
163	
164	
165	
166	
167	
168	
				</DataArray>
				<DataArray type="Int32" Name="types" Format="ascii">
1	
1	
1	
1	
1	
1	
1	
1	
1	
1	
1	
1	
1	
1	
1	
1	
1	
1	
1	
1	
1	
1	
1	
1	
1	
1	
1	
1	
1	
1	
1	
1	
1	
1	
1	
1	
1	
1	
1	
1	
1	
1	
1	
1	
1	
1	
1	
1	
1	
1	
1	
1	
1	
1	
1	
1	
1	
1	
1	
1	
1	
1	
1	
1	
1	
1	
1	
1	
1	
1	
1	
1	
1	
1	
1	
1	
1	
1	
1	
1	
1	
1	
1	
1	
1	
1	
1	
1	
1	
1	
1	
1	
1	
1	
1	
1	
1	
1	
1	
1	
1	
1	
1	
1	
1	
1	
1	
1	
1	
1	
1	
1	
1	
1	
1	
1	
1	
1	
1	
1	
1	
1	
1	
1	
1	
1	
1	
1	
1	
1	
1	
1	
1	
1	
1	
1	
1	
1	
1	
1	
1	
1	
1	
1	
1	
1	
1	
1	
1	
1	
1	
1	
1	
1	
1	
1	
1	
1	
1	
1	
1	
1	
1	
1	
1	
1	
1	
1	
				</DataArray>
			</Cells>
		</Piece>
	</UnstructuredGrid>
</VTKFile>
