<VTKFile type="UnstructuredGrid" version="0.1" byte_order="LittleEndian">
	<UnstructuredGrid>
		<Piece NumberOfPoints="336" NumberOfCells="336">
			<CellData Scalars="scalars">
				<DataArray type="Float64" Name="Strength" NumberOfComponents="3" Format="ascii">
-0.171782	-17.2314	0.0495137	
-0.231269	-11.9241	0.0421537	
0.00653581	-11.9359	0.00844583	
-0.396801	-4.90045	0.0860175	
-0.0556262	-16.995	0.00831232	
-0.207915	-4.19324	0.0453927	
0.358216	-17.0262	-0.0695182	
-0.318859	-8.15596	0.0593454	
-0.327226	-10.2344	0.0642685	
0.0850913	-17.3309	-0.00803656	
0.594233	-14.8628	-0.131328	
-0.181912	-6.9177	0.0427595	
2.12581	-11.7398	-0.458062	
-0.232073	-12.273	0.044955	
-0.0160475	-9.204	0.00503123	
-0.158211	-15.9103	0.0243451	
-0.31115	-14.7858	0.0695098	
-0.00729183	-11.0016	0.0120016	
0.000288584	-16.8515	0.00134693	
0.000243089	-9.03269	0.00114853	
0.00791539	-15.1984	-0.00596833	
-0.000276902	-13.5597	-0.00129913	
0.000143053	-11.0572	0.000669533	
-0.55991	-3.09017	0.118939	
-0.000287834	-15.2707	-0.00134836	
1.47767e-06	-7.37237	6.89552e-06	
-0.000571308	-6.37678	-0.00267795	
0.231575	-0.680825	0.0494974	
0.180443	-5.70736	0.0369714	
0.18862	-3.14146	0.0405838	
0.21865	-4.58005	0.0460669	
0.213295	-9.68668	0.0486597	
-0.750809	-11.6934	-0.16671	
-1.67043	-8.47483	-0.358148	
0.179704	-7.08749	0.0400866	
0.214852	-2.16917	0.0457274	
0.081075	-1.1802	0.0172827	
0.0898422	-4.05868	0.0195515	
0.116497	-9.48693	0.0154151	
0.254921	-11.361	0.062555	
-0.000121401	-3.64371	0.00057123	
0.125675	-8.60308	0.033448	
0.138901	-12.2227	0.030044	
0.0624091	-10.4817	0.0152197	
0.000824856	-9.19178	-0.0038589	
-0.0537774	-12.3317	-0.0147202	
-8.11411e-05	-12.6163	0.000383872	
8.86667e-05	-10.2764	-0.000415161	
-4.13774e-05	-2.6844	0.000194102	
0.111925	-6.70128	0.0242918	
-0.000225952	-5.22068	0.00106631	
3.04713e-05	-1.59135	-0.000143023	
0.0673749	-7.95852	0.0106625	
0.000151551	-7.54125	-0.000716913	
1.0016e-05	-6.13672	-4.71994e-05	
0.000276712	-11.9173	-0.0013089	
-0.162104	-2.80059	0.0362064	
-0.287102	-2.09999	0.0599576	
-0.0026423	-2.15226	0.00234173	
-0.441557	-0.923638	0.0945849	
-0.0819779	-2.8913	0.0168255	
-0.249749	-0.739595	0.0532788	
0.458057	-2.7699	-0.0975292	
-0.378444	-1.36828	0.0791539	
-0.347548	-1.77263	0.0727326	
0.118219	-3.04491	-0.0235257	
0.700893	-2.29026	-0.151213	
-0.226981	-1.21716	0.0491152	
2.43949	-1.72977	-0.523422	
-0.238889	-2.25877	0.0501147	
-0.0325999	-1.65177	0.00719858	
-0.191165	-2.93262	0.0389248	
-0.328703	-2.25744	0.0705679	
-0.0342582	-1.76958	0.0089966	
4.88033e-05	-2.84981	0.000227784	
4.16779e-05	-1.54867	0.000196917	
-0.0601984	-2.77035	0.0120628	
-4.70471e-05	-2.30386	-0.00022073	
2.4689e-05	-1.90833	0.000115552	
-0.653741	-0.517916	0.138921	
-4.51869e-05	-2.39733	-0.000211678	
2.46042e-07	-1.22754	1.14815e-06	
-8.8271e-05	-0.985256	-0.000413762	
0.274069	-0.134809	0.0584495	
0.214725	-1.02305	0.0452766	
0.224783	-0.581586	0.0479377	
0.257052	-0.857099	0.0544583	
0.239925	-1.76963	0.0518819	
-0.906653	-1.80256	-0.193637	
-1.91782	-1.25377	-0.409869	
0.211213	-1.30466	0.0450841	
0.250677	-0.40936	0.0534345	
0.0982903	-0.216433	0.0209357	
0.107218	-0.749688	0.0228239	
0.142495	-1.59847	0.0288716	
0.276539	-2.0434	0.060158	
-2.23093e-05	-0.669587	0.000104972	
0.148481	-1.54168	0.0325246	
0.142472	-2.08589	0.030245	
0.0909067	-1.93765	0.0197324	
0.000151045	-1.68317	-0.000706628	
-0.0610998	-2.04467	-0.0135045	
-1.33794e-05	-2.08031	6.32969e-05	
1.56633e-05	-1.81537	-7.33397e-05	
-7.49277e-06	-0.486101	3.51486e-05	
0.12696	-1.2049	0.0270171	
-4.13118e-05	-0.95452	0.000194958	
5.81643e-06	-0.30376	-2.73006e-05	
0.0801492	-1.43191	0.0163872	
2.7126e-05	-1.3498	-0.00012832	
1.84414e-06	-1.12989	-8.69033e-06	
4.79301e-05	-2.06423	-0.000226718	
-0.243815	-8.12522	0.0576741	
-0.370791	-5.93617	0.07547	
-0.047546	-5.98759	0.0151283	
-0.634822	-2.49785	0.13625	
-0.0423797	-8.42971	0.00726596	
-0.383284	-1.91929	0.0819933	
0.762521	-7.38502	-0.160947	
-0.531712	-4.07067	0.108887	
-0.441924	-5.12161	0.0910635	
0.169192	-8.22873	-0.0313947	
1.07586	-6.2614	-0.232773	
-0.383	-3.3979	0.0836705	
3.21062	-4.25821	-0.689255	
-0.359203	-6.41854	0.074236	
-0.0669086	-4.86262	0.0150355	
-0.248481	-7.91322	0.0482015	
-0.386166	-7.3551	0.0839096	
-0.0950946	-5.38331	0.0254203	
0.000135995	-7.94126	0.000634741	
0.000124666	-4.63233	0.000589013	
-0.112053	-7.67426	0.0217449	
-0.000144716	-7.08662	-0.000678958	
7.40372e-05	-5.72268	0.000346517	
-0.87169	-1.20288	0.185227	
-0.000139549	-7.40361	-0.00065372	
7.68723e-07	-3.8353	3.58723e-06	
-0.000267186	-2.98225	-0.00125241	
0.181786	0.257932	0.0386998	
0.132864	2.3799	0.0286861	
0.145155	1.30836	0.0307295	
0.174493	1.95657	0.0371351	
0.167217	4.05952	0.0344988	
-0.519685	3.93572	-0.107806	
-1.41139	2.56954	-0.301093	
0.13684	2.97263	0.0281029	
0.170925	0.899337	0.0364806	
0.05271	0.470342	0.011219	
0.0615025	1.72724	0.0128241	
0.0707076	3.85731	0.0191096	
0.209611	4.68135	0.040944	
5.03934e-05	1.5125	-0.000237116	
0.110548	3.57318	0.0203866	
0.123043	4.8812	0.0257564	
0.0618498	4.40638	0.0123787	
-0.000353136	3.93517	0.00165206	
0.00693813	4.55119	0.0026957	
3.15278e-05	4.90212	-0.000149155	
-3.71473e-05	4.30536	0.000173934	
1.707e-05	1.10743	-8.00754e-05	
0.0771463	2.83519	0.0161169	
9.38425e-05	2.16826	-0.000442859	
-1.34368e-05	0.70173	6.30683e-05	
0.0480329	3.37675	0.0117723	
-6.39584e-05	3.1826	0.000302555	
-4.21697e-06	2.5837	1.9872e-05	
-0.000111601	4.80638	0.000527893	
-0.243332	-2.64826	0.0533127	
-0.415687	-2.02903	0.0873816	
-0.0624045	-2.07709	0.0150864	
-0.6883	-0.859004	0.14726	
-0.0430736	-2.75111	0.00858618	
-0.429094	-0.654288	0.0913593	
0.883977	-2.35651	-0.189379	
-0.58949	-1.34295	0.124035	
-0.459471	-1.71823	0.096451	
0.201938	-2.76187	-0.0416195	
1.18999	-1.90284	-0.256251	
-0.435967	-1.14286	0.0936855	
3.44521	-1.2946	-0.738994	
-0.375525	-2.21782	0.0792717	
-0.0832511	-1.64514	0.017927	
-0.272039	-2.73599	0.0562311	
-0.392196	-2.27698	0.0841086	
-0.122986	-1.74497	0.0279232	
4.4098e-05	-2.57505	0.000205822	
4.15088e-05	-1.54238	0.000196118	
-0.164276	-2.62842	0.034307	
-4.72248e-05	-2.31256	-0.000221563	
2.45126e-05	-1.89469	0.000114727	
-0.945797	-0.409021	0.200989	
-4.41937e-05	-2.34464	-0.000207026	
2.47706e-07	-1.23585	1.15592e-06	
-8.49449e-05	-0.948131	-0.000398171	
0.146286	0.104604	0.0311618	
0.102371	0.892797	0.0218944	
0.113756	0.501159	0.0241533	
0.143287	0.750765	0.0304366	
0.143334	1.52883	0.0301799	
-0.378813	1.29427	-0.0795109	
-1.24684	0.834451	-0.266212	
0.110071	1.12951	0.0229695	
0.141119	0.349741	0.030104	
0.0355095	0.18087	0.00755987	
0.0444279	0.659157	0.00933696	
0.0437806	1.38982	0.0109189	
0.200056	1.73065	0.0411355	
1.93028e-05	0.579353	-9.08259e-05	
0.0956547	1.32602	0.0190721	
0.132764	1.71615	0.0279857	
0.0437646	1.65996	0.00902561	
-0.000131599	1.46647	0.000615654	
0.0311236	1.55245	0.00701655	
1.0777e-05	1.67567	-5.09853e-05	
-1.3689e-05	1.58655	6.40954e-05	
6.4714e-06	0.419839	-3.03574e-05	
0.0615002	1.06003	0.0129491	
3.57529e-05	0.82608	-0.000168724	
-5.13506e-06	0.268175	2.41024e-05	
0.0371316	1.25244	0.00847474	
-2.37876e-05	1.18368	0.000112527	
-1.60188e-06	0.98146	7.54871e-06	
-4.00909e-05	1.72662	0.000189637	
-0.268916	-4.14204	0.0599102	
-0.462739	-3.16777	0.096712	
-0.0924798	-3.21141	0.0224671	
-0.792161	-1.30268	0.169548	
-0.0118976	-4.29367	0.00164185	
-0.501799	-0.967255	0.106898	
1.07725	-3.47042	-0.23045	
-0.67605	-2.1781	0.141549	
-0.497776	-2.73292	0.104058	
0.245897	-4.13127	-0.0502281	
1.37703	-2.82107	-0.296679	
-0.529201	-1.78886	0.113961	
3.7746	-1.81878	-0.809725	
-0.434923	-3.4745	0.0914751	
-0.104072	-2.63636	0.0225133	
-0.295659	-4.1186	0.0604451	
-0.400753	-3.86932	0.0862719	
-0.160557	-2.84862	0.0369951	
6.6541e-05	-3.88558	0.000310572	
6.72699e-05	-2.49961	0.000317832	
-0.197366	-4.02744	0.0409726	
-7.77047e-05	-3.80514	-0.000364565	
3.95479e-05	-3.05684	0.000185096	
-1.05024	-0.576451	0.223183	
-7.2621e-05	-3.85281	-0.000340193	
4.10432e-07	-2.04772	1.91527e-06	
-0.000137812	-1.53822	-0.000645981	
0.186653	-0.119957	0.0398103	
0.134111	-0.922041	0.0282169	
0.143602	-0.514754	0.0306447	
0.173342	-0.765102	0.0367105	
0.169724	-1.55861	0.0367932	
-0.527791	-1.27152	-0.11279	
-1.40168	-0.785721	-0.299541	
0.138494	-1.14905	0.0296457	
0.169343	-0.364209	0.0360942	
0.0534941	-0.205747	0.0113954	
0.0627641	-0.678767	0.0133907	
0.0729757	-1.4792	0.0142299	
0.216256	-1.75748	0.0471746	
-1.9739e-05	-0.592443	9.2878e-05	
0.1078	-1.37092	0.0238176	
0.126034	-1.77949	0.0267527	
0.0516249	-1.67442	0.0113107	
0.00013617	-1.51741	-0.000637038	
-0.00712742	-1.54818	-0.00192775	
-1.1221e-05	-1.74471	5.30858e-05	
1.42541e-05	-1.65205	-6.67416e-05	
-6.79115e-06	-0.440582	3.18573e-05	
0.0814512	-1.10165	0.0173605	
-3.63501e-05	-0.839878	0.000171542	
5.68741e-06	-0.297022	-2.6695e-05	
0.0491549	-1.30719	0.00985243	
2.48074e-05	-1.23442	-0.000117351	
1.63352e-06	-1.00084	-7.6978e-06	
4.13326e-05	-1.78009	-0.000195511	
-0.267062	-1.91159	0.0577856	
-0.49336	-1.51401	0.104227	
-0.104952	-1.54783	0.0237674	
-0.836058	-0.620535	0.178751	
-0.00283338	-1.97063	0.000195198	
-0.536023	-0.462329	0.114023	
1.17454	-1.5646	-0.252251	
-0.720177	-1.01495	0.15215	
-0.510736	-1.28851	0.10751	
0.273699	-1.92553	-0.0574779	
1.45778	-1.23244	-0.313651	
-0.572185	-0.842471	0.122596	
3.91962	-0.80047	-0.840627	
-0.450638	-1.66152	0.0954977	
-0.115706	-1.24471	0.024731	
-0.308859	-1.96653	0.0645071	
-0.40015	-1.72865	0.0856847	
-0.180898	-1.31789	0.0398864	
3.02964e-05	-1.76912	0.000141405	
3.15068e-05	-1.17073	0.000148861	
-0.227569	-1.91066	0.0480123	
-3.57583e-05	-1.75106	-0.000167766	
1.84786e-05	-1.42829	8.64854e-05	
-1.10073	-0.278657	0.233917	
-3.29366e-05	-1.74741	-0.000154292	
1.87935e-07	-0.937641	8.76994e-07	
-6.30315e-05	-0.70354	-0.000295454	
0.212024	-0.0775708	0.0452103	
0.153377	-0.574731	0.0323763	
0.163096	-0.327086	0.0347698	
0.192385	-0.485307	0.0407681	
0.184399	-0.966039	0.0397481	
-0.613677	-0.70364	-0.130698	
-1.48762	-0.43587	-0.317844	
0.155124	-0.720987	0.0330423	
0.187398	-0.233391	0.0399489	
0.0645934	-0.12928	0.0137581	
0.0739233	-0.428771	0.0157254	
0.0903348	-0.887059	0.0185058	
0.217375	-1.06756	0.0468888	
-1.25454e-05	-0.376536	5.90301e-05	
0.115965	-0.841434	0.025108	
0.11261	-1.02889	0.0238724	
0.0597389	-1.0349	0.0129235	
8.35404e-05	-0.930932	-0.000390824	
-0.0285682	-0.874047	-0.0062922	
-6.32559e-06	-0.98354	2.99259e-05	
8.67142e-06	-1.00501	-4.06019e-05	
-4.27682e-06	-0.277463	2.00626e-05	
0.0920385	-0.682224	0.0195698	
-2.29784e-05	-0.530923	0.000108439	
3.55396e-06	-0.185604	-1.66812e-05	
0.0557197	-0.800533	0.0114822	
1.52534e-05	-0.759013	-7.21561e-05	
1.02655e-06	-0.628956	-4.83749e-06	
2.4443e-05	-1.0527	-0.00011562	
				</DataArray>
			</CellData>
			<Points>
				<DataArray type="Float64" Name="Position" NumberOfComponents="3" Format="ascii">
2.94638	5.17882	-0.103153	
2.15052	3.31095	-0.0957005	
2.25017	3.54247	-0.0969048	
1.16538	0.978638	-0.114649	
3.04635	5.40944	-0.10456	
1.07524	0.742247	-0.120437	
3.34483	6.10998	-0.109741	
1.55117	1.91469	-0.0995589	
1.84831	2.60963	-0.09643	
3.14716	5.64398	-0.108994	
3.45033	6.34052	-0.110251	
1.35809	1.448	-0.106692	
3.55621	6.56966	-0.107006	
2.34944	3.77426	-0.0989475	
1.74962	2.37535	-0.0964421	
2.85224	4.94653	-0.106106	
2.54877	4.24563	-0.102671	
1.95144	2.84191	-0.0991152	
3.25045	5.87696	-0.114271	
1.65266	2.14266	-0.100506	
2.75341	4.71331	-0.10576	
2.453	4.00861	-0.104287	
2.05428	3.07451	-0.100082	
0.988848	0.504678	-0.124867	
2.65489	4.47833	-0.108393	
1.4584	1.68173	-0.103589	
1.26247	1.21228	-0.113817	
-0.342339	-0.627441	-0.137697	
-1.22357	-2.82319	-0.0118939	
-0.76189	-1.7345	-0.0285151	
-1.03738	-2.38744	-0.0154074	
-2.06701	-4.78207	-0.0239311	
-2.81164	-6.51645	-0.0852215	
-2.9107	-6.72894	-0.0935581	
-1.50446	-3.47644	-0.0121013	
-0.581067	-1.29677	-0.0455569	
-0.40665	-0.856976	-0.0924122	
-0.944509	-2.17121	-0.0174306	
-1.87917	-4.34441	-0.0179152	
-2.34461	-5.43384	-0.0334704	
-0.853132	-1.95379	-0.0226633	
-1.78539	-4.12714	-0.012946	
-2.53072	-5.86946	-0.0448445	
-2.25345	-5.21716	-0.0249661	
-1.97306	-4.56358	-0.0151287	
-2.71793	-6.30199	-0.0650046	
-2.62532	-6.08623	-0.0492987	
-2.16024	-5.00141	-0.0195281	
-0.669598	-1.5158	-0.0354391	
-1.41031	-3.26029	-0.00842193	
-1.12906	-2.60549	-0.0116191	
-0.491921	-1.07621	-0.0605153	
-1.69095	-3.91011	-0.0101464	
-1.59682	-3.69392	-0.00871118	
-1.31554	-3.04229	-0.0080903	
-2.43914	-5.65269	-0.0306878	
2.56805	5.35969	-0.212391	
1.90375	3.4398	-0.192891	
1.98547	3.67867	-0.194723	
1.06469	1.04756	-0.157791	
2.64913	5.59717	-0.210083	
0.985436	0.806366	-0.154702	
2.8937	6.31752	-0.199033	
1.39873	2.00588	-0.172848	
1.64934	2.72033	-0.183802	
2.73021	5.83876	-0.207836	
2.97844	6.55538	-0.186557	
1.23169	1.52803	-0.166169	
3.06516	6.79103	-0.168362	
2.06673	3.91718	-0.196072	
1.56404	2.47996	-0.177261	
2.4864	5.12148	-0.209678	
2.23589	4.40116	-0.205341	
1.73346	2.9597	-0.188382	
2.81199	6.07875	-0.203503	
1.48113	2.2421	-0.177188	
2.40285	4.88254	-0.207405	
2.15188	4.15893	-0.200896	
1.81592	3.1989	-0.18898	
0.909933	0.564324	-0.148673	
2.3185	4.6419	-0.207408	
1.31597	1.76883	-0.167646	
1.14812	1.28697	-0.164737	
-0.347208	-0.650795	-0.143571	
-1.06654	-2.90465	0.0231167	
-0.690014	-1.78362	-0.0341191	
-0.911356	-2.45662	0.00250291	
-1.78905	-4.91293	0.0618709	
-2.42153	-6.69184	-0.00532925	
-2.50463	-6.91107	-0.0337386	
-1.30664	-3.57478	0.0446252	
-0.547828	-1.33229	-0.0605594	
-0.40813	-0.881085	-0.104866	
-0.835721	-2.23373	-0.00848906	
-1.62919	-4.464	0.0603821	
-2.02576	-5.58109	0.0613006	
-0.762335	-2.00999	-0.0215126	
-1.54815	-4.24126	0.0583901	
-2.18352	-6.02787	0.0510759	
-1.94718	-5.35882	0.063412	
-1.70841	-4.68843	0.0620336	
-2.34102	-6.47167	0.0204321	
-2.26254	-6.24984	0.0388307	
-1.86822	-5.13701	0.0627098	
-0.618134	-1.55772	-0.0468644	
-1.22679	-3.3521	0.0393332	
-0.988263	-2.68051	0.0134375	
-0.476301	-1.10613	-0.0753903	
-1.46745	-4.01841	0.0545336	
-1.38734	-3.79664	0.0495613	
-1.14671	-3.12853	0.0312879	
-2.10453	-5.80479	0.0577492	
2.1452	5.51841	-0.213522	
1.6105	3.55761	-0.203384	
1.67619	3.80156	-0.204209	
0.946695	1.11256	-0.180002	
2.21106	5.76076	-0.210778	
0.883647	0.866312	-0.175159	
2.41088	6.49557	-0.199966	
1.20936	2.09307	-0.193041	
1.40885	2.82287	-0.199474	
2.27664	6.00727	-0.208283	
2.48154	6.73848	-0.189097	
1.07839	1.60339	-0.188756	
2.55436	6.97924	-0.173605	
1.74163	4.04517	-0.204085	
1.34108	2.57723	-0.194904	
2.07947	5.27556	-0.211502	
1.877	4.53995	-0.209848	
1.47597	3.06771	-0.201968	
2.34316	6.25216	-0.203857	
1.27536	2.33371	-0.196667	
2.01313	5.03146	-0.210512	
1.80957	4.29277	-0.207331	
1.54179	3.31216	-0.200973	
0.822847	0.620226	-0.165298	
1.94444	4.78567	-0.21079	
1.14494	1.84991	-0.189373	
1.01287	1.3572	-0.187044	
-0.350803	-0.675174	-0.140646	
-0.92012	-2.97034	-0.000676854	
-0.61902	-1.82698	-0.0446226	
-0.796172	-2.51279	-0.0151516	
-1.49923	-5.02262	0.0130447	
-2.01548	-6.84087	-0.040107	
-2.0857	-7.06488	-0.058223	
-1.11188	-3.65533	0.0110811	
-0.506513	-1.36712	-0.0704017	
-0.402597	-0.906613	-0.116912	
-0.735541	-2.28548	-0.0234655	
-1.37045	-4.56406	0.015603	
-1.69045	-5.70533	0.0074851	
-0.676687	-2.05763	-0.0337424	
-1.30523	-4.3362	0.0156449	
-1.81827	-6.16197	-0.00272113	
-1.62701	-5.47834	0.0105469	
-1.43406	-4.79328	0.0150392	
-1.94774	-6.61576	-0.0237785	
-1.88291	-6.38889	-0.011631	
-1.56332	-5.25161	0.0116576	
-0.561566	-1.59688	-0.0562513	
-1.0476	-3.42777	0.00881394	
-0.857752	-2.74138	-0.00710094	
-0.452163	-1.13667	-0.0865236	
-1.24106	-4.10844	0.0147253	
-1.17637	-3.88211	0.0130103	
-0.983833	-3.19927	0.00429208	
-1.75417	-5.93397	0.003059	
1.72209	5.64809	-0.225127	
1.31949	3.65609	-0.213826	
1.36868	3.90332	-0.214902	
0.825083	1.16957	-0.187303	
1.77219	5.89399	-0.222769	
0.778029	0.91962	-0.182476	
1.92285	6.64044	-0.211027	
1.02095	2.16535	-0.202171	
1.17031	2.9085	-0.209623	
1.82135	6.14405	-0.220225	
1.97823	6.88782	-0.199744	
0.923038	1.66814	-0.197025	
2.03467	7.13285	-0.184278	
1.41702	4.1513	-0.214439	
1.11949	2.65844	-0.205214	
1.67216	5.40022	-0.222993	
1.51819	4.6536	-0.22104	
1.21982	3.15716	-0.211808	
1.87118	6.39314	-0.215404	
1.07003	2.41052	-0.206613	
1.61967	5.15246	-0.221167	
1.46833	4.40194	-0.218641	
1.2694	3.40586	-0.211272	
0.732313	0.669875	-0.173454	
1.56819	4.90264	-0.221512	
0.972559	1.9197	-0.198245	
0.873785	1.41846	-0.194138	
-0.354514	-0.698354	-0.136802	
-0.782284	-3.02481	-0.0377081	
-0.552588	-1.86475	-0.0618032	
-0.688695	-2.55969	-0.0439277	
-1.21757	-5.1121	-0.0466554	
-1.60348	-6.96104	-0.0795275	
-1.6577	-7.18928	-0.0896131	
-0.927429	-3.72094	-0.0368356	
-0.470169	-1.39834	-0.085521	
-0.394999	-0.931835	-0.126148	
-0.642147	-2.3293	-0.048148	
-1.11993	-4.6457	-0.0415544	
-1.35891	-5.80635	-0.053622	
-0.597044	-2.09795	-0.0542817	
-1.07165	-4.41384	-0.0398815	
-1.45416	-6.27046	-0.0602261	
-1.31229	-5.57549	-0.0509328	
-1.16856	-4.87866	-0.0436609	
-1.552	-6.73173	-0.0709842	
-1.5029	-6.50121	-0.0650413	
-1.26475	-5.34512	-0.0491328	
-0.509884	-1.63126	-0.0713008	
-0.879036	-3.48998	-0.0361151	
-0.735155	-2.79211	-0.0400706	
-0.432209	-1.16513	-0.102939	
-1.0242	-4.18239	-0.0388489	
-0.975974	-3.95168	-0.0378303	
-0.830912	-3.25753	-0.0366919	
-1.40662	-6.03881	-0.0567623	
1.28901	5.74784	-0.208863	
1.02492	3.73515	-0.197571	
1.056	3.98473	-0.198081	
0.699724	1.21898	-0.181348	
1.32231	5.99743	-0.207507	
0.668977	0.965957	-0.179793	
1.42365	6.75199	-0.201484	
0.82865	2.22634	-0.189755	
0.926805	2.97821	-0.194326	
1.35591	6.25073	-0.206625	
1.46199	7.00183	-0.193342	
0.763544	1.72384	-0.186696	
1.50314	7.24975	-0.182081	
1.08863	4.2352	-0.197281	
0.892232	2.72487	-0.191241	
1.25614	5.49742	-0.206315	
1.15296	4.7433	-0.203108	
0.960268	3.23048	-0.195739	
1.38923	6.50121	-0.203524	
0.860578	2.47467	-0.193559	
1.22187	5.24607	-0.20398	
1.12116	4.489	-0.201249	
0.991908	3.4818	-0.195183	
0.638695	0.713524	-0.176424	
1.18714	4.99456	-0.202921	
0.796911	1.97653	-0.187323	
0.731919	1.47059	-0.186119	
-0.357348	-0.721406	-0.13685	
-0.636107	-3.07064	-0.058542	
-0.490381	-1.89797	-0.0906995	
-0.575876	-2.60019	-0.066675	
-0.922466	-5.1836	-0.059491	
-1.18115	-7.05301	-0.0846951	
-1.21938	-7.28371	-0.0973794	
-0.730868	-3.77493	-0.0549278	
-0.438401	-1.42714	-0.116469	
-0.38523	-0.956715	-0.135056	
-0.546115	-2.36723	-0.0724604	
-0.858435	-4.71155	-0.0557614	
-1.01677	-5.88473	-0.0631378	
-0.518215	-2.13348	-0.0804375	
-0.826879	-4.47663	-0.0552233	
-1.08031	-6.3544	-0.0668464	
-0.985264	-5.65155	-0.0616353	
-0.890315	-4.9472	-0.0573025	
-1.14606	-6.82132	-0.0756932	
-1.11313	-6.58822	-0.0704858	
-0.953782	-5.41868	-0.0607857	
-0.464168	-1.66235	-0.102964	
-0.698477	-3.54162	-0.0552671	
-0.605753	-2.83516	-0.0617499	
-0.41209	-1.19214	-0.125575	
-0.795099	-4.24266	-0.0552667	
-0.763117	-4.00892	-0.0550073	
-0.667634	-3.30584	-0.0567484	
-1.04851	-6.11987	-0.0647329	
0.867244	5.80553	-0.187405	
0.736952	3.78476	-0.180646	
0.751998	4.03497	-0.180592	
0.576313	1.25496	-0.172513	
0.883453	6.05594	-0.186333	
0.560904	1.00144	-0.172329	
0.932939	6.81459	-0.184418	
0.640033	2.26729	-0.176672	
0.688536	3.0232	-0.178915	
0.899204	6.31078	-0.186186	
0.952582	7.06638	-0.180168	
0.607769	1.76231	-0.175234	
0.974704	7.31758	-0.175805	
0.768354	4.28581	-0.179435	
0.67148	2.76903	-0.177035	
0.850396	5.55349	-0.185265	
0.799558	4.79576	-0.183623	
0.705321	3.2774	-0.179473	
0.916149	6.5633	-0.184268	
0.655688	2.51733	-0.179291	
0.834446	5.30132	-0.18374	
0.783991	4.54062	-0.182721	
0.72059	3.53057	-0.179047	
0.545867	0.74733	-0.171083	
0.816895	5.04759	-0.182913	
0.624084	2.01588	-0.175549	
0.591932	1.50825	-0.175114	
-0.357268	-0.744579	-0.138516	
-0.496469	-3.10292	-0.101433	
-0.42643	-1.92508	-0.125152	
-0.467811	-2.6304	-0.10995	
-0.636889	-5.22483	-0.0914834	
-0.765493	-7.10588	-0.106487	
-0.785022	-7.33877	-0.115811	
-0.542628	-3.81047	-0.0938984	
-0.399447	-1.45264	-0.134413	
-0.371429	-0.980511	-0.138799	
-0.453573	-2.39604	-0.114874	
-0.605205	-4.75178	-0.090662	
-0.683257	-5.92973	-0.0927794	
-0.440155	-2.1614	-0.120092	
-0.590092	-4.51573	-0.0908381	
-0.715088	-6.40166	-0.0946891	
-0.667955	-5.69523	-0.0920375	
-0.620647	-4.98801	-0.0904975	
-0.747944	-6.87191	-0.100175	
-0.731325	-6.63682	-0.0970492	
-0.652576	-5.46109	-0.0918941	
-0.413011	-1.68876	-0.130018	
-0.526862	-3.57537	-0.095816	
-0.482062	-2.86651	-0.105438	
-0.385477	-1.21671	-0.136016	
-0.574174	-4.28015	-0.0916763	
-0.558594	-4.04543	-0.0926267	
-0.511595	-3.33902	-0.0982207	
-0.69906	-6.16605	-0.0934715	
				</DataArray>
			</Points>
			<Cells>
				<DataArray type="Int32" Name="connectivity" Format="ascii">
0	
1	
2	
3	
4	
5	
6	
7	
8	
9	
10	
11	
12	
13	
14	
15	
16	
17	
18	
19	
20	
21	
22	
23	
24	
25	
26	
27	
28	
29	
30	
31	
32	
33	
34	
35	
36	
37	
38	
39	
40	
41	
42	
43	
44	
45	
46	
47	
48	
49	
50	
51	
52	
53	
54	
55	
56	
57	
58	
59	
60	
61	
62	
63	
64	
65	
66	
67	
68	
69	
70	
71	
72	
73	
74	
75	
76	
77	
78	
79	
80	
81	
82	
83	
84	
85	
86	
87	
88	
89	
90	
91	
92	
93	
94	
95	
96	
97	
98	
99	
100	
101	
102	
103	
104	
105	
106	
107	
108	
109	
110	
111	
112	
113	
114	
115	
116	
117	
118	
119	
120	
121	
122	
123	
124	
125	
126	
127	
128	
129	
130	
131	
132	
133	
134	
135	
136	
137	
138	
139	
140	
141	
142	
143	
144	
145	
146	
147	
148	
149	
150	
151	
152	
153	
154	
155	
156	
157	
158	
159	
160	
161	
162	
163	
164	
165	
166	
167	
168	
169	
170	
171	
172	
173	
174	
175	
176	
177	
178	
179	
180	
181	
182	
183	
184	
185	
186	
187	
188	
189	
190	
191	
192	
193	
194	
195	
196	
197	
198	
199	
200	
201	
202	
203	
204	
205	
206	
207	
208	
209	
210	
211	
212	
213	
214	
215	
216	
217	
218	
219	
220	
221	
222	
223	
224	
225	
226	
227	
228	
229	
230	
231	
232	
233	
234	
235	
236	
237	
238	
239	
240	
241	
242	
243	
244	
245	
246	
247	
248	
249	
250	
251	
252	
253	
254	
255	
256	
257	
258	
259	
260	
261	
262	
263	
264	
265	
266	
267	
268	
269	
270	
271	
272	
273	
274	
275	
276	
277	
278	
279	
280	
281	
282	
283	
284	
285	
286	
287	
288	
289	
290	
291	
292	
293	
294	
295	
296	
297	
298	
299	
300	
301	
302	
303	
304	
305	
306	
307	
308	
309	
310	
311	
312	
313	
314	
315	
316	
317	
318	
319	
320	
321	
322	
323	
324	
325	
326	
327	
328	
329	
330	
331	
332	
333	
334	
335	
				</DataArray>
				<DataArray type="Int32" Name="offsets" Format="ascii">
1	
2	
3	
4	
5	
6	
7	
8	
9	
10	
11	
12	
13	
14	
15	
16	
17	
18	
19	
20	
21	
22	
23	
24	
25	
26	
27	
28	
29	
30	
31	
32	
33	
34	
35	
36	
37	
38	
39	
40	
41	
42	
43	
44	
45	
46	
47	
48	
49	
50	
51	
52	
53	
54	
55	
56	
57	
58	
59	
60	
61	
62	
63	
64	
65	
66	
67	
68	
69	
70	
71	
72	
73	
74	
75	
76	
77	
78	
79	
80	
81	
82	
83	
84	
85	
86	
87	
88	
89	
90	
91	
92	
93	
94	
95	
96	
97	
98	
99	
100	
101	
102	
103	
104	
105	
106	
107	
108	
109	
110	
111	
112	
113	
114	
115	
116	
117	
118	
119	
120	
121	
122	
123	
124	
125	
126	
127	
128	
129	
130	
131	
132	
133	
134	
135	
136	
137	
138	
139	
140	
141	
142	
143	
144	
145	
146	
147	
148	
149	
150	
151	
152	
153	
154	
155	
156	
157	
158	
159	
160	
161	
162	
163	
164	
165	
166	
167	
168	
169	
170	
171	
172	
173	
174	
175	
176	
177	
178	
179	
180	
181	
182	
183	
184	
185	
186	
187	
188	
189	
190	
191	
192	
193	
194	
195	
196	
197	
198	
199	
200	
201	
202	
203	
204	
205	
206	
207	
208	
209	
210	
211	
212	
213	
214	
215	
216	
217	
218	
219	
220	
221	
222	
223	
224	
225	
226	
227	
228	
229	
230	
231	
232	
233	
234	
235	
236	
237	
238	
239	
240	
241	
242	
243	
244	
245	
246	
247	
248	
249	
250	
251	
252	
253	
254	
255	
256	
257	
258	
259	
260	
261	
262	
263	
264	
265	
266	
267	
268	
269	
270	
271	
272	
273	
274	
275	
276	
277	
278	
279	
280	
281	
282	
283	
284	
285	
286	
287	
288	
289	
290	
291	
292	
293	
294	
295	
296	
297	
298	
299	
300	
301	
302	
303	
304	
305	
306	
307	
308	
309	
310	
311	
312	
313	
314	
315	
316	
317	
318	
319	
320	
321	
322	
323	
324	
325	
326	
327	
328	
329	
330	
331	
332	
333	
334	
335	
336	
				</DataArray>
				<DataArray type="Int32" Name="types" Format="ascii">
1	
1	
1	
1	
1	
1	
1	
1	
1	
1	
1	
1	
1	
1	
1	
1	
1	
1	
1	
1	
1	
1	
1	
1	
1	
1	
1	
1	
1	
1	
1	
1	
1	
1	
1	
1	
1	
1	
1	
1	
1	
1	
1	
1	
1	
1	
1	
1	
1	
1	
1	
1	
1	
1	
1	
1	
1	
1	
1	
1	
1	
1	
1	
1	
1	
1	
1	
1	
1	
1	
1	
1	
1	
1	
1	
1	
1	
1	
1	
1	
1	
1	
1	
1	
1	
1	
1	
1	
1	
1	
1	
1	
1	
1	
1	
1	
1	
1	
1	
1	
1	
1	
1	
1	
1	
1	
1	
1	
1	
1	
1	
1	
1	
1	
1	
1	
1	
1	
1	
1	
1	
1	
1	
1	
1	
1	
1	
1	
1	
1	
1	
1	
1	
1	
1	
1	
1	
1	
1	
1	
1	
1	
1	
1	
1	
1	
1	
1	
1	
1	
1	
1	
1	
1	
1	
1	
1	
1	
1	
1	
1	
1	
1	
1	
1	
1	
1	
1	
1	
1	
1	
1	
1	
1	
1	
1	
1	
1	
1	
1	
1	
1	
1	
1	
1	
1	
1	
1	
1	
1	
1	
1	
1	
1	
1	
1	
1	
1	
1	
1	
1	
1	
1	
1	
1	
1	
1	
1	
1	
1	
1	
1	
1	
1	
1	
1	
1	
1	
1	
1	
1	
1	
1	
1	
1	
1	
1	
1	
1	
1	
1	
1	
1	
1	
1	
1	
1	
1	
1	
1	
1	
1	
1	
1	
1	
1	
1	
1	
1	
1	
1	
1	
1	
1	
1	
1	
1	
1	
1	
1	
1	
1	
1	
1	
1	
1	
1	
1	
1	
1	
1	
1	
1	
1	
1	
1	
1	
1	
1	
1	
1	
1	
1	
1	
1	
1	
1	
1	
1	
1	
1	
1	
1	
1	
1	
1	
1	
1	
1	
1	
1	
1	
1	
1	
1	
1	
1	
1	
1	
1	
1	
1	
1	
1	
1	
1	
1	
1	
1	
1	
1	
1	
1	
1	
1	
1	
1	
1	
1	
1	
1	
1	
1	
1	
1	
1	
				</DataArray>
			</Cells>
		</Piece>
	</UnstructuredGrid>
</VTKFile>
