<VTKFile type="UnstructuredGrid" version="0.1" byte_order="LittleEndian">
	<UnstructuredGrid>
		<Piece NumberOfPoints="560" NumberOfCells="560">
			<CellData Scalars="scalars">
				<DataArray type="Float64" Name="Strength" NumberOfComponents="3" Format="ascii">
-0.171782	-17.2314	0.0495137	
-0.231269	-11.9241	0.0421537	
0.00653581	-11.9359	0.00844583	
-0.396801	-4.90045	0.0860175	
-0.0556262	-16.995	0.00831232	
-0.207915	-4.19324	0.0453927	
0.358216	-17.0262	-0.0695182	
-0.318859	-8.15596	0.0593454	
-0.327226	-10.2344	0.0642685	
0.0850913	-17.3309	-0.00803656	
0.594233	-14.8628	-0.131328	
-0.181912	-6.9177	0.0427595	
2.12581	-11.7398	-0.458062	
-0.232073	-12.273	0.044955	
-0.0160475	-9.204	0.00503123	
-0.158211	-15.9103	0.0243451	
-0.31115	-14.7858	0.0695098	
-0.00729183	-11.0016	0.0120016	
0.000288584	-16.8515	0.00134693	
0.000243089	-9.03269	0.00114853	
0.00791539	-15.1984	-0.00596833	
-0.000276902	-13.5597	-0.00129913	
0.000143053	-11.0572	0.000669533	
-0.55991	-3.09017	0.118939	
-0.000287834	-15.2707	-0.00134836	
1.47767e-06	-7.37237	6.89552e-06	
-0.000571308	-6.37678	-0.00267795	
0.231575	-0.680825	0.0494974	
0.180443	-5.70736	0.0369714	
0.18862	-3.14146	0.0405838	
0.21865	-4.58005	0.0460669	
0.213295	-9.68668	0.0486597	
-0.750809	-11.6934	-0.16671	
-1.67043	-8.47483	-0.358148	
0.179704	-7.08749	0.0400866	
0.214852	-2.16917	0.0457274	
0.081075	-1.1802	0.0172827	
0.0898422	-4.05868	0.0195515	
0.116497	-9.48693	0.0154151	
0.254921	-11.361	0.062555	
-0.000121401	-3.64371	0.00057123	
0.125675	-8.60308	0.033448	
0.138901	-12.2227	0.030044	
0.0624091	-10.4817	0.0152197	
0.000824856	-9.19178	-0.0038589	
-0.0537774	-12.3317	-0.0147202	
-8.11411e-05	-12.6163	0.000383872	
8.86667e-05	-10.2764	-0.000415161	
-4.13774e-05	-2.6844	0.000194102	
0.111925	-6.70128	0.0242918	
-0.000225952	-5.22068	0.00106631	
3.04713e-05	-1.59135	-0.000143023	
0.0673749	-7.95852	0.0106625	
0.000151551	-7.54125	-0.000716913	
1.0016e-05	-6.13672	-4.71994e-05	
0.000276712	-11.9173	-0.0013089	
-0.162104	-2.80059	0.0362064	
-0.287102	-2.09999	0.0599576	
-0.0026423	-2.15226	0.00234173	
-0.441557	-0.923638	0.0945849	
-0.0819779	-2.8913	0.0168255	
-0.249749	-0.739595	0.0532788	
0.458057	-2.7699	-0.0975292	
-0.378444	-1.36828	0.0791539	
-0.347548	-1.77263	0.0727326	
0.118219	-3.04491	-0.0235257	
0.700893	-2.29026	-0.151213	
-0.226981	-1.21716	0.0491152	
2.43949	-1.72977	-0.523422	
-0.238889	-2.25877	0.0501147	
-0.0325999	-1.65177	0.00719858	
-0.191165	-2.93262	0.0389248	
-0.328703	-2.25744	0.0705679	
-0.0342582	-1.76958	0.0089966	
4.88033e-05	-2.84981	0.000227784	
4.16779e-05	-1.54867	0.000196917	
-0.0601984	-2.77035	0.0120628	
-4.70471e-05	-2.30386	-0.00022073	
2.4689e-05	-1.90833	0.000115552	
-0.653741	-0.517916	0.138921	
-4.51869e-05	-2.39733	-0.000211678	
2.46042e-07	-1.22754	1.14815e-06	
-8.8271e-05	-0.985256	-0.000413762	
0.274069	-0.134809	0.0584495	
0.214725	-1.02305	0.0452766	
0.224783	-0.581586	0.0479377	
0.257052	-0.857099	0.0544583	
0.239925	-1.76963	0.0518819	
-0.906653	-1.80256	-0.193637	
-1.91782	-1.25377	-0.409869	
0.211213	-1.30466	0.0450841	
0.250677	-0.40936	0.0534345	
0.0982903	-0.216433	0.0209357	
0.107218	-0.749688	0.0228239	
0.142495	-1.59847	0.0288716	
0.276539	-2.0434	0.060158	
-2.23093e-05	-0.669587	0.000104972	
0.148481	-1.54168	0.0325246	
0.142472	-2.08589	0.030245	
0.0909067	-1.93765	0.0197324	
0.000151045	-1.68317	-0.000706628	
-0.0610998	-2.04467	-0.0135045	
-1.33794e-05	-2.08031	6.32969e-05	
1.56633e-05	-1.81537	-7.33397e-05	
-7.49277e-06	-0.486101	3.51486e-05	
0.12696	-1.2049	0.0270171	
-4.13118e-05	-0.95452	0.000194958	
5.81643e-06	-0.30376	-2.73006e-05	
0.0801492	-1.43191	0.0163872	
2.7126e-05	-1.3498	-0.00012832	
1.84414e-06	-1.12989	-8.69033e-06	
4.79301e-05	-2.06423	-0.000226718	
-0.243815	-8.12522	0.0576741	
-0.370791	-5.93617	0.07547	
-0.047546	-5.98759	0.0151283	
-0.634822	-2.49785	0.13625	
-0.0423797	-8.42971	0.00726596	
-0.383284	-1.91929	0.0819933	
0.762521	-7.38502	-0.160947	
-0.531712	-4.07067	0.108887	
-0.441924	-5.12161	0.0910635	
0.169192	-8.22873	-0.0313947	
1.07586	-6.2614	-0.232773	
-0.383	-3.3979	0.0836705	
3.21062	-4.25821	-0.689255	
-0.359203	-6.41854	0.074236	
-0.0669086	-4.86262	0.0150355	
-0.248481	-7.91322	0.0482015	
-0.386166	-7.3551	0.0839096	
-0.0950946	-5.38331	0.0254203	
0.000135995	-7.94126	0.000634741	
0.000124666	-4.63233	0.000589013	
-0.112053	-7.67426	0.0217449	
-0.000144716	-7.08662	-0.000678958	
7.40372e-05	-5.72268	0.000346517	
-0.87169	-1.20288	0.185227	
-0.000139549	-7.40361	-0.00065372	
7.68723e-07	-3.8353	3.58723e-06	
-0.000267186	-2.98225	-0.00125241	
0.181786	0.257932	0.0386998	
0.132864	2.3799	0.0286861	
0.145155	1.30836	0.0307295	
0.174493	1.95657	0.0371351	
0.167217	4.05952	0.0344988	
-0.519685	3.93572	-0.107806	
-1.41139	2.56954	-0.301093	
0.13684	2.97263	0.0281029	
0.170925	0.899337	0.0364806	
0.05271	0.470342	0.011219	
0.0615025	1.72724	0.0128241	
0.0707076	3.85731	0.0191096	
0.209611	4.68135	0.040944	
5.03934e-05	1.5125	-0.000237116	
0.110548	3.57318	0.0203866	
0.123043	4.8812	0.0257564	
0.0618498	4.40638	0.0123787	
-0.000353136	3.93517	0.00165206	
0.00693813	4.55119	0.0026957	
3.15278e-05	4.90212	-0.000149155	
-3.71473e-05	4.30536	0.000173934	
1.707e-05	1.10743	-8.00754e-05	
0.0771463	2.83519	0.0161169	
9.38425e-05	2.16826	-0.000442859	
-1.34368e-05	0.70173	6.30683e-05	
0.0480329	3.37675	0.0117723	
-6.39584e-05	3.1826	0.000302555	
-4.21697e-06	2.5837	1.9872e-05	
-0.000111601	4.80638	0.000527893	
-0.243332	-2.64826	0.0533127	
-0.415687	-2.02903	0.0873816	
-0.0624045	-2.07709	0.0150864	
-0.6883	-0.859004	0.14726	
-0.0430736	-2.75111	0.00858618	
-0.429094	-0.654288	0.0913593	
0.883977	-2.35651	-0.189379	
-0.58949	-1.34295	0.124035	
-0.459471	-1.71823	0.096451	
0.201938	-2.76187	-0.0416195	
1.18999	-1.90284	-0.256251	
-0.435967	-1.14286	0.0936855	
3.44521	-1.2946	-0.738994	
-0.375525	-2.21782	0.0792717	
-0.0832511	-1.64514	0.017927	
-0.272039	-2.73599	0.0562311	
-0.392196	-2.27698	0.0841086	
-0.122986	-1.74497	0.0279232	
4.4098e-05	-2.57505	0.000205822	
4.15088e-05	-1.54238	0.000196118	
-0.164276	-2.62842	0.034307	
-4.72248e-05	-2.31256	-0.000221563	
2.45126e-05	-1.89469	0.000114727	
-0.945797	-0.409021	0.200989	
-4.41937e-05	-2.34464	-0.000207026	
2.47706e-07	-1.23585	1.15592e-06	
-8.49449e-05	-0.948131	-0.000398171	
0.146286	0.104604	0.0311618	
0.102371	0.892797	0.0218944	
0.113756	0.501159	0.0241533	
0.143287	0.750765	0.0304366	
0.143334	1.52883	0.0301799	
-0.378813	1.29427	-0.0795109	
-1.24684	0.834451	-0.266212	
0.110071	1.12951	0.0229695	
0.141119	0.349741	0.030104	
0.0355095	0.18087	0.00755987	
0.0444279	0.659157	0.00933696	
0.0437806	1.38982	0.0109189	
0.200056	1.73065	0.0411355	
1.93028e-05	0.579353	-9.08259e-05	
0.0956547	1.32602	0.0190721	
0.132764	1.71615	0.0279857	
0.0437646	1.65996	0.00902561	
-0.000131599	1.46647	0.000615654	
0.0311236	1.55245	0.00701655	
1.0777e-05	1.67567	-5.09853e-05	
-1.3689e-05	1.58655	6.40954e-05	
6.4714e-06	0.419839	-3.03574e-05	
0.0615002	1.06003	0.0129491	
3.57529e-05	0.82608	-0.000168724	
-5.13506e-06	0.268175	2.41024e-05	
0.0371316	1.25244	0.00847474	
-2.37876e-05	1.18368	0.000112527	
-1.60188e-06	0.98146	7.54871e-06	
-4.00909e-05	1.72662	0.000189637	
-0.268916	-4.14204	0.0599102	
-0.462739	-3.16777	0.096712	
-0.0924798	-3.21141	0.0224671	
-0.792161	-1.30268	0.169548	
-0.0118976	-4.29367	0.00164185	
-0.501799	-0.967255	0.106898	
1.07725	-3.47042	-0.23045	
-0.67605	-2.1781	0.141549	
-0.497776	-2.73292	0.104058	
0.245897	-4.13127	-0.0502281	
1.37703	-2.82107	-0.296679	
-0.529201	-1.78886	0.113961	
3.7746	-1.81878	-0.809725	
-0.434923	-3.4745	0.0914751	
-0.104072	-2.63636	0.0225133	
-0.295659	-4.1186	0.0604451	
-0.400753	-3.86932	0.0862719	
-0.160557	-2.84862	0.0369951	
6.6541e-05	-3.88558	0.000310572	
6.72699e-05	-2.49961	0.000317832	
-0.197366	-4.02744	0.0409726	
-7.77047e-05	-3.80514	-0.000364565	
3.95479e-05	-3.05684	0.000185096	
-1.05024	-0.576451	0.223183	
-7.2621e-05	-3.85281	-0.000340193	
4.10432e-07	-2.04772	1.91527e-06	
-0.000137812	-1.53822	-0.000645981	
0.186653	-0.119957	0.0398103	
0.134111	-0.922041	0.0282169	
0.143602	-0.514754	0.0306447	
0.173342	-0.765102	0.0367105	
0.169724	-1.55861	0.0367932	
-0.527791	-1.27152	-0.11279	
-1.40168	-0.785721	-0.299541	
0.138494	-1.14905	0.0296457	
0.169343	-0.364209	0.0360942	
0.0534941	-0.205747	0.0113954	
0.0627641	-0.678767	0.0133907	
0.0729757	-1.4792	0.0142299	
0.216256	-1.75748	0.0471746	
-1.9739e-05	-0.592443	9.2878e-05	
0.1078	-1.37092	0.0238176	
0.126034	-1.77949	0.0267527	
0.0516249	-1.67442	0.0113107	
0.00013617	-1.51741	-0.000637038	
-0.00712742	-1.54818	-0.00192775	
-1.1221e-05	-1.74471	5.30858e-05	
1.42541e-05	-1.65205	-6.67416e-05	
-6.79115e-06	-0.440582	3.18573e-05	
0.0814512	-1.10165	0.0173605	
-3.63501e-05	-0.839878	0.000171542	
5.68741e-06	-0.297022	-2.6695e-05	
0.0491549	-1.30719	0.00985243	
2.48074e-05	-1.23442	-0.000117351	
1.63352e-06	-1.00084	-7.6978e-06	
4.13326e-05	-1.78009	-0.000195511	
-0.267062	-1.91159	0.0577856	
-0.49336	-1.51401	0.104227	
-0.104952	-1.54783	0.0237674	
-0.836058	-0.620535	0.178751	
-0.00283338	-1.97063	0.000195198	
-0.536023	-0.462329	0.114023	
1.17454	-1.5646	-0.252251	
-0.720177	-1.01495	0.15215	
-0.510736	-1.28851	0.10751	
0.273699	-1.92553	-0.0574779	
1.45778	-1.23244	-0.313651	
-0.572185	-0.842471	0.122596	
3.91962	-0.80047	-0.840627	
-0.450638	-1.66152	0.0954977	
-0.115706	-1.24471	0.024731	
-0.308859	-1.96653	0.0645071	
-0.40015	-1.72865	0.0856847	
-0.180898	-1.31789	0.0398864	
3.02964e-05	-1.76912	0.000141405	
3.15068e-05	-1.17073	0.000148861	
-0.227569	-1.91066	0.0480123	
-3.57583e-05	-1.75106	-0.000167766	
1.84786e-05	-1.42829	8.64854e-05	
-1.10073	-0.278657	0.233917	
-3.29366e-05	-1.74741	-0.000154292	
1.87935e-07	-0.937641	8.76994e-07	
-6.30315e-05	-0.70354	-0.000295454	
0.212024	-0.0775708	0.0452103	
0.153377	-0.574731	0.0323763	
0.163096	-0.327086	0.0347698	
0.192385	-0.485307	0.0407681	
0.184399	-0.966039	0.0397481	
-0.613677	-0.70364	-0.130698	
-1.48762	-0.43587	-0.317844	
0.155124	-0.720987	0.0330423	
0.187398	-0.233391	0.0399489	
0.0645934	-0.12928	0.0137581	
0.0739233	-0.428771	0.0157254	
0.0903348	-0.887059	0.0185058	
0.217375	-1.06756	0.0468888	
-1.25454e-05	-0.376536	5.90301e-05	
0.115965	-0.841434	0.025108	
0.11261	-1.02889	0.0238724	
0.0597389	-1.0349	0.0129235	
8.35404e-05	-0.930932	-0.000390824	
-0.0285682	-0.874047	-0.0062922	
-6.32559e-06	-0.98354	2.99259e-05	
8.67142e-06	-1.00501	-4.06019e-05	
-4.27682e-06	-0.277463	2.00626e-05	
0.0920385	-0.682224	0.0195698	
-2.29784e-05	-0.530923	0.000108439	
3.55396e-06	-0.185604	-1.66812e-05	
0.0557197	-0.800533	0.0114822	
1.52534e-05	-0.759013	-7.21561e-05	
1.02655e-06	-0.628956	-4.83749e-06	
2.4443e-05	-1.0527	-0.00011562	
-0.270952	-2.20921	0.0588473	
-0.52148	-1.76639	0.110061	
-0.12194	-1.79547	0.0276122	
-0.894264	-0.702956	0.1912	
0.0181251	-2.26832	-0.00432053	
-0.575834	-0.512288	0.122496	
1.28757	-1.72853	-0.276489	
-0.771033	-1.21175	0.162751	
-0.529346	-1.52254	0.111333	
0.304638	-2.15805	-0.0639665	
1.55179	-1.36363	-0.33389	
-0.626891	-0.981918	0.134356	
4.07526	-0.859385	-0.874013	
-0.480505	-1.94315	0.101763	
-0.127757	-1.47606	0.0273247	
-0.319001	-2.22847	0.0665102	
-0.397892	-2.12122	0.0852856	
-0.202501	-1.57954	0.0447485	
3.40057e-05	-1.98573	0.000158718	
3.76077e-05	-1.39742	0.000177686	
-0.245635	-2.19327	0.0517869	
-4.30854e-05	-2.10986	-0.000202142	
2.19789e-05	-1.69885	0.000102868	
-1.15475	-0.298151	0.245397	
-3.95406e-05	-2.09778	-0.000185228	
2.26689e-07	-1.13099	1.05784e-06	
-7.45537e-05	-0.832148	-0.000349463	
0.199759	0.0320361	0.0425742	
0.142353	0.311859	0.0302374	
0.152829	0.170579	0.0325168	
0.182286	0.25753	0.0386754	
0.175902	0.525885	0.0374628	
-0.565055	0.377189	-0.119682	
-1.44324	0.225191	-0.308262	
0.145309	0.389274	0.0306433	
0.17776	0.118514	0.0379075	
0.0579322	0.0625231	0.0123368	
0.0674214	0.228393	0.0142652	
0.0803474	0.504227	0.0177851	
0.213937	0.580838	0.0449286	
6.58465e-06	0.197631	-3.09828e-05	
0.112314	0.464931	0.0232793	
0.118287	0.575761	0.0249856	
0.0586532	0.557861	0.0124008	
-4.61808e-05	0.514615	0.000216046	
-0.0129577	0.474091	-0.00261972	
3.56447e-06	0.554224	-1.68632e-05	
-4.81554e-06	0.558119	2.25477e-05	
2.24073e-06	0.14537	-1.05113e-05	
0.0848241	0.374862	0.0179514	
1.22274e-05	0.282517	-5.77032e-05	
-1.84488e-06	0.0963477	8.6593e-06	
0.0516455	0.445369	0.0111898	
-8.4578e-06	0.420864	4.00097e-05	
-5.52262e-07	0.338366	2.60248e-06	
-1.35477e-05	0.583466	6.4083e-05	
-0.266922	-1.2447	0.057245	
-0.541053	-1.02384	0.114675	
-0.130569	-1.04528	0.0288426	
-0.925601	-0.404836	0.197817	
0.0282438	-1.27048	-0.00626498	
-0.598581	-0.296002	0.127266	
1.35384	-0.954058	-0.291096	
-0.8017	-0.689841	0.169817	
-0.538231	-0.87459	0.113531	
0.325139	-1.21786	-0.068909	
1.60218	-0.738264	-0.344572	
-0.657765	-0.56212	0.140707	
4.16008	-0.468214	-0.892126	
-0.492162	-1.12353	0.104553	
-0.135456	-0.847511	0.0288441	
-0.325511	-1.2828	0.0684459	
-0.394716	-1.17456	0.0844051	
-0.215956	-0.897487	0.0469747	
1.88935e-05	-1.10326	8.81833e-05	
2.14835e-05	-0.798281	0.000101503	
-0.261649	-1.25815	0.0554667	
-2.42921e-05	-1.18956	-0.00011397	
1.25607e-05	-0.970873	5.87879e-05	
-1.18624	-0.173759	0.25209	
-2.20916e-05	-1.17204	-0.000103488	
1.27577e-07	-0.636505	5.95336e-07	
-4.1944e-05	-0.468167	-0.000196609	
0.186653	0.0373383	0.0397791	
0.131704	0.31633	0.0279819	
0.141986	0.178378	0.0302072	
0.171906	0.266649	0.0364743	
0.168506	0.524981	0.0358807	
-0.520792	0.339242	-0.110292	
-1.40279	0.205234	-0.299623	
0.136279	0.395712	0.0287297	
0.167693	0.125865	0.0357614	
0.0514383	0.0667882	0.0109538	
0.0611073	0.235737	0.0129257	
0.0710288	0.487009	0.0157919	
0.21563	0.566405	0.0453026	
6.86652e-06	0.206091	-3.23091e-05	
0.108227	0.460557	0.0224221	
0.128578	0.53225	0.0271646	
0.0557396	0.554483	0.0117804	
-4.56135e-05	0.508294	0.000213392	
0.000478536	0.431157	0.000217479	
3.2145e-06	0.499809	-1.52076e-05	
-4.70843e-06	0.545705	2.20461e-05	
2.327e-06	0.150967	-1.0916e-05	
0.078767	0.376087	0.0166672	
1.26133e-05	0.291434	-5.95244e-05	
-1.91009e-06	0.0997534	8.96539e-06	
0.0481591	0.439878	0.0104457	
-8.39626e-06	0.417801	3.97185e-05	
-5.64032e-07	0.345577	2.65794e-06	
-1.28313e-05	0.552613	6.06944e-05	
-0.264006	-1.21552	0.0566065	
-0.557715	-1.0156	0.118227	
-0.139904	-1.03292	0.0308328	
-0.958956	-0.395014	0.204937	
0.0418423	-1.23505	-0.00914771	
-0.620914	-0.28573	0.132008	
1.41853	-0.900157	-0.305035	
-0.831977	-0.695282	0.176246	
-0.548159	-0.875531	0.115631	
0.345054	-1.16307	-0.0732057	
1.65109	-0.696394	-0.355075	
-0.690035	-0.558418	0.147595	
4.23868	-0.433941	-0.908972	
-0.507626	-1.11534	0.107854	
-0.142538	-0.850241	0.0303449	
-0.329737	-1.24082	0.0693688	
-0.390461	-1.19885	0.0835018	
-0.228475	-0.905585	0.0496562	
1.80214e-05	-1.05234	8.4113e-05	
2.16429e-05	-0.804207	0.000102257	
-0.271157	-1.22888	0.0575034	
-2.45437e-05	-1.20189	-0.000115151	
1.26085e-05	-0.97457	5.90117e-05	
-1.21624	-0.165601	0.258466	
-2.22167e-05	-1.17868	-0.000104074	
1.29326e-07	-0.645229	6.03496e-07	
-4.20177e-05	-0.46899	-0.000196954	
0.190969	-0.0132424	0.040709	
0.134703	-0.0856984	0.0285281	
0.144494	-0.0480835	0.0307718	
0.174489	-0.0705411	0.0369997	
0.170693	-0.14218	0.0365573	
-0.533659	-0.0936426	-0.1133	
-1.41347	-0.0542653	-0.301947	
0.139019	-0.106017	0.0294549	
0.169977	-0.035158	0.036242	
0.0531255	-0.0220071	0.0113143	
0.0628572	-0.0632338	0.0133339	
0.0737054	-0.140115	0.0157297	
0.216497	-0.154487	0.0460254	
-1.83108e-06	-0.0549577	8.61579e-06	
0.109062	-0.127582	0.023075	
0.126646	-0.152591	0.0267933	
0.0553874	-0.148636	0.0118338	
1.26203e-05	-0.140635	-5.90413e-05	
-0.00444712	-0.120211	-0.000975222	
-9.35859e-07	-0.145513	4.42748e-06	
1.31076e-06	-0.151917	-6.13734e-06	
-6.50104e-07	-0.0421762	3.04964e-06	
0.0809219	-0.103204	0.0171644	
-3.33792e-06	-0.0771235	1.57522e-05	
5.85302e-07	-0.0305671	-2.74723e-06	
0.0493022	-0.122871	0.0104295	
2.33354e-06	-0.116118	-1.10388e-05	
1.50616e-07	-0.0922811	-7.09762e-07	
3.60893e-06	-0.155428	-1.70709e-05	
-0.259395	-0.771862	0.0552849	
-0.569734	-0.660971	0.120999	
-0.145351	-0.673594	0.0317036	
-0.979666	-0.2562	0.209325	
0.0500244	-0.78018	-0.0107927	
-0.635286	-0.186059	0.135033	
1.46038	-0.561848	-0.31419	
-0.852155	-0.447442	0.180795	
-0.553928	-0.566882	0.117003	
0.358907	-0.737044	-0.0764226	
1.68106	-0.429516	-0.361453	
-0.710643	-0.360633	0.151882	
4.28736	-0.268786	-0.919381	
-0.5153	-0.723511	0.109636	
-0.147442	-0.550121	0.0313306	
-0.332594	-0.799212	0.0702337	
-0.386818	-0.756136	0.0826296	
-0.236975	-0.582512	0.0511648	
1.13003e-05	-0.659866	5.27428e-05	
1.3958e-05	-0.51865	6.59477e-05	
-0.279317	-0.790518	0.0593677	
-1.56607e-05	-0.766892	-7.34747e-05	
8.13756e-06	-0.62899	3.80863e-05	
-1.23595	-0.1088	0.262656	
-1.40779e-05	-0.746887	-6.59483e-05	
8.26307e-08	-0.412259	3.85594e-07	
-2.68628e-05	-0.299835	-0.000125917	
0.198428	-0.0227422	0.0423008	
0.139953	-0.16	0.0296241	
0.149757	-0.0919896	0.0318982	
0.179549	-0.135331	0.0380688	
0.173923	-0.259393	0.0372851	
-0.554357	-0.152198	-0.117739	
-1.43136	-0.0907314	-0.305773	
0.14342	-0.198615	0.0304135	
0.174821	-0.0664941	0.0372736	
0.0563084	-0.038011	0.0119924	
0.0659938	-0.120263	0.0140059	
0.0781027	-0.243556	0.0165583	
0.214697	-0.273234	0.0457304	
-3.51709e-06	-0.105561	1.6549e-05	
0.110939	-0.230122	0.0235535	
0.120508	-0.251294	0.0255005	
0.056158	-0.269904	0.0120203	
2.26626e-05	-0.25254	-0.000106022	
-0.0115448	-0.196408	-0.00250058	
-1.49648e-06	-0.232682	7.07975e-06	
2.32014e-06	-0.268904	-1.08635e-05	
-1.21467e-06	-0.078803	5.69803e-06	
0.083995	-0.189638	0.0178231	
-6.38272e-06	-0.147474	3.01212e-05	
1.0371e-06	-0.0541622	-4.86785e-06	
0.050968	-0.22054	0.0107388	
4.21887e-06	-0.209933	-1.99574e-05	
2.84239e-07	-0.174151	-1.33945e-06	
6.13263e-06	-0.264117	-2.90085e-05	
				</DataArray>
			</CellData>
			<Points>
				<DataArray type="Float64" Name="Position" NumberOfComponents="3" Format="ascii">
4.38767	4.19375	-0.0667492	
3.12449	2.60355	-0.0664474	
3.28222	2.80037	-0.0669598	
1.56501	0.61744	-0.102084	
4.5455	4.38951	-0.0657558	
1.4181	0.413561	-0.10758	
5.02114	4.98521	-0.0630726	
2.17855	1.41673	-0.0791686	
2.64825	2.00751	-0.0703992	
4.70634	4.58863	-0.0675253	
5.18468	5.17918	-0.0550462	
1.87147	1.01766	-0.0889726	
5.34762	5.37124	-0.0408509	
3.43957	2.99756	-0.0682671	
2.49055	1.80778	-0.0707968	
4.23679	3.99443	-0.0709758	
3.7573	3.3993	-0.0728998	
2.80994	2.20398	-0.0719078	
4.86976	4.78552	-0.0692649	
2.33722	1.60918	-0.0767319	
4.07908	3.79583	-0.0722418	
3.60305	3.19588	-0.0722433	
2.9708	2.40067	-0.0709771	
1.27512	0.20584	-0.109761	
3.92289	3.59529	-0.0746938	
2.02914	1.21642	-0.083665	
1.71944	0.816036	-0.0989482	
-0.307412	-0.546085	-0.0963735	
-1.73495	-2.42612	0.0319167	
-0.995928	-1.50099	0.0161197	
-1.43846	-2.05557	0.02903	
-3.06439	-4.09264	0.012061	
-4.23716	-5.56965	-0.0885164	
-4.39126	-5.74763	-0.102738	
-2.1785	-2.98179	0.0300265	
-0.700946	-1.12921	0.000270122	
-0.397012	-0.758958	-0.0580532	
-1.29062	-1.8719	0.0280042	
-2.76825	-3.72004	0.020077	
-3.50435	-4.64802	-0.00247458	
-1.14314	-1.6874	0.0222018	
-2.62152	-3.5351	0.0269155	
-3.79901	-5.01912	-0.0227123	
-3.3609	-4.46284	0.00787138	
-2.91835	-3.90643	0.0213979	
-4.09326	-5.38696	-0.0593045	
-3.94935	-5.20297	-0.0349659	
-3.21463	-4.27932	0.0150563	
-0.847108	-1.31572	0.0088879	
-2.03168	-2.79801	0.0345269	
-1.58566	-2.24137	0.032663	
-0.549543	-0.94296	-0.0143294	
-2.47329	-3.35071	0.0304744	
-2.32557	-3.16711	0.0324832	
-1.8824	-2.61297	0.035407	
-3.65648	-4.83381	-0.00455314	
4.10204	4.46411	-0.230147	
2.95386	2.788	-0.208593	
3.09534	2.99682	-0.211743	
1.4957	0.707427	-0.165862	
4.24053	4.67216	-0.225832	
1.3547	0.496296	-0.157704	
4.65782	5.30381	-0.199302	
2.07912	1.54133	-0.184531	
2.51535	2.16187	-0.196746	
4.37996	4.88415	-0.219547	
4.79769	5.51117	-0.176398	
1.78843	1.12498	-0.175602	
4.93964	5.71436	-0.143146	
3.23626	3.20544	-0.214055	
2.36684	1.95336	-0.188881	
3.96061	4.25585	-0.22874	
3.52913	3.62729	-0.225677	
2.66143	2.3703	-0.20335	
4.51904	5.09455	-0.210216	
2.22337	1.7464	-0.189272	
3.81646	4.04757	-0.226755	
3.38318	3.41597	-0.219532	
2.80488	2.57921	-0.20441	
1.21745	0.282861	-0.142606	
3.67213	3.83775	-0.227261	
1.93445	1.33484	-0.177711	
1.64253	0.91519	-0.174305	
-0.317828	-0.564259	-0.106433	
-1.60947	-2.54653	0.0968212	
-0.936741	-1.56794	0.0208705	
-1.33552	-2.15646	0.0681701	
-2.84817	-4.29065	0.157533	
-3.92039	-5.83886	0.0538712	
-4.05584	-6.02895	0.0143175	
-2.02435	-3.12824	0.128719	
-0.674802	-1.17284	-0.00876172	
-0.400266	-0.782797	-0.0651481	
-1.20128	-1.96179	0.0543397	
-2.57504	-3.89999	0.153806	
-3.25421	-4.87239	0.157696	
-1.06868	-1.76614	0.0370219	
-2.43739	-3.70655	0.150524	
-3.52373	-5.26142	0.14087	
-3.11964	-4.67874	0.160861	
-2.71087	-4.09545	0.156665	
-3.78828	-5.64762	0.0923508	
-3.65694	-5.45451	0.121375	
-2.98416	-4.48579	0.159448	
-0.805208	-1.37053	0.00517434	
-1.88692	-2.93478	0.120447	
-1.4718	-2.35154	0.0830166	
-0.538668	-0.976331	-0.0242442	
-2.29971	-3.513	0.144373	
-2.16231	-3.32062	0.136385	
-1.74795	-2.74086	0.108616	
-3.38914	-5.06726	0.151771	
3.71898	4.73106	-0.241025	
2.68973	2.98103	-0.240176	
2.81699	3.19874	-0.241291	
1.40076	0.799668	-0.207921	
3.845	4.94769	-0.234271	
1.27429	0.578507	-0.193743	
4.2288	5.60418	-0.206975	
1.91624	1.67536	-0.230632	
2.30085	2.32567	-0.236477	
3.97242	5.16823	-0.227485	
4.35943	5.81959	-0.185387	
1.66134	1.23838	-0.222644	
4.49262	6.03073	-0.153851	
2.94323	3.41664	-0.241099	
2.17006	2.10704	-0.231472	
3.59144	4.51401	-0.241466	
3.2036	3.85791	-0.245122	
2.43034	2.54377	-0.240322	
4.0999	5.38712	-0.21777	
2.04379	1.89023	-0.234826	
3.46281	4.29603	-0.241789	
3.07397	3.63718	-0.243155	
2.5579	2.76198	-0.238618	
1.14921	0.357985	-0.168043	
3.33275	4.07706	-0.244592	
1.78974	1.4587	-0.224545	
1.53233	1.01772	-0.219005	
-0.325865	-0.585417	-0.114885	
-1.47769	-2.64951	0.068106	
-0.875646	-1.62968	0.016166	
-1.23404	-2.24191	0.0506092	
-2.58351	-4.47423	0.0848575	
-3.56133	-6.09183	0.0071398	
-3.68991	-6.28901	-0.0115459	
-1.84706	-3.25822	0.0829662	
-0.638293	-1.21898	-0.0120356	
-0.396179	-0.810431	-0.0740949	
-1.11392	-2.03913	0.0418013	
-2.33788	-4.06608	0.0886059	
-2.94711	-5.08236	0.0751442	
-0.994822	-1.83557	0.0292428	
-2.21487	-3.86359	0.0889049	
-3.19055	-5.48914	0.0583039	
-2.82621	-4.88007	0.0804779	
-2.46003	-4.2702	0.0877026	
-3.43561	-5.89267	0.0272589	
-3.31289	-5.69096	0.0448603	
-2.70528	-4.67823	0.082449	
-0.756466	-1.42437	0.00264719	
-1.72463	-3.05587	0.0801705	
-1.3552	-2.44576	0.0600034	
-0.515844	-1.01372	-0.0295497	
-2.09264	-3.66107	0.0879975	
-1.97017	-3.45975	0.0854444	
-1.60124	-2.85292	0.0743644	
-3.0687	-5.28613	0.0676947	
3.34523	4.96744	-0.272718	
2.43341	3.15135	-0.271314	
2.54643	3.3772	-0.272418	
1.29426	0.887091	-0.229959	
3.45719	5.19199	-0.266555	
1.18332	0.657506	-0.212991	
3.7967	5.87317	-0.236469	
1.74777	1.79668	-0.258068	
2.08842	2.47147	-0.265911	
3.57003	5.42061	-0.258662	
3.91397	6.09678	-0.213489	
1.52275	1.34362	-0.247735	
4.03365	6.31617	-0.180187	
2.65842	3.60324	-0.272439	
1.97302	2.2445	-0.260594	
3.23252	4.74144	-0.273149	
2.88947	4.06115	-0.277119	
2.20323	2.6977	-0.270247	
3.68266	5.64781	-0.248472	
1.86067	2.01975	-0.263929	
3.11854	4.51574	-0.273288	
2.77454	3.83172	-0.275626	
2.31662	2.92389	-0.268808	
1.07438	0.429181	-0.182528	
3.00303	4.28855	-0.276125	
1.63626	1.57207	-0.251027	
1.40888	1.11457	-0.242033	
-0.332553	-0.606329	-0.125587	
-1.35706	-2.73844	0.0157288	
-0.816613	-1.68458	0.00228674	
-1.13978	-2.31638	0.0145446	
-2.33962	-4.63407	-0.0183524	
-3.19841	-6.31654	-0.0644061	
-3.31091	-6.52203	-0.0653366	
-1.68642	-3.37032	0.00777032	
-0.602492	-1.26102	-0.019695	
-0.394326	-0.836045	-0.0828294	
-1.03187	-2.10677	0.0138161	
-2.12165	-4.21034	-0.00792036	
-2.66063	-5.26596	-0.0341912	
-0.924409	-1.89688	0.00895415	
-2.01308	-3.99969	-0.00339325	
-2.87475	-5.68882	-0.0464615	
-2.55464	-5.05564	-0.028153	
-2.23058	-4.42203	-0.0124301	
-3.08907	-6.10874	-0.05898	
-2.98184	-5.89896	-0.0530367	
-2.44758	-4.84601	-0.0237481	
-0.708531	-1.47298	-0.00670853	
-1.57763	-3.16061	0.0116648	
-1.24794	-2.52726	0.0156774	
-0.49513	-1.04775	-0.0381693	
-1.90453	-3.78925	0.00043992	
-1.79585	-3.57976	0.00380851	
-1.46755	-2.94954	0.0139015	
-2.76793	-5.47772	-0.0402686	
2.95243	5.17889	-0.263174	
2.16191	3.30588	-0.265034	
2.25985	3.53884	-0.265727	
1.17893	0.969803	-0.234459	
3.04982	5.41031	-0.257885	
1.08551	0.732397	-0.218857	
3.34573	6.11216	-0.232995	
1.56758	1.90818	-0.257595	
1.86217	2.60458	-0.261843	
3.14797	5.64584	-0.251138	
3.44911	6.343	-0.21295	
1.37405	1.4413	-0.249421	
3.55478	6.57005	-0.18355	
2.35684	3.77194	-0.264797	
1.76349	2.37032	-0.258548	
2.85467	4.94631	-0.263099	
2.55655	4.24442	-0.267603	
1.96186	2.83768	-0.265438	
3.246	5.87988	-0.242751	
1.66489	2.1385	-0.262745	
2.75591	4.71305	-0.263629	
2.45694	4.00795	-0.267162	
2.06041	3.07112	-0.263262	
0.993639	0.496681	-0.188926	
2.65514	4.47875	-0.265455	
1.4723	1.67651	-0.251993	
1.27638	1.2047	-0.244372	
-0.338606	-0.627902	-0.137042	
-1.22206	-2.82343	-0.00849906	
-0.75579	-1.73528	-0.0159301	
-1.03477	-2.38754	-0.00890685	
-2.06992	-4.78151	-0.0320892	
-2.81548	-6.51712	-0.0713811	
-2.91429	-6.72976	-0.075545	
-1.50527	-3.47631	-0.0146622	
-0.570879	-1.29827	-0.0341486	
-0.396445	-0.859331	-0.091829	
-0.941676	-2.17121	-0.00858677	
-1.8815	-4.34397	-0.0242243	
-2.34759	-5.43346	-0.0432167	
-0.849244	-1.9543	-0.0114666	
-1.78769	-4.12647	-0.0211902	
-2.53332	-5.86955	-0.0519389	
-2.25592	-5.21653	-0.0388562	
-1.97561	-4.56258	-0.0274084	
-2.72002	-6.30257	-0.0644412	
-2.62649	-6.08628	-0.0576892	
-2.16322	-5.00019	-0.0357917	
-0.662023	-1.51694	-0.0227548	
-1.41135	-3.25965	-0.0112825	
-1.12828	-2.60519	-0.00854471	
-0.479878	-1.0782	-0.0514192	
-1.69385	-3.90915	-0.0188946	
-1.59989	-3.69275	-0.016781	
-1.31695	-3.04149	-0.0100108	
-2.44063	-5.65187	-0.0478219	
2.55122	5.36299	-0.261806	
1.88596	3.44101	-0.260905	
1.96864	3.68012	-0.261914	
1.06102	1.04469	-0.229938	
2.63341	5.60039	-0.257532	
0.983539	0.801552	-0.216718	
2.88243	6.32029	-0.23496	
1.38713	2.00642	-0.250853	
1.63393	2.72149	-0.257111	
2.71566	5.84195	-0.251566	
2.97074	6.55754	-0.216235	
1.22384	1.52773	-0.242673	
3.06111	6.79146	-0.189319	
2.05017	3.91928	-0.260354	
1.55042	2.48092	-0.253885	
2.46917	5.12429	-0.2611	
2.21805	4.40422	-0.264137	
1.71773	2.96074	-0.260444	
2.79828	6.08191	-0.243698	
1.46805	2.24307	-0.257724	
2.38605	4.88493	-0.26029	
2.13453	4.16114	-0.263987	
1.79957	3.19962	-0.258519	
0.908603	0.559606	-0.18969	
2.30095	4.64445	-0.261446	
1.30661	1.76903	-0.246734	
1.1421	1.28536	-0.238637	
-0.343862	-0.651305	-0.142159	
-1.07592	-2.90108	-0.0133571	
-0.690533	-1.78266	-0.0332907	
-0.920474	-2.45325	-0.0197928	
-1.79038	-4.91136	-0.0156357	
-2.42106	-6.69213	-0.0601091	
-2.50552	-6.91099	-0.0709526	
-1.3131	-3.57184	-0.0104432	
-0.53929	-1.33314	-0.0511358	
-0.399352	-0.882538	-0.103026	
-0.843328	-2.23097	-0.022431	
-1.63101	-4.46232	-0.011477	
-2.02474	-5.58023	-0.0234732	
-0.767242	-2.008	-0.0274657	
-1.55122	-4.2393	-0.0103715	
-2.18162	-6.02751	-0.0316781	
-1.94741	-5.35775	-0.0197228	
-1.71055	-4.68672	-0.0128536	
-2.3395	-6.47189	-0.0482757	
-2.26057	-6.24981	-0.0392042	
-1.86912	-5.13573	-0.0181029	
-0.613838	-1.55789	-0.0401249	
-1.23427	-3.34923	-0.00986454	
-0.997918	-2.67691	-0.0164648	
-0.464971	-1.10745	-0.0667051	
-1.47185	-4.01613	-0.0101673	
-1.39275	-3.79393	-0.0106319	
-1.15532	-3.12532	-0.0115275	
-2.10329	-5.80426	-0.0271274	
2.13922	5.51983	-0.249094	
1.60252	3.55735	-0.245309	
1.6691	3.80152	-0.245525	
0.941148	1.11133	-0.219537	
2.20559	5.76213	-0.245705	
0.879348	0.863994	-0.208883	
2.40655	6.49681	-0.227627	
1.20153	2.0931	-0.236645	
1.40112	2.82298	-0.242427	
2.27176	6.00861	-0.241316	
2.47906	6.73949	-0.211762	
1.07078	1.60336	-0.229022	
2.55337	6.97934	-0.189031	
1.73509	4.04557	-0.244609	
1.33386	2.57729	-0.239617	
2.07346	5.27633	-0.247834	
1.87045	4.54108	-0.247753	
1.46832	3.06759	-0.244515	
2.33836	6.25344	-0.234705	
1.26703	2.33387	-0.24156	
2.0073	5.03203	-0.246436	
1.80278	4.29292	-0.248498	
1.53489	3.31144	-0.243146	
0.820184	0.617477	-0.187779	
1.93772	4.78644	-0.246403	
1.13769	1.84988	-0.233294	
1.00592	1.35673	-0.226498	
-0.348836	-0.674912	-0.140183	
-0.929274	-2.96813	-0.0253312	
-0.623231	-1.82556	-0.0496443	
-0.804746	-2.51066	-0.0326476	
-1.50446	-5.02149	-0.0242112	
-2.01679	-6.84046	-0.0646896	
-2.08627	-7.06447	-0.0769795	
-1.11962	-3.65347	-0.0202335	
-0.505432	-1.36631	-0.0681566	
-0.39918	-0.906534	-0.115418	
-0.743267	-2.28351	-0.0366287	
-1.37615	-4.56291	-0.0204419	
-1.69452	-5.7046	-0.0301399	
-0.683225	-2.05577	-0.0432005	
-1.31155	-4.33495	-0.0197185	
-1.82165	-6.16137	-0.0377475	
-1.63197	-5.4775	-0.0272821	
-1.43976	-4.79223	-0.0216293	
-1.94991	-6.61529	-0.0529059	
-1.88571	-6.38843	-0.044364	
-1.56841	-5.25068	-0.0258313	
-0.563254	-1.5958	-0.0568288	
-1.05595	-3.42602	-0.0205418	
-0.866883	-2.73904	-0.0285042	
-0.448651	-1.1362	-0.0831056	
-1.24786	-4.10694	-0.0197156	
-1.18381	-3.88027	-0.0203349	
-0.992679	-3.19721	-0.0226528	
-1.75815	-5.93338	-0.033276	
1.71754	5.64896	-0.237242	
1.31373	3.65595	-0.227254	
1.36301	3.90343	-0.228666	
0.820035	1.16922	-0.206629	
1.76798	5.89485	-0.23492	
0.773878	0.918711	-0.198966	
1.91965	6.64101	-0.220644	
1.01465	2.16556	-0.220765	
1.16426	2.90875	-0.225043	
1.81735	6.14488	-0.231643	
1.9763	6.88832	-0.207172	
0.916755	1.66842	-0.214137	
2.03374	7.13284	-0.188364	
1.4117	4.15176	-0.227972	
1.1135	2.65863	-0.22181	
1.66722	5.40138	-0.235591	
1.51146	4.65447	-0.233423	
1.21392	3.15721	-0.225385	
1.86746	6.39379	-0.225938	
1.06354	2.41091	-0.224926	
1.61521	5.15264	-0.233509	
1.46223	4.40224	-0.232739	
1.26374	3.40559	-0.225523	
0.729675	0.668472	-0.18444	
1.56289	4.90314	-0.232819	
0.966631	1.91995	-0.217401	
0.86786	1.4185	-0.212257	
-0.353174	-0.697974	-0.137105	
-0.782117	-3.02469	-0.0428239	
-0.555755	-1.86396	-0.0673137	
-0.689718	-2.55935	-0.0501455	
-1.21557	-5.11226	-0.0439975	
-1.60264	-6.9611	-0.0760043	
-1.65707	-7.18933	-0.0879266	
-0.925636	-3.72109	-0.038969	
-0.472709	-1.3973	-0.0873511	