<VTKFile type="UnstructuredGrid" version="0.1" byte_order="LittleEndian">
	<UnstructuredGrid>
		<Piece NumberOfPoints="616" NumberOfCells="616">
			<CellData Scalars="scalars">
				<DataArray type="Float64" Name="Strength" NumberOfComponents="3" Format="ascii">
-0.171782	-17.2314	0.0495137	
-0.231269	-11.9241	0.0421537	
0.00653581	-11.9359	0.00844583	
-0.396801	-4.90045	0.0860175	
-0.0556262	-16.995	0.00831232	
-0.207915	-4.19324	0.0453927	
0.358216	-17.0262	-0.0695182	
-0.318859	-8.15596	0.0593454	
-0.327226	-10.2344	0.0642685	
0.0850913	-17.3309	-0.00803656	
0.594233	-14.8628	-0.131328	
-0.181912	-6.9177	0.0427595	
2.12581	-11.7398	-0.458062	
-0.232073	-12.273	0.044955	
-0.0160475	-9.204	0.00503123	
-0.158211	-15.9103	0.0243451	
-0.31115	-14.7858	0.0695098	
-0.00729183	-11.0016	0.0120016	
0.000288584	-16.8515	0.00134693	
0.000243089	-9.03269	0.00114853	
0.00791539	-15.1984	-0.00596833	
-0.000276902	-13.5597	-0.00129913	
0.000143053	-11.0572	0.000669533	
-0.55991	-3.09017	0.118939	
-0.000287834	-15.2707	-0.00134836	
1.47767e-06	-7.37237	6.89552e-06	
-0.000571308	-6.37678	-0.00267795	
0.231575	-0.680825	0.0494974	
0.180443	-5.70736	0.0369714	
0.18862	-3.14146	0.0405838	
0.21865	-4.58005	0.0460669	
0.213295	-9.68668	0.0486597	
-0.750809	-11.6934	-0.16671	
-1.67043	-8.47483	-0.358148	
0.179704	-7.08749	0.0400866	
0.214852	-2.16917	0.0457274	
0.081075	-1.1802	0.0172827	
0.0898422	-4.05868	0.0195515	
0.116497	-9.48693	0.0154151	
0.254921	-11.361	0.062555	
-0.000121401	-3.64371	0.00057123	
0.125675	-8.60308	0.033448	
0.138901	-12.2227	0.030044	
0.0624091	-10.4817	0.0152197	
0.000824856	-9.19178	-0.0038589	
-0.0537774	-12.3317	-0.0147202	
-8.11411e-05	-12.6163	0.000383872	
8.86667e-05	-10.2764	-0.000415161	
-4.13774e-05	-2.6844	0.000194102	
0.111925	-6.70128	0.0242918	
-0.000225952	-5.22068	0.00106631	
3.04713e-05	-1.59135	-0.000143023	
0.0673749	-7.95852	0.0106625	
0.000151551	-7.54125	-0.000716913	
1.0016e-05	-6.13672	-4.71994e-05	
0.000276712	-11.9173	-0.0013089	
-0.162104	-2.80059	0.0362064	
-0.287102	-2.09999	0.0599576	
-0.0026423	-2.15226	0.00234173	
-0.441557	-0.923638	0.0945849	
-0.0819779	-2.8913	0.0168255	
-0.249749	-0.739595	0.0532788	
0.458057	-2.7699	-0.0975292	
-0.378444	-1.36828	0.0791539	
-0.347548	-1.77263	0.0727326	
0.118219	-3.04491	-0.0235257	
0.700893	-2.29026	-0.151213	
-0.226981	-1.21716	0.0491152	
2.43949	-1.72977	-0.523422	
-0.238889	-2.25877	0.0501147	
-0.0325999	-1.65177	0.00719858	
-0.191165	-2.93262	0.0389248	
-0.328703	-2.25744	0.0705679	
-0.0342582	-1.76958	0.0089966	
4.88033e-05	-2.84981	0.000227784	
4.16779e-05	-1.54867	0.000196917	
-0.0601984	-2.77035	0.0120628	
-4.70471e-05	-2.30386	-0.00022073	
2.4689e-05	-1.90833	0.000115552	
-0.653741	-0.517916	0.138921	
-4.51869e-05	-2.39733	-0.000211678	
2.46042e-07	-1.22754	1.14815e-06	
-8.8271e-05	-0.985256	-0.000413762	
0.274069	-0.134809	0.0584495	
0.214725	-1.02305	0.0452766	
0.224783	-0.581586	0.0479377	
0.257052	-0.857099	0.0544583	
0.239925	-1.76963	0.0518819	
-0.906653	-1.80256	-0.193637	
-1.91782	-1.25377	-0.409869	
0.211213	-1.30466	0.0450841	
0.250677	-0.40936	0.0534345	
0.0982903	-0.216433	0.0209357	
0.107218	-0.749688	0.0228239	
0.142495	-1.59847	0.0288716	
0.276539	-2.0434	0.060158	
-2.23093e-05	-0.669587	0.000104972	
0.148481	-1.54168	0.0325246	
0.142472	-2.08589	0.030245	
0.0909067	-1.93765	0.0197324	
0.000151045	-1.68317	-0.000706628	
-0.0610998	-2.04467	-0.0135045	
-1.33794e-05	-2.08031	6.32969e-05	
1.56633e-05	-1.81537	-7.33397e-05	
-7.49277e-06	-0.486101	3.51486e-05	
0.12696	-1.2049	0.0270171	
-4.13118e-05	-0.95452	0.000194958	
5.81643e-06	-0.30376	-2.73006e-05	
0.0801492	-1.43191	0.0163872	
2.7126e-05	-1.3498	-0.00012832	
1.84414e-06	-1.12989	-8.69033e-06	
4.79301e-05	-2.06423	-0.000226718	
-0.243815	-8.12522	0.0576741	
-0.370791	-5.93617	0.07547	
-0.047546	-5.98759	0.0151283	
-0.634822	-2.49785	0.13625	
-0.0423797	-8.42971	0.00726596	
-0.383284	-1.91929	0.0819933	
0.762521	-7.38502	-0.160947	
-0.531712	-4.07067	0.108887	
-0.441924	-5.12161	0.0910635	
0.169192	-8.22873	-0.0313947	
1.07586	-6.2614	-0.232773	
-0.383	-3.3979	0.0836705	
3.21062	-4.25821	-0.689255	
-0.359203	-6.41854	0.074236	
-0.0669086	-4.86262	0.0150355	
-0.248481	-7.91322	0.0482015	
-0.386166	-7.3551	0.0839096	
-0.0950946	-5.38331	0.0254203	
0.000135995	-7.94126	0.000634741	
0.000124666	-4.63233	0.000589013	
-0.112053	-7.67426	0.0217449	
-0.000144716	-7.08662	-0.000678958	
7.40372e-05	-5.72268	0.000346517	
-0.87169	-1.20288	0.185227	
-0.000139549	-7.40361	-0.00065372	
7.68723e-07	-3.8353	3.58723e-06	
-0.000267186	-2.98225	-0.00125241	
0.181786	0.257932	0.0386998	
0.132864	2.3799	0.0286861	
0.145155	1.30836	0.0307295	
0.174493	1.95657	0.0371351	
0.167217	4.05952	0.0344988	
-0.519685	3.93572	-0.107806	
-1.41139	2.56954	-0.301093	
0.13684	2.97263	0.0281029	
0.170925	0.899337	0.0364806	
0.05271	0.470342	0.011219	
0.0615025	1.72724	0.0128241	
0.0707076	3.85731	0.0191096	
0.209611	4.68135	0.040944	
5.03934e-05	1.5125	-0.000237116	
0.110548	3.57318	0.0203866	
0.123043	4.8812	0.0257564	
0.0618498	4.40638	0.0123787	
-0.000353136	3.93517	0.00165206	
0.00693813	4.55119	0.0026957	
3.15278e-05	4.90212	-0.000149155	
-3.71473e-05	4.30536	0.000173934	
1.707e-05	1.10743	-8.00754e-05	
0.0771463	2.83519	0.0161169	
9.38425e-05	2.16826	-0.000442859	
-1.34368e-05	0.70173	6.30683e-05	
0.0480329	3.37675	0.0117723	
-6.39584e-05	3.1826	0.000302555	
-4.21697e-06	2.5837	1.9872e-05	
-0.000111601	4.80638	0.000527893	
-0.243332	-2.64826	0.0533127	
-0.415687	-2.02903	0.0873816	
-0.0624045	-2.07709	0.0150864	
-0.6883	-0.859004	0.14726	
-0.0430736	-2.75111	0.00858618	
-0.429094	-0.654288	0.0913593	
0.883977	-2.35651	-0.189379	
-0.58949	-1.34295	0.124035	
-0.459471	-1.71823	0.096451	
0.201938	-2.76187	-0.0416195	
1.18999	-1.90284	-0.256251	
-0.435967	-1.14286	0.0936855	
3.44521	-1.2946	-0.738994	
-0.375525	-2.21782	0.0792717	
-0.0832511	-1.64514	0.017927	
-0.272039	-2.73599	0.0562311	
-0.392196	-2.27698	0.0841086	
-0.122986	-1.74497	0.0279232	
4.4098e-05	-2.57505	0.000205822	
4.15088e-05	-1.54238	0.000196118	
-0.164276	-2.62842	0.034307	
-4.72248e-05	-2.31256	-0.000221563	
2.45126e-05	-1.89469	0.000114727	
-0.945797	-0.409021	0.200989	
-4.41937e-05	-2.34464	-0.000207026	
2.47706e-07	-1.23585	1.15592e-06	
-8.49449e-05	-0.948131	-0.000398171	
0.146286	0.104604	0.0311618	
0.102371	0.892797	0.0218944	
0.113756	0.501159	0.0241533	
0.143287	0.750765	0.0304366	
0.143334	1.52883	0.0301799	
-0.378813	1.29427	-0.0795109	
-1.24684	0.834451	-0.266212	
0.110071	1.12951	0.0229695	
0.141119	0.349741	0.030104	
0.0355095	0.18087	0.00755987	
0.0444279	0.659157	0.00933696	
0.0437806	1.38982	0.0109189	
0.200056	1.73065	0.0411355	
1.93028e-05	0.579353	-9.08259e-05	
0.0956547	1.32602	0.0190721	
0.132764	1.71615	0.0279857	
0.0437646	1.65996	0.00902561	
-0.000131599	1.46647	0.000615654	
0.0311236	1.55245	0.00701655	
1.0777e-05	1.67567	-5.09853e-05	
-1.3689e-05	1.58655	6.40954e-05	
6.4714e-06	0.419839	-3.03574e-05	
0.0615002	1.06003	0.0129491	
3.57529e-05	0.82608	-0.000168724	
-5.13506e-06	0.268175	2.41024e-05	
0.0371316	1.25244	0.00847474	
-2.37876e-05	1.18368	0.000112527	
-1.60188e-06	0.98146	7.54871e-06	
-4.00909e-05	1.72662	0.000189637	
-0.268916	-4.14204	0.0599102	
-0.462739	-3.16777	0.096712	
-0.0924798	-3.21141	0.0224671	
-0.792161	-1.30268	0.169548	
-0.0118976	-4.29367	0.00164185	
-0.501799	-0.967255	0.106898	
1.07725	-3.47042	-0.23045	
-0.67605	-2.1781	0.141549	
-0.497776	-2.73292	0.104058	
0.245897	-4.13127	-0.0502281	
1.37703	-2.82107	-0.296679	
-0.529201	-1.78886	0.113961	
3.7746	-1.81878	-0.809725	
-0.434923	-3.4745	0.0914751	
-0.104072	-2.63636	0.0225133	
-0.295659	-4.1186	0.0604451	
-0.400753	-3.86932	0.0862719	
-0.160557	-2.84862	0.0369951	
6.6541e-05	-3.88558	0.000310572	
6.72699e-05	-2.49961	0.000317832	
-0.197366	-4.02744	0.0409726	
-7.77047e-05	-3.80514	-0.000364565	
3.95479e-05	-3.05684	0.000185096	
-1.05024	-0.576451	0.223183	
-7.2621e-05	-3.85281	-0.000340193	
4.10432e-07	-2.04772	1.91527e-06	
-0.000137812	-1.53822	-0.000645981	
0.186653	-0.119957	0.0398103	
0.134111	-0.922041	0.0282169	
0.143602	-0.514754	0.0306447	
0.173342	-0.765102	0.0367105	
0.169724	-1.55861	0.0367932	
-0.527791	-1.27152	-0.11279	
-1.40168	-0.785721	-0.299541	
0.138494	-1.14905	0.0296457	
0.169343	-0.364209	0.0360942	
0.0534941	-0.205747	0.0113954	
0.0627641	-0.678767	0.0133907	
0.0729757	-1.4792	0.0142299	
0.216256	-1.75748	0.0471746	
-1.9739e-05	-0.592443	9.2878e-05	
0.1078	-1.37092	0.0238176	
0.126034	-1.77949	0.0267527	
0.0516249	-1.67442	0.0113107	
0.00013617	-1.51741	-0.000637038	
-0.00712742	-1.54818	-0.00192775	
-1.1221e-05	-1.74471	5.30858e-05	
1.42541e-05	-1.65205	-6.67416e-05	
-6.79115e-06	-0.440582	3.18573e-05	
0.0814512	-1.10165	0.0173605	
-3.63501e-05	-0.839878	0.000171542	
5.68741e-06	-0.297022	-2.6695e-05	
0.0491549	-1.30719	0.00985243	
2.48074e-05	-1.23442	-0.000117351	
1.63352e-06	-1.00084	-7.6978e-06	
4.13326e-05	-1.78009	-0.000195511	
-0.267062	-1.91159	0.0577856	
-0.49336	-1.51401	0.104227	
-0.104952	-1.54783	0.0237674	
-0.836058	-0.620535	0.178751	
-0.00283338	-1.97063	0.000195198	
-0.536023	-0.462329	0.114023	
1.17454	-1.5646	-0.252251	
-0.720177	-1.01495	0.15215	
-0.510736	-1.28851	0.10751	
0.273699	-1.92553	-0.0574779	
1.45778	-1.23244	-0.313651	
-0.572185	-0.842471	0.122596	
3.91962	-0.80047	-0.840627	
-0.450638	-1.66152	0.0954977	
-0.115706	-1.24471	0.024731	
-0.308859	-1.96653	0.0645071	
-0.40015	-1.72865	0.0856847	
-0.180898	-1.31789	0.0398864	
3.02964e-05	-1.76912	0.000141405	
3.15068e-05	-1.17073	0.000148861	
-0.227569	-1.91066	0.0480123	
-3.57583e-05	-1.75106	-0.000167766	
1.84786e-05	-1.42829	8.64854e-05	
-1.10073	-0.278657	0.233917	
-3.29366e-05	-1.74741	-0.000154292	
1.87935e-07	-0.937641	8.76994e-07	
-6.30315e-05	-0.70354	-0.000295454	
0.212024	-0.0775708	0.0452103	
0.153377	-0.574731	0.0323763	
0.163096	-0.327086	0.0347698	
0.192385	-0.485307	0.0407681	
0.184399	-0.966039	0.0397481	
-0.613677	-0.70364	-0.130698	
-1.48762	-0.43587	-0.317844	
0.155124	-0.720987	0.0330423	
0.187398	-0.233391	0.0399489	
0.0645934	-0.12928	0.0137581	
0.0739233	-0.428771	0.0157254	
0.0903348	-0.887059	0.0185058	
0.217375	-1.06756	0.0468888	
-1.25454e-05	-0.376536	5.90301e-05	
0.115965	-0.841434	0.025108	
0.11261	-1.02889	0.0238724	
0.0597389	-1.0349	0.0129235	
8.35404e-05	-0.930932	-0.000390824	
-0.0285682	-0.874047	-0.0062922	
-6.32559e-06	-0.98354	2.99259e-05	
8.67142e-06	-1.00501	-4.06019e-05	
-4.27682e-06	-0.277463	2.00626e-05	
0.0920385	-0.682224	0.0195698	
-2.29784e-05	-0.530923	0.000108439	
3.55396e-06	-0.185604	-1.66812e-05	
0.0557197	-0.800533	0.0114822	
1.52534e-05	-0.759013	-7.21561e-05	
1.02655e-06	-0.628956	-4.83749e-06	
2.4443e-05	-1.0527	-0.00011562	
-0.270952	-2.20921	0.0588473	
-0.52148	-1.76639	0.110061	
-0.12194	-1.79547	0.0276122	
-0.894264	-0.702956	0.1912	
0.0181251	-2.26832	-0.00432053	
-0.575834	-0.512288	0.122496	
1.28757	-1.72853	-0.276489	
-0.771033	-1.21175	0.162751	
-0.529346	-1.52254	0.111333	
0.304638	-2.15805	-0.0639665	
1.55179	-1.36363	-0.33389	
-0.626891	-0.981918	0.134356	
4.07526	-0.859385	-0.874013	
-0.480505	-1.94315	0.101763	
-0.127757	-1.47606	0.0273247	
-0.319001	-2.22847	0.0665102	
-0.397892	-2.12122	0.0852856	
-0.202501	-1.57954	0.0447485	
3.40057e-05	-1.98573	0.000158718	
3.76077e-05	-1.39742	0.000177686	
-0.245635	-2.19327	0.0517869	
-4.30854e-05	-2.10986	-0.000202142	
2.19789e-05	-1.69885	0.000102868	
-1.15475	-0.298151	0.245397	
-3.95406e-05	-2.09778	-0.000185228	
2.26689e-07	-1.13099	1.05784e-06	
-7.45537e-05	-0.832148	-0.000349463	
0.199759	0.0320361	0.0425742	
0.142353	0.311859	0.0302374	
0.152829	0.170579	0.0325168	
0.182286	0.25753	0.0386754	
0.175902	0.525885	0.0374628	
-0.565055	0.377189	-0.119682	
-1.44324	0.225191	-0.308262	
0.145309	0.389274	0.0306433	
0.17776	0.118514	0.0379075	
0.0579322	0.0625231	0.0123368	
0.0674214	0.228393	0.0142652	
0.0803474	0.504227	0.0177851	
0.213937	0.580838	0.0449286	
6.58465e-06	0.197631	-3.09828e-05	
0.112314	0.464931	0.0232793	
0.118287	0.575761	0.0249856	
0.0586532	0.557861	0.0124008	
-4.61808e-05	0.514615	0.000216046	
-0.0129577	0.474091	-0.00261972	
3.56447e-06	0.554224	-1.68632e-05	
-4.81554e-06	0.558119	2.25477e-05	
2.24073e-06	0.14537	-1.05113e-05	
0.0848241	0.374862	0.0179514	
1.22274e-05	0.282517	-5.77032e-05	
-1.84488e-06	0.0963477	8.6593e-06	
0.0516455	0.445369	0.0111898	
-8.4578e-06	0.420864	4.00097e-05	
-5.52262e-07	0.338366	2.60248e-06	
-1.35477e-05	0.583466	6.4083e-05	
-0.266922	-1.2447	0.057245	
-0.541053	-1.02384	0.114675	
-0.130569	-1.04528	0.0288426	
-0.925601	-0.404836	0.197817	
0.0282438	-1.27048	-0.00626498	
-0.598581	-0.296002	0.127266	
1.35384	-0.954058	-0.291096	
-0.8017	-0.689841	0.169817	
-0.538231	-0.87459	0.113531	
0.325139	-1.21786	-0.068909	
1.60218	-0.738264	-0.344572	
-0.657765	-0.56212	0.140707	
4.16008	-0.468214	-0.892126	
-0.492162	-1.12353	0.104553	
-0.135456	-0.847511	0.0288441	
-0.325511	-1.2828	0.0684459	
-0.394716	-1.17456	0.0844051	
-0.215956	-0.897487	0.0469747	
1.88935e-05	-1.10326	8.81833e-05	
2.14835e-05	-0.798281	0.000101503	
-0.261649	-1.25815	0.0554667	
-2.42921e-05	-1.18956	-0.00011397	
1.25607e-05	-0.970873	5.87879e-05	
-1.18624	-0.173759	0.25209	
-2.20916e-05	-1.17204	-0.000103488	
1.27577e-07	-0.636505	5.95336e-07	
-4.1944e-05	-0.468167	-0.000196609	
0.186653	0.0373383	0.0397791	
0.131704	0.31633	0.0279819	
0.141986	0.178378	0.0302072	
0.171906	0.266649	0.0364743	
0.168506	0.524981	0.0358807	
-0.520792	0.339242	-0.110292	
-1.40279	0.205234	-0.299623	
0.136279	0.395712	0.0287297	
0.167693	0.125865	0.0357614	
0.0514383	0.0667882	0.0109538	
0.0611073	0.235737	0.0129257	
0.0710288	0.487009	0.0157919	
0.21563	0.566405	0.0453026	
6.86652e-06	0.206091	-3.23091e-05	
0.108227	0.460557	0.0224221	
0.128578	0.53225	0.0271646	
0.0557396	0.554483	0.0117804	
-4.56135e-05	0.508294	0.000213392	
0.000478536	0.431157	0.000217479	
3.2145e-06	0.499809	-1.52076e-05	
-4.70843e-06	0.545705	2.20461e-05	
2.327e-06	0.150967	-1.0916e-05	
0.078767	0.376087	0.0166672	
1.26133e-05	0.291434	-5.95244e-05	
-1.91009e-06	0.0997534	8.96539e-06	
0.0481591	0.439878	0.0104457	
-8.39626e-06	0.417801	3.97185e-05	
-5.64032e-07	0.345577	2.65794e-06	
-1.28313e-05	0.552613	6.06944e-05	
-0.264006	-1.21552	0.0566065	
-0.557715	-1.0156	0.118227	
-0.139904	-1.03292	0.0308328	
-0.958956	-0.395014	0.204937	
0.0418423	-1.23505	-0.00914771	
-0.620914	-0.28573	0.132008	
1.41853	-0.900157	-0.305035	
-0.831977	-0.695282	0.176246	
-0.548159	-0.875531	0.115631	
0.345054	-1.16307	-0.0732057	
1.65109	-0.696394	-0.355075	
-0.690035	-0.558418	0.147595	
4.23868	-0.433941	-0.908972	
-0.507626	-1.11534	0.107854	
-0.142538	-0.850241	0.0303449	
-0.329737	-1.24082	0.0693688	
-0.390461	-1.19885	0.0835018	
-0.228475	-0.905585	0.0496562	
1.80214e-05	-1.05234	8.4113e-05	
2.16429e-05	-0.804207	0.000102257	
-0.271157	-1.22888	0.0575034	
-2.45437e-05	-1.20189	-0.000115151	
1.26085e-05	-0.97457	5.90117e-05	
-1.21624	-0.165601	0.258466	
-2.22167e-05	-1.17868	-0.000104074	
1.29326e-07	-0.645229	6.03496e-07	
-4.20177e-05	-0.46899	-0.000196954	
0.190969	-0.0132424	0.040709	
0.134703	-0.0856984	0.0285281	
0.144494	-0.0480835	0.0307718	
0.174489	-0.0705411	0.0369997	
0.170693	-0.14218	0.0365573	
-0.533659	-0.0936426	-0.1133	
-1.41347	-0.0542653	-0.301947	
0.139019	-0.106017	0.0294549	
0.169977	-0.035158	0.036242	
0.0531255	-0.0220071	0.0113143	
0.0628572	-0.0632338	0.0133339	
0.0737054	-0.140115	0.0157297	
0.216497	-0.154487	0.0460254	
-1.83108e-06	-0.0549577	8.61579e-06	
0.109062	-0.127582	0.023075	
0.126646	-0.152591	0.0267933	
0.0553874	-0.148636	0.0118338	
1.26203e-05	-0.140635	-5.90413e-05	
-0.00444712	-0.120211	-0.000975222	
-9.35859e-07	-0.145513	4.42748e-06	
1.31076e-06	-0.151917	-6.13734e-06	
-6.50104e-07	-0.0421762	3.04964e-06	
0.0809219	-0.103204	0.0171644	
-3.33792e-06	-0.0771235	1.57522e-05	
5.85302e-07	-0.0305671	-2.74723e-06	
0.0493022	-0.122871	0.0104295	
2.33354e-06	-0.116118	-1.10388e-05	
1.50616e-07	-0.0922811	-7.09762e-07	
3.60893e-06	-0.155428	-1.70709e-05	
-0.259395	-0.771862	0.0552849	
-0.569734	-0.660971	0.120999	
-0.145351	-0.673594	0.0317036	
-0.979666	-0.2562	0.209325	
0.0500244	-0.78018	-0.0107927	
-0.635286	-0.186059	0.135033	
1.46038	-0.561848	-0.31419	
-0.852155	-0.447442	0.180795	
-0.553928	-0.566882	0.117003	
0.358907	-0.737044	-0.0764226	
1.68106	-0.429516	-0.361453	
-0.710643	-0.360633	0.151882	
4.28736	-0.268786	-0.919381	
-0.5153	-0.723511	0.109636	
-0.147442	-0.550121	0.0313306	
-0.332594	-0.799212	0.0702337	
-0.386818	-0.756136	0.0826296	
-0.236975	-0.582512	0.0511648	
1.13003e-05	-0.659866	5.27428e-05	
1.3958e-05	-0.51865	6.59477e-05	
-0.279317	-0.790518	0.0593677	
-1.56607e-05	-0.766892	-7.34747e-05	
8.13756e-06	-0.62899	3.80863e-05	
-1.23595	-0.1088	0.262656	
-1.40779e-05	-0.746887	-6.59483e-05	
8.26307e-08	-0.412259	3.85594e-07	
-2.68628e-05	-0.299835	-0.000125917	
0.198428	-0.0227422	0.0423008	
0.139953	-0.16	0.0296241	
0.149757	-0.0919896	0.0318982	
0.179549	-0.135331	0.0380688	
0.173923	-0.259393	0.0372851	
-0.554357	-0.152198	-0.117739	
-1.43136	-0.0907314	-0.305773	
0.14342	-0.198615	0.0304135	
0.174821	-0.0664941	0.0372736	
0.0563084	-0.038011	0.0119924	
0.0659938	-0.120263	0.0140059	
0.0781027	-0.243556	0.0165583	
0.214697	-0.273234	0.0457304	
-3.51709e-06	-0.105561	1.6549e-05	
0.110939	-0.230122	0.0235535	
0.120508	-0.251294	0.0255005	
0.056158	-0.269904	0.0120203	
2.26626e-05	-0.25254	-0.000106022	
-0.0115448	-0.196408	-0.00250058	
-1.49648e-06	-0.232682	7.07975e-06	
2.32014e-06	-0.268904	-1.08635e-05	
-1.21467e-06	-0.078803	5.69803e-06	
0.083995	-0.189638	0.0178231	
-6.38272e-06	-0.147474	3.01212e-05	
1.0371e-06	-0.0541622	-4.86785e-06	
0.050968	-0.22054	0.0107388	
4.21887e-06	-0.209933	-1.99574e-05	
2.84239e-07	-0.174151	-1.33945e-06	
6.13263e-06	-0.264117	-2.90085e-05	
-0.255234	-0.682996	0.0543349	
-0.579519	-0.595319	0.123122	
-0.150485	-0.605103	0.0327471	
-0.999162	-0.227392	0.213481	
0.0586546	-0.687307	-0.0126077	
-0.648141	-0.163589	0.137758	
1.49733	-0.48416	-0.322172	
-0.870366	-0.406823	0.184708	
-0.559507	-0.513713	0.11821	
0.371226	-0.641442	-0.0791167	
1.70731	-0.369784	-0.367079	
-0.729911	-0.324524	0.155975	
4.32883	-0.228927	-0.928265	
-0.523516	-0.651494	0.111415	
-0.151684	-0.499146	0.0322202	
-0.334196	-0.704344	0.0706297	
-0.382883	-0.691532	0.0817757	
-0.244326	-0.5303	0.0526852	
9.81299e-06	-0.573018	4.5801e-05	
1.26937e-05	-0.471673	5.99744e-05	
-0.284221	-0.701881	0.0604389	
-1.42457e-05	-0.697603	-6.68363e-05	
7.38402e-06	-0.570745	3.45595e-05	
-1.25306	-0.0944391	0.266293	
-1.27432e-05	-0.676076	-5.96958e-05	
7.53438e-08	-0.375903	3.5159e-07	
-2.42516e-05	-0.270689	-0.000113677	
0.19839	-0.00101211	0.0422884	
0.139495	0.0091171	0.0295646	
0.149485	0.00363107	0.0318273	
0.179247	0.00650754	0.0380141	
0.173573	0.017035	0.0371238	
-0.552512	0.0120842	-0.117243	
-1.43011	0.00637348	-0.30549	
0.142945	0.0116753	0.0302521	
0.174551	0.00188021	0.0372187	
0.0560093	0.000199907	0.0119282	
0.0657319	0.00577948	0.0139347	
0.07769	0.0190067	0.0167345	
0.214169	0.0192286	0.0453994	
1.49659e-07	0.00449186	-7.04195e-07	
0.110903	0.0158178	0.0233465	
0.120494	0.021239	0.0254827	
0.056502	0.0176297	0.012041	
-1.58442e-06	0.0176559	7.41232e-06	
-0.0105871	0.015889	-0.00224038	
1.33991e-07	0.0208337	-6.339e-07	
-1.68408e-07	0.0195184	7.8853e-07	
4.76846e-08	0.00309359	-2.23689e-07	
0.0835526	0.0119285	0.0177124	
3.19262e-07	0.00737663	-1.50665e-06	
-3.29811e-08	0.00172242	1.54803e-07	
0.0507451	0.0154331	0.0108002	
-2.86637e-07	0.0142632	1.35594e-06	
-1.57814e-08	0.0096691	7.4368e-08	
-4.82094e-07	0.0207626	2.28039e-06	
				</DataArray>
			</CellData>
			<Points>
				<DataArray type="Float64" Name="Position" NumberOfComponents="3" Format="ascii">
4.70237	3.89027	-0.0573395	
3.33502	2.38819	-0.0596018	
3.50574	2.57401	-0.0601931	
1.64837	0.511805	-0.0992951	
4.87309	4.07502	-0.0546819	
1.48918	0.318096	-0.104895	
5.3884	4.63743	-0.0493277	
2.31206	1.26768	-0.0745133	
2.81998	1.82546	-0.0644936	
5.04733	4.26286	-0.0557049	
5.56455	4.81993	-0.0386549	
1.97961	0.890216	-0.0855034	
5.73986	5.00036	-0.0216121	
3.67602	2.76024	-0.0611288	
2.64921	1.63668	-0.0652301	
4.53882	3.70146	-0.0623868	
4.02032	3.13981	-0.0656524	
2.99473	2.01059	-0.0655935	
5.22419	4.44835	-0.0565405	
2.48319	1.44897	-0.0715805	
4.36808	3.51389	-0.0645042	
3.85287	2.94714	-0.0654633	
3.16851	2.19599	-0.0641145	
1.33366	0.119874	-0.107062	
4.19895	3.32427	-0.0665412	
2.14991	1.07783	-0.0796264	
1.81523	0.69939	-0.0953897	
-0.295164	-0.527291	-0.0868814	
-1.84505	-2.30663	0.0419629	
-1.04514	-1.43322	0.026644	
-1.52462	-1.95673	0.0398301	
-3.28221	-3.88064	0.0206263	
-4.54981	-5.27632	-0.090571	
-4.71607	-5.44347	-0.107048	
-2.32452	-2.83142	0.0399688	
-0.724713	-1.08269	0.0109182	
-0.391932	-0.73527	-0.0507382	
-1.36462	-1.78337	0.0386506	
-2.962	-3.52865	0.029121	
-3.75833	-4.40543	0.0046241	
-1.20466	-1.60923	0.0326857	
-2.80358	-3.35389	0.0364858	
-4.07716	-4.75607	-0.0178717	
-3.6032	-4.23021	0.0155548	
-3.1246	-3.70458	0.0300798	
-4.39494	-5.10353	-0.0588998	
-4.23976	-4.92949	-0.0320139	
-3.44516	-4.05687	0.0232102	
-0.883596	-1.25865	0.0192682	
-2.16602	-2.65784	0.0448177	
-1.68386	-2.13229	0.0429742	
-0.559801	-0.907471	-0.00367966	
-2.64342	-3.17982	0.0402933	
-2.48379	-3.00651	0.0424382	
-2.00474	-2.48322	0.0452705	
-3.92324	-4.58066	0.00123271	
4.44541	4.17876	-0.231752	
3.18743	2.58304	-0.210974	
3.34257	2.78196	-0.214488	
1.5887	0.605506	-0.167285	
4.59682	4.37717	-0.226235	
1.43378	0.404208	-0.158392	
5.05241	4.9798	-0.19549	
2.2288	1.39798	-0.186111	
2.70707	1.98774	-0.198211	
4.74921	4.57944	-0.218803	
5.20429	5.17733	-0.170019	
1.90969	1.00223	-0.177241	
5.35815	5.3701	-0.133392	
3.49699	2.9807	-0.21675	
2.54416	1.78967	-0.190269	
4.29043	3.98036	-0.231509	
3.8181	3.382	-0.22863	
2.86728	2.18592	-0.205093	
4.901	4.78018	-0.208163	
2.38701	1.59291	-0.190906	
4.13254	3.78218	-0.23017	
3.65797	3.18093	-0.22226	
3.02437	2.38474	-0.206276	
1.28218	0.200265	-0.141972	
3.97472	3.58249	-0.229969	
2.06981	1.20173	-0.179714	
1.74977	0.802815	-0.175456	
-0.306681	-0.544797	-0.0967071	
-1.73006	-2.43527	0.11306	
-0.990216	-1.50419	0.033377	
-1.42958	-2.06442	0.0832509	
-3.08539	-4.09264	0.178385	
-4.25616	-5.56544	0.0660948	
-4.40302	-5.74616	0.0239898	
-2.18423	-2.98792	0.147478	
-0.701044	-1.12794	0.00286177	
-0.396109	-0.758703	-0.0573341	
-1.28194	-1.87913	0.0685055	
-2.78663	-3.72111	0.174202	
-3.52977	-4.64594	0.1782	
-1.13572	-1.69285	0.0501933	
-2.63615	-3.53729	0.170774	
-3.82446	-5.01601	0.159757	
-3.38254	-4.46169	0.181754	
-2.93528	-3.90702	0.177359	
-4.11277	-5.38349	0.107425	
-3.96976	-5.19969	0.138713	
-3.23424	-4.27824	0.180385	
-0.845091	-1.31616	0.0169509	
-2.03386	-2.80405	0.138586	
-1.57925	-2.24993	0.0985425	
-0.550541	-0.941519	-0.0128312	
-2.48549	-3.35336	0.164223	
-2.33513	-3.17062	0.15569	
-1.88167	-2.61988	0.125447	
-3.67736	-4.83134	0.171672	
4.07574	4.4709	-0.244798	
2.93317	2.79341	-0.246784	
3.07445	3.00214	-0.248282	
1.50108	0.70358	-0.213586	
4.21545	4.67869	-0.236877	
1.35977	0.491306	-0.197812	
4.6412	5.30822	-0.204829	
2.07507	1.5424	-0.237835	
2.50194	2.16549	-0.243527	
4.357	4.89026	-0.228497	
4.78532	5.51432	-0.180629	
1.79145	1.12358	-0.230057	
4.93191	5.71545	-0.145394	
3.21467	3.21113	-0.24803	
2.35678	1.95607	-0.238557	
3.93401	4.2628	-0.246375	
3.50382	3.63402	-0.251387	
2.64566	2.37447	-0.247291	
4.49837	5.10021	-0.217395	
2.21675	1.74826	-0.242447	
3.79115	4.05388	-0.247192	
3.35978	3.42244	-0.249628	
2.78712	2.58364	-0.245528	
1.21978	0.27936	-0.169433	
3.64713	3.84409	-0.250317	
1.93406	1.33473	-0.232192	
1.64704	0.912281	-0.226095	
-0.315982	-0.565834	-0.104625	
-1.60385	-2.54678	0.0828511	
-0.932831	-1.56979	0.0294068	
-1.33277	-2.1564	0.0650647	
-2.82875	-4.29351	0.100363	
-3.91245	-5.84225	0.0177255	
-4.05427	-6.03031	-0.000636371	
-2.01298	-3.12941	0.0986355	
-0.667035	-1.17646	0.000504463	
-0.392993	-0.786423	-0.066076	
-1.19891	-1.96215	0.0559306	
-2.55654	-3.90267	0.104368	
-3.23195	-4.87602	0.0894882	
-1.06598	-1.76726	0.0428165	
-2.42035	-3.70885	0.104803	
-3.50192	-5.26566	0.0713853	
-3.09787	-4.68224	0.0954098	
-2.69199	-4.09817	0.103374	
-3.77348	-5.65194	0.038556	
-3.63748	-5.45887	0.0570959	
-2.9638	-4.48893	0.0976392	
-0.799479	-1.37334	0.0153201	
-1.87738	-2.93569	0.0957871	
-1.46789	-2.35171	0.0745246	
-0.529161	-0.980416	-0.0173453	
-2.2849	-3.51494	0.103938	
-2.14927	-3.32227	0.101239	
-1.74066	-2.74145	0.089195	
-3.36683	-5.07124	0.0814304	
3.71847	4.73171	-0.28069	
2.68851	2.98037	-0.282074	
2.81612	3.19819	-0.283355	
1.40063	0.797305	-0.238838	
3.84481	4.94837	-0.273463	
1.27417	0.57568	-0.219635	
4.228	5.60561	-0.238638	
1.91473	1.67438	-0.269268	
2.29931	2.32502	-0.276996	
3.97233	5.16901	-0.264133	
4.35952	5.82078	-0.213017	
1.6603	1.23705	-0.258976	
4.49348	6.03096	-0.175772	
2.94276	3.41627	-0.283246	
2.16911	2.10625	-0.271692	
3.591	4.51367	-0.281955	
3.20384	3.85773	-0.287515	
2.42882	2.54311	-0.281551	
4.09948	5.38829	-0.252387	
2.04225	1.88947	-0.275095	
3.46226	4.29606	-0.282477	
3.0739	3.63648	-0.286059	
2.5568	2.76121	-0.279786	
1.14914	0.355686	-0.185322	
3.33202	4.07707	-0.286091	
1.78881	1.4576	-0.26244	
1.53123	1.01613	-0.251531	
-0.32423	-0.586684	-0.113206	
-1.48959	-2.64342	0.0264569	
-0.876771	-1.62876	0.0154515	
-1.24313	-2.23688	0.0266126	
-2.59741	-4.46914	-0.0129182	
-3.56572	-6.09083	-0.0612318	
-3.69168	-6.28818	-0.0598586	
-1.86077	-3.25182	0.0169071	
-0.633156	-1.22094	-0.00643441	
-0.391799	-0.81225	-0.074291	
-1.12104	-2.03516	0.0264661	
-2.35155	-4.06091	-0.00131945	
-2.95984	-5.07825	-0.0307751	
-0.999236	-1.83298	0.021827	
-2.2291	-3.85797	0.00389586	
-3.20147	-5.48596	-0.0440788	
-2.8401	-4.87544	-0.0240297	
-2.47442	-4.26485	-0.00637762	
-3.44293	-5.89076	-0.0566602	
-3.32218	-5.68854	-0.050867	
-2.71929	-4.67342	-0.0190152	
-0.754195	-1.42505	0.00640807	
-1.73806	-3.04984	0.0214352	
-1.36575	-2.43998	0.0269676	
-0.509517	-1.01585	-0.0251909	
-2.10664	-3.65525	0.00835158	
-1.98408	-3.4535	0.0122653	
-1.61419	-2.84664	0.0238744	
-3.08094	-5.2824	-0.0375371	
3.33924	4.96897	-0.271772	
2.42614	3.15272	-0.277416	
2.53931	3.37865	-0.277923	
1.29022	0.886865	-0.245468	
3.45164	5.19343	-0.265463	
1.18051	0.65651	-0.227075	
3.7933	5.87415	-0.236376	
1.74075	1.79797	-0.271045	
2.08089	2.47302	-0.274829	
3.56513	5.42192	-0.257387	
3.91175	6.09741	-0.213781	
1.51689	1.34453	-0.262755	
4.03256	6.3162	-0.180372	
2.65148	3.60478	-0.276837	
1.96617	2.24581	-0.271571	
3.22621	4.74337	-0.27247	
2.88212	4.0629	-0.278387	
2.19598	2.69904	-0.278535	
3.67837	5.64898	-0.24771	
1.8535	2.02121	-0.276197	
3.11215	4.51718	-0.273356	
2.76712	3.83359	-0.278687	
2.3093	2.92523	-0.275922	
1.07278	0.428065	-0.192368	
2.99602	4.29013	-0.275924	
1.62967	1.5733	-0.26557	
1.40352	1.11505	-0.25616	
-0.331991	-0.605879	-0.125018	
-1.35951	-2.73721	0.00124521	
-0.818903	-1.6833	-0.00267258	
-1.1429	-2.31487	0.0023387	
-2.33709	-4.6343	-0.0267087	
-3.19643	-6.31645	-0.0686431	
-3.3095	-6.52188	-0.0710008	
-1.68685	-3.36972	-0.00632073	
-0.603256	-1.26018	-0.0201149	
-0.393867	-0.835748	-0.0823181	
-1.03511	-2.10517	0.00369242	
-2.1199	-4.2103	-0.0178999	
-2.65754	-5.26632	-0.0394256	
-0.927424	-1.89541	0.00111832	
-2.01178	-3.99952	-0.0143052	
-2.87183	-5.68909	-0.0489946	
-2.55167	-5.05596	-0.0344596	
-2.2284	-4.42215	-0.0215286	
-3.08685	-6.10875	-0.062221	
-2.97918	-5.89915	-0.0551258	
-2.44474	-4.84629	-0.0309909	
-0.709996	-1.472	-0.00902615	
-1.57875	-3.15978	-0.00241991	
-1.25092	-2.52576	0.00179696	
-0.495283	-1.04718	-0.0374744	
-1.90364	-3.78895	-0.0115635	
-1.7955	-3.57933	-0.009032	
-1.4693	-2.94845	-0.000950127	
-2.76488	-5.47806	-0.0446135	
2.95086	5.17943	-0.272346	
2.15955	3.30597	-0.275141	
2.25763	3.53901	-0.276024	
1.17578	0.969813	-0.242379	
3.04855	5.41088	-0.267169	
1.08303	0.731964	-0.226122	
3.34478	6.11275	-0.240599	
1.56411	1.9085	-0.266376	
1.85918	2.60477	-0.271929	
3.14663	5.64646	-0.259937	
3.44877	6.34343	-0.219292	
1.37028	1.44177	-0.257678	
3.55497	6.57011	-0.188032	
2.35479	3.77223	-0.27438	
1.76066	2.37056	-0.268832	
2.8531	4.94668	-0.272274	
2.5545	4.24493	-0.276719	
1.95918	2.83787	-0.275571	
3.24493	5.88046	-0.250916	
1.66147	2.13886	-0.272952	
2.75421	4.71338	-0.272003	
2.45495	4.00796	-0.276905	
2.05797	3.07119	-0.27331	
0.992152	0.496253	-0.193547	
2.65327	4.4791	-0.274015	
1.46901	1.67678	-0.261994	
1.2726	1.20489	-0.251898	
-0.338149	-0.627294	-0.13725	
-1.2177	-2.82475	-0.00179847	
-0.756485	-1.73483	-0.0193618	
-1.03176	-2.38843	-0.00750758	
-2.06655	-4.78253	-0.00536982	
-2.81447	-6.51731	-0.0541684	
-2.91367	-6.72997	-0.0641452	
-1.50053	-3.47781	0.000936174	
-0.572995	-1.29718	-0.036083	
-0.396107	-0.85897	-0.0914827	
-0.939723	-2.17175	-0.00943921	
-1.87777	-4.34514	-0.00071973	
-2.34502	-5.43432	-0.0143192	
-0.848696	-1.95428	-0.0142135	
-1.78339	-4.12789	0.000683079	
-2.53134	-5.87016	-0.0238808	
-2.25305	-5.21747	-0.0100027	
-1.97196	-4.56372	-0.00230041	
-2.71837	-6.30302	-0.0419974	
-2.62487	-6.08671	-0.032128	
-2.16007	-5.00117	-0.00808087	
-0.663716	-1.5161	-0.0256383	
-1.40654	-3.26106	0.00125991	
-1.12459	-2.60631	-0.00472298	
-0.480953	-1.07741	-0.0514849	
-1.68952	-3.91051	0.00103183	
-1.59542	-3.69416	0.000594801	
-1.31217	-3.04301	-0.000223227	
-2.43831	-5.65263	-0.018569	
2.5498	5.36337	-0.260621	
1.88363	3.44139	-0.260715	
1.96666	3.68043	-0.26089	
1.05872	1.04486	-0.232932	
2.63209	5.60076	-0.256379	
0.981556	0.801615	-0.218982	
2.88156	6.32056	-0.234616	
1.38465	2.00681	-0.253633	
1.63174	2.72181	-0.258383	
2.71454	5.84231	-0.250784	
2.97026	6.55772	-0.215846	
1.22129	1.52814	-0.243327	
3.06098	6.79145	-0.188785	
2.04836	3.9196	-0.259013	
1.54816	2.48124	-0.254996	
2.46773	5.12461	-0.259893	
2.21624	4.40464	-0.261733	
1.71556	2.96103	-0.260841	
2.79722	6.08222	-0.243174	
1.46538	2.24347	-0.258699	
2.38486	4.8851	-0.259059	
2.13267	4.16151	-0.262556	
1.79776	3.19965	-0.258534	
0.907457	0.559406	-0.191743	
2.29936	4.64478	-0.259779	
1.30426	1.76934	-0.249776	
1.13959	1.28566	-0.240755	
-0.343046	-0.651228	-0.141911	
-1.07459	-2.90143	-0.0124817	
-0.690629	-1.7825	-0.0344832	