<VTKFile type="UnstructuredGrid" version="0.1" byte_order="LittleEndian">
	<UnstructuredGrid>
		<Piece NumberOfPoints="280" NumberOfCells="280">
			<CellData Scalars="scalars">
				<DataArray type="Float64" Name="Strength" NumberOfComponents="3" Format="ascii">
-0.171782	-17.2314	0.0495137	
-0.231269	-11.9241	0.0421537	
0.00653581	-11.9359	0.00844583	
-0.396801	-4.90045	0.0860175	
-0.0556262	-16.995	0.00831232	
-0.207915	-4.19324	0.0453927	
0.358216	-17.0262	-0.0695182	
-0.318859	-8.15596	0.0593454	
-0.327226	-10.2344	0.0642685	
0.0850913	-17.3309	-0.00803656	
0.594233	-14.8628	-0.131328	
-0.181912	-6.9177	0.0427595	
2.12581	-11.7398	-0.458062	
-0.232073	-12.273	0.044955	
-0.0160475	-9.204	0.00503123	
-0.158211	-15.9103	0.0243451	
-0.31115	-14.7858	0.0695098	
-0.00729183	-11.0016	0.0120016	
0.000288584	-16.8515	0.00134693	
0.000243089	-9.03269	0.00114853	
0.00791539	-15.1984	-0.00596833	
-0.000276902	-13.5597	-0.00129913	
0.000143053	-11.0572	0.000669533	
-0.55991	-3.09017	0.118939	
-0.000287834	-15.2707	-0.00134836	
1.47767e-06	-7.37237	6.89552e-06	
-0.000571308	-6.37678	-0.00267795	
0.231575	-0.680825	0.0494974	
0.180443	-5.70736	0.0369714	
0.18862	-3.14146	0.0405838	
0.21865	-4.58005	0.0460669	
0.213295	-9.68668	0.0486597	
-0.750809	-11.6934	-0.16671	
-1.67043	-8.47483	-0.358148	
0.179704	-7.08749	0.0400866	
0.214852	-2.16917	0.0457274	
0.081075	-1.1802	0.0172827	
0.0898422	-4.05868	0.0195515	
0.116497	-9.48693	0.0154151	
0.254921	-11.361	0.062555	
-0.000121401	-3.64371	0.00057123	
0.125675	-8.60308	0.033448	
0.138901	-12.2227	0.030044	
0.0624091	-10.4817	0.0152197	
0.000824856	-9.19178	-0.0038589	
-0.0537774	-12.3317	-0.0147202	
-8.11411e-05	-12.6163	0.000383872	
8.86667e-05	-10.2764	-0.000415161	
-4.13774e-05	-2.6844	0.000194102	
0.111925	-6.70128	0.0242918	
-0.000225952	-5.22068	0.00106631	
3.04713e-05	-1.59135	-0.000143023	
0.0673749	-7.95852	0.0106625	
0.000151551	-7.54125	-0.000716913	
1.0016e-05	-6.13672	-4.71994e-05	
0.000276712	-11.9173	-0.0013089	
-0.162104	-2.80059	0.0362064	
-0.287102	-2.09999	0.0599576	
-0.0026423	-2.15226	0.00234173	
-0.441557	-0.923638	0.0945849	
-0.0819779	-2.8913	0.0168255	
-0.249749	-0.739595	0.0532788	
0.458057	-2.7699	-0.0975292	
-0.378444	-1.36828	0.0791539	
-0.347548	-1.77263	0.0727326	
0.118219	-3.04491	-0.0235257	
0.700893	-2.29026	-0.151213	
-0.226981	-1.21716	0.0491152	
2.43949	-1.72977	-0.523422	
-0.238889	-2.25877	0.0501147	
-0.0325999	-1.65177	0.00719858	
-0.191165	-2.93262	0.0389248	
-0.328703	-2.25744	0.0705679	
-0.0342582	-1.76958	0.0089966	
4.88033e-05	-2.84981	0.000227784	
4.16779e-05	-1.54867	0.000196917	
-0.0601984	-2.77035	0.0120628	
-4.70471e-05	-2.30386	-0.00022073	
2.4689e-05	-1.90833	0.000115552	
-0.653741	-0.517916	0.138921	
-4.51869e-05	-2.39733	-0.000211678	
2.46042e-07	-1.22754	1.14815e-06	
-8.8271e-05	-0.985256	-0.000413762	
0.274069	-0.134809	0.0584495	
0.214725	-1.02305	0.0452766	
0.224783	-0.581586	0.0479377	
0.257052	-0.857099	0.0544583	
0.239925	-1.76963	0.0518819	
-0.906653	-1.80256	-0.193637	
-1.91782	-1.25377	-0.409869	
0.211213	-1.30466	0.0450841	
0.250677	-0.40936	0.0534345	
0.0982903	-0.216433	0.0209357	
0.107218	-0.749688	0.0228239	
0.142495	-1.59847	0.0288716	
0.276539	-2.0434	0.060158	
-2.23093e-05	-0.669587	0.000104972	
0.148481	-1.54168	0.0325246	
0.142472	-2.08589	0.030245	
0.0909067	-1.93765	0.0197324	
0.000151045	-1.68317	-0.000706628	
-0.0610998	-2.04467	-0.0135045	
-1.33794e-05	-2.08031	6.32969e-05	
1.56633e-05	-1.81537	-7.33397e-05	
-7.49277e-06	-0.486101	3.51486e-05	
0.12696	-1.2049	0.0270171	
-4.13118e-05	-0.95452	0.000194958	
5.81643e-06	-0.30376	-2.73006e-05	
0.0801492	-1.43191	0.0163872	
2.7126e-05	-1.3498	-0.00012832	
1.84414e-06	-1.12989	-8.69033e-06	
4.79301e-05	-2.06423	-0.000226718	
-0.243815	-8.12522	0.0576741	
-0.370791	-5.93617	0.07547	
-0.047546	-5.98759	0.0151283	
-0.634822	-2.49785	0.13625	
-0.0423797	-8.42971	0.00726596	
-0.383284	-1.91929	0.0819933	
0.762521	-7.38502	-0.160947	
-0.531712	-4.07067	0.108887	
-0.441924	-5.12161	0.0910635	
0.169192	-8.22873	-0.0313947	
1.07586	-6.2614	-0.232773	
-0.383	-3.3979	0.0836705	
3.21062	-4.25821	-0.689255	
-0.359203	-6.41854	0.074236	
-0.0669086	-4.86262	0.0150355	
-0.248481	-7.91322	0.0482015	
-0.386166	-7.3551	0.0839096	
-0.0950946	-5.38331	0.0254203	
0.000135995	-7.94126	0.000634741	
0.000124666	-4.63233	0.000589013	
-0.112053	-7.67426	0.0217449	
-0.000144716	-7.08662	-0.000678958	
7.40372e-05	-5.72268	0.000346517	
-0.87169	-1.20288	0.185227	
-0.000139549	-7.40361	-0.00065372	
7.68723e-07	-3.8353	3.58723e-06	
-0.000267186	-2.98225	-0.00125241	
0.181786	0.257932	0.0386998	
0.132864	2.3799	0.0286861	
0.145155	1.30836	0.0307295	
0.174493	1.95657	0.0371351	
0.167217	4.05952	0.0344988	
-0.519685	3.93572	-0.107806	
-1.41139	2.56954	-0.301093	
0.13684	2.97263	0.0281029	
0.170925	0.899337	0.0364806	
0.05271	0.470342	0.011219	
0.0615025	1.72724	0.0128241	
0.0707076	3.85731	0.0191096	
0.209611	4.68135	0.040944	
5.03934e-05	1.5125	-0.000237116	
0.110548	3.57318	0.0203866	
0.123043	4.8812	0.0257564	
0.0618498	4.40638	0.0123787	
-0.000353136	3.93517	0.00165206	
0.00693813	4.55119	0.0026957	
3.15278e-05	4.90212	-0.000149155	
-3.71473e-05	4.30536	0.000173934	
1.707e-05	1.10743	-8.00754e-05	
0.0771463	2.83519	0.0161169	
9.38425e-05	2.16826	-0.000442859	
-1.34368e-05	0.70173	6.30683e-05	
0.0480329	3.37675	0.0117723	
-6.39584e-05	3.1826	0.000302555	
-4.21697e-06	2.5837	1.9872e-05	
-0.000111601	4.80638	0.000527893	
-0.243332	-2.64826	0.0533127	
-0.415687	-2.02903	0.0873816	
-0.0624045	-2.07709	0.0150864	
-0.6883	-0.859004	0.14726	
-0.0430736	-2.75111	0.00858618	
-0.429094	-0.654288	0.0913593	
0.883977	-2.35651	-0.189379	
-0.58949	-1.34295	0.124035	
-0.459471	-1.71823	0.096451	
0.201938	-2.76187	-0.0416195	
1.18999	-1.90284	-0.256251	
-0.435967	-1.14286	0.0936855	
3.44521	-1.2946	-0.738994	
-0.375525	-2.21782	0.0792717	
-0.0832511	-1.64514	0.017927	
-0.272039	-2.73599	0.0562311	
-0.392196	-2.27698	0.0841086	
-0.122986	-1.74497	0.0279232	
4.4098e-05	-2.57505	0.000205822	
4.15088e-05	-1.54238	0.000196118	
-0.164276	-2.62842	0.034307	
-4.72248e-05	-2.31256	-0.000221563	
2.45126e-05	-1.89469	0.000114727	
-0.945797	-0.409021	0.200989	
-4.41937e-05	-2.34464	-0.000207026	
2.47706e-07	-1.23585	1.15592e-06	
-8.49449e-05	-0.948131	-0.000398171	
0.146286	0.104604	0.0311618	
0.102371	0.892797	0.0218944	
0.113756	0.501159	0.0241533	
0.143287	0.750765	0.0304366	
0.143334	1.52883	0.0301799	
-0.378813	1.29427	-0.0795109	
-1.24684	0.834451	-0.266212	
0.110071	1.12951	0.0229695	
0.141119	0.349741	0.030104	
0.0355095	0.18087	0.00755987	
0.0444279	0.659157	0.00933696	
0.0437806	1.38982	0.0109189	
0.200056	1.73065	0.0411355	
1.93028e-05	0.579353	-9.08259e-05	
0.0956547	1.32602	0.0190721	
0.132764	1.71615	0.0279857	
0.0437646	1.65996	0.00902561	
-0.000131599	1.46647	0.000615654	
0.0311236	1.55245	0.00701655	
1.0777e-05	1.67567	-5.09853e-05	
-1.3689e-05	1.58655	6.40954e-05	
6.4714e-06	0.419839	-3.03574e-05	
0.0615002	1.06003	0.0129491	
3.57529e-05	0.82608	-0.000168724	
-5.13506e-06	0.268175	2.41024e-05	
0.0371316	1.25244	0.00847474	
-2.37876e-05	1.18368	0.000112527	
-1.60188e-06	0.98146	7.54871e-06	
-4.00909e-05	1.72662	0.000189637	
-0.268916	-4.14204	0.0599102	
-0.462739	-3.16777	0.096712	
-0.0924798	-3.21141	0.0224671	
-0.792161	-1.30268	0.169548	
-0.0118976	-4.29367	0.00164185	
-0.501799	-0.967255	0.106898	
1.07725	-3.47042	-0.23045	
-0.67605	-2.1781	0.141549	
-0.497776	-2.73292	0.104058	
0.245897	-4.13127	-0.0502281	
1.37703	-2.82107	-0.296679	
-0.529201	-1.78886	0.113961	
3.7746	-1.81878	-0.809725	
-0.434923	-3.4745	0.0914751	
-0.104072	-2.63636	0.0225133	
-0.295659	-4.1186	0.0604451	
-0.400753	-3.86932	0.0862719	
-0.160557	-2.84862	0.0369951	
6.6541e-05	-3.88558	0.000310572	
6.72699e-05	-2.49961	0.000317832	
-0.197366	-4.02744	0.0409726	
-7.77047e-05	-3.80514	-0.000364565	
3.95479e-05	-3.05684	0.000185096	
-1.05024	-0.576451	0.223183	
-7.2621e-05	-3.85281	-0.000340193	
4.10432e-07	-2.04772	1.91527e-06	
-0.000137812	-1.53822	-0.000645981	
0.186653	-0.119957	0.0398103	
0.134111	-0.922041	0.0282169	
0.143602	-0.514754	0.0306447	
0.173342	-0.765102	0.0367105	
0.169724	-1.55861	0.0367932	
-0.527791	-1.27152	-0.11279	
-1.40168	-0.785721	-0.299541	
0.138494	-1.14905	0.0296457	
0.169343	-0.364209	0.0360942	
0.0534941	-0.205747	0.0113954	
0.0627641	-0.678767	0.0133907	
0.0729757	-1.4792	0.0142299	
0.216256	-1.75748	0.0471746	
-1.9739e-05	-0.592443	9.2878e-05	
0.1078	-1.37092	0.0238176	
0.126034	-1.77949	0.0267527	
0.0516249	-1.67442	0.0113107	
0.00013617	-1.51741	-0.000637038	
-0.00712742	-1.54818	-0.00192775	
-1.1221e-05	-1.74471	5.30858e-05	
1.42541e-05	-1.65205	-6.67416e-05	
-6.79115e-06	-0.440582	3.18573e-05	
0.0814512	-1.10165	0.0173605	
-3.63501e-05	-0.839878	0.000171542	
5.68741e-06	-0.297022	-2.6695e-05	
0.0491549	-1.30719	0.00985243	
2.48074e-05	-1.23442	-0.000117351	
1.63352e-06	-1.00084	-7.6978e-06	
4.13326e-05	-1.78009	-0.000195511	
				</DataArray>
			</CellData>
			<Points>
				<DataArray type="Float64" Name="Position" NumberOfComponents="3" Format="ascii">
2.5485	5.36231	-0.111138	
1.8791	3.44522	-0.102547	
1.96321	3.68297	-0.104129	
1.0521	1.05143	-0.118018	
2.63271	5.59913	-0.113254	
0.976688	0.80959	-0.124163	
2.88332	6.31823	-0.119074	
1.37626	2.01127	-0.10486	
1.62527	2.72525	-0.1026	
2.71727	5.83994	-0.117981	
2.97276	6.55536	-0.121065	
1.21339	1.53253	-0.110927	
3.06279	6.7912	-0.120065	
2.04673	3.92087	-0.105848	
1.54219	2.48481	-0.10286	
2.46972	5.12421	-0.11386	
2.21423	4.40453	-0.109682	
1.712	2.96404	-0.105603	
2.80418	6.07932	-0.123787	
1.46167	2.24598	-0.106495	
2.3868	4.88488	-0.113849	
2.13406	4.16162	-0.111551	
1.79781	3.20256	-0.106891	
0.905494	0.566893	-0.129604	
2.30386	4.64381	-0.116261	
1.29846	1.77249	-0.108647	
1.13375	1.29086	-0.11763	
-0.347762	-0.651096	-0.141436	
-1.08206	-2.89986	-0.0240865	
-0.695827	-1.78245	-0.0414478	
-0.926172	-2.45252	-0.0279387	
-1.79167	-4.91097	-0.0337421	
-2.41942	-6.6912	-0.0860925	
-2.50348	-6.90989	-0.0939909	
-1.31756	-3.57072	-0.0236864	
-0.546639	-1.33316	-0.0591279	
-0.408466	-0.881382	-0.10458	
-0.848008	-2.23066	-0.0301277	
-1.63307	-4.46171	-0.0283916	
-2.02513	-5.57978	-0.0419169	
-0.771588	-2.00769	-0.0352864	
-1.55363	-4.2387	-0.0239131	
-2.1817	-6.02684	-0.0512403	
-1.94818	-5.3575	-0.0340582	
-1.71186	-4.68666	-0.0252524	
-2.33959	-6.47095	-0.0679885	
-2.2611	-6.24945	-0.0540677	
-1.86945	-5.136	-0.0291299	
-0.619277	-1.55783	-0.0484507	
-1.23824	-3.34869	-0.0204141	
-1.00246	-2.67632	-0.0240564	
-0.474774	-1.10695	-0.074546	
-1.4736	-4.01582	-0.0214729	
-1.3944	-3.79376	-0.0201527	
-1.15884	-3.12478	-0.020217	
-2.104	-5.80441	-0.0381293	
2.15312	5.51738	-0.20455	
1.61801	3.55678	-0.186062	
1.68343	3.80086	-0.187644	
0.945944	1.11337	-0.155172	
2.21864	5.75974	-0.202803	
0.882267	0.867755	-0.153778	
2.41618	6.49484	-0.19504	
1.21258	2.09271	-0.168214	
1.41448	2.82224	-0.178001	
2.28388	6.00623	-0.20143	
2.48565	6.73789	-0.185115	
1.07918	1.60345	-0.162319	
2.55692	6.9791	-0.170983	
1.74902	4.04427	-0.188399	
1.34616	2.57674	-0.172414	
2.08776	5.27436	-0.201531	
1.88547	4.53877	-0.197242	
1.48225	3.06706	-0.182098	
2.35006	6.25115	-0.198091	
1.27931	2.33327	-0.172298	
2.02073	5.03051	-0.199427	
1.81756	4.29148	-0.193081	
1.54853	3.31165	-0.182472	
0.822259	0.62158	-0.150816	
1.95221	4.78467	-0.19923	
1.14694	1.84974	-0.163573	
1.01256	1.358	-0.161407	
-0.352487	-0.674485	-0.141101	
-0.920489	-2.97062	0.0019508	
-0.622743	-1.82647	-0.0508413	
-0.796489	-2.51305	-0.0166794	
-1.50201	-5.02267	0.0342893	
-2.0163	-6.84028	-0.0231631	
-2.08489	-7.06449	-0.0483698	
-1.11305	-3.65561	0.0206323	
-0.51316	-1.36623	-0.076932	
-0.407638	-0.90576	-0.118821	
-0.736657	-2.28547	-0.0267661	
-1.37344	-4.56412	0.0335122	
-1.69395	-5.70528	0.0335189	
-0.678969	-2.05727	-0.0387494	
-1.30767	-4.33633	0.0319465	
-1.8218	-6.16169	0.0250591	
-1.63033	-5.47828	0.0353467	
-1.4368	-4.79337	0.0347608	
-1.95007	-6.61518	-0.00084693	
-1.88609	-6.3885	0.0146878	
-1.56632	-5.25161	0.0348413	
-0.566984	-1.59613	-0.0634213	
-1.04855	-3.42799	0.0160495	
-0.858084	-2.74156	-0.00669778	
-0.459212	-1.13577	-0.0922095	
-1.24288	-4.10856	0.0288005	
-1.178	-3.88226	0.0247133	
-0.984341	-3.19953	0.00902731	
-1.75774	-5.93378	0.0305804	
1.72256	5.64779	-0.202305	
1.31978	3.65665	-0.190392	
1.36895	3.90377	-0.191226	
0.824673	1.17021	-0.171511	
1.77267	5.89381	-0.200437	
0.777817	0.920426	-0.169507	
1.92361	6.64024	-0.193876	
1.02079	2.16582	-0.181161	
1.17037	2.9089	-0.186746	
1.82161	6.14392	-0.199115	
1.97857	6.8876	-0.185783	
0.922916	1.66858	-0.178029	
2.03485	7.13284	-0.174543	
1.41725	4.15153	-0.190769	
1.11911	2.65877	-0.182809	
1.67239	5.40093	-0.199771	
1.5177	4.65353	-0.196762	
1.21998	3.15768	-0.188795	
1.87182	6.39293	-0.195991	
1.07012	2.41103	-0.184308	
1.62026	5.15259	-0.198101	
1.46814	4.40237	-0.194192	
1.26949	3.4065	-0.188014	
0.732176	0.670851	-0.16495	
1.56884	4.90276	-0.197918	
0.972435	1.92005	-0.178077	
0.873476	1.41891	-0.177176	
-0.355564	-0.698096	-0.137313	
-0.77151	-3.02648	-0.0219044	
-0.55165	-1.86511	-0.0646246	
-0.680078	-2.56109	-0.0358627	
-1.20921	-5.11327	-0.00831991	
-1.60097	-6.96142	-0.0535329	
-1.65613	-7.18968	-0.0711198	
-0.916566	-3.72264	-0.0104484	
-0.473986	-1.39815	-0.090742	
-0.397725	-0.931567	-0.127655	
-0.635447	-2.3304	-0.0440122	
-1.11127	-4.64677	-0.00609533	
-1.35231	-5.80717	-0.0126829	
-0.592928	-2.09875	-0.0538498	
-1.06218	-4.41511	-0.00609762	
-1.4487	-6.2711	-0.0207415	
-1.3043	-5.57633	-0.0103111	
-1.15931	-4.87973	-0.00654139	
-1.54794	-6.73228	-0.0385679	
-1.4983	-6.50167	-0.0281809	
-1.25657	-5.346	-0.00941674	
-0.511845	-1.63129	-0.0763346	
-0.868152	-3.49145	-0.0127695	
-0.725334	-2.79376	-0.0280861	
-0.436134	-1.16491	-0.106927	
-1.01421	-4.18374	-0.00709454	
-0.965473	-3.95341	-0.00859275	
-0.819517	-3.25912	-0.0172123	
-1.40014	-6.03942	-0.0160771	
1.29047	5.74767	-0.206238	
1.02662	3.73521	-0.193282	
1.05772	3.98472	-0.193975	
0.700894	1.21907	-0.173576	
1.32371	5.99724	-0.204822	
0.669845	0.966243	-0.172713	
1.42477	6.7519	-0.199183	
0.830386	2.22628	-0.183095	
0.928566	2.97815	-0.189225	
1.35715	6.25054	-0.204024	
1.46282	7.00174	-0.19146	
0.765178	1.72377	-0.179754	
1.50365	7.24979	-0.181021	
1.09029	4.23509	-0.193382	
0.894039	2.72484	-0.185216	
1.25763	5.49736	-0.203572	
1.15467	4.74315	-0.19992	
0.961957	3.23049	-0.191121	
1.3905	6.50113	-0.201054	
0.862387	2.4746	-0.186929	
1.22347	5.24602	-0.201408	
1.12319	4.48843	-0.197558	
0.993629	3.48188	-0.190674	
0.639235	0.714008	-0.171498	
1.18883	4.99444	-0.200749	
0.798596	1.97645	-0.180088	
0.733376	1.47061	-0.178815	
-0.357802	-0.72142	-0.135619	
-0.63367	-3.07083	-0.0548956	
-0.488974	-1.89819	-0.0897908	
-0.573439	-2.60047	-0.0641386	
-0.921715	-5.18366	-0.055085	
-1.18108	-7.05309	-0.0825726	
-1.21945	-7.2838	-0.0955259	
-0.729084	-3.77505	-0.0503675	
-0.438285	-1.42733	-0.115098	
-0.385857	-0.956767	-0.133406	
-0.543769	-2.36748	-0.0704705	
-0.857333	-4.71167	-0.0512651	
-1.01629	-5.88479	-0.0591832	
-0.516165	-2.13374	-0.0790843	
-0.825588	-4.47678	-0.0506206	
-1.07997	-6.35447	-0.0637498	
-0.984716	-5.65162	-0.0575671	
-0.889464	-4.94727	-0.0529085	
-1.1458	-6.82139	-0.07332	
-1.11286	-6.58828	-0.0677149	
-0.953108	-5.41875	-0.0565132	
-0.463401	-1.66256	-0.102147	
-0.696463	-3.54181	-0.050861	
-0.603133	-2.83543	-0.0585617	
-0.412549	-1.19227	-0.123858	
-0.793771	-4.24282	-0.0506399	
-0.761645	-4.00906	-0.0503767	
-0.665384	-3.30602	-0.0527356	
-1.04807	-6.11993	-0.061232	
0.867642	5.80547	-0.181853	
0.737367	3.78486	-0.174605	
0.752443	4.03504	-0.174532	
0.576733	1.25495	-0.16968	
0.883787	6.05584	-0.180797	
0.561233	1.0015	-0.169862	
0.93327	6.81463	-0.180288	
0.64046	2.26731	-0.171593	
0.68898	3.02324	-0.173343	
0.899688	6.31071	-0.180964	
0.952774	7.0664	-0.176973	
0.608342	1.76227	-0.17176	
0.974803	7.31763	-0.173803	
0.768743	4.2858	-0.173338	
0.67193	2.76908	-0.171363	
0.850833	5.55354	-0.179602	
0.800098	4.79563	-0.177534	
0.705686	3.27746	-0.173793	
0.916494	6.5633	-0.179511	
0.656253	2.51734	-0.173651	
0.834882	5.30137	-0.178149	
0.784426	4.54072	-0.176342	
0.720973	3.53069	-0.172974	
0.546093	0.747433	-0.169684	
0.817372	5.04763	-0.177512	
0.624535	2.01591	-0.170758	
0.592466	1.50822	-0.172036	
-0.357558	-0.744599	-0.137591	
-0.498243	-3.10291	-0.103655	
-0.426772	-1.92512	-0.123789	
-0.469273	-2.63037	-0.110588	
-0.637931	-5.22482	-0.096047	
-0.765843	-7.10583	-0.109211	
-0.785342	-7.33872	-0.117649	
-0.544366	-3.81042	-0.0974308	
-0.399446	-1.45272	-0.132441	
-0.371722	-0.980552	-0.137384	
-0.454673	-2.39606	-0.114781	
-0.606318	-4.75171	-0.0950518	
-0.684038	-5.92969	-0.0973405	
-0.440815	-2.16144	-0.119284	
-0.59144	-4.51565	-0.0951306	
-0.715677	-6.40162	-0.0989791	
-0.668844	-5.69518	-0.096686	
-0.621885	-4.98795	-0.0951271	
-0.748369	-6.87186	-0.103617	
-0.731805	-6.63679	-0.100897	
-0.653572	-5.46107	-0.0965473	
-0.413105	-1.68882	-0.128358	
-0.528582	-3.57535	-0.0989627	
-0.483685	-2.86648	-0.106895	
-0.385689	-1.21678	-0.134262	
-0.575705	-4.28008	-0.095839	
-0.560137	-4.04536	-0.096507	
-0.513524	-3.339	-0.101145	
-0.699767	-6.166	-0.0980298	
				</DataArray>
			</Points>
			<Cells>
				<DataArray type="Int32" Name="connectivity" Format="ascii">
0	
1	
2	
3	
4	
5	
6	
7	
8	
9	
10	
11	
12	
13	
14	
15	
16	
17	
18	
19	
20	
21	
22	
23	
24	
25	
26	
27	
28	
29	
30	
31	
32	
33	
34	
35	
36	
37	
38	
39	
40	
41	
42	
43	
44	
45	
46	
47	
48	
49	
50	
51	
52	
53	
54	
55	
56	
57	
58	
59	
60	
61	
62	
63	
64	
65	
66	
67	
68	
69	
70	
71	
72	
73	
74	
75	
76	
77	
78	
79	
80	
81	
82	
83	
84	
85	
86	
87	
88	
89	
90	
91	
92	
93	
94	
95	
96	
97	
98	
99	
100	
101	
102	
103	
104	
105	
106	
107	
108	
109	
110	
111	
112	
113	
114	
115	
116	
117	
118	
119	
120	
121	
122	
123	
124	
125	
126	
127	
128	
129	
130	
131	
132	
133	
134	
135	
136	
137	
138	
139	
140	
141	
142	
143	
144	
145	
146	
147	
148	
149	
150	
151	
152	
153	
154	
155	
156	
157	
158	
159	
160	
161	
162	
163	
164	
165	
166	
167	
168	
169	
170	
171	
172	
173	
174	
175	
176	
177	
178	
179	
180	
181	
182	
183	
184	
185	
186	
187	
188	
189	
190	
191	
192	
193	
194	
195	
196	
197	
198	
199	
200	
201	
202	
203	
204	
205	
206	
207	
208	
209	
210	
211	
212	
213	
214	
215	
216	
217	
218	
219	
220	
221	
222	
223	
224	
225	
226	
227	
228	
229	
230	
231	
232	
233	
234	
235	
236	
237	
238	
239	
240	
241	
242	
243	
244	
245	
246	
247	
248	
249	
250	
251	
252	
253	
254	
255	
256	
257	
258	
259	
260	
261	
262	
263	
264	
265	
266	
267	
268	
269	
270	
271	
272	
273	
274	
275	
276	
277	
278	
279	
				</DataArray>
				<DataArray type="Int32" Name="offsets" Format="ascii">
1	
2	
3	
4	
5	
6	
7	
8	
9	
10	
11	
12	
13	
14	
15	
16	
17	
18	
19	
20	
21	
22	
23	
24	
25	
26	
27	
28	
29	
30	
31	
32	
33	
34	
35	
36	
37	
38	
39	
40	
41	
42	
43	
44	
45	
46	
47	
48	
49	
50	
51	
52	
53	
54	
55	
56	
57	
58	
59	
60	
61	
62	
63	
64	
65	
66	
67	
68	
69	
70	
71	
72	
73	
74	
75	
76	
77	
78	
79	
80	
81	
82	
83	
84	
85	
86	
87	
88	
89	
90	
91	
92	
93	
94	
95	
96	
97	
98	
99	
100	
101	
102	
103	
104	
105	
106	
107	
108	
109	
110	
111	
112	
113	
114	
115	
116	
117	
118	
119	
120	
121	
122	
123	
124	
125	
126	
127	
128	
129	
130	
131	
132	
133	
134	
135	
136	
137	
138	
139	
140	
141	
142	
143	
144	
145	
146	
147	
148	
149	
150	
151	
152	
153	
154	
155	
156	
157	
158	
159	
160	
161	
162	
163	
164	
165	
166	
167	
168	
169	
170	
171	
172	
173	
174	
175	
176	
177	
178	
179	
180	
181	
182	
183	
184	
185	
186	
187	
188	
189	
190	
191	
192	
193	
194	
195	
196	
197	
198	
199	
200	
201	
202	
203	
204	
205	
206	
207	
208	
209	
210	
211	
212	
213	
214	
215	
216	
217	
218	
219	
220	
221	
222	
223	
224	
225	
226	
227	
228	
229	
230	
231	
232	
233	
234	
235	
236	
237	
238	
239	
240	
241	
242	
243	
244	
245	
246	
247	
248	
249	
250	
251	
252	
253	
254	
255	
256	
257	
258	
259	
260	
261	
262	
263	
264	
265	
266	
267	
268	
269	
270	
271	
272	
273	
274	
275	
276	
277	
278	
279	
280	
				</DataArray>
				<DataArray type="Int32" Name="types" Format="ascii">
1	
1	
1	
1	
1	
1	
1	
1	
1	
1	
1	
1	
1	
1	
1	
1	
1	
1	
1	
1	
1	
1	
1	
1	
1	
1	
1	
1	
1	
1	
1	
1	
1	
1	
1	
1	
1	
1	
1	
1	
1	
1	
1	
1	
1	
1	
1	
1	
1	
1	
1	
1	
1	
1	
1	
1	
1	
1	
1	
1	
1	
1	
1	
1	
1	
1	
1	
1	
1	
1	
1	
1	
1	
1	
1	
1	
1	
1	
1	
1	
1	
1	
1	
1	
1	
1	
1	
1	
1	
1	
1	
1	
1	
1	
1	
1	
1	
1	
1	
1	
1	
1	
1	
1	
1	
1	
1	
1	
1	
1	
1	
1	
1	
1	
1	
1	
1	
1	
1	
1	
1	
1	
1	
1	
1	
1	
1	
1	
1	
1	
1	
1	
1	
1	
1	
1	
1	
1	
1	
1	
1	
1	
1	
1	
1	
1	
1	
1	
1	
1	
1	
1	
1	
1	
1	
1	
1	
1	
1	
1	
1	
1	
1	
1	
1	
1	
1	
1	
1	
1	
1	
1	
1	
1	
1	
1	
1	
1	
1	
1	
1	
1	
1	
1	
1	
1	
1	
1	
1	
1	
1	
1	
1	
1	
1	
1	
1	
1	
1	
1	
1	
1	
1	
1	
1	
1	
1	
1	
1	
1	
1	
1	
1	
1	
1	
1	
1	
1	
1	
1	
1	
1	
1	
1	
1	
1	
1	
1	
1	
1	
1	
1	
1	
1	
1	
1	
1	
1	
1	
1	
1	
1	
1	
1	
1	
1	
1	
1	
1	
1	
1	
1	
1	
1	
1	
1	
1	
1	
1	
1	
1	
1	
1	
1	
1	
1	
1	
1	
1	
1	
1	
1	
1	
1	
1	
1	
1	
1	
1	
1	
				</DataArray>
			</Cells>
		</Piece>
	</UnstructuredGrid>
</VTKFile>
