<VTKFile type="UnstructuredGrid" version="0.1" byte_order="LittleEndian">
	<UnstructuredGrid>
		<Piece NumberOfPoints="56" NumberOfCells="56">
			<CellData Scalars="scalars">
				<DataArray type="Float64" Name="Strength" NumberOfComponents="3" Format="ascii">
-0.171782	-17.2314	0.0495137	
-0.231269	-11.9241	0.0421537	
0.00653581	-11.9359	0.00844583	
-0.396801	-4.90045	0.0860175	
-0.0556262	-16.995	0.00831232	
-0.207915	-4.19324	0.0453927	
0.358216	-17.0262	-0.0695182	
-0.318859	-8.15596	0.0593454	
-0.327226	-10.2344	0.0642685	
0.0850913	-17.3309	-0.00803656	
0.594233	-14.8628	-0.131328	
-0.181912	-6.9177	0.0427595	
2.12581	-11.7398	-0.458062	
-0.232073	-12.273	0.044955	
-0.0160475	-9.204	0.00503123	
-0.158211	-15.9103	0.0243451	
-0.31115	-14.7858	0.0695098	
-0.00729183	-11.0016	0.0120016	
0.000288584	-16.8515	0.00134693	
0.000243089	-9.03269	0.00114853	
0.00791539	-15.1984	-0.00596833	
-0.000276902	-13.5597	-0.00129913	
0.000143053	-11.0572	0.000669533	
-0.55991	-3.09017	0.118939	
-0.000287834	-15.2707	-0.00134836	
1.47767e-06	-7.37237	6.89552e-06	
-0.000571308	-6.37678	-0.00267795	
0.231575	-0.680825	0.0494974	
0.180443	-5.70736	0.0369714	
0.18862	-3.14146	0.0405838	
0.21865	-4.58005	0.0460669	
0.213295	-9.68668	0.0486597	
-0.750809	-11.6934	-0.16671	
-1.67043	-8.47483	-0.358148	
0.179704	-7.08749	0.0400866	
0.214852	-2.16917	0.0457274	
0.081075	-1.1802	0.0172827	
0.0898422	-4.05868	0.0195515	
0.116497	-9.48693	0.0154151	
0.254921	-11.361	0.062555	
-0.000121401	-3.64371	0.00057123	
0.125675	-8.60308	0.033448	
0.138901	-12.2227	0.030044	
0.0624091	-10.4817	0.0152197	
0.000824856	-9.19178	-0.0038589	
-0.0537774	-12.3317	-0.0147202	
-8.11411e-05	-12.6163	0.000383872	
8.86667e-05	-10.2764	-0.000415161	
-4.13774e-05	-2.6844	0.000194102	
0.111925	-6.70128	0.0242918	
-0.000225952	-5.22068	0.00106631	
3.04713e-05	-1.59135	-0.000143023	
0.0673749	-7.95852	0.0106625	
0.000151551	-7.54125	-0.000716913	
1.0016e-05	-6.13672	-4.71994e-05	
0.000276712	-11.9173	-0.0013089	
				</DataArray>
			</CellData>
			<Points>
				<DataArray type="Float64" Name="Position" NumberOfComponents="3" Format="ascii">
0.86661	5.80517	-0.128547	
0.73344	3.78574	-0.122758	
0.749909	4.03565	-0.124568	
0.571835	1.2552	-0.138017	
0.883776	6.0556	-0.131455	
0.557865	1.00201	-0.144422	
0.93417	6.81493	-0.137278	
0.633934	2.26765	-0.126154	
0.683874	3.0237	-0.123552	
0.900855	6.31022	-0.13625	
0.953943	7.06669	-0.143736	
0.602539	1.76234	-0.13164	
0.975772	7.31816	-0.151532	
0.766903	4.28586	-0.125182	
0.667562	2.76951	-0.125283	
0.851227	5.55406	-0.132528	
0.799373	4.79488	-0.126615	
0.702255	3.27792	-0.126179	
0.918933	6.56342	-0.142973	
0.652433	2.51736	-0.128385	
0.835496	5.30181	-0.132483	
0.784911	4.54035	-0.130729	
0.719492	3.53145	-0.128278	
0.544588	0.748249	-0.1522	
0.819104	5.04781	-0.134727	
0.620076	2.01612	-0.130965	
0.588121	1.50831	-0.137248	
-0.358245	-0.744576	-0.138181	
-0.501313	-3.10307	-0.11309	
-0.429616	-1.92531	-0.128954	
-0.472273	-2.63056	-0.118273	
-0.63915	-5.22505	-0.106509	
-0.766226	-7.10546	-0.120557	
-0.785379	-7.33822	-0.123742	
-0.546715	-3.81049	-0.107721	
-0.401612	-1.45293	-0.135199	
-0.372928	-0.980587	-0.138155	
-0.45728	-2.39633	-0.121122	
-0.607567	-4.75177	-0.105624	
-0.684678	-5.9297	-0.107874	
-0.443391	-2.16163	-0.124721	
-0.592184	-4.51571	-0.103463	
-0.715955	-6.40154	-0.109129	
-0.668607	-5.69527	-0.103135	
-0.621483	-4.98813	-0.100739	
-0.747797	-6.87159	-0.111013	
-0.730706	-6.63678	-0.105539	
-0.652397	-5.46137	-0.100548	
-0.415458	-1.68899	-0.131984	
-0.530201	-3.57566	-0.10737	
-0.485868	-2.86662	-0.114263	
-0.38731	-1.21691	-0.136141	
-0.575983	-4.28017	-0.102711	
-0.560181	-4.04557	-0.102935	
-0.514696	-3.33925	-0.108002	
-0.698125	-6.16625	-0.100835	
				</DataArray>
			</Points>
			<Cells>
				<DataArray type="Int32" Name="connectivity" Format="ascii">
0	
1	
2	
3	
4	
5	
6	
7	
8	
9	
10	
11	
12	
13	
14	
15	
16	
17	
18	
19	
20	
21	
22	
23	
24	
25	
26	
27	
28	
29	
30	
31	
32	
33	
34	
35	
36	
37	
38	
39	
40	
41	
42	
43	
44	
45	
46	
47	
48	
49	
50	
51	
52	
53	
54	
55	
				</DataArray>
				<DataArray type="Int32" Name="offsets" Format="ascii">
1	
2	
3	
4	
5	
6	
7	
8	
9	
10	
11	
12	
13	
14	
15	
16	
17	
18	
19	
20	
21	
22	
23	
24	
25	
26	
27	
28	
29	
30	
31	
32	
33	
34	
35	
36	
37	
38	
39	
40	
41	
42	
43	
44	
45	
46	
47	
48	
49	
50	
51	
52	
53	
54	
55	
56	
				</DataArray>
				<DataArray type="Int32" Name="types" Format="ascii">
1	
1	
1	
1	
1	
1	
1	
1	
1	
1	
1	
1	
1	
1	
1	
1	
1	
1	
1	
1	
1	
1	
1	
1	
1	
1	
1	
1	
1	
1	
1	
1	
1	
1	
1	
1	
1	
1	
1	
1	
1	
1	
1	
1	
1	
1	
1	
1	
1	
1	
1	
1	
1	
1	
1	
1	
				</DataArray>
			</Cells>
		</Piece>
	</UnstructuredGrid>
</VTKFile>
