<VTKFile type="UnstructuredGrid" version="0.1" byte_order="LittleEndian">
	<UnstructuredGrid>
		<Piece NumberOfPoints="224" NumberOfCells="224">
			<CellData Scalars="scalars">
				<DataArray type="Float64" Name="Strength" NumberOfComponents="3" Format="ascii">
-0.171782	-17.2314	0.0495137	
-0.231269	-11.9241	0.0421537	
0.00653581	-11.9359	0.00844583	
-0.396801	-4.90045	0.0860175	
-0.0556262	-16.995	0.00831232	
-0.207915	-4.19324	0.0453927	
0.358216	-17.0262	-0.0695182	
-0.318859	-8.15596	0.0593454	
-0.327226	-10.2344	0.0642685	
0.0850913	-17.3309	-0.00803656	
0.594233	-14.8628	-0.131328	
-0.181912	-6.9177	0.0427595	
2.12581	-11.7398	-0.458062	
-0.232073	-12.273	0.044955	
-0.0160475	-9.204	0.00503123	
-0.158211	-15.9103	0.0243451	
-0.31115	-14.7858	0.0695098	
-0.00729183	-11.0016	0.0120016	
0.000288584	-16.8515	0.00134693	
0.000243089	-9.03269	0.00114853	
0.00791539	-15.1984	-0.00596833	
-0.000276902	-13.5597	-0.00129913	
0.000143053	-11.0572	0.000669533	
-0.55991	-3.09017	0.118939	
-0.000287834	-15.2707	-0.00134836	
1.47767e-06	-7.37237	6.89552e-06	
-0.000571308	-6.37678	-0.00267795	
0.231575	-0.680825	0.0494974	
0.180443	-5.70736	0.0369714	
0.18862	-3.14146	0.0405838	
0.21865	-4.58005	0.0460669	
0.213295	-9.68668	0.0486597	
-0.750809	-11.6934	-0.16671	
-1.67043	-8.47483	-0.358148	
0.179704	-7.08749	0.0400866	
0.214852	-2.16917	0.0457274	
0.081075	-1.1802	0.0172827	
0.0898422	-4.05868	0.0195515	
0.116497	-9.48693	0.0154151	
0.254921	-11.361	0.062555	
-0.000121401	-3.64371	0.00057123	
0.125675	-8.60308	0.033448	
0.138901	-12.2227	0.030044	
0.0624091	-10.4817	0.0152197	
0.000824856	-9.19178	-0.0038589	
-0.0537774	-12.3317	-0.0147202	
-8.11411e-05	-12.6163	0.000383872	
8.86667e-05	-10.2764	-0.000415161	
-4.13774e-05	-2.6844	0.000194102	
0.111925	-6.70128	0.0242918	
-0.000225952	-5.22068	0.00106631	
3.04713e-05	-1.59135	-0.000143023	
0.0673749	-7.95852	0.0106625	
0.000151551	-7.54125	-0.000716913	
1.0016e-05	-6.13672	-4.71994e-05	
0.000276712	-11.9173	-0.0013089	
-0.162104	-2.80059	0.0362064	
-0.287102	-2.09999	0.0599576	
-0.0026423	-2.15226	0.00234173	
-0.441557	-0.923638	0.0945849	
-0.0819779	-2.8913	0.0168255	
-0.249749	-0.739595	0.0532788	
0.458057	-2.7699	-0.0975292	
-0.378444	-1.36828	0.0791539	
-0.347548	-1.77263	0.0727326	
0.118219	-3.04491	-0.0235257	
0.700893	-2.29026	-0.151213	
-0.226981	-1.21716	0.0491152	
2.43949	-1.72977	-0.523422	
-0.238889	-2.25877	0.0501147	
-0.0325999	-1.65177	0.00719858	
-0.191165	-2.93262	0.0389248	
-0.328703	-2.25744	0.0705679	
-0.0342582	-1.76958	0.0089966	
4.88033e-05	-2.84981	0.000227784	
4.16779e-05	-1.54867	0.000196917	
-0.0601984	-2.77035	0.0120628	
-4.70471e-05	-2.30386	-0.00022073	
2.4689e-05	-1.90833	0.000115552	
-0.653741	-0.517916	0.138921	
-4.51869e-05	-2.39733	-0.000211678	
2.46042e-07	-1.22754	1.14815e-06	
-8.8271e-05	-0.985256	-0.000413762	
0.274069	-0.134809	0.0584495	
0.214725	-1.02305	0.0452766	
0.224783	-0.581586	0.0479377	
0.257052	-0.857099	0.0544583	
0.239925	-1.76963	0.0518819	
-0.906653	-1.80256	-0.193637	
-1.91782	-1.25377	-0.409869	
0.211213	-1.30466	0.0450841	
0.250677	-0.40936	0.0534345	
0.0982903	-0.216433	0.0209357	
0.107218	-0.749688	0.0228239	
0.142495	-1.59847	0.0288716	
0.276539	-2.0434	0.060158	
-2.23093e-05	-0.669587	0.000104972	
0.148481	-1.54168	0.0325246	
0.142472	-2.08589	0.030245	
0.0909067	-1.93765	0.0197324	
0.000151045	-1.68317	-0.000706628	
-0.0610998	-2.04467	-0.0135045	
-1.33794e-05	-2.08031	6.32969e-05	
1.56633e-05	-1.81537	-7.33397e-05	
-7.49277e-06	-0.486101	3.51486e-05	
0.12696	-1.2049	0.0270171	
-4.13118e-05	-0.95452	0.000194958	
5.81643e-06	-0.30376	-2.73006e-05	
0.0801492	-1.43191	0.0163872	
2.7126e-05	-1.3498	-0.00012832	
1.84414e-06	-1.12989	-8.69033e-06	
4.79301e-05	-2.06423	-0.000226718	
-0.243815	-8.12522	0.0576741	
-0.370791	-5.93617	0.07547	
-0.047546	-5.98759	0.0151283	
-0.634822	-2.49785	0.13625	
-0.0423797	-8.42971	0.00726596	
-0.383284	-1.91929	0.0819933	
0.762521	-7.38502	-0.160947	
-0.531712	-4.07067	0.108887	
-0.441924	-5.12161	0.0910635	
0.169192	-8.22873	-0.0313947	
1.07586	-6.2614	-0.232773	
-0.383	-3.3979	0.0836705	
3.21062	-4.25821	-0.689255	
-0.359203	-6.41854	0.074236	
-0.0669086	-4.86262	0.0150355	
-0.248481	-7.91322	0.0482015	
-0.386166	-7.3551	0.0839096	
-0.0950946	-5.38331	0.0254203	
0.000135995	-7.94126	0.000634741	
0.000124666	-4.63233	0.000589013	
-0.112053	-7.67426	0.0217449	
-0.000144716	-7.08662	-0.000678958	
7.40372e-05	-5.72268	0.000346517	
-0.87169	-1.20288	0.185227	
-0.000139549	-7.40361	-0.00065372	
7.68723e-07	-3.8353	3.58723e-06	
-0.000267186	-2.98225	-0.00125241	
0.181786	0.257932	0.0386998	
0.132864	2.3799	0.0286861	
0.145155	1.30836	0.0307295	
0.174493	1.95657	0.0371351	
0.167217	4.05952	0.0344988	
-0.519685	3.93572	-0.107806	
-1.41139	2.56954	-0.301093	
0.13684	2.97263	0.0281029	
0.170925	0.899337	0.0364806	
0.05271	0.470342	0.011219	
0.0615025	1.72724	0.0128241	
0.0707076	3.85731	0.0191096	
0.209611	4.68135	0.040944	
5.03934e-05	1.5125	-0.000237116	
0.110548	3.57318	0.0203866	
0.123043	4.8812	0.0257564	
0.0618498	4.40638	0.0123787	
-0.000353136	3.93517	0.00165206	
0.00693813	4.55119	0.0026957	
3.15278e-05	4.90212	-0.000149155	
-3.71473e-05	4.30536	0.000173934	
1.707e-05	1.10743	-8.00754e-05	
0.0771463	2.83519	0.0161169	
9.38425e-05	2.16826	-0.000442859	
-1.34368e-05	0.70173	6.30683e-05	
0.0480329	3.37675	0.0117723	
-6.39584e-05	3.1826	0.000302555	
-4.21697e-06	2.5837	1.9872e-05	
-0.000111601	4.80638	0.000527893	
-0.243332	-2.64826	0.0533127	
-0.415687	-2.02903	0.0873816	
-0.0624045	-2.07709	0.0150864	
-0.6883	-0.859004	0.14726	
-0.0430736	-2.75111	0.00858618	
-0.429094	-0.654288	0.0913593	
0.883977	-2.35651	-0.189379	
-0.58949	-1.34295	0.124035	
-0.459471	-1.71823	0.096451	
0.201938	-2.76187	-0.0416195	
1.18999	-1.90284	-0.256251	
-0.435967	-1.14286	0.0936855	
3.44521	-1.2946	-0.738994	
-0.375525	-2.21782	0.0792717	
-0.0832511	-1.64514	0.017927	
-0.272039	-2.73599	0.0562311	
-0.392196	-2.27698	0.0841086	
-0.122986	-1.74497	0.0279232	
4.4098e-05	-2.57505	0.000205822	
4.15088e-05	-1.54238	0.000196118	
-0.164276	-2.62842	0.034307	
-4.72248e-05	-2.31256	-0.000221563	
2.45126e-05	-1.89469	0.000114727	
-0.945797	-0.409021	0.200989	
-4.41937e-05	-2.34464	-0.000207026	
2.47706e-07	-1.23585	1.15592e-06	
-8.49449e-05	-0.948131	-0.000398171	
0.146286	0.104604	0.0311618	
0.102371	0.892797	0.0218944	
0.113756	0.501159	0.0241533	
0.143287	0.750765	0.0304366	
0.143334	1.52883	0.0301799	
-0.378813	1.29427	-0.0795109	
-1.24684	0.834451	-0.266212	
0.110071	1.12951	0.0229695	
0.141119	0.349741	0.030104	
0.0355095	0.18087	0.00755987	
0.0444279	0.659157	0.00933696	
0.0437806	1.38982	0.0109189	
0.200056	1.73065	0.0411355	
1.93028e-05	0.579353	-9.08259e-05	
0.0956547	1.32602	0.0190721	
0.132764	1.71615	0.0279857	
0.0437646	1.65996	0.00902561	
-0.000131599	1.46647	0.000615654	
0.0311236	1.55245	0.00701655	
1.0777e-05	1.67567	-5.09853e-05	
-1.3689e-05	1.58655	6.40954e-05	
6.4714e-06	0.419839	-3.03574e-05	
0.0615002	1.06003	0.0129491	
3.57529e-05	0.82608	-0.000168724	
-5.13506e-06	0.268175	2.41024e-05	
0.0371316	1.25244	0.00847474	
-2.37876e-05	1.18368	0.000112527	
-1.60188e-06	0.98146	7.54871e-06	
-4.00909e-05	1.72662	0.000189637	
				</DataArray>
			</CellData>
			<Points>
				<DataArray type="Float64" Name="Position" NumberOfComponents="3" Format="ascii">
2.13897	5.5189	-0.118391	
1.59895	3.5608	-0.108477	
1.66626	3.80373	-0.11032	
0.934937	1.1161	-0.120923	
2.20703	5.76084	-0.121008	
0.874652	0.870044	-0.127661	
2.4088	6.49526	-0.127073	
1.19436	2.09644	-0.109384	
1.39571	2.82583	-0.108088	
2.27499	6.00682	-0.125896	
2.48174	6.73787	-0.130316	
1.06409	1.60662	-0.114721	
2.55544	6.97929	-0.131406	
1.73415	4.0467	-0.111937	
1.32902	2.5801	-0.108357	
2.07603	5.27615	-0.121153	
1.86911	4.54085	-0.115704	
1.46547	3.06999	-0.11131	
2.34515	6.2515	-0.132096	
1.26386	2.3359	-0.111645	
2.00975	5.03192	-0.120941	
1.80455	4.29294	-0.117843	
1.53532	3.3141	-0.112884	
0.818511	0.623288	-0.134494	
1.94246	4.78572	-0.123065	
1.13291	1.85223	-0.113164	
1.00052	1.36079	-0.120776	
-0.353027	-0.674474	-0.140251	
-0.9366	-2.96709	-0.0371847	
-0.627998	-1.82565	-0.0552264	
-0.811464	-2.51001	-0.0416016	
-1.50734	-5.02106	-0.0445966	
-2.01618	-6.83946	-0.0887382	
-2.08492	-7.0633	-0.096309	
-1.1256	-3.65242	-0.0363652	
-0.511063	-1.36686	-0.0734749	
-0.406739	-0.905993	-0.117506	
-0.748694	-2.28324	-0.0438336	
-1.37976	-4.56226	-0.0398133	
-1.69631	-5.7041	-0.0511389	
-0.687887	-2.0556	-0.0489494	
-1.31534	-4.33432	-0.0359172	
-1.82285	-6.16067	-0.058654	
-1.63383	-5.47717	-0.0439779	
-1.44233	-4.79198	-0.03649	
-1.95065	-6.61436	-0.0720392	
-1.88667	-6.38807	-0.0599188	
-1.5697	-5.25081	-0.0395871	
-0.567385	-1.59623	-0.0623692	
-1.06131	-3.42551	-0.0335579	
-0.872566	-2.73841	-0.0374332	
-0.456464	-1.1363	-0.0892179	
-1.25089	-4.10651	-0.0337961	
-1.18665	-3.87999	-0.0326855	
-0.997441	-3.19665	-0.0331572	
-1.7593	-5.93348	-0.0464124	
1.72789	5.64721	-0.194372	
1.3248	3.65642	-0.177165	
1.37409	3.90342	-0.178514	
0.824135	1.1708	-0.151767	
1.77781	5.89323	-0.193129	
0.776876	0.921389	-0.152566	
1.92736	6.63985	-0.188818	
1.02323	2.16565	-0.162202	
1.17439	2.90856	-0.170528	
1.8267	6.14331	-0.192633	
1.98154	6.88725	-0.18157	
0.92365	1.66861	-0.157602	
2.03676	7.13278	-0.171712	
1.42253	4.15097	-0.178938	
1.12291	2.65861	-0.165705	
1.67841	5.40019	-0.191206	
1.52427	4.65287	-0.186849	
1.22442	3.15735	-0.173869	
1.8771	6.39233	-0.19036	
1.07301	2.41079	-0.165614	
1.62564	5.15212	-0.188988	
1.47404	4.40158	-0.183067	
1.27423	3.40631	-0.174008	
0.731794	0.672091	-0.153193	
1.57435	4.90224	-0.188669	
0.974085	1.91992	-0.158297	
0.873387	1.41921	-0.156841	
-0.356724	-0.697734	-0.139348	
-0.77126	-3.02671	-0.0208258	
-0.554441	-1.86478	-0.0686691	
-0.679917	-2.56125	-0.0374861	
-1.21025	-5.11339	0.00471725	
-1.6011	-6.96109	-0.04239	
-1.6552	-7.1894	-0.0644777	
-0.916714	-3.72286	-0.00533682	
-0.478839	-1.39763	-0.0946466	
-0.401055	-0.93115	-0.130808	
-0.636052	-2.33036	-0.0464824	
-1.11259	-4.64692	0.00456444	
-1.35381	-5.80722	0.00360164	
-0.594607	-2.09848	-0.0573803	
-1.06314	-4.41527	0.00346793	
-1.4503	-6.27102	-0.00305944	
-1.30568	-5.57637	0.00511242	
-1.1604	-4.8799	0.00541836	
-1.54898	-6.73199	-0.0237916	
-1.49975	-6.50153	-0.0113629	
-1.25777	-5.34609	0.00486516	
-0.51589	-1.63081	-0.0807191	
-0.868229	-3.49162	-0.00913392	
-0.725122	-2.7939	-0.028426	
-0.440832	-1.16445	-0.110857	
-1.01471	-4.18389	0.00104439	
-0.965959	-3.95356	-0.00210366	
-0.819327	-3.25931	-0.0147183	
-1.40175	-6.03938	0.00130543	
1.2908	5.74738	-0.186793	
1.02658	3.73563	-0.174047	
1.05774	3.98508	-0.174517	
0.700247	1.21944	-0.161946	
1.32415	5.99714	-0.185803	
0.669544	0.966721	-0.163702	
1.42538	6.75184	-0.184579	
0.8297	2.22662	-0.16652	
0.928182	2.97847	-0.170728	
1.35694	6.25046	-0.185901	
1.46315	7.00165	-0.179719	
0.76464	1.72403	-0.165391	
1.50386	7.24983	-0.173089	
1.09031	4.23527	-0.173875	
0.893455	2.72518	-0.1672	
1.25807	5.49754	-0.183807	
1.15514	4.743	-0.179816	
0.961644	3.23089	-0.172445	
1.39104	6.50108	-0.184501	
0.861869	2.47486	-0.168921	
1.22387	5.24622	-0.181645	
1.12295	4.48938	-0.177275	
0.993381	3.48235	-0.171676	
0.639131	0.714624	-0.165375	
1.18932	4.99459	-0.181047	
0.797828	1.97674	-0.16448	
0.732906	1.47095	-0.165987	
-0.35819	-0.721337	-0.137456	
-0.623072	-3.07143	-0.042452	
-0.487216	-1.89835	-0.0903882	
-0.564859	-2.60099	-0.0571543	
-0.914578	-5.18391	-0.0296415	
-1.17881	-7.05336	-0.065464	
-1.21785	-7.2841	-0.0833229	
-0.71893	-3.77571	-0.0316043	
-0.439932	-1.4273	-0.118203	
-0.386988	-0.956688	-0.136215	
-0.536879	-2.36783	-0.0660783	
-0.84961	-4.71201	-0.0273831	
-1.01064	-5.88509	-0.0326023	
-0.511618	-2.13406	-0.0774389	
-0.817055	-4.47733	-0.0275962	
-1.0754	-6.35475	-0.0381515	
-0.978408	-5.65181	-0.0310163	
-0.881558	-4.94763	-0.0280038	
-1.14276	-6.82168	-0.0521758	
-1.109	-6.58848	-0.0438808	
-0.946211	-5.41905	-0.0303689	
-0.463839	-1.66262	-0.104392	
-0.685972	-3.54226	-0.0339177	
-0.593196	-2.83612	-0.0487292	
-0.414135	-1.19226	-0.127252	
-0.784539	-4.24338	-0.0287147	
-0.751977	-4.00965	-0.0299138	
-0.654573	-3.30663	-0.0377706	
-1.04288	-6.12018	-0.0347427	
0.868501	5.8054	-0.179872	
0.73827	3.7849	-0.173024	
0.753372	4.03504	-0.172915	
0.577437	1.255	-0.166411	
0.88467	6.05577	-0.178648	
0.561793	1.00162	-0.166884	
0.93403	6.8146	-0.178227	
0.641354	2.26731	-0.169374	
0.689883	3.02324	-0.171601	
0.900467	6.3106	-0.178784	
0.953383	7.06637	-0.175181	
0.609189	1.76226	-0.168968	
0.975185	7.31763	-0.172651	
0.769664	4.28576	-0.171681	
0.672866	2.76909	-0.169297	
0.851725	5.55355	-0.177616	
0.801026	4.79558	-0.176046	
0.706563	3.27746	-0.172275	
0.917325	6.56325	-0.177379	
0.657159	2.51732	-0.171269	
0.835788	5.30137	-0.176355	
0.785472	4.54055	-0.174629	
0.721907	3.53073	-0.171472	
0.546466	0.747626	-0.167369	
0.818312	5.04762	-0.176118	
0.625452	2.01591	-0.168249	
0.593243	1.50825	-0.169155	
-0.357715	-0.744605	-0.13729	
-0.496219	-3.10291	-0.0987978	
-0.425531	-1.92517	-0.121378	
-0.46727	-2.63044	-0.106525	
-0.637026	-5.22479	-0.0909428	
-0.765627	-7.10591	-0.105972	
-0.785277	-7.33882	-0.115343	
-0.542798	-3.81043	-0.0923288	
-0.399051	-1.45279	-0.131247	
-0.371894	-0.980572	-0.13698	
-0.45274	-2.3961	-0.110966	
-0.605093	-4.75176	-0.0898442	
-0.683343	-5.92972	-0.0923234	
-0.439152	-2.16149	-0.116186	
-0.590164	-4.51569	-0.0899697	
-0.715131	-6.40166	-0.0943799	
-0.668103	-5.69519	-0.0916311	
-0.620868	-4.98794	-0.0899846	
-0.747955	-6.87191	-0.0997287	
-0.731353	-6.63684	-0.0966277	
-0.65274	-5.46106	-0.0914304	
-0.412271	-1.68889	-0.126615	
-0.526791	-3.57534	-0.0938674	
-0.481568	-2.86655	-0.10233	
-0.385664	-1.21683	-0.13344	
-0.574347	-4.28012	-0.0906811	
-0.558702	-4.04537	-0.0913339	
-0.511607	-3.339	-0.0960299	
-0.699122	-6.16602	-0.0931184	
				</DataArray>
			</Points>
			<Cells>
				<DataArray type="Int32" Name="connectivity" Format="ascii">
0	
1	
2	
3	
4	
5	
6	
7	
8	
9	
10	
11	
12	
13	
14	
15	
16	
17	
18	
19	
20	
21	
22	
23	
24	
25	
26	
27	
28	
29	
30	
31	
32	
33	
34	
35	
36	
37	
38	
39	
40	
41	
42	
43	
44	
45	
46	
47	
48	
49	
50	
51	
52	
53	
54	
55	
56	
57	
58	
59	
60	
61	
62	
63	
64	
65	
66	
67	
68	
69	
70	
71	
72	
73	
74	
75	
76	
77	
78	
79	
80	
81	
82	
83	
84	
85	
86	
87	
88	
89	
90	
91	
92	
93	
94	
95	
96	
97	
98	
99	
100	
101	
102	
103	
104	
105	
106	
107	
108	
109	
110	
111	
112	
113	
114	
115	
116	
117	
118	
119	
120	
121	
122	
123	
124	
125	
126	
127	
128	
129	
130	
131	
132	
133	
134	
135	
136	
137	
138	
139	
140	
141	
142	
143	
144	
145	
146	
147	
148	
149	
150	
151	
152	
153	
154	
155	
156	
157	
158	
159	
160	
161	
162	
163	
164	
165	
166	
167	
168	
169	
170	
171	
172	
173	
174	
175	
176	
177	
178	
179	
180	
181	
182	
183	
184	
185	
186	
187	
188	
189	
190	
191	
192	
193	
194	
195	
196	
197	
198	
199	
200	
201	
202	
203	
204	
205	
206	
207	
208	
209	
210	
211	
212	
213	
214	
215	
216	
217	
218	
219	
220	
221	
222	
223	
				</DataArray>
				<DataArray type="Int32" Name="offsets" Format="ascii">
1	
2	
3	
4	
5	
6	
7	
8	
9	
10	
11	
12	
13	
14	
15	
16	
17	
18	
19	
20	
21	
22	
23	
24	
25	
26	
27	
28	
29	
30	
31	
32	
33	
34	
35	
36	
37	
38	
39	
40	
41	
42	
43	
44	
45	
46	
47	
48	
49	
50	
51	
52	
53	
54	
55	
56	
57	
58	
59	
60	
61	
62	
63	
64	
65	
66	
67	
68	
69	
70	
71	
72	
73	
74	
75	
76	
77	
78	
79	
80	
81	
82	
83	
84	
85	
86	
87	
88	
89	
90	
91	
92	
93	
94	
95	
96	
97	
98	
99	
100	
101	
102	
103	
104	
105	
106	
107	
108	
109	
110	
111	
112	
113	
114	
115	
116	
117	
118	
119	
120	
121	
122	
123	
124	
125	
126	
127	
128	
129	
130	
131	
132	
133	
134	
135	
136	
137	
138	
139	
140	
141	
142	
143	
144	
145	
146	
147	
148	
149	
150	
151	
152	
153	
154	
155	
156	
157	
158	
159	
160	
161	
162	
163	
164	
165	
166	
167	
168	
169	
170	
171	
172	
173	
174	
175	
176	
177	
178	
179	
180	
181	
182	
183	
184	
185	
186	
187	
188	
189	
190	
191	
192	
193	
194	
195	
196	
197	
198	
199	
200	
201	
202	
203	
204	
205	
206	
207	
208	
209	
210	
211	
212	
213	
214	
215	
216	
217	
218	
219	
220	
221	
222	
223	
224	
				</DataArray>
				<DataArray type="Int32" Name="types" Format="ascii">
1	
1	
1	
1	
1	
1	
1	
1	
1	
1	
1	
1	
1	
1	
1	
1	
1	
1	
1	
1	
1	
1	
1	
1	
1	
1	
1	
1	
1	
1	
1	
1	
1	
1	
1	
1	
1	
1	
1	
1	
1	
1	
1	
1	
1	
1	
1	
1	
1	
1	
1	
1	
1	
1	
1	
1	
1	
1	
1	
1	
1	
1	
1	
1	
1	
1	
1	
1	
1	
1	
1	
1	
1	
1	
1	
1	
1	
1	
1	
1	
1	
1	
1	
1	
1	
1	
1	
1	
1	
1	
1	
1	
1	
1	
1	
1	
1	
1	
1	
1	
1	
1	
1	
1	
1	
1	
1	
1	
1	
1	
1	
1	
1	
1	
1	
1	
1	
1	
1	
1	
1	
1	
1	
1	
1	
1	
1	
1	
1	
1	
1	
1	
1	
1	
1	
1	
1	
1	
1	
1	
1	
1	
1	
1	
1	
1	
1	
1	
1	
1	
1	
1	
1	
1	
1	
1	
1	
1	
1	
1	
1	
1	
1	
1	
1	
1	
1	
1	
1	
1	
1	
1	
1	
1	
1	
1	
1	
1	
1	
1	
1	
1	
1	
1	
1	
1	
1	
1	
1	
1	
1	
1	
1	
1	
1	
1	
1	
1	
1	
1	
1	
1	
1	
1	
1	
1	
1	
1	
1	
1	
1	
1	
1	
1	
1	
1	
1	
1	
1	
1	
1	
1	
1	
1	
				</DataArray>
			</Cells>
		</Piece>
	</UnstructuredGrid>
</VTKFile>
