<VTKFile type="UnstructuredGrid" version="0.1" byte_order="LittleEndian">
	<UnstructuredGrid>
		<Piece NumberOfPoints="504" NumberOfCells="504">
			<CellData Scalars="scalars">
				<DataArray type="Float64" Name="Strength" NumberOfComponents="3" Format="ascii">
-0.171782	-17.2314	0.0495137	
-0.231269	-11.9241	0.0421537	
0.00653581	-11.9359	0.00844583	
-0.396801	-4.90045	0.0860175	
-0.0556262	-16.995	0.00831232	
-0.207915	-4.19324	0.0453927	
0.358216	-17.0262	-0.0695182	
-0.318859	-8.15596	0.0593454	
-0.327226	-10.2344	0.0642685	
0.0850913	-17.3309	-0.00803656	
0.594233	-14.8628	-0.131328	
-0.181912	-6.9177	0.0427595	
2.12581	-11.7398	-0.458062	
-0.232073	-12.273	0.044955	
-0.0160475	-9.204	0.00503123	
-0.158211	-15.9103	0.0243451	
-0.31115	-14.7858	0.0695098	
-0.00729183	-11.0016	0.0120016	
0.000288584	-16.8515	0.00134693	
0.000243089	-9.03269	0.00114853	
0.00791539	-15.1984	-0.00596833	
-0.000276902	-13.5597	-0.00129913	
0.000143053	-11.0572	0.000669533	
-0.55991	-3.09017	0.118939	
-0.000287834	-15.2707	-0.00134836	
1.47767e-06	-7.37237	6.89552e-06	
-0.000571308	-6.37678	-0.00267795	
0.231575	-0.680825	0.0494974	
0.180443	-5.70736	0.0369714	
0.18862	-3.14146	0.0405838	
0.21865	-4.58005	0.0460669	
0.213295	-9.68668	0.0486597	
-0.750809	-11.6934	-0.16671	
-1.67043	-8.47483	-0.358148	
0.179704	-7.08749	0.0400866	
0.214852	-2.16917	0.0457274	
0.081075	-1.1802	0.0172827	
0.0898422	-4.05868	0.0195515	
0.116497	-9.48693	0.0154151	
0.254921	-11.361	0.062555	
-0.000121401	-3.64371	0.00057123	
0.125675	-8.60308	0.033448	
0.138901	-12.2227	0.030044	
0.0624091	-10.4817	0.0152197	
0.000824856	-9.19178	-0.0038589	
-0.0537774	-12.3317	-0.0147202	
-8.11411e-05	-12.6163	0.000383872	
8.86667e-05	-10.2764	-0.000415161	
-4.13774e-05	-2.6844	0.000194102	
0.111925	-6.70128	0.0242918	
-0.000225952	-5.22068	0.00106631	
3.04713e-05	-1.59135	-0.000143023	
0.0673749	-7.95852	0.0106625	
0.000151551	-7.54125	-0.000716913	
1.0016e-05	-6.13672	-4.71994e-05	
0.000276712	-11.9173	-0.0013089	
-0.162104	-2.80059	0.0362064	
-0.287102	-2.09999	0.0599576	
-0.0026423	-2.15226	0.00234173	
-0.441557	-0.923638	0.0945849	
-0.0819779	-2.8913	0.0168255	
-0.249749	-0.739595	0.0532788	
0.458057	-2.7699	-0.0975292	
-0.378444	-1.36828	0.0791539	
-0.347548	-1.77263	0.0727326	
0.118219	-3.04491	-0.0235257	
0.700893	-2.29026	-0.151213	
-0.226981	-1.21716	0.0491152	
2.43949	-1.72977	-0.523422	
-0.238889	-2.25877	0.0501147	
-0.0325999	-1.65177	0.00719858	
-0.191165	-2.93262	0.0389248	
-0.328703	-2.25744	0.0705679	
-0.0342582	-1.76958	0.0089966	
4.88033e-05	-2.84981	0.000227784	
4.16779e-05	-1.54867	0.000196917	
-0.0601984	-2.77035	0.0120628	
-4.70471e-05	-2.30386	-0.00022073	
2.4689e-05	-1.90833	0.000115552	
-0.653741	-0.517916	0.138921	
-4.51869e-05	-2.39733	-0.000211678	
2.46042e-07	-1.22754	1.14815e-06	
-8.8271e-05	-0.985256	-0.000413762	
0.274069	-0.134809	0.0584495	
0.214725	-1.02305	0.0452766	
0.224783	-0.581586	0.0479377	
0.257052	-0.857099	0.0544583	
0.239925	-1.76963	0.0518819	
-0.906653	-1.80256	-0.193637	
-1.91782	-1.25377	-0.409869	
0.211213	-1.30466	0.0450841	
0.250677	-0.40936	0.0534345	
0.0982903	-0.216433	0.0209357	
0.107218	-0.749688	0.0228239	
0.142495	-1.59847	0.0288716	
0.276539	-2.0434	0.060158	
-2.23093e-05	-0.669587	0.000104972	
0.148481	-1.54168	0.0325246	
0.142472	-2.08589	0.030245	
0.0909067	-1.93765	0.0197324	
0.000151045	-1.68317	-0.000706628	
-0.0610998	-2.04467	-0.0135045	
-1.33794e-05	-2.08031	6.32969e-05	
1.56633e-05	-1.81537	-7.33397e-05	
-7.49277e-06	-0.486101	3.51486e-05	
0.12696	-1.2049	0.0270171	
-4.13118e-05	-0.95452	0.000194958	
5.81643e-06	-0.30376	-2.73006e-05	
0.0801492	-1.43191	0.0163872	
2.7126e-05	-1.3498	-0.00012832	
1.84414e-06	-1.12989	-8.69033e-06	
4.79301e-05	-2.06423	-0.000226718	
-0.243815	-8.12522	0.0576741	
-0.370791	-5.93617	0.07547	
-0.047546	-5.98759	0.0151283	
-0.634822	-2.49785	0.13625	
-0.0423797	-8.42971	0.00726596	
-0.383284	-1.91929	0.0819933	
0.762521	-7.38502	-0.160947	
-0.531712	-4.07067	0.108887	
-0.441924	-5.12161	0.0910635	
0.169192	-8.22873	-0.0313947	
1.07586	-6.2614	-0.232773	
-0.383	-3.3979	0.0836705	
3.21062	-4.25821	-0.689255	
-0.359203	-6.41854	0.074236	
-0.0669086	-4.86262	0.0150355	
-0.248481	-7.91322	0.0482015	
-0.386166	-7.3551	0.0839096	
-0.0950946	-5.38331	0.0254203	
0.000135995	-7.94126	0.000634741	
0.000124666	-4.63233	0.000589013	
-0.112053	-7.67426	0.0217449	
-0.000144716	-7.08662	-0.000678958	
7.40372e-05	-5.72268	0.000346517	
-0.87169	-1.20288	0.185227	
-0.000139549	-7.40361	-0.00065372	
7.68723e-07	-3.8353	3.58723e-06	
-0.000267186	-2.98225	-0.00125241	
0.181786	0.257932	0.0386998	
0.132864	2.3799	0.0286861	
0.145155	1.30836	0.0307295	
0.174493	1.95657	0.0371351	
0.167217	4.05952	0.0344988	
-0.519685	3.93572	-0.107806	
-1.41139	2.56954	-0.301093	
0.13684	2.97263	0.0281029	
0.170925	0.899337	0.0364806	
0.05271	0.470342	0.011219	
0.0615025	1.72724	0.0128241	
0.0707076	3.85731	0.0191096	
0.209611	4.68135	0.040944	
5.03934e-05	1.5125	-0.000237116	
0.110548	3.57318	0.0203866	
0.123043	4.8812	0.0257564	
0.0618498	4.40638	0.0123787	
-0.000353136	3.93517	0.00165206	
0.00693813	4.55119	0.0026957	
3.15278e-05	4.90212	-0.000149155	
-3.71473e-05	4.30536	0.000173934	
1.707e-05	1.10743	-8.00754e-05	
0.0771463	2.83519	0.0161169	
9.38425e-05	2.16826	-0.000442859	
-1.34368e-05	0.70173	6.30683e-05	
0.0480329	3.37675	0.0117723	
-6.39584e-05	3.1826	0.000302555	
-4.21697e-06	2.5837	1.9872e-05	
-0.000111601	4.80638	0.000527893	
-0.243332	-2.64826	0.0533127	
-0.415687	-2.02903	0.0873816	
-0.0624045	-2.07709	0.0150864	
-0.6883	-0.859004	0.14726	
-0.0430736	-2.75111	0.00858618	
-0.429094	-0.654288	0.0913593	
0.883977	-2.35651	-0.189379	
-0.58949	-1.34295	0.124035	
-0.459471	-1.71823	0.096451	
0.201938	-2.76187	-0.0416195	
1.18999	-1.90284	-0.256251	
-0.435967	-1.14286	0.0936855	
3.44521	-1.2946	-0.738994	
-0.375525	-2.21782	0.0792717	
-0.0832511	-1.64514	0.017927	
-0.272039	-2.73599	0.0562311	
-0.392196	-2.27698	0.0841086	
-0.122986	-1.74497	0.0279232	
4.4098e-05	-2.57505	0.000205822	
4.15088e-05	-1.54238	0.000196118	
-0.164276	-2.62842	0.034307	
-4.72248e-05	-2.31256	-0.000221563	
2.45126e-05	-1.89469	0.000114727	
-0.945797	-0.409021	0.200989	
-4.41937e-05	-2.34464	-0.000207026	
2.47706e-07	-1.23585	1.15592e-06	
-8.49449e-05	-0.948131	-0.000398171	
0.146286	0.104604	0.0311618	
0.102371	0.892797	0.0218944	
0.113756	0.501159	0.0241533	
0.143287	0.750765	0.0304366	
0.143334	1.52883	0.0301799	
-0.378813	1.29427	-0.0795109	
-1.24684	0.834451	-0.266212	
0.110071	1.12951	0.0229695	
0.141119	0.349741	0.030104	
0.0355095	0.18087	0.00755987	
0.0444279	0.659157	0.00933696	
0.0437806	1.38982	0.0109189	
0.200056	1.73065	0.0411355	
1.93028e-05	0.579353	-9.08259e-05	
0.0956547	1.32602	0.0190721	
0.132764	1.71615	0.0279857	
0.0437646	1.65996	0.00902561	
-0.000131599	1.46647	0.000615654	
0.0311236	1.55245	0.00701655	
1.0777e-05	1.67567	-5.09853e-05	
-1.3689e-05	1.58655	6.40954e-05	
6.4714e-06	0.419839	-3.03574e-05	
0.0615002	1.06003	0.0129491	
3.57529e-05	0.82608	-0.000168724	
-5.13506e-06	0.268175	2.41024e-05	
0.0371316	1.25244	0.00847474	
-2.37876e-05	1.18368	0.000112527	
-1.60188e-06	0.98146	7.54871e-06	
-4.00909e-05	1.72662	0.000189637	
-0.268916	-4.14204	0.0599102	
-0.462739	-3.16777	0.096712	
-0.0924798	-3.21141	0.0224671	
-0.792161	-1.30268	0.169548	
-0.0118976	-4.29367	0.00164185	
-0.501799	-0.967255	0.106898	
1.07725	-3.47042	-0.23045	
-0.67605	-2.1781	0.141549	
-0.497776	-2.73292	0.104058	
0.245897	-4.13127	-0.0502281	
1.37703	-2.82107	-0.296679	
-0.529201	-1.78886	0.113961	
3.7746	-1.81878	-0.809725	
-0.434923	-3.4745	0.0914751	
-0.104072	-2.63636	0.0225133	
-0.295659	-4.1186	0.0604451	
-0.400753	-3.86932	0.0862719	
-0.160557	-2.84862	0.0369951	
6.6541e-05	-3.88558	0.000310572	
6.72699e-05	-2.49961	0.000317832	
-0.197366	-4.02744	0.0409726	
-7.77047e-05	-3.80514	-0.000364565	
3.95479e-05	-3.05684	0.000185096	
-1.05024	-0.576451	0.223183	
-7.2621e-05	-3.85281	-0.000340193	
4.10432e-07	-2.04772	1.91527e-06	
-0.000137812	-1.53822	-0.000645981	
0.186653	-0.119957	0.0398103	
0.134111	-0.922041	0.0282169	
0.143602	-0.514754	0.0306447	
0.173342	-0.765102	0.0367105	
0.169724	-1.55861	0.0367932	
-0.527791	-1.27152	-0.11279	
-1.40168	-0.785721	-0.299541	
0.138494	-1.14905	0.0296457	
0.169343	-0.364209	0.0360942	
0.0534941	-0.205747	0.0113954	
0.0627641	-0.678767	0.0133907	
0.0729757	-1.4792	0.0142299	
0.216256	-1.75748	0.0471746	
-1.9739e-05	-0.592443	9.2878e-05	
0.1078	-1.37092	0.0238176	
0.126034	-1.77949	0.0267527	
0.0516249	-1.67442	0.0113107	
0.00013617	-1.51741	-0.000637038	
-0.00712742	-1.54818	-0.00192775	
-1.1221e-05	-1.74471	5.30858e-05	
1.42541e-05	-1.65205	-6.67416e-05	
-6.79115e-06	-0.440582	3.18573e-05	
0.0814512	-1.10165	0.0173605	
-3.63501e-05	-0.839878	0.000171542	
5.68741e-06	-0.297022	-2.6695e-05	
0.0491549	-1.30719	0.00985243	
2.48074e-05	-1.23442	-0.000117351	
1.63352e-06	-1.00084	-7.6978e-06	
4.13326e-05	-1.78009	-0.000195511	
-0.267062	-1.91159	0.0577856	
-0.49336	-1.51401	0.104227	
-0.104952	-1.54783	0.0237674	
-0.836058	-0.620535	0.178751	
-0.00283338	-1.97063	0.000195198	
-0.536023	-0.462329	0.114023	
1.17454	-1.5646	-0.252251	
-0.720177	-1.01495	0.15215	
-0.510736	-1.28851	0.10751	
0.273699	-1.92553	-0.0574779	
1.45778	-1.23244	-0.313651	
-0.572185	-0.842471	0.122596	
3.91962	-0.80047	-0.840627	
-0.450638	-1.66152	0.0954977	
-0.115706	-1.24471	0.024731	
-0.308859	-1.96653	0.0645071	
-0.40015	-1.72865	0.0856847	
-0.180898	-1.31789	0.0398864	
3.02964e-05	-1.76912	0.000141405	
3.15068e-05	-1.17073	0.000148861	
-0.227569	-1.91066	0.0480123	
-3.57583e-05	-1.75106	-0.000167766	
1.84786e-05	-1.42829	8.64854e-05	
-1.10073	-0.278657	0.233917	
-3.29366e-05	-1.74741	-0.000154292	
1.87935e-07	-0.937641	8.76994e-07	
-6.30315e-05	-0.70354	-0.000295454	
0.212024	-0.0775708	0.0452103	
0.153377	-0.574731	0.0323763	
0.163096	-0.327086	0.0347698	
0.192385	-0.485307	0.0407681	
0.184399	-0.966039	0.0397481	
-0.613677	-0.70364	-0.130698	
-1.48762	-0.43587	-0.317844	
0.155124	-0.720987	0.0330423	
0.187398	-0.233391	0.0399489	
0.0645934	-0.12928	0.0137581	
0.0739233	-0.428771	0.0157254	
0.0903348	-0.887059	0.0185058	
0.217375	-1.06756	0.0468888	
-1.25454e-05	-0.376536	5.90301e-05	
0.115965	-0.841434	0.025108	
0.11261	-1.02889	0.0238724	
0.0597389	-1.0349	0.0129235	
8.35404e-05	-0.930932	-0.000390824	
-0.0285682	-0.874047	-0.0062922	
-6.32559e-06	-0.98354	2.99259e-05	
8.67142e-06	-1.00501	-4.06019e-05	
-4.27682e-06	-0.277463	2.00626e-05	
0.0920385	-0.682224	0.0195698	
-2.29784e-05	-0.530923	0.000108439	
3.55396e-06	-0.185604	-1.66812e-05	
0.0557197	-0.800533	0.0114822	
1.52534e-05	-0.759013	-7.21561e-05	
1.02655e-06	-0.628956	-4.83749e-06	
2.4443e-05	-1.0527	-0.00011562	
-0.270952	-2.20921	0.0588473	
-0.52148	-1.76639	0.110061	
-0.12194	-1.79547	0.0276122	
-0.894264	-0.702956	0.1912	
0.0181251	-2.26832	-0.00432053	
-0.575834	-0.512288	0.122496	
1.28757	-1.72853	-0.276489	
-0.771033	-1.21175	0.162751	
-0.529346	-1.52254	0.111333	
0.304638	-2.15805	-0.0639665	
1.55179	-1.36363	-0.33389	
-0.626891	-0.981918	0.134356	
4.07526	-0.859385	-0.874013	
-0.480505	-1.94315	0.101763	
-0.127757	-1.47606	0.0273247	
-0.319001	-2.22847	0.0665102	
-0.397892	-2.12122	0.0852856	
-0.202501	-1.57954	0.0447485	
3.40057e-05	-1.98573	0.000158718	
3.76077e-05	-1.39742	0.000177686	
-0.245635	-2.19327	0.0517869	
-4.30854e-05	-2.10986	-0.000202142	
2.19789e-05	-1.69885	0.000102868	
-1.15475	-0.298151	0.245397	
-3.95406e-05	-2.09778	-0.000185228	
2.26689e-07	-1.13099	1.05784e-06	
-7.45537e-05	-0.832148	-0.000349463	
0.199759	0.0320361	0.0425742	
0.142353	0.311859	0.0302374	
0.152829	0.170579	0.0325168	
0.182286	0.25753	0.0386754	
0.175902	0.525885	0.0374628	
-0.565055	0.377189	-0.119682	
-1.44324	0.225191	-0.308262	
0.145309	0.389274	0.0306433	
0.17776	0.118514	0.0379075	
0.0579322	0.0625231	0.0123368	
0.0674214	0.228393	0.0142652	
0.0803474	0.504227	0.0177851	
0.213937	0.580838	0.0449286	
6.58465e-06	0.197631	-3.09828e-05	
0.112314	0.464931	0.0232793	
0.118287	0.575761	0.0249856	
0.0586532	0.557861	0.0124008	
-4.61808e-05	0.514615	0.000216046	
-0.0129577	0.474091	-0.00261972	
3.56447e-06	0.554224	-1.68632e-05	
-4.81554e-06	0.558119	2.25477e-05	
2.24073e-06	0.14537	-1.05113e-05	
0.0848241	0.374862	0.0179514	
1.22274e-05	0.282517	-5.77032e-05	
-1.84488e-06	0.0963477	8.6593e-06	
0.0516455	0.445369	0.0111898	
-8.4578e-06	0.420864	4.00097e-05	
-5.52262e-07	0.338366	2.60248e-06	
-1.35477e-05	0.583466	6.4083e-05	
-0.266922	-1.2447	0.057245	
-0.541053	-1.02384	0.114675	
-0.130569	-1.04528	0.0288426	
-0.925601	-0.404836	0.197817	
0.0282438	-1.27048	-0.00626498	
-0.598581	-0.296002	0.127266	
1.35384	-0.954058	-0.291096	
-0.8017	-0.689841	0.169817	
-0.538231	-0.87459	0.113531	
0.325139	-1.21786	-0.068909	
1.60218	-0.738264	-0.344572	
-0.657765	-0.56212	0.140707	
4.16008	-0.468214	-0.892126	
-0.492162	-1.12353	0.104553	
-0.135456	-0.847511	0.0288441	
-0.325511	-1.2828	0.0684459	
-0.394716	-1.17456	0.0844051	
-0.215956	-0.897487	0.0469747	
1.88935e-05	-1.10326	8.81833e-05	
2.14835e-05	-0.798281	0.000101503	
-0.261649	-1.25815	0.0554667	
-2.42921e-05	-1.18956	-0.00011397	
1.25607e-05	-0.970873	5.87879e-05	
-1.18624	-0.173759	0.25209	
-2.20916e-05	-1.17204	-0.000103488	
1.27577e-07	-0.636505	5.95336e-07	
-4.1944e-05	-0.468167	-0.000196609	
0.186653	0.0373383	0.0397791	
0.131704	0.31633	0.0279819	
0.141986	0.178378	0.0302072	
0.171906	0.266649	0.0364743	
0.168506	0.524981	0.0358807	
-0.520792	0.339242	-0.110292	
-1.40279	0.205234	-0.299623	
0.136279	0.395712	0.0287297	
0.167693	0.125865	0.0357614	
0.0514383	0.0667882	0.0109538	
0.0611073	0.235737	0.0129257	
0.0710288	0.487009	0.0157919	
0.21563	0.566405	0.0453026	
6.86652e-06	0.206091	-3.23091e-05	
0.108227	0.460557	0.0224221	
0.128578	0.53225	0.0271646	
0.0557396	0.554483	0.0117804	
-4.56135e-05	0.508294	0.000213392	
0.000478536	0.431157	0.000217479	
3.2145e-06	0.499809	-1.52076e-05	
-4.70843e-06	0.545705	2.20461e-05	
2.327e-06	0.150967	-1.0916e-05	
0.078767	0.376087	0.0166672	
1.26133e-05	0.291434	-5.95244e-05	
-1.91009e-06	0.0997534	8.96539e-06	
0.0481591	0.439878	0.0104457	
-8.39626e-06	0.417801	3.97185e-05	
-5.64032e-07	0.345577	2.65794e-06	
-1.28313e-05	0.552613	6.06944e-05	
-0.264006	-1.21552	0.0566065	
-0.557715	-1.0156	0.118227	
-0.139904	-1.03292	0.0308328	
-0.958956	-0.395014	0.204937	
0.0418423	-1.23505	-0.00914771	
-0.620914	-0.28573	0.132008	
1.41853	-0.900157	-0.305035	
-0.831977	-0.695282	0.176246	
-0.548159	-0.875531	0.115631	
0.345054	-1.16307	-0.0732057	
1.65109	-0.696394	-0.355075	
-0.690035	-0.558418	0.147595	
4.23868	-0.433941	-0.908972	
-0.507626	-1.11534	0.107854	
-0.142538	-0.850241	0.0303449	
-0.329737	-1.24082	0.0693688	
-0.390461	-1.19885	0.0835018	
-0.228475	-0.905585	0.0496562	
1.80214e-05	-1.05234	8.4113e-05	
2.16429e-05	-0.804207	0.000102257	
-0.271157	-1.22888	0.0575034	
-2.45437e-05	-1.20189	-0.000115151	
1.26085e-05	-0.97457	5.90117e-05	
-1.21624	-0.165601	0.258466	
-2.22167e-05	-1.17868	-0.000104074	
1.29326e-07	-0.645229	6.03496e-07	
-4.20177e-05	-0.46899	-0.000196954	
0.190969	-0.0132424	0.040709	
0.134703	-0.0856984	0.0285281	
0.144494	-0.0480835	0.0307718	
0.174489	-0.0705411	0.0369997	
0.170693	-0.14218	0.0365573	
-0.533659	-0.0936426	-0.1133	
-1.41347	-0.0542653	-0.301947	
0.139019	-0.106017	0.0294549	
0.169977	-0.035158	0.036242	
0.0531255	-0.0220071	0.0113143	
0.0628572	-0.0632338	0.0133339	
0.0737054	-0.140115	0.0157297	
0.216497	-0.154487	0.0460254	
-1.83108e-06	-0.0549577	8.61579e-06	
0.109062	-0.127582	0.023075	
0.126646	-0.152591	0.0267933	
0.0553874	-0.148636	0.0118338	
1.26203e-05	-0.140635	-5.90413e-05	
-0.00444712	-0.120211	-0.000975222	
-9.35859e-07	-0.145513	4.42748e-06	
1.31076e-06	-0.151917	-6.13734e-06	
-6.50104e-07	-0.0421762	3.04964e-06	
0.0809219	-0.103204	0.0171644	
-3.33792e-06	-0.0771235	1.57522e-05	
5.85302e-07	-0.0305671	-2.74723e-06	
0.0493022	-0.122871	0.0104295	
2.33354e-06	-0.116118	-1.10388e-05	
1.50616e-07	-0.0922811	-7.09762e-07	
3.60893e-06	-0.155428	-1.70709e-05	
				</DataArray>
			</CellData>
			<Points>
				<DataArray type="Float64" Name="Position" NumberOfComponents="3" Format="ascii">
4.05312	4.47557	-0.076282	
2.89974	2.80438	-0.0735465	
3.04384	3.01131	-0.0739966	
1.47472	0.71728	-0.104872	
4.19744	4.68148	-0.0754801	
1.34055	0.504114	-0.11032	
4.63135	5.30777	-0.0758152	
2.03511	1.55657	-0.0839643	
2.46442	2.1777	-0.0767236	
4.34415	4.89093	-0.0782116	
4.78145	5.51232	-0.0703287	
1.75473	1.13766	-0.093393	
4.93123	5.71511	-0.059181	
3.18759	3.21859	-0.0756514	
2.32058	1.96784	-0.0770393	
3.91565	4.26661	-0.0796971	
3.47735	3.64067	-0.0803144	
2.61229	2.38462	-0.078333	
4.49346	5.09834	-0.0809404	
2.18055	1.75932	-0.0824375	
3.77167	4.0579	-0.0804301	
3.33704	3.4274	-0.0800618	
2.75957	2.59168	-0.0779687	
1.21095	0.287738	-0.112616	
3.62914	3.84731	-0.0826854	
1.899	1.34666	-0.0887298	
1.6159	0.926116	-0.102389	
-0.318376	-0.565503	-0.105838	
-1.61717	-2.538	0.0213279	
-0.942677	-1.56518	0.00558653	
-1.34616	-2.14842	0.0180084	
-2.83291	-4.28962	0.00329249	
-3.90554	-5.8415	-0.0864517	
-4.04677	-6.02948	-0.0990474	
-2.02279	-3.12208	0.0197472	
-0.674452	-1.17408	-0.0106392	
-0.400961	-0.783082	-0.0655993	
-1.21114	-1.95528	0.0168716	
-2.56215	-3.89808	0.0109017	
-3.23474	-4.87312	-0.0101843	
-1.07679	-1.76128	0.0112713	
-2.42778	-3.70375	0.0171956	
-3.50395	-5.26302	-0.0280207	
-3.1036	-4.67877	-0.000118659	
-2.69906	-4.09406	0.012686	
-3.77328	-5.64966	-0.0597631	
-3.64131	-5.45647	-0.0376665	
-2.96976	-4.48588	0.00663171	
-0.807138	-1.37023	-0.00159909	
-1.88831	-2.9289	0.0240917	
-1.48039	-2.34366	0.0216778	
-0.53746	-0.97767	-0.0251324	
-2.29215	-3.50986	0.0205686	
-2.15698	-3.31678	0.022438	
-1.7517	-2.73428	0.0248815	
-3.37338	-5.06859	-0.0108913	
3.74093	4.72597	-0.227012	
2.70754	2.9769	-0.206082	
2.83489	3.19473	-0.208248	
1.39651	0.802723	-0.16406	
3.86593	4.94278	-0.223212	
1.27019	0.582591	-0.156862	
4.24273	5.60083	-0.201314	
1.92039	1.67441	-0.18239	
2.31277	2.32285	-0.194502	
3.99166	5.1636	-0.2183	
4.36983	5.81718	-0.18108	
1.65976	1.2393	-0.173752	
4.49907	6.02993	-0.151425	
2.96162	3.41229	-0.210763	
2.17925	2.1049	-0.186933	
3.61363	4.50874	-0.225766	
3.22498	3.85275	-0.221948	
2.44413	2.54058	-0.200678	
4.1173	5.3828	-0.210406	
2.05009	1.88869	-0.187202	
3.48387	4.2913	-0.223133	
3.09384	3.63217	-0.21617	
2.57327	2.75863	-0.201923	
1.14726	0.361003	-0.143237	
3.35372	4.07228	-0.223756	
1.79074	1.45866	-0.176444	
1.52897	1.02003	-0.17252	
-0.32766	-0.584029	-0.116423	
-1.48196	-2.64954	0.0795201	
-0.879588	-1.62811	0.00817969	
-1.23615	-2.24207	0.0524125	
-2.59873	-4.47243	0.135461	
-3.56741	-6.08927	0.0408909	
-3.69074	-6.28793	0.00389693	
-1.85583	-3.25761	0.109087	
-0.646068	-1.21592	-0.0207989	
-0.403165	-0.807354	-0.0735911	
-1.11595	-2.03888	0.0393806	
-2.35246	-4.06438	0.132264	
-2.9647	-5.07997	0.135444	
-0.997431	-1.83462	0.0231604	
-2.22824	-3.8622	0.129159	
-3.20781	-5.48622	0.12042	
-2.84336	-4.87778	0.138427	
-2.47485	-4.26849	0.13491	
-3.44727	-5.8895	0.0764462	
-3.32826	-5.68788	0.103016	
-2.72126	-4.67621	0.137181	
-0.762285	-1.42198	-0.00685487	
-1.73197	-3.05544	0.101493	
-1.35814	-2.44577	0.0662995	
-0.525115	-1.01031	-0.0359318	
-2.10414	-3.65991	0.123514	
-1.98028	-3.45878	0.116182	
-1.60677	-2.85269	0.0905057	
-3.08633	-5.28345	0.130257	
3.34591	4.96687	-0.235912	
2.43458	3.15201	-0.23269	
2.54729	3.37775	-0.233311	
1.29424	0.889081	-0.201547	
3.4576	5.19141	-0.230309	
1.18339	0.659914	-0.189308	
3.7976	5.87202	-0.207396	
1.74897	1.79757	-0.222363	
2.08972	2.47211	-0.228713	
3.57026	5.41997	-0.224525	
3.91408	6.09582	-0.188515	
1.52359	1.34478	-0.215201	
4.03312	6.31596	-0.160857	
2.65894	3.60359	-0.233517	
1.97379	2.24524	-0.223588	
3.23299	4.74181	-0.235979	
2.88934	4.06127	-0.238006	
2.20453	2.69836	-0.232371	
3.68324	5.64686	-0.216343	
1.86201	2.02048	-0.226553	
3.11914	4.51573	-0.235922	
2.77472	3.83238	-0.235952	
2.3176	2.92464	-0.230845	
1.07438	0.431217	-0.166581	
3.00374	4.28855	-0.237966	
1.63697	1.57305	-0.21742	
1.40965	1.11594	-0.211923	
-0.334132	-0.605282	-0.126956	
-1.34511	-2.74364	0.0522508	
-0.81542	-1.68537	0.00258124	
-1.13037	-2.32069	0.0351677	
-2.32684	-4.63818	0.0685292	
-3.19441	-6.31742	-0.00394922	
-3.30916	-6.5228	-0.0226923	
-1.67305	-3.37568	0.0664267	
-0.607567	-1.2594	-0.0251641	
-0.398421	-0.834528	-0.0828478	
-1.02449	-2.11019	0.0266657	
-2.10891	-4.21454	0.0719429	
-2.64921	-5.26923	0.0596514	
-0.919838	-1.89911	0.0147425	
-1.99966	-4.0043	0.0720922	
-2.86502	-5.69135	0.044375	
-2.54202	-5.05933	0.0645513	
-2.21721	-4.42636	0.0711628	
-3.0825	-6.11032	0.0155643	
-2.9736	-5.90088	0.0318751	
-2.43477	-4.84986	0.0663106	
-0.710769	-1.47243	-0.0104204	
-1.56428	-3.16562	0.0637588	
-1.23715	-2.53223	0.0442078	
-0.501166	-1.04602	-0.0421583	
-1.89119	-3.79405	0.0711925	
-1.78244	-3.58498	0.0688164	
-1.45457	-2.95486	0.058214	
-2.75695	-5.48066	0.0529235	
2.95737	5.17777	-0.263514	
2.16793	3.30498	-0.259179	
2.26572	3.53784	-0.260384	
1.18228	0.970066	-0.220151	
3.0544	5.40925	-0.258303	
1.08793	0.733283	-0.205886	
3.34859	6.11143	-0.232572	
1.5735	1.90734	-0.245587	
1.86842	2.6035	-0.253833	
3.15201	5.64486	-0.251892	
3.45099	6.34251	-0.212383	
1.37903	1.44065	-0.236397	
3.55573	6.57003	-0.183264	
2.36254	3.77085	-0.26043	
1.76903	2.36943	-0.248581	
2.85982	4.94481	-0.263266	
2.56253	4.24316	-0.265621	
1.96781	2.8368	-0.257853	
3.24958	5.87901	-0.242721	
1.67104	2.13749	-0.251252	
2.76108	4.71202	-0.262961	
2.46308	4.00656	-0.263974	
2.06643	3.07023	-0.256655	
0.994967	0.497729	-0.179699	
2.66081	4.47761	-0.265106	
1.47801	1.67565	-0.240043	
1.28079	1.20441	-0.231213	
-0.338997	-0.628406	-0.13723	
-1.21941	-2.82446	0.00400888	
-0.753462	-1.73635	-0.0114601	
-1.03159	-2.38878	0.00130112	
-2.07157	-4.78143	-0.0242062	
-2.81695	-6.51727	-0.0677675	
-2.91542	-6.72994	-0.0711191	
-1.50437	-3.47686	-0.00203016	
-0.57008	-1.29894	-0.0337786	
-0.39666	-0.859589	-0.0922225	
-0.938396	-2.17255	-2.14756e-05	
-1.88244	-4.34412	-0.0150453	
-2.34968	-5.4333	-0.0380099	
-0.846212	-1.9555	-0.00501731	
-1.78825	-4.12671	-0.0112846	
-2.53533	-5.86945	-0.0491539	
-2.25791	-5.2164	-0.0327074	
-1.97695	-4.56259	-0.0189905	
-2.72158	-6.30265	-0.0613952	
-2.62838	-6.08622	-0.0553107	
-2.1651	-5.00009	-0.0289559	
-0.660499	-1.51776	-0.0204567	
-1.40983	-3.26038	0.00117587	
-1.12519	-2.60643	0.00308501	
-0.47958	-1.07871	-0.0517422	
-1.69408	-3.90949	-0.00807123	
-1.59967	-3.69319	-0.00527162	
-1.3149	-3.04244	0.00280402	
-2.4427	-5.65172	-0.0434536	
2.55263	5.36258	-0.253371	
1.88796	3.44104	-0.251364	
1.97053	3.68006	-0.25218	
1.06349	1.04475	-0.222376	
2.63455	5.59995	-0.248963	
0.985497	0.801984	-0.209795	
2.8833	6.31986	-0.227988	
1.38987	2.00628	-0.242928	
1.63645	2.72151	-0.247774	
2.71689	5.84147	-0.243479	
2.9711	6.55722	-0.210625	
1.22693	1.52743	-0.235648	
3.06105	6.79142	-0.185454	
2.05192	3.9191	-0.251275	
1.55275	2.48082	-0.244316	
2.47058	5.12403	-0.252748	
2.21977	4.40384	-0.25506	
1.71992	2.96069	-0.250959	
2.79926	6.08148	-0.236079	
1.47083	2.24287	-0.24782	
2.38751	4.88471	-0.252435	
2.13612	4.16124	-0.254111	
1.80163	3.19969	-0.249163	
0.909785	0.560048	-0.185143	
2.30253	4.64421	-0.253465	
1.30927	1.7689	-0.238604	
1.14497	1.28521	-0.231242	
-0.344249	-0.651767	-0.141722	
-1.08003	-2.90007	-0.0193843	
-0.689875	-1.78301	-0.0300617	
-0.92337	-2.45255	-0.0215068	
-1.79358	-4.91059	-0.0380444	
-2.42202	-6.69196	-0.0745939	
-2.5061	-6.9108	-0.080695	
-1.31759	-3.57068	-0.023778	
-0.537206	-1.33403	-0.0493397	
-0.399394	-0.882841	-0.10317	
-0.845143	-2.2306	-0.0220572	
-1.63451	-4.46143	-0.0312299	
-2.02719	-5.57956	-0.0474826	
-0.767754	-2.00803	-0.0254246	
-1.55528	-4.2382	-0.0288499	
-2.18353	-6.02703	-0.0552808	
-1.95013	-5.35702	-0.0437221	
-1.714	-4.68585	-0.0338981	
-2.34111	-6.47151	-0.0671935	
-2.26215	-6.24947	-0.0606375	
-1.87209	-5.13499	-0.0412447	
-0.612166	-1.55855	-0.0372905	
-1.23875	-3.34818	-0.021058	
-1.00143	-2.67605	-0.0203866	
-0.463831	-1.10809	-0.0662985	
-1.47591	-4.01509	-0.0270261	
-1.39694	-3.79285	-0.025326	
-1.1598	-3.12414	-0.0202422	
-2.10551	-5.80367	-0.0516146	
2.1404	5.51956	-0.249749	
1.60482	3.55706	-0.24507	
1.67068	3.80135	-0.246013	
0.942907	1.11126	-0.216363	
2.20668	5.76186	-0.246291	
0.88089	0.864005	-0.206471	
2.40731	6.49662	-0.227709	
1.20351	2.09286	-0.235415	
1.40284	2.82279	-0.240956	
2.2727	6.00835	-0.241553	
2.4795	6.73936	-0.211862	
1.07296	1.60309	-0.22707	
2.55352	6.97935	-0.189381	
1.73645	4.04537	-0.244454	
1.33563	2.5771	-0.237715	
2.07464	5.27611	-0.248587	
1.87185	4.54079	-0.249291	
1.47001	3.06744	-0.243787	
2.33926	6.25323	-0.234782	
1.26909	2.33364	-0.240718	
2.00821	5.03194	-0.247404	
1.80423	4.29269	-0.248596	
1.53616	3.31157	-0.242763	
0.821083	0.617698	-0.185432	
1.939	4.78621	-0.248144	
1.13952	1.84972	-0.231409	
1.00785	1.35656	-0.223916	
-0.349503	-0.674982	-0.140404	
-0.930328	-2.96798	-0.0263785	
-0.623155	-1.82568	-0.0485216	
-0.8058	-2.5105	-0.0338016	
-1.5054	-5.02135	-0.0268349	
-2.01687	-6.84036	-0.0667414	
-2.08619	-7.06437	-0.0784728	
-1.12078	-3.65328	-0.0229408	
-0.505253	-1.36657	-0.0679742	
-0.400261	-0.906531	-0.115869	
-0.74414	-2.28341	-0.0371531	
-1.37721	-4.56275	-0.0232677	
-1.69526	-5.70448	-0.0334592	
-0.683736	-2.05578	-0.0424641	
-1.31264	-4.3348	-0.0225249	
-1.82224	-6.16126	-0.0405247	
-1.63282	-5.47735	-0.0302529	
-1.44095	-4.79198	-0.0244497	
-1.95023	-6.61518	-0.0553306	
-1.88623	-6.38833	-0.047184	
-1.56933	-5.25054	-0.0288977	
-0.562775	-1.59604	-0.0561961	
-1.05717	-3.42584	-0.0226161	
-0.868019	-2.73886	-0.0300428	
-0.449229	-1.13638	-0.0836049	
-1.24892	-4.10676	-0.0223996	
-1.18487	-3.8801	-0.0229399	
-0.993865	-3.19705	-0.0243225	
-1.75884	-5.93326	-0.0364914	
1.71809	5.64882	-0.23535	
1.31453	3.65598	-0.227802	
1.36375	3.90344	-0.227657	
0.820904	1.16925	-0.204743	
1.76848	5.89472	-0.232844	
0.774667	0.918745	-0.197712	
1.92003	6.64091	-0.219167	
1.01558	2.16554	-0.219672	
1.16507	2.90873	-0.224485	
1.81784	6.14474	-0.229646	
1.97647	6.88824	-0.206129	
0.917737	1.66835	-0.212693	
2.03377	7.13284	-0.187935	
1.41235	4.1517	-0.227119	
1.11434	2.6586	-0.22173	
1.6678	5.40131	-0.233553	
1.51275	4.65433	-0.232046	
1.21471	3.15723	-0.226002	
1.8679	6.39368	-0.224264	
1.0645	2.41085	-0.224547	
1.61576	5.15273	-0.231587	
1.46297	4.40216	-0.231279	
1.2645	3.40567	-0.225641	
0.730194	0.668496	-0.183583	
1.56354	4.90308	-0.23075	
0.967592	1.91988	-0.216478	
0.868783	1.41849	-0.210429	
-0.3538	-0.698012	-0.137827	
-0.780412	-3.02495	-0.0401304	
-0.555219	-1.8641	-0.0668257	
-0.688066	-2.55964	-0.0485917	
-1.21434	-5.11241	-0.0366098	
-1.60232	-6.96111	-0.072105	
-1.65683	-7.18935	-0.0852911	
-0.924248	-3.72131	-0.0341991	
-0.472936	-1.39743	-0.0878621	
-0.39493	-0.931405	-0.126667	
-0.642558	-2.32902	-0.0532315	
-1.11682	-4.64602	-0.0337171	
-1.35615	-5.80666	-0.0413274	
-0.598747	-2.09744	-0.0595996	
-1.06815	-4.41423	-0.0332625	
-1.45193	-6.27069	-0.0476135	
-1.30927	-5.57583	-0.0391107	
-1.16494	-4.87913	-0.0346714	
-1.55006	-6.73195	-0.0606929	
-1.50097	-6.50137	-0.0532483	
-1.26156	-5.34542	-0.037968	
-0.512972	-1.63045	-0.0752506	
-0.876204	-3.49022	-0.0349453	
-0.73407	-2.79211	-0.0440087	
-0.433411	-1.16439	-0.103698	
-1.02086	-4.18274	-0.0335626	
-0.972819	-3.95204	-0.0341918	
-0.828206	-3.25773	-0.0371846	
-1.40405	-6.0391	-0.0439756	
1.28709	5.74812	-0.219869	
1.02273	3.73487	-0.208546	
1.05375	3.98457	-0.209363	
0.697367	1.2189	-0.190561	
1.32059	5.99779	-0.218354	
0.666941	0.965705	-0.186935	
1.42225	6.75215	-0.209836	
0.826206	2.22625	-0.20139	
0.924526	2.97811	-0.206233	
1.35418	6.25109	-0.217009	
1.46115	7.00198	-0.199635	
0.760812	1.72392	-0.196257	
1.50273	7.24969	-0.185614	
1.08655	4.23526	-0.208897	
0.889861	2.72475	-0.203137	
1.25417	5.49743	-0.217755	
1.1506	4.74367	-0.214048	
0.958223	3.23028	-0.206707	
1.38766	6.50138	-0.213038	
0.857856	2.47465	-0.205724	
1.21989	5.2459	-0.215252	
1.11907	4.48868	-0.213562	
0.989814	3.48142	-0.207257	
0.637317	0.713054	-0.180805	
1.185	4.99462	-0.213807	
0.794533	1.97647	-0.198153	
0.729293	1.47058	-0.19505	
-0.356607	-0.721226	-0.136907	
-0.633528	-3.0707	-0.0569995	
-0.491061	-1.89775	-0.0924623	
-0.574107	-2.60024	-0.0669587	
-0.920417	-5.18366	-0.0531267	
-1.18054	-7.05314	-0.0803399	
-1.21901	-7.28385	-0.0944308	
-0.727644	-3.77506	-0.0506686	
-0.439584	-1.42671	-0.117311	
-0.384732	-0.956452	-0.134478	
-0.544922	-2.36716	-0.07325	
-0.856136	-4.71167	-0.0501518	
-1.01512	-5.88485	-0.0562528	
-0.517988	-2.13333	-0.0818516	
-0.824277	-4.47682	-0.0499633	
-1.07893	-6.35453	-0.0601297	
-0.983466	-5.65166	-0.0549526	
-0.888087	-4.94725	-0.0512127	
-1.14513	-6.82145	-0.0700555	
-1.11194	-6.58833	-0.0640128	
-0.951846	-5.41876	-0.0542383	
-0.465359	-1.66203	-0.104465	
-0.695291	-3.54173	-0.0515855	
-0.603475	-2.83524	-0.0612035	
-0.412333	-1.19175	-0.125207	
-0.79241	-4.24282	-0.05039	
-0.760251	-4.00907	-0.0502374	
-0.664508	-3.30593	-0.053906	
-1.04697	-6.12	-0.057844	
0.866297	5.80566	-0.191783	
0.735915	3.78466	-0.184271	
0.750908	4.03493	-0.184434	
0.57529	1.25497	-0.175476	
0.882488	6.05605	-0.190878	
0.560015	1.00143	-0.173985	
0.932171	6.81459	-0.187956	
0.638942	2.26728	-0.180414	
0.687497	3.02317	-0.182919	
0.898353	6.31095	-0.190488	
0.95206	7.06638	-0.182746	
0.606634	1.76236	-0.178397	
0.974428	7.31752	-0.176984	
0.767303	4.28585	-0.183456	
0.670364	2.76899	-0.181015	
0.849371	5.55345	-0.189874	
0.798386	4.79595	-0.18752	
0.704385	3.27735	-0.182929	
0.915293	6.56334	-0.188318	
0.654455	2.51736	-0.183412	
0.833424	5.30128	-0.188191	
0.78278	4.54069	-0.187068	
0.719556	3.53046	-0.182567	
0.545259	0.747213	-0.172259	
0.81585	5.04758	-0.186954	
0.622945	2.0159	-0.178557	
0.590849	1.50828	-0.177883	
-0.356962	-0.744462	-0.138121	
-0.497127	-3.10287	-0.102182	
-0.42691	-1.92498	-0.125005	
-0.468445	-2.63035	-0.110243	
-0.637125	-5.22481	-0.0927473	
-0.765601	-7.1059	-0.106956	
-0.785145	-7.3388	-0.116178	
-0.543152	-3.81043	-0.0949774	
-0.399708	-1.45248	-0.133842	
-0.371203	-0.980367	-0.137753	
-0.454073	-2.39597	-0.114836	
-0.605529	-4.75175	-0.0920785	
-0.683403	-5.92973	-0.0938063	
-0.440583	-2.16132	-0.119893	