<VTKFile type="UnstructuredGrid" version="0.1" byte_order="LittleEndian">
	<UnstructuredGrid>
		<Piece NumberOfPoints="1119" NumberOfCells="1998">
			<CellData Scalars="scalars">
				<DataArray type="Float64" Name="Doublet Strengths" NumberOfComponents="1" Format="ascii">
-0.178326	
0.454612	
0.0498899	
0.528352	
0.532502	
0.254725	
0.285078	
-0.0744808	
0.363883	
-0.0234685	
-0.306663	
0.252886	
1.22456	
10.8295	
1.80217	
3.73561	
6.0795	
3.32248	
0.878916	
0.946983	
3.59275	
0.506485	
4.21257	
11.1869	
9.54977	
14.5083	
10.1088	
3.84423	
15.0549	
1.27479	
4.89432	
9.73346	
12.5547	
11.9219	
22.6588	
19.1295	
16.9384	
16.2563	
7.88963	
4.85755	
7.43622	
14.1345	
19.4027	
11.9491	
10.9288	
22.5068	
2.68738	
17.4231	
16.0876	
1.76683	
22.8664	
5.80341	
4.44319	
12.2275	
9.97617	
13.5176	
11.5042	
0.963695	
1.64545	
4.10178	
11.5833	
8.94668	
10.9728	
10.6855	
10.3648	
12.3686	
10.6153	
16.1957	
15.7052	
9.15397	
12.5811	
17.0464	
12.8401	
14.3123	
10.3206	
15.7097	
10.8474	
6.76829	
3.18931	
3.26954	
2.74654	
9.56042	
10.4859	
7.0466	
8.97423	
17.6473	
4.79301	
10.3076	
12.4296	
12.1152	
18.6131	
13.6776	
13.3313	
5.65258	
12.1061	
21.3761	
7.01261	
7.81933	
10.4608	
27.0058	
26.5491	
13.2474	
13.0945	
12.0788	
19.4757	
11.3954	
13.1162	
12.3631	
3.63772	
1.30243	
13.5212	
15.0988	
17.2295	
16.3412	
15.8977	
15.6116	
14.4304	
15.9193	
23.9185	
21.6795	
16.7976	
16.3169	
14.7975	
25.6499	
10.5424	
10.0984	
10.384	
5.86909	
6.65363	
6.20483	
23.8945	
25.3077	
17.8265	
7.61066	
8.19558	
1.96117	
2.64834	
16.0719	
14.7491	
12.8879	
3.24428	
11.7401	
12.0017	
10.7855	
10.9432	
15.2064	
12.7222	
12.021	
12.2461	
5.7693	
5.08625	
8.23504	
7.79561	
11.6303	
11.9832	
10.7862	
6.01442	
5.1683	
9.86885	
8.67367	
10.3178	
26.9025	
24.783	
18.156	
17.1776	
15.6528	
17.9252	
8.49205	
16.9296	
19.8752	
16.1035	
11.2765	
24.0889	
3.15901	
3.20517	
2.45954	
13.9433	
12.4879	
2.97687	
23.4825	
8.05837	
22.6615	
23.7319	
2.03998	
14.3833	
14.178	
4.11833	
3.83758	
13.3307	
20.7889	
17.8327	
21.5598	
17.9216	
20.6587	
17.9236	
24.5083	
24.6066	
8.7169	
8.10698	
9.20554	
13.7751	
11.6925	
13.4832	
11.7619	
17.9102	
25.4945	
8.52856	
8.61685	
13.1612	
13.035	
10.9956	
11.9972	
20.4655	
21.149	
15.8285	
19.4775	
4.26548	
16.5402	
22.7034	
15.8355	
15.1762	
13.2666	
9.31387	
7.87705	
6.19612	
7.07538	
8.92019	
10.2758	
10.3385	
9.00392	
9.54893	
6.37391	
6.52183	
5.97096	
5.60718	
5.93728	
5.28331	
22.3461	
14.2451	
15.7585	
17.0225	
16.9502	
6.74161	
7.29284	
16.0634	
5.16854	
5.75191	
6.21304	
24.939	
20.9892	
23.0963	
9.36982	
10.1827	
17.4982	
11.5815	
12.1848	
11.7269	
17.1167	
12.1977	
14.1868	
1.22276	
1.08233	
17.662	
16.0383	
24.7898	
7.70222	
6.30315	
7.40737	
23.2964	
22.1562	
24.0779	
15.0864	
14.7884	
16.5044	
6.46109	
7.23258	
12.0022	
17.2149	
12.0375	
15.8564	
18.7613	
19.0263	
19.5077	
2.07655	
1.76943	
1.58949	
22.9425	
21.1481	
25.5629	
25.8332	
27.4399	
24.5189	
17.8626	
18.5435	
19.4145	
17.9009	
8.29041	
6.82653	
18.9636	
21.8607	
19.6952	
19.3687	
8.37244	
9.12498	
8.28254	
23.0157	
20.9029	
18.2451	
20.3139	
27.8271	
25.0084	
26.2484	
2.06241	
1.71756	
2.34193	
13.5827	
2.18954	
20.0766	
16.8026	
15.0987	
12.6618	
18.0423	
17.6046	
15.7216	
18.6297	
24.6353	
27.9864	
26.2839	
24.7436	
27.4994	
27.4533	
25.6051	
1.8454	
2.14185	
11.033	
10.8841	
10.2203	
11.7505	
5.50541	
6.1693	
6.2365	
6.36869	
2.10064	
2.23877	
2.84234	
17.1655	
18.9823	
7.48857	
6.5202	
7.23076	
19.8267	
20.4524	
20.3271	
17.7993	
1.55868	
1.23687	
1.6506	
1.0177	
3.55202	
3.26262	
7.27993	
7.14661	
19.5441	
18.3616	
14.5083	
15.4356	
4.53195	
3.92845	
18.4323	
21.4107	
22.0144	
21.0102	
23.6639	
22.4912	
7.71969	
7.73453	
6.45843	
7.95469	
14.1236	
15.2224	
23.8458	
23.9391	
3.86593	
3.2703	
17.6559	
18.9175	
2.2029	
9.29931	
8.85917	
13.3302	
12.0777	
15.4705	
5.6123	
21.5505	
22.9298	
23.8774	
4.90711	
5.28616	
9.73486	
10.6231	
6.24744	
17.7789	
17.1246	
4.64119	
21.9419	
22.7359	
25.0354	
25.9719	
24.1767	
19.6709	
20.6156	
21.4292	
5.16307	
5.21114	
5.02896	
4.32608	
25.1795	
23.671	
26.425	
5.14026	
4.65562	
4.94768	
4.36605	
2.68294	
2.42345	
2.77729	
2.4184	
25.3917	
24.0317	
23.3749	
23.2035	
20.9486	
23.1097	
20.7199	
22.8594	
4.64639	
3.95764	
4.7539	
2.59398	
2.75952	
4.17113	
4.30862	
3.69117	
27.2034	
25.8607	
27.9942	
26.1838	
9.80301	
9.2945	
8.38056	
8.96351	
9.24255	
8.34717	
8.37978	
7.23513	
8.72845	
6.6537	
6.82536	
23.7025	
21.919	
23.9151	
26.4947	
25.0565	
26.809	
23.6212	
22.7135	
20.307	
23.1951	
-0.481537	
-3.44336	
-6.21467	
-0.786345	
-8.36822	
-5.85153	
-1.03933	
-3.18112	
-10.1501	
-3.11552	
-8.22632	
-4.85489	
-14.3049	
-2.71547	
-29.3505	
-16.5826	
-28.783	
-29.1513	
-26.9899	
-24.2493	
-21.6712	
-20.1977	
-18.6498	
-18.1142	
-12.1017	
-1.16203	
-7.01739	
-6.05718	
-9.44709	
-19.1008	
-22.9811	
-19.1388	
-16.976	
-23.8676	
-31.082	
-1.36489	
2.72285	
-30.1637	
-22.9242	
-2.50448	
-1.39491	
-2.07748	
-2.4002	
-29.8246	
-22.4623	
-7.06018	
-7.31133	
-7.16321	
-8.50392	
-9.4584	
-12.0642	
-10.593	
-14.3633	
-17.0167	
-16.7586	
-15.527	
-18.8205	
-17.7831	
-14.8232	
-18.6205	
-20.2518	
-21.5661	
-20.6163	
-21.7804	
-27.4744	
-25.1636	
-31.4779	
-29.113	
-31.4398	
-22.4848	
-5.9392	
-14.5145	
-13.2477	
-13.2403	
-28.3225	
-30.1386	
-27.7591	
-24.2835	
-1.22955	
-0.579259	
-0.671649	
-1.43695	
-8.88593	
-0.229926	
-3.27187	
-0.831655	
-0.118401	
0.269949	
-1.90808	
-2.50433	
-0.773101	
1.11521	
-16.4626	
-0.772292	
-0.226766	
-1.05646	
-3.1594	
-1.33026	
-0.207395	
-6.15238	
-0.69451	
1.75657	
-11.9095	
-0.315227	
-4.71708	
-3.30629	
-3.9941	
0.489435	
-10.4131	
-9.60988	
-8.97867	
-20.1456	
-15.6668	
-8.11705	
-8.11796	
-24.8585	
-22.3705	
-20.37	
-17.0391	
-26.8056	
-26.2634	
-15.3999	
-3.06324	
-11.7855	
-3.19504	
-0.628531	
-9.82032	
-12.1418	
-10.8018	
-8.57639	
-21.0038	
-17.0486	
-1.10751	
-1.4168	
-11.5658	
-27.3128	
-17.0012	
-17.2306	
-18.8318	
-26.9824	
-26.8594	
-4.5646	
-5.86811	
-5.69016	
-1.77622	
-12.8017	
-5.9388	
-9.25188	
-10.6189	
-7.57847	
-7.60656	
-6.64676	
-8.2484	
-10.2709	
-16.9301	
-17.4017	
-17.6953	
-18.0519	
-20.3196	
-2.7075	
-2.35522	
-2.16403	
-19.7572	
-2.04134	
-2.26225	
-9.96449	
-9.72097	
-10.6188	
-6.72413	
-31.0317	
-12.007	
-11.574	
-14.0979	
-14.2513	
-24.2251	
-22.1352	
-25.2605	
-8.85661	
-7.21678	
-9.38089	
-9.56746	
-10.3188	
-10.9554	
-10.9089	
-29.78	
-30.9325	
-22.1294	
-11.7784	
-12.1536	
-6.42081	
-5.48837	
-8.34661	
-7.7708	
-8.52167	
-0.941706	
-1.17744	
-0.510706	
-0.600179	
-11.734	
0.310955	
-3.80293	
-1.87526	
-23.7191	
-21.3481	
-24.1046	
-5.65436	
-1.60079	
-0.546132	
0.429359	
-0.550603	
-0.347573	
-1.47661	
-1.04583	
-7.19552	
-7.45316	
-6.15059	
-0.916638	
-3.40171	
-4.37042	
-3.20045	
-8.77006	
-10.5966	
-12.5213	
-12.2331	
-4.24647	
-3.74552	
-6.04682	
-5.60124	
-25.671	
-13.0015	
-4.78008	
1.95379	
-15.7089	
-3.98077	
-16.2591	
-22.0875	
-1.10585	
-2.2328	
-0.198564	
-13.2994	
-1.33682	
-0.837252	
-28.3933	
-26.948	
-29.4321	
1.24677	
-8.24638	
-3.53356	
-19.7693	
-23.6694	
-19.4491	
-24.07	
-1.13429	
-0.375539	
-2.84353	
-0.99016	
-4.35728	
-3.51929	
-2.87869	
-0.201829	
-2.6402	
-3.59986	
-11.946	
-2.94884	
-3.03907	
-21.5586	
-22.9652	
-19.9335	
1.01811	
-17.6049	
-3.55532	
0.87978	
-4.16924	
-2.58208	
-9.43875	
-14.5961	
-11.5102	
-15.691	
-10.5222	
-2.47412	
-3.82902	
1.86245	
0.32149	
-1.24282	
-13.5009	
-14.7575	
-15.8998	
-4.4305	
0.214386	
-1.74096	
-22.2128	
-22.9583	
-30.1534	
-4.4267	
-11.6868	
1.22559	
-4.3443	
-2.66739	
1.99664	
-26.4496	
-26.6458	
-16.0442	
-2.9084	
-1.12958	
-4.75988	
-16.4739	
-13.7836	
-15.6764	
-28.9906	
-28.5503	
-1.62766	
-2.25408	
-6.31304	
-9.65502	
-22.9844	
-22.6222	
-0.61257	
-17.3476	
0.479115	
-4.28646	
-0.83347	
-1.04731	
-5.44714	
-5.04107	
-4.86662	
-4.55066	
-3.79609	
-0.247656	
-2.03734	
-7.11939	
0.203462	
-12.4572	
-11.0321	
-8.12999	
-6.07981	
-12.8564	
-13.1772	
-4.08605	
1.90114	
-14.2948	
-2.12251	
-2.52947	
0.286435	
-7.13516	
-0.747672	
-13.4548	
-20.668	
-21.5731	
-25.1468	
-1.87084	
-1.18552	
-24.9656	
-25.2103	
-0.784449	
0.66473	
-2.83369	
-12.3586	
-15.753	
-13.8707	
-13.4346	
-11.4906	
-28.7528	
-28.7388	
0.154913	
-4.87742	
-1.66147	
-13.7506	
-3.5762	
-3.60751	
-4.05453	
-4.20981	
-17.7793	
-17.5804	
-21.0892	
-19.6909	
-15.0548	
-12.4824	
-19.807	
-16.7866	
-19.9348	
-19.277	
-14.7961	
-12.6111	
-1.16855	
-11.5838	
-10.4008	
1.31487	
-3.26226	
-30.7128	
-28.674	
1.3696	
-11.4032	
-2.05361	
-0.272063	
-0.822076	
-0.536158	
-1.26312	
-20.674	
-6.15331	
-4.12143	
-4.84983	
-3.51236	
-0.955558	
-0.770649	
-26.5626	
-27.8575	
-0.979704	
-2.97986	
-6.37028	
-5.64684	
-2.44456	
-0.55037	
-9.38974	
-12.8496	
-12.3704	
-15.0495	
-1.36944	
-1.87691	
-1.87346	
-1.37539	
-1.17285	
-19.85	
-23.5336	
-21.3946	
-23.0337	
-13.226	
-21.4804	
-9.77142	
-11.7268	
-3.60262	
-1.12531	
-1.89322	
0.44617	
-4.68722	
-3.6209	
-5.15856	
-4.3114	
-1.03884	
-3.11905	
-3.2107	
3.75338	
-0.537269	
-9.19158	
-1.24549	
-11.5693	
-0.343378	
-10.4752	
1.47341	
-2.9347	
-1.33144	
-7.3498	
-0.983809	
-3.99667	
0.596608	
-3.62169	
1.09409	
-2.37589	
0.431588	
-4.56007	
-1.43017	
-3.59582	
-0.443433	
1.26436	
-7.23126	
2.78658	
3.50346	
1.06852	
-1.07179	
1.03426	
-1.81322	
0.297798	
-2.01956	
1.54959	
-2.44801	
-3.35077	
-0.585549	
-0.770149	
0.581011	
1.39345	
-0.246119	
1.34559	
1.99475	
1.9653	
0.678735	
0.381684	
-0.449791	
-1.06921	
0.988971	
-0.497532	
-1.68825	
-1.11879	
0.363636	
53.391	
7.25152	
73.863	
53.4415	
55.4027	
67.2852	
5.84494	
25.9734	
21.9607	
72.7263	
7.69928	
17.3354	
35.8859	
67.2184	
63.5861	
25.2901	
64.1768	
28.8316	
37.3484	
48.1228	
36.075	
26.5632	
52.1107	
36.084	
46.3648	
50.4961	
70.388	
46.091	
71.7612	
68.5209	
51.9113	
58.3767	
30.5303	
22.7179	
44.9753	
35.601	
24.5088	
31.9029	
15.6029	
13.225	
43.7304	
58.4722	
39.979	
21.0277	
59.4719	
60.2953	
57.4233	
28.4969	
40.3892	
36.4742	
38.8586	
49.2892	
53.9388	
11.6998	
55.0142	
43.2012	
30.2284	
19.3852	
47.1836	
53.5302	
25.1234	
27.444	
21.16	
25.0728	
52.5685	
45.4571	
30.7099	
38.69	
31.6717	
39.1403	
23.3517	
43.9919	
42.6227	
36.8616	
37.852	
54.2208	
42.2238	
16.7305	
30.4341	
19.3112	
25.8129	
47.2396	
62.6096	
44.1853	
40.7865	
20.3774	
20.8638	
28.0644	
46.6828	
32.1022	
34.2697	
31.809	
34.7995	
58.5004	
48.1313	
50.1528	
53.7855	
54.9314	
48.5656	
44.7307	
56.0716	
55.2126	
47.034	
51.4797	
35.4628	
47.8843	
13.9389	
15.7086	
13.9208	
45.9926	
47.5429	
42.4501	
41.3788	
42.1056	
38.9735	
56.7003	
61.0578	
57.475	
58.2961	
51.6353	
45.6397	
48.7466	
47.5555	
50.1924	
37.1754	
59.0062	
57.8454	
64.2657	
60.9637	
45.9683	
40.7469	
51.2117	
45.6193	
48.7194	
44.6714	
46.7449	
54.9249	
56.6694	
61.1318	
60.5945	
52.1768	
50.766	
56.4543	
33.1898	
30.3463	
31.3841	
29.5099	
33.3095	
44.3659	
37.4518	
59.7768	
65.3407	
62.4823	
19.3029	
45.0601	
69.2032	
70.9601	
8.2513	
8.96354	
28.5776	
10.7112	
13.6183	
34.7205	
41.9966	
29.7552	
39.8627	
51.808	
26.4773	
39.3757	
32.7295	
44.941	
36.9867	
36.1556	
37.4671	
34.5216	
35.3668	
14.0905	
43.7569	
19.62	
43.1478	
54.3123	
36.8524	
53.8633	
20.0886	
18.1067	
17.1037	
41.3315	
54.1522	
12.8106	
13.0002	
54.9785	
51.6954	
62.0301	
55.0415	
28.2005	
25.599	
64.3776	
26.2284	
46.6983	
62.3996	
55.736	
13.1089	
40.2974	
60.9374	
57.766	
43.2418	
42.2244	
40.8988	
67.1014	
65.7896	
67.1016	
41.5887	
49.0031	
50.374	
54.9929	
45.6534	
70.95	
68.0594	
66.5105	
60.442	
60.2098	
42.0491	
49.2719	
37.0341	
43.2837	
43.825	
50.9742	
42.0475	
55.0973	
46.1608	
62.6233	
64.3193	
65.3067	
66.053	
32.515	
26.7614	
36.2727	
31.6616	
56.0896	
58.0867	
54.8758	
57.7018	
17.0415	
13.8605	
15.7251	
41.5977	
44.1412	
43.008	
12.5128	
14.8133	
33.3702	
29.5919	
37.4207	
30.8244	
35.0352	
42.8872	
51.4421	
51.0574	
29.1841	
25.8353	
39.9424	
46.4871	
48.9211	
31.5721	
28.6984	
31.1716	
29.7445	
62.2523	
57.1601	
56.3836	
50.2993	
46.1358	
51.8242	
49.3241	
63.8283	
41.2262	
52.1611	
18.93	
65.1527	
66.3836	
62.6761	
64.6802	
41.6474	
40.3443	
41.5256	
45.8984	
42.533	
29.0317	
56.5245	
56.6443	
59.9464	
59.507	
40.1012	
36.7125	
56.024	
56.878	
60.2685	
62.0681	
40.6821	
35.6882	
18.5843	
17.6382	
39.3124	
38.4808	
45.1173	
39.1007	
48.1291	
51.0132	
50.9346	
54.0318	
11.4494	
12.8861	
10.7212	
9.96562	
26.5667	
35.4805	
38.0292	
54.0165	
47.6707	
53.2357	
41.7222	
17.5535	
20.0761	
50.9693	
47.4875	
47.4417	
37.8838	
49.074	
48.1108	
50.2979	
42.1149	
70.4236	
68.6902	
42.0621	
52.9072	
48.1232	
54.5925	
13.3437	
17.1207	
16.0523	
18.9006	
32.3532	
28.7554	
30.3878	
23.0682	
15.5254	
16.3984	
18.7707	
20.1022	
22.3905	
9.17297	
11.1584	
32.8553	
34.8028	
48.1438	
46.2694	
58.7543	
56.1516	
60.855	
59.5634	
62.5346	
47.2823	
53.7297	
35.5034	
35.3705	
49.3102	
40.7387	
38.0887	
40.8234	
38.2144	
67.3905	
64.9836	
52.486	
50.451	
34.9492	
53.4763	
54.3001	
58.1067	
57.0123	
38.8617	
33.6467	
22.639	
26.3701	
33.3093	
39.9636	
43.8735	
32.7719	
40.9924	
67.2754	
65.9343	
68.8876	
40.2175	
41.9379	
16.3232	
21.2674	
20.9732	
23.0692	
38.0243	
38.4358	
29.5805	
27.8897	
24.0128	
39.9417	
38.5774	
41.491	
38.8969	
37.9124	
28.3649	
37.78	
33.884	
54.1992	
50.3094	
51.7242	
41.7973	
43.7995	
43.3519	
42.4921	
6.88201	
9.07087	
11.4468	
28.0653	
30.1362	
17.8403	
16.3817	
25.5533	
54.8665	
57.8247	
22.715	
26.5664	
24.1258	
62.5291	
61.7748	
28.0338	
31.5748	
15.5063	
19.4152	
20.9194	
24.2777	
54.8532	
52.1327	
50.3881	
39.4096	
22.4526	
22.871	
67.4219	
14.721	
11.4547	
23.1698	
27.8884	
30.3226	
31.568	
33.3085	
35.4196	
24.8083	
23.198	
22.1581	
30.9962	
33.4561	
41.5658	
50.3262	
37.2674	
48.3162	
21.9581	
24.1002	
60.3621	
62.1251	
64.3492	
64.3812	
64.7242	
60.4271	
65.4391	
63.5054	
56.8738	
58.9421	
61.7282	
48.1392	
50.2299	
47.1909	
13.354	
8.87353	
11.0966	
7.0305	
64.0775	
65.3613	
51.0691	
50.0252	
64.5857	
25.3501	
22.9587	
18.938	
27.6291	
62.0077	
61.5738	
45.7509	
47.1413	
47.1371	
47.8902	
21.935	
24.7374	
30.6604	
31.5139	
33.5484	
26.6953	
27.2155	
-0.357403	
-4.28292	
-7.72583	
-5.27514	
-15.5269	
-55.0283	
-11.3192	
-91.17	
-72.0582	
-7.42687	
2.29195	
-88.9369	
-92.2293	
-69.8589	
-65.7935	
-92.5697	
-89.9898	
-46.5129	
-64.9618	
-51.5944	
-88.6011	
-69.1202	
-93.9857	
-86.7128	
-95.9244	
-58.7582	
-46.6593	
-45.8633	
-32.0643	
-5.78944	
-5.17763	
-45.2281	
-21.1301	
-5.49194	
-9.62048	
-46.2863	
-8.95435	
-5.55356	
-7.2167	
-5.28107	
-14.4576	
-5.30951	
-14.5454	
-16.4516	
-8.3582	
-5.22883	
-26.6714	
-5.95636	
-6.31443	
-45.6078	
-7.08068	
-2.38221	
-67.8337	
-49.1319	
-36.1462	
-26.6967	
-40.7292	
-37.4147	
-35.8565	
-68.4353	
-69.8507	
-14.9752	
-3.43871	
-16.6453	
-38.0047	
-9.95181	
-12.9461	
-45.9669	
-32.6814	
-27.0185	
-16.0405	
-41.8521	
-10.5912	
-27.8015	
-10.3366	
-19.4545	
-32.4033	
-32.3379	
-38.8357	
-37.2646	
-43.071	
-49.7045	
-47.4655	
-45.1144	
-54.8593	
-21.7762	
-18.8503	
-23.7169	
-23.3294	
-37.6478	
-29.7549	
-28.216	
-34.8492	
-30.9539	
-54.7802	
-30.3342	
-46.3608	
-51.4586	
-13.6569	
-24.2114	
-26.2221	
-27.6981	
-34.6787	
-37.3644	
-27.0098	
-41.8991	
-56.7225	
-37.8211	
-42.8783	
-69.3461	
-80.2072	
-78.9183	
-51.5717	
-35.945	
-64.3066	
-52.9663	
-36.3882	
-53.9906	
-60.6943	
-2.00705	
-2.20252	
-5.29045	
-25.9848	
-10.0703	
-3.01789	
-12.8053	
-5.51144	
-28.9659	
-10.3387	
-7.92251	
-5.51501	
-24.9206	
-4.24081	
-4.22453	
-7.06931	
-5.32678	
-69.9897	
-62.103	
-65.8279	
-61.3195	
-48.3265	
-85.1681	
-85.2169	
-22.358	
-20.2018	
-74.5641	
-51.8257	
-68.8015	
-56.0193	
-10.1282	
-21.2741	
-3.85445	
-34.2659	
-26.4565	
-34.9083	
-8.41961	
-34.9301	
-16.7864	
-7.80468	
-3.72978	
-10.0876	
-28.6052	
-31.3771	
-37.538	
-60.7813	
-39.4923	
-12.6381	
-12.8572	
-1.37956	
-29.8724	
-7.80662	
-50.8858	
-54.7089	
-19.3618	
-11.0181	
-15.5045	
-18.0786	
-30.8284	
-4.95574	
-15.8815	
-19.9024	
-10.841	
-12.152	
-4.76201	
-51.1894	
-82.178	
-85.0916	
-60.3502	
-28.0653	
-22.1704	
-9.72625	
-5.72707	
-67.9538	
-48.6845	
-56.7113	
-42.7754	
-8.32502	
-39.2551	
-29.2898	
-34.2443	
-3.32675	
-5.73161	
-72.4848	
-81.0782	
-16.3533	
-20.8146	
-12.9794	
-51.459	
-64.969	
-59.4743	
-74.3565	
-2.6514	
-13.8943	
-20.7386	
-23.0816	
-79.1229	
-46.7266	
-57.5366	
-69.0042	
-66.534	
-7.89632	
-17.3627	
-42.459	
-43.1363	
-62.7699	
-77.1329	
-70.6683	
-14.0772	
-49.5156	
-45.4448	
-37.4196	
-26.3047	
-2.14458	
-8.01713	
-8.21383	
-13.9509	
-11.3484	
-10.8071	
-12.3504	
-13.6179	
-44.1765	
-59.8764	
-57.2573	
-72.5566	
-68.8017	
-8.34742	
-76.7023	
-85.0824	
-75.9508	
-89.4655	
-13.693	
-10.5356	
-11.5045	
-13.0663	
-7.466	
-5.76479	
-38.9289	
-58.2401	
-45.1244	
-6.77501	
-13.6562	
-80.9043	
-31.4236	
-38.118	
-26.8724	
-13.72	
-15.4018	
-3.05896	
-14.5907	
-47.437	
-49.2008	
-20.3232	
-30.1653	
-28.2085	
-17.7445	
-43.1149	
-40.6433	
-30.4076	
-30.9455	
-18.4599	
-33.1096	
-4.27693	
-19.6385	
-27.0218	
-21.959	
-18.0868	
-35.0762	
-6.57647	
-14.4091	
-72.0241	
-63.9093	
-12.1083	
-1.84248	
-8.33344	
-5.63264	
-12.1213	
-31.6586	
-38.7617	
-60.5107	
-3.47537	
-11.3603	
-12.627	
-21.2325	
-33.8937	
-36.7443	
-57.4867	
-53.4031	
-20.3657	
-24.3675	
-71.4462	
-74.412	
-58.1464	
-66.0834	
-61.7778	
-38.381	
-38.8553	
-31.2867	
-54.2109	
-31.1941	
-45.6761	
-33.6313	
-83.2348	
-76.7313	
-33.7234	
-34.1381	
-59.6942	
-7.9811	
-35.5716	
-42.0263	
-26.9668	
-29.373	
-14.3479	
-12.9085	
-46.9262	
-50.0247	
-47.3224	
-59.9533	
-18.8011	
-9.30937	
-4.16528	
-13.6895	
-3.39542	
-23.6184	
-25.1672	
-40.9712	
-41.7654	
-17.9823	
-22.939	
-48.106	
-53.0648	
-79.383	
-19.1065	
-55.7512	
-66.7867	
-55.7217	
-66.798	
-55.2408	
-56.3124	
-29.8309	
-59.7063	
-93.175	
-15.8955	
-10.716	
-9.86744	
-6.15896	
-85.4256	
-50.8114	
-48.3901	
-47.3798	
-17.1272	
-7.61243	
-11.4254	
-10.6646	
-44.5589	
-42.8816	
-56.9296	
-11.5909	
-8.01969	
-54.7819	
-56.2555	
-16.7853	
-9.1886	
-71.0562	
-74.0755	
-79.9557	
-19.1705	
-16.7167	
-21.3824	
-19.5543	
-72.3443	
-66.2575	
-14.8183	
-50.3138	
-38.4038	
-47.646	
-34.6105	
-86.0508	
-44.8257	
-41.6445	
-33.466	
-25.4045	
-20.9441	
-34.0685	
-35.4398	
-16.1745	
-68.3237	
-27.309	
-21.5486	
-45.1484	
-37.0424	
-5.34924	
-8.47652	
-14.7916	
-38.4932	
-30.8565	
-51.5311	
-54.0307	
-37.9006	
-50.707	
-50.5397	
-51.8243	
-40.9914	
-35.9045	
-33.336	
-63.7552	
-62.4139	
-42.4604	
-33.4391	
-3.69702	
-5.92275	
-12.7724	
-15.3904	
-19.2232	
-21.8796	
-95.3929	
-92.3139	
-19.5152	
-6.66177	
-2.58239	
-4.96152	
-84.8297	
-83.5516	
-69.3095	
-73.3456	
-96.0367	
-5.98304	
-12.276	
-17.8494	
-33.6129	
-62.5118	
-59.4444	
-61.9512	
-46.3303	
-59.2014	
-38.0065	
-53.5939	
-18.6927	
-3.33289	
-35.5685	
-9.17417	
-32.3983	
-34.6691	
-2.40246	
-13.0533	
-6.88017	
-27.4832	
-24.9888	
-24.8276	
-23.5627	
-26.3051	
-24.9591	
-90.2343	
-95.266	
-88.8203	
-94.5686	
-73.4031	
-76.6006	
-75.4219	
-82.0575	
-11.7588	
-11.5513	
-4.7302	
-30.8004	
-28.7125	
-28.8385	
-27.5584	
-79.3209	
-83.7041	
-78.4003	
-81.7332	
-4.61142	
-0.693166	
-7.76572	
-3.69956	
-85.8022	
-81.7062	
-87.4834	
-83.9128	
-16.8598	
-4.04439	
-6.79236	
3.22711	
-4.70966	
-16.0007	
-12.6264	
-26.6631	
-72.8362	
-68.9704	
-74.1384	
-76.1024	
-8.0787	
-2.93099	
-14.0379	
-7.91159	
-41.285	
-37.2525	
-44.1438	
-41.7907	
3.38631	
6.16995	
5.79532	
1.93032	
-1.20634	
3.28288	
0.650052	
-2.5489	
0.449793	
-3.36319	
-4.77265	
2.59348	
-3.0536	
-5.52151	
-4.2798	
-0.225456	
				</DataArray>
				<DataArray type="Float64" Name="Source Strengths" NumberOfComponents="1" Format="ascii">
-9.64085	
8.294	
-1.53741	
11.3964	
15.9372	
2.36434	
7.96562	
-1.77191	
15.6398	
1.80146	
-9.87535	
10.7706	
2.57184	
28.9358	
4.17205	
3.81544	
0.0829543	
6.82095	
2.01955	
3.35002	
1.36032	
1.9482	
3.73526	
7.73041	
25.8279	
28.5913	
8.75158	
7.77487	
97.5622	
3.67828	
0.751329	
0.119257	
20.9875	
4.65858	
202.759	
40.52	
33.6674	
103.416	
15.023	
5.29243	
-1.04327	
92.4074	
39.4222	
17.2343	
19.3231	
147.999	
1.81364	
234.073	
42.109	
2.44906	
68.3995	
11.4571	
0.0831626	
21.5089	
-4.21757	
9.84794	
-4.18876	
3.1764	
3.18525	
0.975951	
20.9557	
-2.43887	
19.7503	
20.1383	
7.9349	
-1.19861	
-1.38337	
31.9888	
30.2377	
0.852803	
-0.501155	
38.6258	
-2.57194	
27.8158	
-0.0857284	
29.6526	
7.90588	
31.9611	
1.77007	
3.6582	
3.44864	
16.8127	
19.2577	
-1.16827	
17.3938	
37.5101	
5.33402	
5.44099	
20.7473	
49.9894	
45.1416	
10.7606	
11.7669	
-0.434268	
32.558	
59.9485	
19.1462	
25.3209	
26.9133	
205.627	
191.973	
80.9368	
49.7363	
106.226	
146.378	
95.0199	
80.9439	
41.5411	
23.9792	
8.89023	
94.0899	
92.409	
109.526	
52.2706	
124.146	
96.1957	
100.447	
97.6951	
148.478	
150.154	
106.927	
106.703	
115.452	
209.57	
36.7652	
82.3358	
35.7799	
48.6725	
24.314	
22.5265	
69.2589	
182.455	
123.743	
57.6221	
26.4454	
13.0759	
8.50762	
50.84	
40.7106	
26.1071	
6.76583	
33.0093	
41.9032	
26.4307	
26.9731	
48.1203	
27.9387	
11.9201	
11.0509	
11.0997	
9.58604	
7.50127	
7.89604	
42.6847	
72.0732	
90.6068	
32.5393	
37.2557	
40.0124	
80.3536	
58.2157	
175.346	
180.485	
111.455	
67.4012	
140.727	
100.912	
16.4699	
81.7711	
79.8261	
48.4462	
62.6625	
83.9653	
11.4581	
17.1024	
19.9375	
41.001	
26.4017	
7.70632	
169.885	
21.7557	
88.4734	
85.1375	
2.21654	
40.9175	
39.8776	
11.9918	
10.8898	
50.7189	
63.1043	
48.519	
64.4648	
37.9056	
60.1988	
38.7725	
75.3757	
77.1239	
5.36101	
0.733398	
5.48344	
40.9597	
24.6991	
39.0116	
25.5405	
58.3728	
95.6505	
7.9929	
7.39847	
40.2114	
38.2606	
23.9667	
32.1445	
62.7329	
63.5879	
32.1596	
55.1133	
11.496	
41.8682	
63.8229	
45.2566	
41.8665	
26.4963	
22.0035	
-1.74733	
10.9997	
15.7352	
16.9434	
27.2772	
28.3179	
21.1072	
26.6565	
16.3746	
17.3323	
16.1985	
15.5222	
15.4016	
10.3777	
62.05	
30.6714	
43.7118	
50.4344	
52.6946	
14.6906	
20.4137	
102.938	
3.58964	
3.82789	
11.3655	
225.294	
154.268	
151.112	
61.4547	
68.637	
154.607	
92.7174	
92.2781	
43.2807	
32.0399	
108.685	
95.0394	
6.91791	
6.53171	
98.5271	
126.396	
169.7	
13.7713	
3.90148	
12.4484	
61.876	
59.0457	
72.1108	
31.6734	
32.8217	
40.029	
-0.306086	
3.99076	
6.78392	
32.1647	
7.33134	
29.8094	
70.1126	
70.8158	
150.856	
5.31765	
4.59795	
4.96024	
144.686	
136.515	
95.0585	
96.3412	
205.092	
214.943	
56.2384	
69.8059	
129.601	
133.731	
14.711	
4.38529	
35.7789	
126.37	
138.584	
55.614	
22.0196	
26.2936	
20.1796	
70.0359	
50.4105	
151.816	
118.657	
179.303	
238.621	
111.487	
11.9938	
7.8411	
7.06914	
7.78195	
5.07369	
52.1529	
28.8829	
26.6541	
5.33437	
108.296	
73.6944	
151.708	
125.302	
235.847	
200.673	
107.8	
252.097	
170.767	
220.769	
122.903	
6.30263	
6.30495	
81.1678	
38.5177	
83.3832	
62.7786	
44.893	
35.8342	
47.0743	
23.0936	
3.45457	
3.48531	
6.02101	
33.3329	
36.7955	
43.1169	
56.948	
27.9628	
81.8168	
142.391	
116.274	
169.467	
4.53741	
3.59571	
4.01462	
3.43227	
9.80174	
8.77819	
13.6637	
13.1782	
53.5567	
50.7147	
39.244	
50.5608	
9.38709	
7.83143	
173.495	
115.857	
147.984	
83.193	
71.5654	
74.1485	
47.2188	
33.4719	
65.8709	
56.8104	
27.3196	
29.4359	
72.8199	
70.5083	
22.2289	
19.5685	
49.4145	
54.5355	
15.308	
16.848	
15.9729	
7.75705	
-2.30089	
26.7834	
17.6056	
192.131	
86.8732	
155.951	
13.908	
16.0333	
80.0073	
63.4784	
54.4996	
33.3503	
33.4118	
12.7063	
194.578	
195.807	
178.577	
176.938	
84.5838	
47.6613	
58.8709	
58.5479	
22.5048	
34.548	
33.4518	
42.0293	
102.115	
219.044	
184.819	
11.5501	
9.93672	
10.0665	
8.01525	
6.84579	
5.53869	
5.90465	
5.16915	
171.119	
165.924	
75.0218	
85.9958	
49.7968	
75.0509	
50.5446	
76.3477	
18.1978	
35.359	
26.5419	
17.7928	
9.85143	
28.1865	
16.2806	
32.8623	
208.593	
102.548	
212.289	
105.568	
63.0333	
58.0746	
65.3622	
30.1471	
30.1936	
66.0397	
35.6036	
71.7917	
45.4214	
51.573	
26.3209	
161.497	
258.19	
126.608	
236.702	
98.9966	
201.466	
166.156	
95.9939	
197.435	
132.269	
-3.96534	
-9.94557	
-19.4324	
-3.22779	
-24.131	
-17.2531	
-2.84753	
-8.91662	
-80.2012	
-9.0065	
-24.8932	
-13.6491	
-41.8753	
-7.85152	
-105.718	
-48.9006	
-112.473	
-88.7885	
-81.3028	
-74.4271	
-66.9282	
-59.1978	
-56.269	
-56.5128	
-34.7462	
6.4445	
-21.0842	
-17.1367	
-27.7472	
-132.96	
-70.7985	
-60.5058	
-51.6492	
-75.7626	
-101.251	
21.0392	
58.363	
-98.1448	
-121.702	
-6.55546	
-3.23655	
-5.42874	
-7.08355	
-119.422	
-125.251	
-20.9553	
-22.7858	
-20.5987	
-27.8703	
-28.812	
-36.9831	
-31.269	
-43.9227	
-52.5252	
-54.9779	
-45.3612	
-58.0561	
-52.6983	
-48.416	
-61.2883	
-64.0189	
-67.1281	
-68.803	
-72.5579	
-88.0683	
-77.5693	
-105.993	
-111.015	
-111.676	
-88.1564	
-17.3768	
-44.9106	
-38.4163	
-42.8635	
-85.0968	
-96.8226	
-122.611	
-82.8215	
21.7822	
17.116	
24.7457	
15.7366	
-35.4768	
28.5052	
26.1212	
0.954888	
29.8033	
26.9939	
17.1199	
8.45364	
12.6453	
54.8211	
-55.0846	
-2.29857	
35.7226	
19.9618	
19.9994	
20.2188	
15.2498	
-22.0165	
6.03509	
61.7511	
-39.117	
37.2738	
27.9557	
-9.94034	
31.6688	
41.2845	
-32.8956	
-31.226	
-30.5778	
-68.0951	
-52.607	
-27.6135	
-26.081	
-81.4937	
-74.8679	
-75.2272	
-116.756	
-120.756	
-116.257	
-58.1826	
27.1446	
-49.1652	
10.911	
19.8459	
-31.9246	
-39.3062	
-35.5806	
-31.4209	
-98.3962	
-101.791	
-3.24931	
-3.77919	
-35.6039	
-86.4276	
-85.1812	
-86.125	
-85.2106	
-88.2861	
-88.9349	
-17.8867	
-21.8512	
-20.0636	
-5.45113	
-52.8855	
-22.4593	
-34.1391	
-35.0393	
-28.3098	
-29.2469	
-25.3288	
-31.7032	
-37.519	
-61.2048	
-60.5257	
-64.9777	
-65.5706	
-78.7512	
-8.47528	
-7.9003	
-7.78272	
-83.4059	
-5.45806	
-6.24809	
-32.2042	
-31.1539	
-32.744	
-24.8124	
-101.826	
-46.656	
-42.151	
-45.4315	
-46.4717	
-76.586	
-74.357	
-80.011	
-27.3029	
-23.3113	
-28.7023	
-29.3069	
-31.6597	
-33.8144	
-43.3101	
-107.508	
-106.919	
-63.445	
-37.328	
-36.7227	
-19.8879	
-18.9975	
-24.9558	
-23.94	
-26.5325	
-2.29481	
-2.99946	
2.29829	
30.5	
-46.1531	
53.5207	
14.9299	
11.5446	
-76.5147	
-68.5354	
-74.7232	
-23.0931	
18.6233	
16.0449	
30.8401	
4.16069	
9.60063	
7.03692	
9.5639	
-23.1072	
-24.2204	
-20.6475	
23.1751	
26.4405	
-14.9845	
-12.5368	
-35.0228	
-34.3263	
-48.1532	
-47.4368	
14.5761	
17.4027	
-18.4018	
-17.7331	
-81.0085	
-46.6655	
8.04799	
79.4639	
-48.7	
-12.3068	
-70.6692	
-77.509	
0.702481	
-8.12196	
11.0489	
-41.0179	
0.765916	
1.01491	
-95.9429	
-90.7089	
-92.5633	
55.1341	
-28.6562	
1.48848	
-66.7469	
-85.2727	
-64.6227	
-80.8108	
4.35367	
5.81379	
-10.778	
4.03591	
-13.8793	
-11.2442	
-10.9373	
37.1394	
29.5166	
20.0454	
-45.3042	
-10.758	
-9.89747	
-74.8461	
-76.6111	
-77.7034	
52.4942	
-65.7028	
43.5617	
69.9376	
11.6349	
40.3019	
-34.2227	
-48.5544	
-46.745	
-52.4654	
-42.0119	
48.2826	
9.88847	
91.6656	
40.1197	
-1.51799	
-45.226	
-46.7453	
-48.5254	
-15.1818	
20.4382	
7.6942	
-69.7238	
-72.3344	
-93.1285	
26.9402	
-42.6485	
77.8381	
20.2035	
10.1702	
80.305	
-84.4863	
-84.3216	
-51.377	
39.2958	
24.9508	
-14.1237	
-63.8797	
-52.8753	
-51.1179	
-92.565	
-89.5135	
20.7701	
16.9797	
-25.9474	
-34.6712	
-77.6146	
-80.0796	
61.8499	
-66.362	
60.8136	
17.0478	
-1.33237	
1.60953	
-16.4877	
-14.7747	
-14.7909	
-13.8051	
-12.4234	
11.471	
22.8457	
-28.3059	
41.057	
-45.4029	
-40.8439	
-26.8358	
-26.6607	
-41.5144	
-39.9615	
29.3717	
70.6611	
-61.709	
52.5674	
9.70863	
39.3116	
-24.8358	
40.1846	
-63.0067	
-84.1523	
-82.857	
-91.8001	
21.9185	
8.30111	
-79.5568	
-81.1165	
-3.1249	
54.151	
41.9749	
-53.4044	
-50.1457	
-45.9171	
-43.5273	
-38.9668	
-98.2146	
-99.8882	
57.4293	
16.6706	
56.8834	
-59.8722	
-10.6519	
-11.2523	
-11.8124	
-12.6021	
-54.4574	
-57.8705	
-64.6878	
-64.9546	
-51.4758	
-51.156	
-68.4962	
-57.3755	
-61.0165	
-64.2533	
-49.5144	
-51.8711	
53.9378	
-41.8782	
-46.3025	
53.4398	
24.653	
-97.5132	
-96.9078	
62.5758	
-48.592	
42.7051	
12.39	
10.2927	
4.31253	
3.96285	
-63.9979	
-20.567	
-13.8354	
-17.148	
-14.561	
-2.72907	
-4.15735	
-86.8678	
-86.4954	
19.0798	
19.4152	
-22.7804	
-23.2832	
6.84733	
15.9509	
-39.3176	
-44.9334	
-40.6712	
-49.9838	
-4.66905	
-6.0563	
-5.33463	
-4.05032	
-3.83458	
-68.4945	
-75.4519	
-67.178	
-72.2034	
-45.4469	
-71.0965	
-44.4552	
-41.9431	
-13.0991	
14.5924	
-3.25272	
21.4292	
-15.5736	
-11.7657	
-16.3744	
-14.4591	
7.4031	
-12.5104	
-13.2299	
86.7121	
59.1379	
-56.6538	
66.9071	
-50.9543	
69.4114	
-50.903	
74.135	
17.2104	
46.289	
-25.568	
17.9765	
-15.9776	
22.506	
0.168812	
54.1276	
-1.99575	
27.2298	
-17.0959	
18.213	
-15.7668	
21.5963	
76.3271	
-58.562	
-11.3951	
-15.9361	
-2.36253	
1.5395	
-8.29255	
9.64371	
-10.7693	
-1.79964	
-15.6386	
1.774	
9.87821	
-7.96417	
-16.5615	
1.22238	
9.46234	
-8.71346	
4.62797	
16.2317	
12.2714	
-4.86404	
9.07526	
0.868173	
-8.94562	
15.9094	
3.88668	
-16.7937	
-5.45041	
11.5619	
119.807	
35.0646	
204.061	
144.378	
151.033	
125.75	
60.8543	
48.5146	
62.4226	
196.874	
27.7944	
52.7755	
290.356	
134.487	
186.175	
97.9273	
130.911	
166.925	
99.7263	
276.731	
182.613	
325.294	
99.6526	
65.073	
124.192	
101.459	
161.372	
126.223	
202.812	
157.824	
162.682	
141.766	
85.14	
49.0076	
84.1528	
132.976	
98.6806	
102.266	
37.7067	
29.4304	
97.5686	
132.415	
88.344	
46.8635	
142.543	
144.859	
119.731	
209.16	
122.449	
164.004	
289.21	
224.026	
165.631	
74.8267	
129.131	
238.115	
160.63	
58.0943	
281.818	
280.165	
131.171	
132.809	
120.407	
120.816	
285.407	
294.108	
207.635	
189.96	
224.467	
198.174	
124.326	
265.484	
197.62	
357.725	
71.5767	
100.429	
79.6428	
34.451	
175.76	
112.561	
143.487	
254.222	
126.054	
79.5732	
92.499	
46.4028	
41.5484	
53.1587	
85.3179	
57.9054	
64.25	
60.5451	
61.5899	
125.794	
89.8063	
89.8594	
157.03	
155.603	
118.121	
124.423	
117.856	
115.523	
145.299	
145.22	
104.64	
143.945	
46.3979	
42.1662	
34.9327	
105.606	
108.106	
132.046	
131.931	
122.253	
122.606	
150.7	
125.841	
152.752	
124.006	
124.441	
103.581	
90.6979	
107.943	
92.9605	
69.3826	
155.514	
152.129	
122.826	
145.224	
115.127	
103.174	
112.567	
100.561	
90.5568	
100.494	
102.331	
117.264	
126.005	
119.936	
128.562	
93.1975	
94.913	
154.572	
63.525	
76.7383	
74.7141	
71.8639	
63.9233	
98.4712	
81.2119	
137.763	
126.223	
129.502	
39.1619	
79.8631	
135.079	
162.233	
56.8735	
59.4503	
53.342	
78.4639	
76.6783	
207.583	
121.391	
212.133	
286.425	
160.747	
159.953	
207.06	
218.589	
125.517	
220.915	
253.659	
253.182	
84.6554	
85.2393	
102.083	
234.687	
47.8172	
116.933	
135.987	
68.8248	
96.0911	
60.5397	
94.3049	
92.9701	
101.503	
103.347	
33.5553	
41.6812	
101.386	
97.0602	
115.799	
123.388	
52.3989	
63.1862	
118.592	
59.8794	
267.07	
116.224	
129.973	
73.6636	
71.1063	
110.087	
128.243	
80.9397	
75.2879	
73.3759	
125.631	
123.07	