<VTKFile type="UnstructuredGrid" version="0.1" byte_order="LittleEndian">
	<UnstructuredGrid>
		<Piece NumberOfPoints="1119" NumberOfCells="1998">
			<CellData Scalars="scalars">
				<DataArray type="Float64" Name="Doublet Strengths" NumberOfComponents="1" Format="ascii">
-0.177035	
0.452388	
0.0496627	
0.525454	
0.528873	
0.253293	
0.283316	
-0.0742306	
0.360601	
-0.024356	
-0.304988	
0.250464	
1.21097	
10.7	
1.78081	
3.63986	
5.88587	
3.26339	
0.871029	
0.940281	
3.4875	
0.49998	
4.09987	
10.8735	
9.44255	
14.2527	
9.82692	
3.78287	
14.9699	
1.26486	
4.73341	
9.42091	
12.2793	
11.7486	
22.6228	
18.9526	
16.709	
16.2158	
7.78729	
4.7293	
7.19655	
14.0553	
19.1995	
11.8074	
10.6993	
22.4019	
2.61568	
17.4033	
15.9061	
1.73337	
22.7185	
5.68958	
4.29853	
11.9765	
9.673	
13.2633	
11.1783	
0.956722	
1.62169	
3.97916	
11.3341	
8.66398	
10.7332	
10.4682	
10.0762	
12.0686	
10.2915	
15.9356	
15.4251	
8.8475	
12.3547	
16.873	
12.5634	
14.0299	
9.9953	
15.4478	
10.543	
6.70059	
3.10066	
3.18995	
2.68204	
9.36089	
10.2747	
6.8161	
8.80507	
17.4425	
4.65812	
10.0083	
12.1656	
12.0379	
18.4729	
13.4419	
13.1367	
5.47624	
11.9631	
21.1796	
6.93125	
7.74043	
10.312	
26.9192	
26.4797	
13.1629	
12.9807	
12.0158	
19.3701	
11.3366	
13.0315	
12.2471	
3.61447	
1.29182	
13.4472	
15.0012	
17.1221	
16.1824	
15.8129	
15.5116	
14.3511	
15.8171	
23.7877	
21.5787	
16.6924	
16.2155	
14.7193	
25.6061	
10.4479	
10.0434	
10.2851	
5.8377	
6.59048	
6.14746	
23.719	
25.2264	
17.7343	
7.56962	
8.1133	
1.94726	
2.62403	
15.9176	
14.5667	
12.6668	
3.19476	
11.5962	
11.8826	
10.6241	
10.7984	
15.0628	
12.5161	
11.708	
11.9306	
5.66586	
4.98195	
8.00474	
7.57137	
11.5231	
11.9031	
10.7289	
5.97188	
5.13755	
9.78618	
8.63002	
10.2495	
26.785	
24.6945	
18.0423	
17.036	
15.5776	
17.8142	
8.32993	
16.871	
19.7938	
16.0034	
11.2245	
23.9275	
3.1313	
3.18201	
2.44367	
13.778	
12.2888	
2.94206	
23.3883	
7.95605	
22.5823	
23.6388	
1.98312	
14.2328	
14.0296	
4.07481	
3.79802	
13.2178	
20.6025	
17.6369	
21.3746	
17.6709	
20.4451	
17.67	
24.3639	
24.4709	
8.455	
7.83621	
8.93304	
13.6381	
11.5123	
13.3222	
11.5739	
17.7347	
25.3545	
8.2807	
8.37435	
13.0119	
12.8963	
10.8135	
11.8391	
20.2595	
20.965	
15.5518	
19.2602	
4.21285	
16.3189	
22.5279	
15.7078	
14.9864	
13.0404	
9.174	
7.61662	
6.06577	
6.95962	
8.75899	
10.1496	
10.2018	
8.86786	
9.43207	
6.29563	
6.4339	
5.902	
5.53931	
5.85699	
5.19157	
22.1423	
14.0158	
15.5635	
16.8524	
16.7667	
6.63461	
7.20295	
15.9722	
5.01588	
5.58578	
6.07216	
24.8734	
20.8906	
22.9724	
9.31539	
10.1189	
17.4175	
11.5198	
12.1135	
11.6271	
16.8476	
12.1363	
14.1008	
1.21317	
1.0732	
17.5476	
15.9527	
24.6941	
7.55087	
6.12084	
7.23832	
23.1243	
21.9601	
23.9028	
14.8625	
14.5508	
16.2921	
6.25075	
7.01652	
11.6852	
16.9439	
11.7213	
15.5685	
18.6157	
18.8643	
19.4053	
2.05654	
1.7538	
1.57694	
22.8138	
21.0435	
25.4261	
25.7043	
27.3433	
24.45	
17.6997	
18.3955	
19.301	
17.8116	
8.10463	
6.62728	
18.7328	
21.7265	
19.5982	
19.1761	
8.26752	
9.01594	
8.16121	
22.8219	
20.6734	
18.1568	
20.1909	
27.7551	
24.9565	
26.1497	
2.04732	
1.70427	
2.32149	
13.3018	
2.16445	
19.843	
16.5263	
14.8112	
12.3483	
17.9327	
17.469	
15.6507	
18.5243	
24.583	
27.9091	
26.1817	
24.6976	
27.4316	
27.3984	
25.5299	
1.83044	
2.1229	
10.9673	
10.7784	
10.1659	
11.6699	
5.4749	
6.12694	
6.19924	
6.31379	
2.06057	
2.18726	
2.79517	
16.9134	
18.7395	
7.43809	
6.48415	
7.16616	
19.6791	
20.3426	
20.2063	
17.7195	
1.54647	
1.22816	
1.63477	
1.01122	
3.51049	
3.22813	
7.143	
6.99325	
19.3456	
18.142	
14.3311	
15.2894	
4.46042	
3.85602	
18.3535	
21.285	
21.896	
20.8536	
23.5421	
22.3724	
7.66889	
7.67259	
6.42734	
7.90725	
13.8471	
14.9696	
23.6662	
23.7632	
3.83816	
3.24822	
17.4427	
18.727	
2.1875	
9.11743	
8.66059	
13.0285	
11.7617	
15.1825	
5.55518	
21.4662	
22.7665	
23.7587	
4.84851	
5.23274	
9.68146	
10.5523	
6.21429	
17.5209	
16.8557	
4.58993	
21.8565	
22.6543	
24.9267	
25.8593	
24.0157	
19.4289	
20.3942	
21.2242	
5.12157	
5.17807	
4.99559	
4.30235	
25.0428	
23.598	
26.3273	
5.06454	
4.57747	
4.8596	
4.27653	
2.65386	
2.39334	
2.73734	
2.38205	
25.2719	
23.922	
23.2044	
23.0469	
20.7253	
22.922	
20.4987	
22.6748	
4.60595	
3.93474	
4.72113	
2.57619	
2.73633	
4.14374	
4.27203	
3.67042	
27.1193	
25.7444	
27.9113	
26.0672	
9.73954	
9.23238	
8.33471	
8.87663	
9.15446	
8.29869	
8.31264	
7.20015	
8.67063	
6.61455	
6.76855	
23.662	
21.8912	
23.8573	
26.4489	
24.9179	
26.7061	
23.5048	
22.5629	
20.2287	
23.078	
-0.483485	
-3.38427	
-6.1398	
-0.784641	
-8.24323	
-5.76929	
-1.02844	
-3.14417	
-10.11	
-3.07223	
-8.11181	
-4.78027	
-14.0947	
-2.68826	
-29.1775	
-16.3405	
-28.6428	
-28.8549	
-26.6661	
-23.9225	
-21.3623	
-19.9174	
-18.3792	
-17.8662	
-11.9253	
-1.10088	
-6.91964	
-5.96598	
-9.30278	
-19.0374	
-22.6678	
-18.8796	
-16.7594	
-23.5604	
-30.8082	
-1.30907	
2.74185	
-29.9373	
-22.8234	
-2.46706	
-1.37611	
-2.05036	
-2.37845	
-29.6796	
-22.3886	
-6.9702	
-7.22223	
-7.05585	
-8.39947	
-9.32552	
-11.8962	
-10.4311	
-14.1789	
-16.7816	
-16.5499	
-15.2946	
-18.5842	
-17.5235	
-14.6355	
-18.3966	
-19.9812	
-21.2855	
-20.3808	
-21.5358	
-27.1541	
-24.8374	
-31.236	
-28.9812	
-31.2441	
-22.3701	
-5.86425	
-14.3153	
-13.0544	
-13.0752	
-28.0108	
-29.8425	
-27.6352	
-24.0894	
-1.13834	
-0.510802	
-0.580346	
-1.37968	
-8.75853	
-0.140549	
-3.1529	
-0.813017	
-0.0265605	
0.320527	
-1.83678	
-2.43093	
-0.717061	
1.19822	
-16.2833	
-0.768027	
-0.131396	
-0.975893	
-3.05385	
-1.24356	
-0.164087	
-6.06502	
-0.655663	
1.83988	
-11.7579	
-0.256468	
-4.64491	
-3.27139	
-3.93177	
0.532191	
-10.2834	
-9.48943	
-8.86549	
-19.9116	
-15.4704	
-8.01428	
-8.01575	
-24.596	
-22.1404	
-20.1539	
-16.9865	
-26.707	
-26.1583	
-15.2314	
-2.94726	
-11.6186	
-3.1011	
-0.559573	
-9.69388	
-11.9916	
-10.662	
-8.45782	
-20.9213	
-16.9893	
-1.10053	
-1.40454	
-11.4196	
-27.0254	
-16.9227	
-17.1417	
-18.7218	
-26.7307	
-26.594	
-4.49955	
-5.79008	
-5.61999	
-1.76351	
-12.6269	
-5.84177	
-9.13069	
-10.4837	
-7.47413	
-7.50073	
-6.53802	
-8.13127	
-10.1355	
-16.7271	
-17.1984	
-17.4999	
-17.8572	
-20.1428	
-2.68033	
-2.33325	
-2.14118	
-19.616	
-2.02	
-2.2408	
-9.84138	
-9.60096	
-10.4719	
-6.63649	
-30.8215	
-11.8424	
-11.4192	
-13.923	
-14.0739	
-23.949	
-21.8893	
-24.982	
-8.74559	
-7.12537	
-9.25699	
-9.44913	
-10.1864	
-10.802	
-10.7577	
-29.6021	
-30.7584	
-21.8316	
-11.6315	
-11.9978	
-6.34342	
-5.42216	
-8.23953	
-7.67493	
-8.41647	
-0.933367	
-1.16856	
-0.500252	
-0.524761	
-11.5671	
0.400808	
-3.69103	
-1.78124	
-23.4508	
-21.102	
-23.8181	
-5.55925	
-1.52923	
-0.485588	
0.485271	
-0.526254	
-0.315178	
-1.43168	
-1.00763	
-7.10857	
-7.36216	
-6.07136	
-0.819228	
-3.28072	
-4.3162	
-3.15781	
-8.64141	
-10.4543	
-12.3518	
-12.0672	
-4.12822	
-3.63142	
-5.97445	
-5.53417	
-25.3889	
-12.8597	
-4.67019	
2.02474	
-15.4918	
-3.92249	
-16.1194	
-21.927	
-1.0886	
-2.20777	
-0.170302	
-13.117	
-1.31449	
-0.821397	
-28.154	
-26.7026	
-29.1668	
1.3175	
-8.10692	
-3.42301	
-19.5372	
-23.4854	
-19.2318	
-23.8143	
-1.11079	
-0.358268	
-2.80772	
-0.965492	
-4.30781	
-3.47881	
-2.84121	
-0.116616	
-2.52959	
-3.4852	
-11.7787	
-2.91483	
-3.00543	
-21.3587	
-22.7646	
-19.7491	
1.08989	
-17.4542	
-3.46019	
0.964257	
-4.04573	
-2.46583	
-9.28682	
-14.4087	
-11.3466	
-15.4956	
-10.4149	
-2.39004	
-3.74808	
1.92034	
0.387416	
-1.22991	
-13.3329	
-14.5701	
-15.6958	
-4.35993	
0.248878	
-1.68943	
-21.9268	
-22.6606	
-29.8807	
-4.31558	
-11.5427	
1.30201	
-4.23136	
-2.58549	
2.06613	
-26.1324	
-26.329	
-15.8482	
-2.78917	
-1.02786	
-4.69309	
-16.2783	
-13.6046	
-15.4825	
-28.6814	
-28.268	
-1.54958	
-2.16929	
-6.20687	
-9.52249	
-22.7576	
-22.4037	
-0.50944	
-17.1483	
0.56852	
-4.1616	
-0.822821	
-1.03296	
-5.38138	
-4.97854	
-4.80991	
-4.49686	
-3.7441	
-0.223025	
-1.94715	
-6.99833	
0.271003	
-12.2977	
-10.8853	
-8.00295	
-5.97024	
-12.6971	
-13.0099	
-4.00397	
1.95552	
-14.1838	
-2.05208	
-2.44205	
0.349432	
-7.01687	
-0.669883	
-13.3521	
-20.5448	
-21.4322	
-24.9962	
-1.79273	
-1.11729	
-24.6572	
-24.8993	
-0.782948	
0.751452	
-2.71863	
-12.1998	
-15.5578	
-13.6978	
-13.2654	
-11.3401	
-28.5391	
-28.5391	
0.240885	
-4.76033	
-1.55719	
-13.5905	
-3.53547	
-3.56831	
-4.00465	
-4.16109	
-17.555	
-17.366	
-20.8389	
-19.4602	
-14.864	
-12.3106	
-19.5793	
-16.5838	
-19.6906	
-19.0433	
-14.6055	
-12.4381	
-1.06289	
-11.4177	
-10.2444	
1.39608	
-3.14226	
-30.4692	
-28.4389	
1.45497	
-11.2447	
-1.94248	
-0.245557	
-0.788996	
-0.514507	
-1.23316	
-20.4241	
-6.07737	
-4.06426	
-4.78402	
-3.4582	
-0.951303	
-0.770205	
-26.2945	
-27.5644	
-0.897536	
-2.8786	
-6.2779	
-5.56252	
-2.37788	
-0.502429	
-9.24659	
-12.6794	
-12.2062	
-14.8609	
-1.36186	
-1.86225	
-1.85898	
-1.36697	
-1.16748	
-19.6188	
-23.2634	
-21.1431	
-22.7581	
-13.0544	
-21.2532	
-9.62129	
-11.5624	
-3.5416	
-1.08009	
-1.84249	
0.475661	
-4.63297	
-3.57615	
-5.09789	
-4.25844	
-1.00785	
-3.0738	
-3.16223	
3.78075	
-0.492936	
-9.13511	
-1.15694	
-11.4424	
-0.258429	
-10.3506	
1.55135	
-2.81842	
-1.2264	
-7.21143	
-0.932292	
-3.9273	
0.630486	
-3.51149	
1.16545	
-2.31011	
0.472985	
-4.47901	
-1.36752	
-3.531	
-0.399559	
1.29454	
-7.18922	
2.78186	
3.49994	
1.06218	
-1.07519	
1.03072	
-1.81526	
0.301717	
-2.01427	
1.5525	
-2.44496	
-3.34671	
-0.582765	
-0.755793	
0.5963	
1.40532	
-0.226112	
1.36802	
2.00604	
1.98377	
0.711156	
0.368934	
-0.461181	
-1.07294	
0.97697	
-0.519842	
-1.6994	
-1.13292	
0.344058	
55.9852	
7.37651	
76.9785	
56.1312	
58.2078	
69.4491	
5.90625	
26.8601	
22.973	
75.7561	
7.87965	
18.0718	
36.1125	
69.4027	
65.6952	
25.9225	
66.036	
29.0886	
39.2246	
48.6027	
36.7648	
26.6883	
54.4079	
37.5984	
47.6285	
52.1684	
73.1602	
48.4163	
74.5822	
71.0022	
53.5026	
60.1205	
31.9801	
23.3938	
46.9564	
36.5886	
24.9543	
32.5719	
16.0018	
13.6024	
45.0312	
59.9533	
41.1872	
21.6	
60.8478	
61.7601	
59.1796	
28.975	
41.4172	
37.2415	
39.3991	
50.1443	
55.1007	
11.8702	
56.5003	
44.0087	
30.802	
19.8375	
47.6731	
54.1484	
25.6153	
28.0259	
21.5563	
25.6013	
53.1314	
45.8599	
31.2348	
39.4825	
32.2087	
39.9306	
23.8052	
44.3356	
43.017	
37.0853	
39.1754	
56.2241	
43.736	
17.2218	
30.9931	
19.6555	
26.3063	
47.9482	
64.3953	
45.9496	
42.0305	
20.9368	
21.5047	
29.0935	
48.3523	
33.3831	
35.7527	
32.9045	
36.2337	
60.0484	
49.8338	
52.2628	
54.5699	
55.7438	
49.9583	
45.8731	
57.8019	
56.8275	
48.1143	
52.7606	
36.3694	
49.0189	
14.2144	
16.0724	
14.2537	
47.3176	
48.9602	
43.4999	
42.3621	
43.1785	
39.917	
57.6197	
62.3803	
58.4539	
59.4761	
53.0579	
46.9796	
50.4642	
49.018	
51.9675	
38.5959	
60.0745	
58.8524	
66.0088	
62.2103	
47.037	
41.5855	
52.3166	
47.0558	
50.561	
45.998	
48.2153	
56.1839	
57.8077	
62.7303	
61.9678	
54.3583	
52.6645	
59.3541	
34.3354	
31.1854	
32.3295	
30.3358	
34.526	
45.7518	
38.6556	
61.3135	
67.2046	
63.93	
19.8712	
46.8324	
71.7713	
73.8165	
8.36006	
9.07805	
29.75	
10.8575	
13.8337	
35.3773	
43.0978	
30.2614	
40.437	
52.9026	
26.9617	
40.0932	
33.2821	
46.1248	
37.6792	
36.7385	
38.0554	
35.5076	
36.4314	
14.3052	
44.4724	
20.449	
45.3952	
55.2276	
38.1626	
56.0629	
20.5561	
18.4423	
17.4047	
42.5384	
56.5315	
13.1264	
13.2659	
57.2674	
53.5799	
64.3128	
57.7233	
29.1784	
26.3016	
66.8375	
27.0122	
47.4719	
64.5329	
57.1726	
13.3162	
42.0074	
62.9764	
59.4143	
45.1366	
43.9182	
42.5431	
69.5631	
67.7534	
69.3338	
42.2266	
49.8788	
51.5566	
56.4374	
46.4884	
74.1267	
71.0402	
69.1454	
62.7347	
62.3327	
42.7581	
50.2298	
37.6932	
44.1728	
44.7052	
51.7125	
42.5683	
55.9111	
46.7384	
64.3643	
66.3749	
67.2945	
68.254	
33.1812	
27.2378	
37.2059	
32.3023	
58.1909	
60.5366	
56.7574	
59.8144	
17.3613	
14.0805	
15.9997	
43.4405	
46.2995	
45.1143	
12.702	
15.0669	
34.3133	
30.2296	
38.2274	
31.3891	
35.7501	
43.509	
52.3343	
51.8955	
29.8214	
26.3425	
40.2185	
46.8727	
49.4766	
32.6931	
29.6164	
32.43	
30.816	
63.6726	
58.3167	
57.4549	
51.1981	
46.7472	
52.6553	
49.9778	
66.8754	
41.6434	
52.8306	
19.6457	
67.5732	
68.8777	
64.7056	
66.8389	
42.8214	
41.458	
42.2306	
46.6384	
43.0206	
29.4136	
57.7596	
57.9137	
61.1573	
60.7123	
40.8922	
37.3812	
56.9466	
57.8607	
61.481	
63.4419	
42.1367	
36.6612	
19.0283	
18.0444	
40.7276	
39.9178	
46.0238	
39.7898	
49.4613	
52.6929	
52.465	
55.9536	
11.6655	
13.1301	
10.8749	
10.0965	
27.3107	
36.4749	
39.2448	
54.8702	
48.2308	
53.9915	
42.1725	
17.8616	
20.4719	
52.0875	
48.3261	
48.3386	
38.4563	
50.4142	
48.5476	
50.8959	
42.4354	
73.3805	
71.3867	
42.6077	
53.779	
48.7996	
55.6104	
13.5411	
17.4413	
16.3235	
19.3218	
33.1488	
29.3205	
31.0447	
23.4589	
16.0117	
16.9788	
19.362	
20.8259	
23.0033	
9.36319	
11.3982	
33.8053	
35.8788	
50.5357	
48.504	
61.1792	
57.5171	
62.7233	
61.1793	
64.4654	
47.907	
54.5163	
36.7774	
36.6867	
50.6405	
42.0521	
39.1951	
42.2387	
39.3554	
69.8818	
67.1331	
54.0381	
51.8132	
36.6223	
55.012	
55.9448	
60.1499	
58.9928	
39.1223	
33.8192	
23.0782	
26.9364	
33.9767	
40.7313	
44.9076	
33.3173	
41.8227	
69.45	
67.7906	
71.2824	
42.2318	
44.0828	
16.5847	
21.6995	
21.3765	
23.6154	
39.7574	
40.315	
30.5277	
28.676	
24.838	
41.7137	
40.2116	
43.5786	
40.6643	
38.8966	
28.87	
38.7737	
34.5785	
54.9965	
50.8795	
52.3801	
42.2108	
45.2651	
44.8338	
43.2397	
7.08565	
9.31374	
11.782	
28.8346	
31.035	
18.288	
16.7568	
26.4874	
56.1752	
59.3723	
23.1368	
27.1272	
25.1653	
64.1433	
63.2771	
28.5576	
32.2316	
15.7494	
19.78	
21.3421	
24.9446	
55.9243	
52.9907	
51.1809	
39.911	
23.3079	
23.6688	
70.5385	
15.2904	
11.8379	
23.5758	
28.4503	
30.974	
32.3516	
33.8281	
35.8148	
25.5685	
23.8457	
22.7123	
31.8568	
34.4845	
42.3007	
51.5775	
37.8656	
49.4318	
22.4716	
24.7729	
61.5976	
63.5051	
66.0047	
66.0466	
66.4676	
61.7667	
67.296	
65.1167	
59.5526	
61.7573	
64.8374	
50.4585	
52.7884	
49.1946	
13.8503	
9.16432	
11.5131	
7.2843	
66.8313	
68.1972	
53.5328	
52.2324	
67.5632	
25.9812	
23.4181	
19.2698	
28.8552	
64.7148	
64.3739	
47.4149	
49.0528	
48.8928	
49.8758	
22.3627	
25.3487	
32.0568	
32.9617	
35.2251	
27.9002	
28.3279	
-0.419319	
-4.40745	
-7.90668	
-5.50957	
-15.7935	
-57.2751	
-12.0085	
-93.3641	
-74.8691	
-7.61596	
2.16512	
-91.0685	
-95.3804	
-72.1616	
-66.9607	
-95.1053	
-92.964	
-48.0779	
-67.3976	
-53.3718	
-91.7434	
-70.2943	
-96.4928	
-88.6563	
-98.7486	
-61.0515	
-47.4989	
-47.4229	
-32.5879	
-6.06474	
-5.67105	
-46.2885	
-21.9592	
-5.92548	
-10.2927	
-47.8112	
-9.52749	
-6.11642	
-7.71469	
-5.71316	
-15.1953	
-5.82996	
-15.3336	
-17.2965	
-8.97578	
-5.64148	
-27.6317	
-6.351	
-6.885	
-46.9837	
-7.52862	
-2.65947	
-69.8708	
-50.658	
-36.6811	
-27.081	
-42.1158	
-38.6969	
-37.0856	
-70.1422	
-71.2914	
-15.4521	
-3.66195	
-17.5139	
-39.3261	
-10.6298	
-13.5214	
-46.9964	
-33.5656	
-27.3679	
-16.8468	
-43.1588	
-11.1699	
-28.8005	
-10.8993	
-20.2258	
-33.5193	
-33.4472	
-40.1546	
-38.5219	
-44.5461	
-51.4521	
-49.1244	
-46.6527	
-56.6668	
-22.5356	
-19.4521	
-24.6358	
-24.2431	
-38.9376	
-30.82	
-29.242	
-36.1111	
-32.0908	
-56.4649	
-31.2042	
-47.5705	
-52.7009	
-14.03	
-25.08	
-27.1527	
-28.7836	
-35.9312	
-38.6847	
-28.0707	
-43.3385	
-58.6043	
-39.147	
-44.338	
-70.6432	
-81.8731	
-80.4765	
-53.2802	
-37.2158	
-66.4787	
-54.7151	
-37.6354	
-55.7832	
-61.6538	
-2.12152	
-2.31107	
-5.78762	
-27.015	
-10.7503	
-3.45315	
-13.561	
-6.0559	
-30.0867	
-11.0169	
-8.54779	
-5.98716	
-25.8807	
-4.53201	
-4.64695	
-7.67252	
-5.76165	
-72.5757	
-64.2415	
-68.1099	
-63.3949	
-49.9374	
-87.3148	
-87.3036	
-23.0398	
-20.8072	
-76.4021	
-53.1737	
-70.4452	
-57.3879	
-10.708	
-22.1141	
-4.01714	
-35.3808	
-27.2855	
-36.0471	
-8.647	
-36.0871	
-17.6325	
-8.4245	
-3.92754	
-10.7229	
-29.6725	
-32.5176	
-38.0112	
-61.6904	
-40.0037	
-13.3745	
-13.3069	
-1.66794	
-30.4736	
-8.1701	
-52.6255	
-56.6143	
-19.9058	
-11.2815	
-15.9278	
-18.8235	
-31.7721	
-5.44498	
-16.6033	
-20.7482	
-11.4834	
-12.8268	
-5.22289	
-52.7143	
-84.6074	
-87.708	
-62.0189	
-29.0989	
-23.0492	
-10.327	
-6.20078	
-69.1301	
-49.3463	
-57.6993	
-43.3873	
-8.92478	
-40.7156	
-30.3675	
-35.4575	
-3.50101	
-5.97008	
-74.6488	
-83.5488	
-16.9212	
-21.4827	
-13.6965	
-52.9056	
-67.537	
-61.5267	
-76.642	
-2.98339	
-14.3672	
-21.33	
-23.7554	
-81.3445	
-47.3801	
-58.3948	
-71.6778	
-68.9687	
-8.28171	
-17.9674	
-43.8949	
-44.592	
-64.437	
-79.1904	
-72.4738	
-14.424	
-50.3181	
-46.2324	
-38.0432	
-26.8348	
-2.40224	
-8.44005	
-8.63256	
-14.4996	
-11.6447	
-11.1077	
-13.0002	
-14.304	
-45.6606	
-61.2458	
-58.534	
-74.2092	
-70.2768	
-8.95326	
-78.4076	
-87.0051	
-77.7281	
-91.6847	
-14.0216	
-10.7749	
-11.7737	
-13.6829	
-7.95995	
-6.18474	
-40.2652	
-60.2549	
-46.6423	
-7.30556	
-14.3804	
-83.0336	
-32.5708	
-39.4455	
-27.8788	
-14.4851	
-16.1966	
-3.56122	
-15.1414	
-49.024	
-50.8386	
-21.1891	
-31.1059	
-29.0667	
-18.6112	
-44.8117	
-42.1087	
-31.3951	
-31.9388	
-19.2852	
-34.2006	
-4.78826	
-20.4952	
-27.8836	
-22.6869	
-18.9746	
-36.3169	
-7.16753	
-15.2199	
-74.3741	
-65.9408	
-12.4612	
-2.08093	
-8.74581	
-5.97442	
-12.6071	
-32.7821	
-40.0832	
-62.3805	
-3.93262	
-12.0456	
-13.3465	
-22.1359	
-35.0228	
-37.9265	
-59.1166	
-54.9201	
-21.0658	
-25.185	
-73.6429	
-76.7789	
-59.9582	
-68.1529	
-63.7166	
-39.7126	
-40.1904	
-31.9624	
-55.1862	
-31.8966	
-46.571	
-34.834	
-85.5357	
-78.8279	
-34.5547	
-34.943	
-60.9136	
-8.56327	
-36.6624	
-43.2051	
-27.7728	
-30.2697	
-15.1511	
-13.3236	
-48.4181	
-51.6068	
-48.2814	
-61.1236	
-19.5475	
-9.83554	
-4.54286	
-14.21	
-3.75253	
-24.5651	
-26.1577	
-42.362	
-43.1806	
-18.4601	
-23.6725	
-49.8192	
-55.2014	
-82.3214	
-19.9937	
-57.4097	
-68.729	
-57.4011	
-68.7636	
-57.0979	
-58.1977	
-30.9206	
-61.6498	
-95.9342	
-16.7382	
-11.4056	
-10.3735	
-6.55042	
-88.4603	
-52.7301	
-50.1812	
-49.2243	
-17.5773	
-8.06378	
-11.9978	
-11.204	
-46.1866	
-44.476	
-58.7925	
-12.2498	
-8.57182	
-56.8645	
-58.3538	
-17.657	
-9.85109	
-73.5012	
-76.6275	
-83.0792	
-19.6788	
-17.1406	
-21.9689	
-20.0801	
-74.4261	
-68.1421	
-15.242	
-51.8476	
-39.6782	
-49.1033	
-35.7975	
-88.5958	
-46.3435	
-43.076	
-34.5721	
-26.2757	
-21.7042	
-35.2661	
-36.6759	
-17.0328	
-70.2356	
-28.2549	
-22.3333	
-46.6347	
-38.3269	
-5.65546	
-9.11549	
-15.6129	
-39.8442	
-32.0218	
-53.218	
-55.7715	
-39.2352	
-52.3584	
-52.2492	
-53.5721	
-42.403	
-37.1036	
-34.4526	
-65.856	
-64.4882	
-43.8957	
-34.6616	
-3.9088	
-6.18303	
-13.1626	
-15.8511	
-19.7537	
-22.4949	
-98.4337	
-95.1939	
-20.3585	
-7.22194	
-2.72542	
-5.16597	
-86.632	
-86.6623	
-71.7259	
-75.9595	
-99.0785	
-6.55448	
-13.0232	
-18.7185	
-34.7989	
-64.8212	
-61.6249	
-64.3218	
-47.6141	
-60.7564	
-39.1623	
-55.0715	
-19.4328	
-3.78168	
-36.5446	
-9.74271	
-33.4785	
-35.8874	
-2.62269	
-13.5176	
-7.22461	
-28.3147	
-25.7131	
-25.6068	
-24.2425	
-27.144	
-25.6925	
-92.6408	
-98.0313	
-91.2172	
-97.4196	
-74.7654	
-78.2362	
-76.7896	
-83.6978	
-12.1718	
-11.9708	
-5.01072	
-31.8344	
-29.7433	
-29.7714	
-28.4823	
-81.9559	
-86.5668	
-81.0751	
-84.6547	
-4.87475	
-0.85767	
-8.09069	
-3.94695	
-88.6769	
-84.3363	
-90.4274	
-86.6133	
-17.2336	
-4.33375	
-7.05707	
3.05078	
-5.20486	
-16.7203	
-13.3079	
-27.5627	
-75.5599	
-71.3142	
-77.0958	
-78.9157	
-8.5047	
-3.22004	
-14.609	
-8.35186	
-42.6964	
-38.506	
-45.6758	
-43.2196	
3.42589	
6.19289	
5.83229	
1.98737	
-1.17654	
3.30565	
0.672139	
-2.5353	
0.41348	
-3.42125	
-4.82032	
2.5696	
-3.08977	
-5.55559	
-4.30595	
-0.252525	
				</DataArray>
				<DataArray type="Float64" Name="Source Strengths" NumberOfComponents="1" Format="ascii">
-9.64084	
8.294	
-1.53741	
11.3964	
15.9372	
2.36434	
7.96562	
-1.77191	
15.6398	
1.80146	
-9.87534	
10.7706	
2.45525	
28.6175	
4.09273	
3.42751	
-0.913503	
6.63944	
1.98786	
3.32583	
0.797152	
1.91645	
3.27317	
6.50154	
25.5634	
27.9191	
7.70235	
7.60602	
97.2712	
3.64223	
-0.0868882	
-1.49038	
20.1642	
3.70506	
202.616	
40.0297	
32.9613	
103.261	
14.4228	
4.8101	
-2.31305	
92.1301	
38.8648	
16.6272	
18.6713	
147.636	
1.41129	
233.949	
41.6689	
2.23831	
68.0242	
11.1377	
-0.709367	
20.8031	
-5.83392	
8.79572	
-5.97157	
3.1333	
3.06253	
0.320326	
20.2323	
-3.93351	
19.0545	
19.5354	
6.84329	
-2.77567	
-3.10774	
31.3115	
29.447	
-0.686689	
-1.74671	
38.0947	
-4.07433	
27.0088	
-1.74671	
28.9732	
6.72654	
31.6364	
1.29891	
3.33002	
3.17044	
16.252	
18.677	
-2.37327	
16.9436	
36.8975	
4.80582	
4.23005	
19.9796	
49.727	
44.752	
9.78954	
10.9404	
-1.37318	
32.2074	
59.4609	
18.943	
25.1177	
26.5483	
205.338	
191.716	
80.6728	
49.4326	
105.988	
146.045	
94.7866	
80.6855	
41.24	
23.8907	
8.84369	
93.8244	
92.1215	
109.207	
51.8737	
123.85	
95.9005	
100.168	
97.3929	
148.093	
149.795	
106.616	
106.401	
115.167	
209.395	
36.5097	
82.1322	
35.5227	
48.542	
24.1459	
22.3718	
68.8194	
182.149	
123.416	
57.4588	
26.2336	
13.019	
8.43856	
50.4527	
40.2683	
25.5423	
6.62577	
32.6569	
41.6007	
26.0335	
26.6197	
47.7557	
27.4223	
10.7609	
9.86367	
10.8214	
9.27603	
6.64823	
7.05884	
42.4043	
71.833	
90.3875	
32.4097	
37.1382	
39.7825	
80.1679	
58.0082	
174.993	
180.16	
111.129	
67.0225	
140.429	
100.58	
16.0334	
81.5857	
79.5993	
48.1554	
62.4694	
83.5384	
11.3771	
17.0254	
19.8678	
40.5953	
25.9065	
7.61245	
169.539	
21.5051	
88.254	
84.8888	
1.88987	
40.5453	
39.5113	
11.8771	
10.7843	
50.412	
62.6369	
48.04	
63.9967	
37.2778	
59.6749	
38.1288	
75.0092	
76.7783	
4.32081	
-0.614146	
4.40481	
40.614	
24.2531	
38.6198	
25.0709	
57.9359	
95.2851	
7.05229	
6.49085	
39.8454	
37.9159	
23.5069	
31.7599	
62.2244	
63.1237	
31.4055	
54.5865	
11.3611	
41.3298	
63.3809	
44.8619	
41.4044	
25.9217	
21.6556	
-3.12591	
10.6207	
15.4399	
16.5205	
26.9676	
27.9838	
20.7692	
26.3682	
16.1799	
17.1141	
16.0253	
15.352	
15.2007	
10.1317	
61.5428	
30.096	
43.2379	
50.0112	
52.2445	
14.4192	
20.1914	
102.633	
2.95409	
3.14415	
10.9394	
225.036	
153.916	
150.736	
61.2615	
68.439	
154.29	
92.4889	
92.046	
43.0047	
31.3256	
108.443	
94.7734	
6.88032	
6.4901	
98.1918	
126.097	
169.362	
13.3527	
3.15764	
11.9327	
61.4456	
58.5518	
71.6748	
31.1227	
32.2219	
39.5152	
-1.40052	
3.10746	
5.45345	
31.4313	
6.03464	
28.9657	
69.7144	
70.3951	
150.522	
5.26041	
4.55182	
4.91996	
144.306	
136.153	
94.6894	
95.9884	
204.787	
214.665	
55.823	
69.407	
129.257	
133.404	
14.1628	
3.58757	
35.146	
125.986	
138.235	
55.1403	
21.7616	
26.0259	
19.88	
69.5532	
49.8387	
151.49	
118.292	
179.076	
238.413	
111.215	
11.9391	
7.79217	
7.0091	
6.61179	
4.99825	
51.5732	
28.1025	
25.7622	
4.0083	
107.964	
73.318	
151.411	
124.976	
235.627	
200.422	
107.514	
251.915	
170.556	
220.584	
122.679	
6.25563	
6.24997	
80.9524	
38.2456	
83.1699	
62.5399	
44.7698	
35.7018	
46.9431	
22.9389	
3.2732	
3.2666	
5.87332	
32.573	
36.1469	
42.9569	
56.8063	
27.7864	
81.4103	
142.042	
115.914	
169.147	
4.50022	
3.56844	
3.9636	
3.41062	
9.69224	
8.68626	
13.2945	
12.7283	
53.069	
50.1793	
38.8146	
50.19	
9.19775	
7.61649	
173.167	
115.486	
147.626	
82.7718	
71.252	
73.8415	
47.059	
33.291	
65.7253	
56.6511	
26.5428	
28.7839	
72.3697	
70.0637	
22.1406	
19.4872	
48.8948	
54.0657	
15.2459	
16.3564	
15.3869	
6.53282	
-3.97257	
25.8908	
17.4572	
191.797	
86.4383	
155.578	
13.7593	
15.8936	
79.8086	
63.2604	
54.3628	
32.6398	
32.6269	
12.5743	
194.246	
195.481	
178.223	
176.588	
84.1583	
47.048	
58.3266	
58.0429	
22.3803	
34.4347	
33.342	
41.9262	
101.737	
218.749	
184.499	
11.3559	
9.72464	
9.82443	
7.74224	
6.7658	
5.45044	
5.78773	
5.04981	
170.753	
165.563	
74.5782	
85.5704	
49.2426	
74.5794	
49.9972	
75.8812	
18.0823	
35.2621	
26.4334	
17.7274	
9.78021	
28.092	
16.1736	
32.7702	
208.313	
102.22	
212.023	
105.246	
62.8387	
57.885	
65.1835	
29.9216	
29.9631	
65.8737	
35.4089	
71.6306	
45.2395	
51.4341	
26.1574	
161.342	
258.047	
126.423	
236.539	
98.6116	
201.143	
165.796	
95.5746	
197.106	
131.899	
-3.94432	
-9.6277	
-19.2416	
-3.20378	
-23.4695	
-16.904	
-2.80109	
-8.79869	
-80.0454	
-8.81582	
-24.42	
-13.2268	
-40.7842	
-7.76914	
-104.761	
-47.6442	
-112.084	
-87.2338	
-79.6069	
-72.7081	
-65.2824	
-57.7678	
-54.8946	
-55.5413	
-33.8317	
6.66171	
-20.6825	
-16.6544	
-26.9936	
-132.642	
-69.1421	
-59.4973	
-51.0179	
-74.4814	
-100.154	
21.2406	
58.4863	
-96.9172	
-121.098	
-6.34348	
-3.11424	
-5.30273	
-7.01663	
-118.818	
-124.987	
-20.6841	
-22.5423	
-20.0256	
-27.6041	
-28.271	
-36.2807	
-30.3815	
-43.3917	
-51.5862	
-54.4323	
-44.17	
-57.3868	
-51.3958	
-47.9593	
-60.704	
-62.963	
-66.0848	
-68.2207	
-71.9493	
-86.7203	
-75.7654	
-105.015	
-110.617	
-110.854	
-87.8586	
-17.1426	
-44.1267	
-37.4379	
-42.4352	
-83.4892	
-95.6524	
-122.076	
-82.3314	
22.0924	
17.3721	
25.0775	
15.9238	
-35.1541	
28.8396	
26.4798	
1.03888	
30.1463	
27.2023	
17.342	
8.67623	
12.8487	
55.1522	
-54.6269	
-2.2587	
36.0727	
20.2462	
20.3112	
20.517	
15.4259	
-21.7893	
6.18438	
62.0884	
-38.7451	
37.492	
28.18	
-9.84205	
31.8674	
41.4576	
-32.5626	
-30.9263	
-30.2964	
-67.5089	
-52.1247	
-27.3577	
-25.8276	
-80.8137	
-74.2977	
-74.6959	
-116.559	
-120.425	
-115.955	
-57.7473	
27.4965	
-48.7394	
11.1898	
20.0921	
-31.6129	
-38.9112	
-35.2379	
-31.1233	
-98.1642	
-101.602	
-3.22319	
-3.73627	
-35.1738	
-85.5744	
-84.962	
-85.8834	
-84.9237	
-87.6228	
-88.2238	
-17.7097	
-21.6502	
-19.8841	
-5.40459	
-52.4416	
-22.197	
-33.8382	
-34.7064	
-28.0448	
-28.9763	
-25.0383	
-31.4056	
-37.1858	
-60.7073	
-60.0231	
-64.4908	
-65.0842	
-78.3067	
-8.39452	
-7.83042	
-7.70611	
-83.0459	
-5.38449	
-6.18074	
-31.8899	
-30.8349	
-32.187	
-24.5898	
-101.201	
-46.2525	
-41.7688	
-45.0017	
-46.0065	
-75.8192	
-73.7444	
-79.2303	
-27.0005	
-23.0826	
-28.3201	
-28.9816	
-31.2841	
-33.209	
-42.9331	
-107.02	
-106.392	
-62.0041	
-36.939	
-36.2495	
-19.6776	
-18.8279	
-24.625	
-23.6756	
-26.2457	
-2.24439	
-2.95448	
2.36167	
30.7768	
-45.7144	
53.858	
15.2547	
11.8567	
-75.7863	
-67.9099	
-73.8385	
-22.8293	
18.8493	
16.2703	
31.07	
4.26772	
9.73753	
7.18635	
9.69961	
-22.8851	
-23.9903	
-20.4464	
23.5184	
26.8043	
-14.8396	
-12.4125	
-34.6934	
-33.9751	
-47.7346	
-47.0252	
14.9152	
17.7338	
-18.203	
-17.5615	
-80.2132	
-46.2832	
8.38832	
79.7569	
-47.8243	
-12.0603	
-70.3046	
-77.1066	
0.772979	
-8.03882	
11.175	
-40.3013	
0.848033	
1.08957	
-95.3026	
-90.0705	
-91.793	
55.4316	
-28.2765	
1.82989	
-66.1684	
-84.8122	
-64.0892	
-80.1571	
4.4421	
5.90118	
-10.6705	
4.13103	
-13.747	
-11.1317	
-10.8248	
37.4568	
29.8574	
20.3898	
-44.883	
-10.6579	
-9.80101	
-74.3458	
-76.1105	
-77.2401	
52.7771	
-65.3142	
43.8569	
70.2686	
12.0061	
40.6639	
-33.8013	
-48.094	
-46.3273	
-51.9897	
-41.7045	
48.5522	
10.1502	
91.9032	
40.3755	
-1.46223	
-44.8093	
-46.2466	
-47.9079	
-14.985	
20.5924	
7.86164	
-68.6983	
-71.173	
-91.7144	
27.2749	
-42.2541	
78.1424	
20.5481	
10.4165	
80.5905	
-83.2775	
-83.0751	
-50.8593	
39.6601	
25.31	
-13.8413	
-63.3931	
-52.4362	
-50.6436	
-91.3336	
-88.6796	
21.0186	
17.2435	
-25.6567	
-34.3411	
-77.05	
-79.5368	
62.1998	
-65.8671	
61.1515	
17.4272	
-1.27351	
1.67206	
-16.2957	
-14.5761	
-14.6402	
-13.6549	
-12.278	
11.581	
23.1319	
-27.9755	
41.3171	
-45.0138	
-40.4817	
-26.5017	
-26.3483	
-41.1002	
-39.4781	
29.6299	
70.8875	
-61.4081	
52.7999	
9.98366	
39.5599	
-24.5174	
40.4446	
-62.724	
-83.8352	
-82.4974	
-91.415	
22.1625	
8.54128	
-78.4022	
-79.9459	
-3.09411	
54.4857	
42.3364	
-52.9762	
-49.6189	
-45.4898	
-43.115	
-38.5975	
-97.6472	
-99.3577	
57.7527	
17.0279	
57.2262	
-59.4467	
-10.5308	
-11.1442	
-11.6539	
-12.4645	
-53.8188	
-57.3131	
-64.0163	
-64.368	
-51.0033	
-50.715	
-67.9344	
-56.8791	
-60.324	
-63.6507	
-49.0475	
-51.4327	
54.2862	
-41.4435	
-45.8774	
53.7742	
25.0191	
-96.7873	
-96.276	
62.9119	
-48.1625	
43.0673	
12.5051	
10.4161	
4.41024	
4.0688	
-63.3031	
-20.3744	
-13.6774	
-16.9731	
-14.4029	
-2.69544	
-4.13401	
-86.1495	
-85.5952	
19.3718	
19.7195	
-22.5403	
-23.0564	
7.0507	
16.1347	
-38.9494	
-44.5189	
-40.2685	
-49.5246	
-4.6305	
-6.0028	
-5.28681	
-4.01743	
-3.80511	
-67.9226	
-74.6771	
-66.5236	
-71.379	
-45.0002	
-70.5349	
-44.0353	
-41.5051	
-12.9197	
14.7437	
-3.0881	
21.5733	
-15.4306	
-11.6421	
-16.2169	
-14.3187	
7.51647	
-12.376	
-13.085	
86.8539	
59.3009	
-56.4716	
67.2014	
-50.5991	
69.7081	
-50.5454	
74.4514	
17.5668	
46.6326	
-25.1695	
18.1505	
-15.7749	
22.667	
0.505158	
54.4216	
-1.78977	
27.4135	
-16.8638	
18.4121	
-15.5728	
21.758	
76.4605	
-58.4042	
-11.3951	
-15.9361	
-2.36248	
1.53955	
-8.29252	
9.64377	
-10.7693	
-1.7996	
-15.6386	
1.77405	
9.87827	
-7.96413	
-16.5615	
1.22242	
9.46236	
-8.71342	
4.628	
16.2318	
12.2714	
-4.864	
9.07528	
0.868204	
-8.94558	
15.9094	
3.88671	
-16.7937	
-5.45038	
11.562	
126.705	
35.4441	
214.955	
153.219	
160.334	
129.956	
61.1752	
49.9984	
65.7369	
206.886	
28.2326	
55.3472	
291.092	
139.036	
193.522	
99.9174	
134.684	
167.72	
105.795	
278.039	
184.411	
325.944	
104.222	
67.8127	
127.683	
104.235	
168.868	
134.028	
212.69	
164.585	
168.134	
146.523	
90.0966	
50.1393	
87.9566	
136.571	
99.8505	
103.857	
38.4113	
30.1169	
99.8236	
135.016	
90.4123	
47.8494	
144.999	
147.424	
122.661	
210.727	
124.457	
165.777	
290.988	
226.044	
167.923	
75.2797	
131.719	
240.011	
162.203	
58.9673	
283.204	
281.589	
132.474	
134.13	
121.515	
122.004	
286.715	
295.291	
209.287	
191.763	
226.134	
199.978	
125.542	
266.419	
198.577	
358.525	
73.7543	
103.796	
82.1232	
35.2974	
177.361	
113.572	
144.85	
256.101	
129.066	
82.6141	
94.6187	
47.3573	
42.6225	
54.9115	
88.0777	
60.1451	
67.0502	
62.3573	
64.141	
128.993	
92.6196	
93.7534	
158.52	
157.16	
120.55	
126.622	
120.747	
118.26	
147.52	
147.601	
106.427	
146.198	
46.9839	
42.8392	
35.5457	
107.947	
110.554	
134.141	
133.996	
124.34	
124.577	
152.427	
128.123	
154.514	
126.067	
126.947	
105.915	
93.5434	
110.426	
95.9148	
71.7724	
157.426	
153.998	
126.008	
147.395	
117.425	
104.901	
114.667	
102.981	
93.6581	
102.798	
104.808	
119.664	
128.014	
123.006	
130.978	
97.2217	
98.1072	
164.114	
65.4258	
78.2801	
76.3513	
73.3628	
65.9504	
100.81	
83.2314	
140.43	
129.658	
131.999	
40.1187	
82.8758	
140.411	
170.149	
57.2302	
59.8371	
55.6077	
78.9279	
77.2828	
209.249	
123.481	
213.718	
288.21	
162.998	
161.389	
208.975	
220.321	
127.736	
222.664	
255.446	
255.017	
86.4319	
87.077	
102.805	
236.636	
50.0957	
124.317	
137.625	
70.9848	
100.063	
61.4645	
95.103	
93.7934	
103.614	
108.105	
34.1411	
42.2217	
105.635	
100.222	
119.854	
130.5	
54.0188	
64.4496	
123.262	
61.2143	
268.98	
119.876	
132.516	
74.1801	
74.1912	
113.514	
131.032	
84.6101	
78.2023	
76.227	
130.513	
126.39	
129.522	